<LesHouchesEvents version="3.0">
<header>
<!--
#*********************************************************************
#                                                                    *
#                        MadGraph5_aMC@NLO                           *
#                                                                    *
#                           Going Beyond                             *
#                                                                    *
#                   http://madgraph.hep.uiuc.edu                     *
#                   http://madgraph.phys.ucl.ac.be                   *
#                   http://amcatnlo.cern.ch                          *
#                                                                    *
#                     The MadGraph5_aMC@NLO team                     *
#                                                                    *
#....................................................................*
#                                                                    *
# This file contains all the information necessary to reproduce      *
# the events generated:                                              *
#                                                                    *
# 1. software version                                                *
# 2. proc_card          : code generation info including model       *
# 3. param_card         : model primary parameters in the LH format  *
# 4. run_card           : running parameters (collider and cuts)     *
# 5. pythia_card        : present only if pythia has been run        *
# 6. pgs_card           : present only if pgs has been run           *
# 7. delphes_cards      : present only if delphes has been run       *
#                                                                    *
#                                                                    *
#*********************************************************************
-->
<MGVersion>
#5.2.2.3
</MGVersion>
<MG5ProcCard>
#************************************************************
#*                     MadGraph5_aMC@NLO                    *
#*                                                          *
#*                *                       *                 *
#*                  *        * *        *                   *
#*                    * * * * 5 * * * *                     *
#*                  *        * *        *                   *
#*                *                       *                 *
#*                                                          *
#*                                                          *
#*         VERSION 2.2.3                 2015-02-10         *
#*                                                          *
#*    The MadGraph5_aMC@NLO Development Team - Find us at   *
#*    https://server06.fynu.ucl.ac.be/projects/madgraph     *
#*                                                          *
#************************************************************
#*                                                          *
#*               Command File for MadGraph5_aMC@NLO         *
#*                                                          *
#*     run as ./bin/mg5_aMC  filename                       *
#*                                                          *
#************************************************************
set group_subprocesses Auto
set ignore_six_quark_processes False
set loop_optimized_output True
set gauge unitary
set complex_mass_scheme False
import model sm
define p = g u c d s u~ c~ d~ s~
define j = g u c d s u~ c~ d~ s~
define l+ = e+ mu+
define l- = e- mu-
define vl = ve vm vt
define vl~ = ve~ vm~ vt~
import model Zprime_UFO
generate p p > zph, zph > j j
add process p p > zph, zph > b b~
output Dijet_signal
</MG5ProcCard>
<MGProcCard>
#*********************************************************************
#                        MadGraph/MadEvent                           *
#                   http://madgraph.hep.uiuc.edu                     *
#                                                                    *
#                          proc_card.dat                             *
#*********************************************************************
#                                                                    *
#            This Files is generated by MADGRAPH 5                   *
#                                                                    *
# WARNING: This Files is generated for MADEVENT (compatibility issue)*
#          This files is NOT a valid MG4 proc_card.dat               *
#          Running this in MG4 will NEVER reproduce the result of MG5*
#                                                                    *
#*********************************************************************
#*********************************************************************
# Process(es) requested : mg2 input                                  *
#*********************************************************************
# Begin PROCESS # This is TAG. Do not modify this line
p p > zph , zph > j j           #Process
# Be carefull the coupling are here in MG5 convention
          
end_coup           # End the couplings input

done               # this tells MG there are no more procs
# End PROCESS  # This is TAG. Do not modify this line
#*********************************************************************
# Model information                                                  *
#*********************************************************************
# Begin MODEL  # This is TAG. Do not modify this line
Zprime_UFO
# End   MODEL  # This is TAG. Do not modify this line
#*********************************************************************
# Start multiparticle definitions                                    *
#*********************************************************************
# Begin MULTIPARTICLES # This is TAG. Do not modify this line

# End  MULTIPARTICLES # This is TAG. Do not modify this line
</MGProcCard>
<MGRunCard>
#*********************************************************************
#                       MadGraph5_aMC@NLO                            *
#                                                                    *
#                     run_card.dat MadEvent                          *
#                                                                    *
#  This file is used to set the parameters of the run.               *
#                                                                    *
#  Some notation/conventions:                                        *
#                                                                    *
#   Lines starting with a '# ' are info or comments                  *
#                                                                    *
#   mind the format:   value    = variable     ! comment             *
#*********************************************************************
#
#*******************                                                 
# Running parameters
#*******************                                                 
#                                                                    
#*********************************************************************
# Tag name for the run (one word)                                    *
#*********************************************************************
  tag_1     = run_tag ! name of the run 
#*********************************************************************
# Run to generate the grid pack                                      *
#*********************************************************************
  .false.     = gridpack  !True = setting up the grid pack
#*********************************************************************
# Number of events and rnd seed                                      *
# Warning: Do not generate more than 1M events in a single run       *
# If you want to run Pythia, avoid more than 50k events in a run.    *
#*********************************************************************
  2000 = nevents ! Number of unweighted events requested 
 1173 = iseed   ! rnd seed (0=assigned automatically=default))
#*********************************************************************
# Collider type and energy                                           *
# lpp: 0=No PDF, 1=proton, -1=antiproton, 2=photon from proton,      *
#                                         3=photon from electron     *
#*********************************************************************
        1     = lpp1    ! beam 1 type 
        1     = lpp2    ! beam 2 type
     4000     = ebeam1  ! beam 1 total energy in GeV
     4000     = ebeam2  ! beam 2 total energy in GeV
#*********************************************************************
# Beam polarization from -100 (left-handed) to 100 (right-handed)    *
#*********************************************************************
        0     = polbeam1 ! beam polarization for beam 1
        0     = polbeam2 ! beam polarization for beam 2
#*********************************************************************
# PDF CHOICE: this automatically fixes also alpha_s and its evol.    *
#*********************************************************************
 'nn23lo1'    = pdlabel     ! PDF set                                     
 230000    = lhaid     ! if pdlabel=lhapdf, this is the lhapdf number
#*********************************************************************
# Renormalization and factorization scales                           *
#*********************************************************************
 F        = fixed_ren_scale  ! if .true. use fixed ren scale
 F        = fixed_fac_scale  ! if .true. use fixed fac scale
 91.1880  = scale            ! fixed ren scale
 91.1880  = dsqrt_q2fact1    ! fixed fact scale for pdf1
 91.1880  = dsqrt_q2fact2    ! fixed fact scale for pdf2
 1        = scalefact        ! scale factor for event-by-event scales
#*********************************************************************
# Matching - Warning! ickkw > 1 is still beta
#*********************************************************************
 0        = ickkw            ! 0 no matching, 1 MLM, 2 CKKW matching
 1        = highestmult      ! for ickkw=2, highest mult group
 1        = ktscheme         ! for ickkw=1, 1 Durham kT, 2 Pythia pTE
 1        = alpsfact         ! scale factor for QCD emission vx
 F        = chcluster        ! cluster only according to channel diag
 T        = pdfwgt           ! for ickkw=1, perform pdf reweighting
 5        = asrwgtflavor     ! highest quark flavor for a_s reweight
 T        = clusinfo         ! include clustering tag in output
 3.0      = lhe_version       ! Change the way clustering information pass to shower.        
#*********************************************************************
#**********************************************************
#
#**********************************************************
# Automatic ptj and mjj cuts if xqcut > 0
# (turn off for VBF and single top processes)
#**********************************************************
   T  = auto_ptj_mjj  ! Automatic setting of ptj and mjj
#**********************************************************
#                                                                    
#**********************************
# BW cutoff (M+/-bwcutoff*Gamma)
#**********************************
  15  = bwcutoff      ! (M+/-bwcutoff*Gamma)
#**********************************************************
# Apply pt/E/eta/dr/mij cuts on decay products or not
# (note that etmiss/ptll/ptheavy/ht/sorted cuts always apply)
#**********************************************************
   T  = cut_decays    ! Cut decay products 
#*************************************************************
# Number of helicities to sum per event (0 = all helicities)
# 0 gives more stable result, but longer run time (needed for
# long decay chains e.g.).
# Use >=2 if most helicities contribute, e.g. pure QCD.
#*************************************************************
   0  = nhel          ! Number of helicities used per event
#*******************                                                 
# Standard Cuts
#*******************                                                 
#                                                                    
#*********************************************************************
# Minimum and maximum pt's (for max, -1 means no cut)                *
#*********************************************************************
 20  = ptj       ! minimum pt for the jets 
  0  = ptb       ! minimum pt for the b 
 10  = pta       ! minimum pt for the photons 
 10  = ptl       ! minimum pt for the charged leptons 
  0  = misset    ! minimum missing Et (sum of neutrino's momenta)
  0  = ptheavy   ! minimum pt for one heavy final state
 1.0 = ptonium   ! minimum pt for the quarkonium states
 -1  = ptjmax    ! maximum pt for the jets
 -1  = ptbmax    ! maximum pt for the b
 -1  = ptamax    ! maximum pt for the photons
 -1  = ptlmax    ! maximum pt for the charged leptons
 -1  = missetmax ! maximum missing Et (sum of neutrino's momenta)
#*********************************************************************
# Minimum and maximum E's (in the center of mass frame)              *
#*********************************************************************
  0  = ej     ! minimum E for the jets 
  0  = eb     ! minimum E for the b 
  0  = ea     ! minimum E for the photons 
  0  = el     ! minimum E for the charged leptons 
 -1   = ejmax ! maximum E for the jets
 -1   = ebmax ! maximum E for the b
 -1   = eamax ! maximum E for the photons
 -1   = elmax ! maximum E for the charged leptons
#*********************************************************************
# Maximum and minimum absolute rapidity (for max, -1 means no cut)   *
#*********************************************************************
   5  = etaj    ! max rap for the jets 
  -1  = etab    ! max rap for the b
 2.5  = etaa    ! max rap for the photons 
 2.5  = etal    ! max rap for the charged leptons 
 0.6  = etaonium ! max rap for the quarkonium states
   0  = etajmin ! min rap for the jets
   0  = etabmin ! min rap for the b
   0  = etaamin ! min rap for the photons
   0  = etalmin ! main rap for the charged leptons
#*********************************************************************
# Minimum and maximum DeltaR distance                                *
#*********************************************************************
 0.4 = drjj    ! min distance between jets 
 0   = drbb    ! min distance between b's 
 0.4 = drll    ! min distance between leptons 
 0.4 = draa    ! min distance between gammas 
 0   = drbj    ! min distance between b and jet 
 0.4 = draj    ! min distance between gamma and jet 
 0.4 = drjl    ! min distance between jet and lepton 
 0   = drab    ! min distance between gamma and b 
 0   = drbl    ! min distance between b and lepton 
 0.4 = dral    ! min distance between gamma and lepton 
 -1  = drjjmax ! max distance between jets
 -1  = drbbmax ! max distance between b's
 -1  = drllmax ! max distance between leptons
 -1  = draamax ! max distance between gammas
 -1  = drbjmax ! max distance between b and jet
 -1  = drajmax ! max distance between gamma and jet
 -1  = drjlmax ! max distance between jet and lepton
 -1  = drabmax ! max distance between gamma and b
 -1  = drblmax ! max distance between b and lepton
 -1  = dralmax ! maxdistance between gamma and lepton
#*********************************************************************
# Minimum and maximum invariant mass for pairs                       *
# WARNING: for four lepton final state mmll cut require to have      *
#          different lepton masses for each flavor!                  *           
#*********************************************************************
 0   = mmjj    ! min invariant mass of a jet pair 
 0   = mmbb    ! min invariant mass of a b pair 
 0   = mmaa    ! min invariant mass of gamma gamma pair
 0   = mmll    ! min invariant mass of l+l- (same flavour) lepton pair
 -1  = mmjjmax ! max invariant mass of a jet pair
 -1  = mmbbmax ! max invariant mass of a b pair
 -1  = mmaamax ! max invariant mass of gamma gamma pair
 -1  = mmllmax ! max invariant mass of l+l- (same flavour) lepton pair
#*********************************************************************
# Minimum and maximum invariant mass for all letpons                 *
#*********************************************************************
 0   = mmnl    ! min invariant mass for all letpons (l+- and vl) 
 -1  = mmnlmax ! max invariant mass for all letpons (l+- and vl) 
#*********************************************************************
# Minimum and maximum pt for 4-momenta sum of leptons                *
#*********************************************************************
 0   = ptllmin  ! Minimum pt for 4-momenta sum of leptons(l and vl)
 -1  = ptllmax  ! Maximum pt for 4-momenta sum of leptons(l and vl)
#*********************************************************************
# Inclusive cuts                                                     *
#*********************************************************************
 0  = xptj ! minimum pt for at least one jet  
 0  = xptb ! minimum pt for at least one b 
 0  = xpta ! minimum pt for at least one photon 
 0  = xptl ! minimum pt for at least one charged lepton 
#*********************************************************************
# Control the pt's of the jets sorted by pt                          *
#*********************************************************************
 0   = ptj1min ! minimum pt for the leading jet in pt
 0   = ptj2min ! minimum pt for the second jet in pt
 0   = ptj3min ! minimum pt for the third jet in pt
 0   = ptj4min ! minimum pt for the fourth jet in pt
 -1  = ptj1max ! maximum pt for the leading jet in pt 
 -1  = ptj2max ! maximum pt for the second jet in pt
 -1  = ptj3max ! maximum pt for the third jet in pt
 -1  = ptj4max ! maximum pt for the fourth jet in pt
 0   = cutuse  ! reject event if fails any (0) / all (1) jet pt cuts
#*********************************************************************
# Control the pt's of leptons sorted by pt                           *
#*********************************************************************
 0   = ptl1min ! minimum pt for the leading lepton in pt
 0   = ptl2min ! minimum pt for the second lepton in pt
 0   = ptl3min ! minimum pt for the third lepton in pt
 0   = ptl4min ! minimum pt for the fourth lepton in pt
 -1  = ptl1max ! maximum pt for the leading lepton in pt 
 -1  = ptl2max ! maximum pt for the second lepton in pt
 -1  = ptl3max ! maximum pt for the third lepton in pt
 -1  = ptl4max ! maximum pt for the fourth lepton in pt
#*********************************************************************
# Control the Ht(k)=Sum of k leading jets                            *
#*********************************************************************
 0   = htjmin ! minimum jet HT=Sum(jet pt)
 -1  = htjmax ! maximum jet HT=Sum(jet pt)
 0   = ihtmin  !inclusive Ht for all partons (including b)
 -1  = ihtmax  !inclusive Ht for all partons (including b)
 0   = ht2min ! minimum Ht for the two leading jets
 0   = ht3min ! minimum Ht for the three leading jets
 0   = ht4min ! minimum Ht for the four leading jets
 -1  = ht2max ! maximum Ht for the two leading jets
 -1  = ht3max ! maximum Ht for the three leading jets
 -1  = ht4max ! maximum Ht for the four leading jets
#***********************************************************************
# Photon-isolation cuts, according to hep-ph/9801442                   *
# When ptgmin=0, all the other parameters are ignored                  *
# When ptgmin>0, pta and draj are not going to be used                 *
#***********************************************************************
   0 = ptgmin ! Min photon transverse momentum
 0.4 = R0gamma ! Radius of isolation code
 1.0 = xn ! n parameter of eq.(3.4) in hep-ph/9801442
 1.0 = epsgamma ! epsilon_gamma parameter of eq.(3.4) in hep-ph/9801442
 .true. = isoEM ! isolate photons from EM energy (photons and leptons)
#*********************************************************************
# WBF cuts                                                           *
#*********************************************************************
 0   = xetamin ! minimum rapidity for two jets in the WBF case  
 0   = deltaeta ! minimum rapidity for two jets in the WBF case 
#*********************************************************************
# KT DURHAM CUT                                                      *
#*********************************************************************
 -1    =  ktdurham        
 0.4  =  dparameter 
#*********************************************************************
# maximal pdg code for quark to be considered as a light jet         *
# (otherwise b cuts are applied)                                     *
#*********************************************************************
 4 = maxjetflavor    ! Maximum jet pdg code
#*********************************************************************
# Jet measure cuts                                                   *
#*********************************************************************
 0   = xqcut   ! minimum kt jet measure between partons
#*********************************************************************
#
#*********************************************************************
# Store info for systematics studies                                 *
# WARNING: If use_syst is T, matched Pythia output is                *
#          meaningful ONLY if plotted taking matchscale              *
#          reweighting into account!                                 *
#*********************************************************************
   F  = use_syst      ! Enable systematics studies
#
#**************************************
# Parameter of the systematics study
#  will be used by SysCalc (if installed)
#**************************************                                  
#
0.5 1 2 = sys_scalefact  # factorization/renormalization scale factor
0.5 1 2 = sys_alpsfact  # \alpha_s emission scale factors
30 50 = sys_matchscale # variation of merging scale
# PDF sets and number of members (0 or none for all members).
CT10nlo.LHgrid = sys_pdf # matching scales
# MSTW2008nlo68cl.LHgrid 1  = sys_pdf
</MGRunCard>
<slha>
######################################################################
## PARAM_CARD AUTOMATICALY GENERATED BY MG5 FOLLOWING UFO MODEL   ####
######################################################################
##                                                                  ##
##  Width set on Auto will be computed following the information    ##
##        present in the decay.py files of the model.               ##
##        See  arXiv:1402.1178 for more details.                    ##
##                                                                  ##
######################################################################

###################################
## INFORMATION FOR CKMBLOCK
###################################
Block ckmblock 
    1 2.277360e-01 # cabi 

###################################
## INFORMATION FOR FRBLOCK
###################################
Block frblock 
    1 6.000000e-01 # gz 

###################################
## INFORMATION FOR MASS
###################################
Block mass 
    1 5.040000e-03 # MD 
    2 2.550000e-03 # MU 
    3 1.010000e-01 # MS 
    4 1.270000e+00 # MC 
    5 4.700000e+00 # MB 
    6 1.720000e+02 # MT 
   11 5.110000e-04 # Me 
   13 1.056600e-01 # MM 
   15 1.777000e+00 # MTA 
   23 9.118760e+01 # MZ 
   25 1.200000e+02 # MH 
  10030 8.000000e+02 # MZph 
  10031 3.000000e+02 # MZpl 
## Dependent parameters, given by model restrictions.
## Those values should be edited following the 
## analytical expression. MG5 ignores those values 
## but they are important for interfacing the output of MG5
## to external program such as Pythia.
  12 0.000000 # ve : 0.0 
  14 0.000000 # vm : 0.0 
  16 0.000000 # vt : 0.0 
  21 0.000000 # g : 0.0 
  22 0.000000 # a : 0.0 
  24 79.824360 # w+ : cmath.sqrt(MZ__exp__2/2. + cmath.sqrt(MZ__exp__4/4. - (aEW*cmath.pi*MZ__exp__2)/(Gf*sqrt__2))) 

###################################
## INFORMATION FOR SMINPUTS
###################################
Block sminputs 
    1 1.279000e+02 # aEWM1 
    2 1.166370e-05 # Gf 
    3 1.184000e-01 # aS 

###################################
## INFORMATION FOR YUKAWA
###################################
Block yukawa 
    1 5.040000e-03 # ymdo 
    2 2.550000e-03 # ymup 
    3 1.010000e-01 # yms 
    4 1.270000e+00 # ymc 
    5 4.700000e+00 # ymb 
    6 1.720000e+02 # ymt 
   11 5.110000e-04 # yme 
   13 1.056600e-01 # ymm 
   15 1.777000e+00 # ymtau 

###################################
## INFORMATION FOR DECAY
###################################
DECAY   6 1.508336e+00 # WT 
DECAY  23 2.495200e+00 # WZ 
DECAY  24 2.085000e+00 # WW 
DECAY  25 5.753088e-03 # WH 
## Dependent parameters, given by model restrictions.
## Those values should be edited following the 
## analytical expression. MG5 ignores those values 
## but they are important for interfacing the output of MG5
## to external program such as Pythia.
DECAY  1 0.000000 # d : 0.0 
DECAY  2 0.000000 # u : 0.0 
DECAY  3 0.000000 # s : 0.0 
DECAY  4 0.000000 # c : 0.0 
DECAY  5 0.000000 # b : 0.0 
DECAY  11 0.000000 # e- : 0.0 
DECAY  12 0.000000 # ve : 0.0 
DECAY  13 0.000000 # mu- : 0.0 
DECAY  14 0.000000 # vm : 0.0 
DECAY  15 0.000000 # ta- : 0.0 
DECAY  16 0.000000 # vt : 0.0 
DECAY  21 0.000000 # g : 0.0 
DECAY  22 0.000000 # a : 0.0 
DECAY  10030 0.308725 # zph : (gz__exp__2*MZph*(5 + cmath.sqrt(1 - (4*MT__exp__2)/MZph__exp__2)))/(144.*cmath.pi) 
DECAY  10031 0.132629 # zpl : (5*gz__exp__2*MZpl)/(144.*cmath.pi) 
#===========================================================
# QUANTUM NUMBERS OF NEW STATE(S) (NON SM PDG CODE)
#===========================================================

Block QNUMBERS 10030  # zph 
        1 0  # 3 times electric charge
        2 3  # number of spin states (2S+1)
        3 1  # colour rep (1: singlet, 3: triplet, 8: octet)
        4 0  # Particle/Antiparticle distinction (0=own anti)
Block QNUMBERS 10031  # zpl 
        1 0  # 3 times electric charge
        2 3  # number of spin states (2S+1)
        3 1  # colour rep (1: singlet, 3: triplet, 8: octet)
        4 0  # Particle/Antiparticle distinction (0=own anti)
</slha>
## END BANNER##
<MGGenerationInfo>
#  Number of Events        :         4122
#  Integrated weight (pb)  :  0.19824E+01
#  Max wgt                 :  0.65362E-03
#  Average wgt             :  0.48093E-03
</MGGenerationInfo>
</header>
<init>
     2212     2212  0.40000000000E+04  0.40000000000E+04 0 0  247000  247000 2   1
  0.19798445434E+01  0.39785647233E-02  0.65362090000E-03   0
</init>
<event>
 5   0  0.6256781E-03  0.8001138E+03  0.7818609E-02  0.9559852E-01
       -2   -1    0    0    0  501  0.00000000000E+00  0.00000000000E+00  0.63808549372E+02  0.63808549423E+02  0.25500000920E-02 0. -1.
        2   -1    0    0  501    0  0.00000000000E+00  0.00000000000E+00 -0.25082146591E+04  0.25082146591E+04  0.25500000920E-02 0.  1.
    10030    2    1    2    0    0  0.00000000000E+00  0.00000000000E+00 -0.24444061097E+04  0.25720232085E+04  0.80011383934E+03 0.  0.
        1    1    3    3  502    0  0.13791483059E+03  0.35847539362E+03 -0.86250943564E+03  0.94416504644E+03  0.50400001928E-02 0. -1.
       -1    1    3    3    0  502 -0.13791483059E+03 -0.35847539362E+03 -0.15818966741E+04  0.16278581620E+04  0.50400001928E-02 0.  1.
</event>
<event>
 5   0  0.2478000E-03  0.8011587E+03  0.7818609E-02  0.9558341E-01
       -3   -1    0    0    0  501  0.00000000000E+00  0.00000000000E+00  0.91373319339E+03  0.91373319897E+03  0.10100000352E+00 0. -1.
        3   -1    0    0  501    0  0.00000000000E+00  0.00000000000E+00 -0.17561339122E+03  0.17561342027E+03  0.10100000352E+00 0.  1.
    10030    2    1    2    0    0  0.00000000000E+00  0.00000000000E+00  0.73811980217E+03  0.10893466192E+04  0.80115866999E+03 0.  0.
        3    1    3    3  502    0  0.36698444304E+03  0.16032814176E+03  0.35681500288E+03  0.53637640790E+03  0.10100000352E+00 0. -1.
       -3    1    3    3    0  502 -0.36698444304E+03 -0.16032814176E+03  0.38130479928E+03  0.55297021134E+03  0.10100000352E+00 0.  1.
</event>
<event>
 5   0  0.6256781E-03  0.7997991E+03  0.7818609E-02  0.9560308E-01
       -2   -1    0    0    0  501  0.00000000000E+00  0.00000000000E+00  0.10353532253E+03  0.10353532256E+03  0.25500000920E-02 0. -1.
        2   -1    0    0  501    0  0.00000000000E+00  0.00000000000E+00 -0.15445902445E+04  0.15445902445E+04  0.25500000920E-02 0.  1.
    10030    2    1    2    0    0  0.00000000000E+00  0.00000000000E+00 -0.14410549219E+04  0.16481255670E+04  0.79979909770E+03 0.  0.
        1    1    3    3  502    0  0.36737293689E+03  0.10456616092E+03 -0.96454727407E+03  0.10374239253E+04  0.50400001928E-02 0.  1.
       -1    1    3    3    0  502 -0.36737293689E+03 -0.10456616092E+03 -0.47650764787E+03  0.61070164178E+03  0.50400001928E-02 0. -1.
</event>
<event>
 5   0  0.6536209E-03  0.7991878E+03  0.7818609E-02  0.9561193E-01
       -2   -1    0    0    0  501  0.00000000000E+00  0.00000000000E+00  0.10860929280E+03  0.10860929283E+03  0.25500000920E-02 0. -1.
        2   -1    0    0  501    0  0.00000000000E+00  0.00000000000E+00 -0.14701807495E+04  0.14701807495E+04  0.25500000920E-02 0.  1.
    10030    2    1    2    0    0  0.00000000000E+00  0.00000000000E+00 -0.13615714567E+04  0.15787900424E+04  0.79918781652E+03 0.  0.
        3    1    3    3  502    0  0.71110603183E+02  0.18314314292E+03  0.66096749146E+01  0.19657524434E+03  0.10100000352E+00 0. -1.
       -3    1    3    3    0  502 -0.71110603183E+02 -0.18314314292E+03 -0.13681811316E+04  0.13822147980E+04  0.10100000352E+00 0.  1.
</event>
<event>
 5   0  0.6256781E-03  0.7995826E+03  0.7818609E-02  0.9560621E-01
       -2   -1    0    0    0  501  0.00000000000E+00  0.00000000000E+00  0.37506966598E+03  0.37506966599E+03  0.25500000920E-02 0. -1.
        2   -1    0    0  501    0  0.00000000000E+00  0.00000000000E+00 -0.42614239499E+03  0.42614239500E+03  0.25500000920E-02 0.  1.
    10030    2    1    2    0    0  0.00000000000E+00  0.00000000000E+00 -0.51072729012E+02  0.80121206098E+03  0.79958260550E+03 0.  0.
        1    1    3    3  502    0 -0.23806971848E+03 -0.30998326266E+03  0.58696061264E+02  0.39523669063E+03  0.50400001928E-02 0.  1.
       -1    1    3    3    0  502  0.23806971848E+03  0.30998326266E+03 -0.10976879028E+03  0.40597537035E+03  0.50400001928E-02 0. -1.
</event>
<event>
 5   0  0.6536209E-03  0.7980198E+03  0.7818609E-02  0.9562888E-01
       -2   -1    0    0    0  501  0.00000000000E+00  0.00000000000E+00  0.17116446383E+03  0.17116446385E+03  0.25500000920E-02 0. -1.
        2   -1    0    0  501    0  0.00000000000E+00  0.00000000000E+00 -0.93015168088E+03  0.93015168088E+03  0.25500000920E-02 0.  1.
    10030    2    1    2    0    0  0.00000000000E+00  0.00000000000E+00 -0.75898721705E+03  0.11013161447E+04  0.79801983372E+03 0.  0.
        3    1    3    3  502    0  0.52079786299E+02  0.15003516935E+03 -0.88465262410E+03  0.89879537811E+03  0.10100000352E+00 0.  1.
       -3    1    3    3    0  502 -0.52079786299E+02 -0.15003516935E+03  0.12566540705E+03  0.20252076662E+03  0.10100000352E+00 0. -1.
</event>
<event>
 5   0  0.3714448E-03  0.8008144E+03  0.7818609E-02  0.9558839E-01
        1   -1    0    0  501    0  0.00000000000E+00  0.00000000000E+00  0.98209764895E+03  0.98209764897E+03  0.50400001928E-02 0. -1.
       -1   -1    0    0    0  501  0.00000000000E+00  0.00000000000E+00 -0.16324845298E+03  0.16324845306E+03  0.50400001928E-02 0.  1.
    10030    2    1    2    0    0  0.00000000000E+00  0.00000000000E+00  0.81884919597E+03  0.11453461020E+04  0.80081439029E+03 0.  0.
        1    1    3    3  502    0 -0.98049250246E+02 -0.35926646699E+03  0.19903114637E+03  0.42225519183E+03  0.50400001928E-02 0.  1.
       -1    1    3    3    0  502  0.98049250246E+02  0.35926646699E+03  0.61981804960E+03  0.72309091020E+03  0.50400001928E-02 0. -1.
</event>
<event>
 5   0  0.3627496E-03  0.8004232E+03  0.7818609E-02  0.9559405E-01
       -1   -1    0    0    0  501  0.00000000000E+00  0.00000000000E+00  0.39520756853E+03  0.39520756856E+03  0.50400001928E-02 0. -1.
        1   -1    0    0  501    0  0.00000000000E+00  0.00000000000E+00 -0.40527894939E+03  0.40527894942E+03  0.50400001928E-02 0.  1.
    10030    2    1    2    0    0  0.00000000000E+00  0.00000000000E+00 -0.10071380860E+02  0.80048651798E+03  0.80042315855E+03 0.  0.
        3    1    3    3  502    0  0.40479612371E+02 -0.33298261702E+03 -0.22334927280E+03  0.40298998762E+03  0.10100000352E+00 0.  1.
       -3    1    3    3    0  502 -0.40479612371E+02  0.33298261702E+03  0.21327789194E+03  0.39749653036E+03  0.10100000352E+00 0. -1.
</event>
<event>
 5   0  0.6256781E-03  0.8047396E+03  0.7818609E-02  0.9553182E-01
        2   -1    0    0  501    0  0.00000000000E+00  0.00000000000E+00  0.47654458898E+03  0.47654458899E+03  0.25500000920E-02 0.  1.
       -2   -1    0    0    0  501  0.00000000000E+00  0.00000000000E+00 -0.33974039701E+03  0.33974039702E+03  0.25500000920E-02 0. -1.
    10030    2    1    2    0    0  0.00000000000E+00  0.00000000000E+00  0.13680419198E+03  0.81628498600E+03  0.80473957988E+03 0.  0.
        1    1    3    3  502    0  0.11235544613E+03  0.33489840140E+03 -0.12702954994E+03  0.37538938733E+03  0.50400001928E-02 0. -1.
       -1    1    3    3    0  502 -0.11235544613E+03 -0.33489840140E+03  0.26383374191E+03  0.44089559868E+03  0.50400001928E-02 0.  1.
</event>
<event>
 5   0  0.2478000E-03  0.7916572E+03  0.7818609E-02  0.9572172E-01
        4   -1    0    0  501    0  0.00000000000E+00  0.00000000000E+00  0.22434610947E+03  0.22434970411E+03  0.12699999809E+01 0.  1.
       -4   -1    0    0    0  501  0.00000000000E+00  0.00000000000E+00 -0.69837661301E+03  0.69837776776E+03  0.12699999809E+01 0. -1.
    10030    2    1    2    0    0  0.00000000000E+00  0.00000000000E+00 -0.47403050354E+03  0.92272747187E+03  0.79165716637E+03 0.  0.
        1    1    3    3  502    0  0.54417626453E+02 -0.28791234203E+03 -0.54720757357E+03  0.62071807075E+03  0.50400001928E-02 0. -1.
       -1    1    3    3    0  502 -0.54417626453E+02  0.28791234203E+03  0.73177070032E+02  0.30200940112E+03  0.50400001928E-02 0.  1.
</event>
<event>
 5   0  0.6256781E-03  0.8029055E+03  0.7818609E-02  0.9555821E-01
       -2   -1    0    0    0  501  0.00000000000E+00  0.00000000000E+00  0.28746572486E+03  0.28746572487E+03  0.25500000920E-02 0.  1.
        2   -1    0    0  501    0  0.00000000000E+00  0.00000000000E+00 -0.56063828922E+03  0.56063828922E+03  0.25500000920E-02 0. -1.
    10030    2    1    2    0    0  0.00000000000E+00  0.00000000000E+00 -0.27317256436E+03  0.84810401409E+03  0.80290545446E+03 0.  0.
        1    1    3    3  502    0 -0.48151409329E+02 -0.11087193241E+03 -0.54095940982E+03  0.55429976251E+03  0.50400001928E-02 0. -1.
       -1    1    3    3    0  502  0.48151409329E+02  0.11087193241E+03  0.26778684547E+03  0.29380425158E+03  0.50400001928E-02 0.  1.
</event>
<event>
 5   0  0.5813850E-03  0.7993723E+03  0.7818609E-02  0.9560926E-01
        2   -1    0    0  501    0  0.00000000000E+00  0.00000000000E+00  0.21133751676E+04  0.21133751676E+04  0.25500000920E-02 0.  1.
       -2   -1    0    0    0  501  0.00000000000E+00  0.00000000000E+00 -0.75589518351E+02  0.75589518394E+02  0.25500000920E-02 0. -1.
    10030    2    1    2    0    0  0.00000000000E+00  0.00000000000E+00  0.20377856492E+04  0.21889646860E+04  0.79937228138E+03 0.  0.
        5    1    3    3  502    0  0.34278133434E+03  0.40277722676E+01  0.45628488060E+03  0.57073045160E+03  0.46999998093E+01 0. -1.
       -5    1    3    3    0  502 -0.34278133434E+03 -0.40277722676E+01  0.15815007686E+04  0.16182342344E+04  0.46999998093E+01 0.  1.
</event>
<event>
 5   0  0.5813850E-03  0.8043902E+03  0.7818609E-02  0.9553684E-01
        2   -1    0    0  501    0  0.00000000000E+00  0.00000000000E+00  0.88353250023E+03  0.88353250023E+03  0.25500000920E-02 0. -1.
       -2   -1    0    0    0  501  0.00000000000E+00  0.00000000000E+00 -0.18308427068E+03  0.18308427070E+03  0.25500000920E-02 0.  1.
    10030    2    1    2    0    0  0.00000000000E+00  0.00000000000E+00  0.70044822954E+03  0.10666167709E+04  0.80439021237E+03 0.  0.
        5    1    3    3  502    0 -0.14308734427E+03 -0.24982490296E+03  0.72257203485E+03  0.77782961230E+03  0.46999998093E+01 0. -1.
       -5    1    3    3    0  502  0.14308734427E+03  0.24982490296E+03 -0.22123805309E+02  0.28878715863E+03  0.46999998093E+01 0.  1.
</event>
<event>
 5   0  0.3753450E-03  0.8029504E+03  0.7818609E-02  0.9555756E-01
       -1   -1    0    0    0  501  0.00000000000E+00  0.00000000000E+00  0.23959721662E+03  0.23959721667E+03  0.50400001928E-02 0. -1.
        1   -1    0    0  501    0  0.00000000000E+00  0.00000000000E+00 -0.67272200013E+03  0.67272200015E+03  0.50400001928E-02 0.  1.
    10030    2    1    2    0    0  0.00000000000E+00  0.00000000000E+00 -0.43312478351E+03  0.91231921681E+03  0.80295035667E+03 0.  0.
        5    1    3    3  502    0  0.23642406621E+03 -0.20400330046E+03 -0.50320816205E+03  0.59224507599E+03  0.46999998093E+01 0.  1.
       -5    1    3    3    0  502 -0.23642406621E+03  0.20400330046E+03  0.70083378542E+02  0.32007414083E+03  0.46999998093E+01 0. -1.
</event>
<event>
 5   0  0.2478000E-03  0.8005392E+03  0.7818609E-02  0.9559237E-01
        3   -1    0    0  501    0  0.00000000000E+00  0.00000000000E+00  0.43915130178E+03  0.43915131339E+03  0.10100000352E+00 0. -1.
       -3   -1    0    0    0  501  0.00000000000E+00  0.00000000000E+00 -0.36483035784E+03  0.36483037182E+03  0.10100000352E+00 0.  1.
    10030    2    1    2    0    0  0.00000000000E+00  0.00000000000E+00  0.74320943942E+02  0.80398168521E+03  0.80053916047E+03 0.  0.
        2    1    3    3  502    0  0.24342917583E+03 -0.22741396661E+03 -0.18569658617E+03  0.38138969307E+03  0.25500000920E-02 0.  1.
       -2    1    3    3    0  502 -0.24342917583E+03  0.22741396661E+03  0.26001753011E+03  0.42259199215E+03  0.25500000920E-02 0. -1.
</event>
<event>
 5   0  0.3714448E-03  0.8010610E+03  0.7818609E-02  0.9558483E-01
       -1   -1    0    0    0  501  0.00000000000E+00  0.00000000000E+00  0.16226705598E+03  0.16226705606E+03  0.50400001928E-02 0. -1.
        1   -1    0    0  501    0  0.00000000000E+00  0.00000000000E+00 -0.98864600890E+03  0.98864600892E+03  0.50400001928E-02 0.  1.
    10030    2    1    2    0    0  0.00000000000E+00  0.00000000000E+00 -0.82637895292E+03  0.11509130650E+04  0.80106098974E+03 0.  0.
        1    1    3    3  502    0  0.23302935950E+03  0.26234859749E+03 -0.13572751264E+03  0.37623320788E+03  0.50400001928E-02 0.  1.
       -1    1    3    3    0  502 -0.23302935950E+03 -0.26234859749E+03 -0.69065144029E+03  0.77467985710E+03  0.50400001928E-02 0. -1.
</event>
<event>
 5   0  0.3627496E-03  0.8003106E+03  0.7818609E-02  0.9559568E-01
       -1   -1    0    0    0  501  0.00000000000E+00  0.00000000000E+00  0.20500069367E+03  0.20500069373E+03  0.50400001928E-02 0. -1.
        1   -1    0    0  501    0  0.00000000000E+00  0.00000000000E+00 -0.78109132395E+03  0.78109132397E+03  0.50400001928E-02 0.  1.
    10030    2    1    2    0    0  0.00000000000E+00  0.00000000000E+00 -0.57609063028E+03  0.98609201770E+03  0.80031059787E+03 0.  0.
        3    1    3    3  502    0 -0.37805397416E+02  0.14756196351E+03  0.16787933023E+03  0.22668758428E+03  0.10100000352E+00 0. -1.
       -3    1    3    3    0  502  0.37805397416E+02 -0.14756196351E+03 -0.74396996051E+03  0.75940443342E+03  0.10100000352E+00 0.  1.
</event>
<event>
 5   0  0.3627496E-03  0.8040737E+03  0.7818609E-02  0.9554139E-01
       -1   -1    0    0    0  501  0.00000000000E+00  0.00000000000E+00  0.38478053983E+03  0.38478053987E+03  0.50400001928E-02 0.  1.
        1   -1    0    0  501    0  0.00000000000E+00  0.00000000000E+00 -0.42006705705E+03  0.42006705708E+03  0.50400001928E-02 0. -1.
    10030    2    1    2    0    0  0.00000000000E+00  0.00000000000E+00 -0.35286517216E+02  0.80484759694E+03  0.80407370061E+03 0.  0.
        3    1    3    3  502    0 -0.37853754952E+03  0.52679900434E+02 -0.14253421874E+03  0.40789932829E+03  0.10100000352E+00 0. -1.
       -3    1    3    3    0  502  0.37853754952E+03 -0.52679900434E+02  0.10724770152E+03  0.39694826866E+03  0.10100000352E+00 0.  1.
</event>
<event>
 5   0  0.6256781E-03  0.7983956E+03  0.7818609E-02  0.9562342E-01
       -2   -1    0    0    0  501  0.00000000000E+00  0.00000000000E+00  0.17241369715E+03  0.17241369717E+03  0.25500000920E-02 0. -1.
        2   -1    0    0  501    0  0.00000000000E+00  0.00000000000E+00 -0.92428213870E+03  0.92428213871E+03  0.25500000920E-02 0.  1.
    10030    2    1    2    0    0  0.00000000000E+00  0.00000000000E+00 -0.75186844156E+03  0.10966958359E+04  0.79839564316E+03 0.  0.
        1    1    3    3  502    0  0.25372478607E+03  0.10544949526E+03 -0.77372373475E+03  0.82106289702E+03  0.50400001928E-02 0.  1.
       -1    1    3    3    0  502 -0.25372478607E+03 -0.10544949526E+03  0.21855293196E+02  0.27563293885E+03  0.50400001928E-02 0. -1.
</event>
<event>
 5   0  0.3860515E-03  0.8099673E+03  0.7818609E-02  0.9545701E-01
       -1   -1    0    0    0  501  0.00000000000E+00  0.00000000000E+00  0.21902988507E+03  0.21902988512E+03  0.50400001928E-02 0.  1.
        1   -1    0    0  501    0  0.00000000000E+00  0.00000000000E+00 -0.74880991529E+03  0.74880991530E+03  0.50400001928E-02 0. -1.
    10030    2    1    2    0    0  0.00000000000E+00  0.00000000000E+00 -0.52978003022E+03  0.96783980043E+03  0.80996728259E+03 0.  0.
        4    1    3    3  502    0 -0.20891367370E+03 -0.24221811453E+03 -0.56168946575E+03  0.64638317343E+03  0.12699999809E+01 0. -1.
       -4    1    3    3    0  502  0.20891367370E+03  0.24221811453E+03  0.31909435531E+02  0.32145662699E+03  0.12699999809E+01 0.  1.
</event>
<event>
 5   0  0.3714448E-03  0.7991915E+03  0.7818609E-02  0.9561188E-01
        1   -1    0    0  501    0  0.00000000000E+00  0.00000000000E+00  0.33918712389E+03  0.33918712393E+03  0.50400001928E-02 0.  1.
       -1   -1    0    0    0  501  0.00000000000E+00  0.00000000000E+00 -0.47076309750E+03  0.47076309753E+03  0.50400001928E-02 0. -1.
    10030    2    1    2    0    0  0.00000000000E+00  0.00000000000E+00 -0.13157597361E+03  0.80995022146E+03  0.79919154425E+03 0.  0.
        1    1    3    3  502    0 -0.18735649552E+03 -0.31110720936E+03  0.10314924715E+03  0.37753134882E+03  0.50400001928E-02 0.  1.
       -1    1    3    3    0  502  0.18735649552E+03  0.31110720936E+03 -0.23472522076E+03  0.43241887264E+03  0.50400001928E-02 0. -1.
</event>
<event>
 5   0  0.6153659E-03  0.7986402E+03  0.7818609E-02  0.9561987E-01
       -2   -1    0    0    0  501  0.00000000000E+00  0.00000000000E+00  0.12479051030E+03  0.12479051033E+03  0.25500000920E-02 0.  1.
        2   -1    0    0  501    0  0.00000000000E+00  0.00000000000E+00 -0.12777937663E+04  0.12777937663E+04  0.25500000920E-02 0. -1.
    10030    2    1    2    0    0  0.00000000000E+00  0.00000000000E+00 -0.11530032560E+04  0.14025842766E+04  0.79864018475E+03 0.  0.
        2    1    3    3  502    0 -0.38537013329E+03  0.83302453269E+02 -0.68767295234E+03  0.79268122707E+03  0.25500000920E-02 0. -1.
       -2    1    3    3    0  502  0.38537013329E+03 -0.83302453269E+02 -0.46533030361E+03  0.60990304952E+03  0.25500000920E-02 0.  1.
</event>
<event>
 5   0  0.3627496E-03  0.7964869E+03  0.7818609E-02  0.9565116E-01
       -1   -1    0    0    0  501  0.00000000000E+00  0.00000000000E+00  0.31817094303E+03  0.31817094307E+03  0.50400001928E-02 0.  1.
        1   -1    0    0  501    0  0.00000000000E+00  0.00000000000E+00 -0.49846735761E+03  0.49846735763E+03  0.50400001928E-02 0. -1.
    10030    2    1    2    0    0  0.00000000000E+00  0.00000000000E+00 -0.18029641458E+03  0.81663830070E+03  0.79648685931E+03 0.  0.
        3    1    3    3  502    0  0.13958651665E+03 -0.17491780983E+03  0.24760570305E+03  0.33375025125E+03  0.10100000352E+00 0.  1.
       -3    1    3    3    0  502 -0.13958651665E+03  0.17491780983E+03 -0.42790211763E+03  0.48288804945E+03  0.10100000352E+00 0. -1.
</event>
<event>
 5   0  0.2478000E-03  0.7905697E+03  0.7818609E-02  0.9573768E-01
       -3   -1    0    0    0  501  0.00000000000E+00  0.00000000000E+00  0.98324312386E+02  0.98324364260E+02  0.10100000352E+00 0.  1.
        3   -1    0    0  501    0  0.00000000000E+00  0.00000000000E+00 -0.15891295546E+04  0.15891295578E+04  0.10100000352E+00 0. -1.
    10030    2    1    2    0    0  0.00000000000E+00  0.00000000000E+00 -0.14908052422E+04  0.16874539221E+04  0.79056971160E+03 0.  0.
        4    1    3    3  502    0 -0.33698511571E+03 -0.20658859506E+03 -0.73842431227E+03  0.83756187454E+03  0.12699999809E+01 0.  1.
       -4    1    3    3    0  502  0.33698511571E+03  0.20658859506E+03 -0.75238092994E+03  0.84989204753E+03  0.12699999809E+01 0. -1.
</event>
<event>
 5   0  0.6536209E-03  0.7998112E+03  0.7818609E-02  0.9560290E-01
       -2   -1    0    0    0  501  0.00000000000E+00  0.00000000000E+00  0.49873106867E+03  0.49873106868E+03  0.25500000920E-02 0. -1.
        2   -1    0    0  501    0  0.00000000000E+00  0.00000000000E+00 -0.32066277798E+03  0.32066277799E+03  0.25500000920E-02 0.  1.
    10030    2    1    2    0    0  0.00000000000E+00  0.00000000000E+00  0.17806829070E+03  0.81939384667E+03  0.79981120260E+03 0.  0.
        3    1    3    3  502    0 -0.11258519715E+03 -0.18084033443E+03  0.43576688466E+03  0.48504787510E+03  0.10100000352E+00 0. -1.
       -3    1    3    3    0  502  0.11258519715E+03  0.18084033443E+03 -0.25769859396E+03  0.33434597157E+03  0.10100000352E+00 0.  1.
</event>
<event>
 5   0  0.3714448E-03  0.8007470E+03  0.7818609E-02  0.9558936E-01
        1   -1    0    0  501    0  0.00000000000E+00  0.00000000000E+00  0.16900039217E+03  0.16900039225E+03  0.50400001928E-02 0.  1.
       -1   -1    0    0    0  501  0.00000000000E+00  0.00000000000E+00 -0.94851224264E+03  0.94851224265E+03  0.50400001928E-02 0. -1.
    10030    2    1    2    0    0  0.00000000000E+00  0.00000000000E+00 -0.77951185047E+03  0.11175126349E+04  0.80074700383E+03 0.  0.
        1    1    3    3  502    0 -0.17053664185E+03  0.13998897121E+03 -0.85601439440E+03  0.88399112084E+03  0.50400001928E-02 0. -1.
       -1    1    3    3    0  502  0.17053664185E+03 -0.13998897121E+03  0.76502543938E+02  0.23352151406E+03  0.50400001928E-02 0.  1.
</event>
<event>
 5   0  0.6153659E-03  0.8019780E+03  0.7818609E-02  0.9557158E-01
        2   -1    0    0  501    0  0.00000000000E+00  0.00000000000E+00  0.71197159823E+03  0.71197159824E+03  0.25500000920E-02 0.  1.
       -2   -1    0    0    0  501  0.00000000000E+00  0.00000000000E+00 -0.22584070936E+03  0.22584070938E+03  0.25500000920E-02 0. -1.
    10030    2    1    2    0    0  0.00000000000E+00  0.00000000000E+00  0.48613088887E+03  0.93781230761E+03  0.80197798174E+03 0.  0.
        2    1    3    3  502    0  0.24130694709E+03  0.10096462079E+03 -0.11233441103E+03  0.28467862103E+03  0.25500000920E-02 0. -1.
       -2    1    3    3    0  502 -0.24130694709E+03 -0.10096462079E+03  0.59846529990E+03  0.65313368658E+03  0.25500000920E-02 0.  1.
</event>
<event>
 5   0  0.3671128E-03  0.8022445E+03  0.7818609E-02  0.9556774E-01
       -1   -1    0    0    0  501  0.00000000000E+00  0.00000000000E+00  0.19041676699E+03  0.19041676706E+03  0.50400001928E-02 0. -1.
        1   -1    0    0  501    0  0.00000000000E+00  0.00000000000E+00 -0.84498374217E+03  0.84498374219E+03  0.50400001928E-02 0.  1.
    10030    2    1    2    0    0  0.00000000000E+00  0.00000000000E+00 -0.65456697519E+03  0.10354005092E+04  0.80224453226E+03 0.  0.
        2    1    3    3  502    0 -0.19275179107E+03  0.36695880673E+02 -0.77881800395E+03  0.80315460772E+03  0.25500000920E-02 0.  1.
       -2    1    3    3    0  502  0.19275179107E+03 -0.36695880673E+02  0.12425102877E+03  0.23224590152E+03  0.25500000920E-02 0. -1.
</event>
<event>
 5   0  0.6536209E-03  0.7995178E+03  0.7818609E-02  0.9560715E-01
       -2   -1    0    0    0  501  0.00000000000E+00  0.00000000000E+00  0.20405138885E+03  0.20405138886E+03  0.25500000920E-02 0.  1.
        2   -1    0    0  501    0  0.00000000000E+00  0.00000000000E+00 -0.78317125873E+03  0.78317125874E+03  0.25500000920E-02 0. -1.
    10030    2    1    2    0    0  0.00000000000E+00  0.00000000000E+00 -0.57911986989E+03  0.98722264760E+03  0.79951781233E+03 0.  0.
        3    1    3    3  502    0 -0.64904356303E+02 -0.28847866564E+03  0.42625223504E+02  0.29874644078E+03  0.10100000352E+00 0.  1.
       -3    1    3    3    0  502  0.64904356303E+02  0.28847866564E+03 -0.62174509339E+03  0.68847620682E+03  0.10100000352E+00 0. -1.
</event>
<event>
 5   0  0.5813850E-03  0.7987591E+03  0.7818609E-02  0.9561815E-01
        2   -1    0    0  501    0  0.00000000000E+00  0.00000000000E+00  0.62482181359E+03  0.62482181360E+03  0.25500000920E-02 0.  1.
       -2   -1    0    0    0  501  0.00000000000E+00  0.00000000000E+00 -0.25527923856E+03  0.25527923857E+03  0.25500000920E-02 0. -1.
    10030    2    1    2    0    0  0.00000000000E+00  0.00000000000E+00  0.36954257504E+03  0.88010105217E+03  0.79875912969E+03 0.  0.
        5    1    3    3  502    0  0.11207787535E+03  0.37816752177E+03  0.25366747763E+03  0.46897910814E+03  0.46999998093E+01 0. -1.
       -5    1    3    3    0  502 -0.11207787535E+03 -0.37816752177E+03  0.11587509741E+03  0.41112194403E+03  0.46999998093E+01 0.  1.
</event>
<event>
 5   0  0.3671128E-03  0.8010160E+03  0.7818609E-02  0.9558548E-01
       -1   -1    0    0    0  501  0.00000000000E+00  0.00000000000E+00  0.38419573846E+03  0.38419573849E+03  0.50400001928E-02 0.  1.
        1   -1    0    0  501    0  0.00000000000E+00  0.00000000000E+00 -0.41751280799E+03  0.41751280802E+03  0.50400001928E-02 0. -1.
    10030    2    1    2    0    0  0.00000000000E+00  0.00000000000E+00 -0.33317069539E+02  0.80170854651E+03  0.80101595891E+03 0.  0.
        2    1    3    3  502    0  0.47061237053E+02 -0.32652713183E+03  0.21063232342E+03  0.39140861453E+03  0.25500000920E-02 0.  1.
       -2    1    3    3    0  502 -0.47061237053E+02  0.32652713183E+03 -0.24394939296E+03  0.41029993198E+03  0.25500000920E-02 0. -1.
</event>
<event>
 5   0  0.6536209E-03  0.7985333E+03  0.7818609E-02  0.9562143E-01
       -2   -1    0    0    0  501  0.00000000000E+00  0.00000000000E+00  0.27988277246E+03  0.27988277247E+03  0.25500000920E-02 0. -1.
        2   -1    0    0  501    0  0.00000000000E+00  0.00000000000E+00 -0.56957361129E+03  0.56957361129E+03  0.25500000920E-02 0.  1.
    10030    2    1    2    0    0  0.00000000000E+00  0.00000000000E+00 -0.28969083883E+03  0.84945638376E+03  0.79853325905E+03 0.  0.
        3    1    3    3  502    0  0.29667758109E+03  0.21774896553E+03 -0.30958101245E+03  0.48090811241E+03  0.10100000352E+00 0.  1.
       -3    1    3    3    0  502 -0.29667758109E+03 -0.21774896553E+03  0.19890173617E+02  0.36854827135E+03  0.10100000352E+00 0. -1.
</event>
<event>
 5   0  0.6256781E-03  0.8004209E+03  0.7818609E-02  0.9559408E-01
       -2   -1    0    0    0  501  0.00000000000E+00  0.00000000000E+00  0.16618454848E+03  0.16618454850E+03  0.25500000920E-02 0. -1.
        2   -1    0    0  501    0  0.00000000000E+00  0.00000000000E+00 -0.96379833047E+03  0.96379833048E+03  0.25500000920E-02 0.  1.
    10030    2    1    2    0    0  0.00000000000E+00  0.00000000000E+00 -0.79761378200E+03  0.11299828790E+04  0.80042086526E+03 0.  0.
        1    1    3    3  502    0 -0.86671611403E+02  0.37725594178E+03 -0.25529245043E+03  0.46368981992E+03  0.50400001928E-02 0.  1.
       -1    1    3    3    0  502  0.86671611403E+02 -0.37725594178E+03 -0.54232133157E+03  0.66629305905E+03  0.50400001928E-02 0. -1.
</event>
<event>
 5   0  0.3627496E-03  0.7984021E+03  0.7818609E-02  0.9562333E-01
        1   -1    0    0  501    0  0.00000000000E+00  0.00000000000E+00  0.42675742624E+03  0.42675742627E+03  0.50400001928E-02 0.  1.
       -1   -1    0    0    0  501  0.00000000000E+00  0.00000000000E+00 -0.37342405154E+03  0.37342405158E+03  0.50400001928E-02 0. -1.
    10030    2    1    2    0    0  0.00000000000E+00  0.00000000000E+00  0.53333374701E+02  0.80018147785E+03  0.79840212214E+03 0.  0.
        3    1    3    3  502    0  0.57166903140E+02 -0.93742033237E+02  0.41132649836E+03  0.42572893026E+03  0.10100000352E+00 0.  1.
       -3    1    3    3    0  502 -0.57166903140E+02  0.93742033237E+02 -0.35799312365E+03  0.37445254759E+03  0.10100000352E+00 0. -1.
</event>
<event>
 5   0  0.6536209E-03  0.8002678E+03  0.7818609E-02  0.9559630E-01
       -2   -1    0    0    0  501  0.00000000000E+00  0.00000000000E+00  0.24664402598E+03  0.24664402599E+03  0.25500000920E-02 0.  1.
        2   -1    0    0  501    0  0.00000000000E+00  0.00000000000E+00 -0.64914255119E+03  0.64914255119E+03  0.25500000920E-02 0. -1.
    10030    2    1    2    0    0  0.00000000000E+00  0.00000000000E+00 -0.40249852521E+03  0.89578657718E+03  0.80026778585E+03 0.  0.
        3    1    3    3  502    0 -0.34769453476E+03 -0.69018734238E+02 -0.40901633977E+03  0.54124804996E+03  0.10100000352E+00 0.  1.
       -3    1    3    3    0  502  0.34769453476E+03  0.69018734238E+02  0.65178145632E+01  0.35453852723E+03  0.10100000352E+00 0. -1.
</event>
<event>
 5   0  0.3860515E-03  0.8060784E+03  0.7818609E-02  0.9551260E-01
        1   -1    0    0  501    0  0.00000000000E+00  0.00000000000E+00  0.48784656905E+03  0.48784656908E+03  0.50400001928E-02 0. -1.
       -1   -1    0    0    0  501  0.00000000000E+00  0.00000000000E+00 -0.33297474379E+03  0.33297474383E+03  0.50400001928E-02 0.  1.
    10030    2    1    2    0    0  0.00000000000E+00  0.00000000000E+00  0.15487182526E+03  0.82082131291E+03  0.80607837427E+03 0.  0.
        4    1    3    3  502    0 -0.24205861860E+03 -0.55691064869E+02  0.40064482605E+03  0.47139342283E+03  0.12699999809E+01 0. -1.
       -4    1    3    3    0  502  0.24205861860E+03  0.55691064869E+02 -0.24577300079E+03  0.34942789007E+03  0.12699999809E+01 0.  1.
</event>
<event>
 5   0  0.3714448E-03  0.8016802E+03  0.7818609E-02  0.9557588E-01
       -1   -1    0    0    0  501  0.00000000000E+00  0.00000000000E+00  0.30694789706E+03  0.30694789711E+03  0.50400001928E-02 0. -1.
        1   -1    0    0  501    0  0.00000000000E+00  0.00000000000E+00 -0.52345294348E+03  0.52345294350E+03  0.50400001928E-02 0.  1.
    10030    2    1    2    0    0  0.00000000000E+00  0.00000000000E+00 -0.21650504641E+03  0.83040084061E+03  0.80168018621E+03 0.  0.
        1    1    3    3  502    0  0.11627044058E+02  0.11628412675E+03 -0.50541511077E+03  0.51875005591E+03  0.50400001928E-02 0.  1.
       -1    1    3    3    0  502 -0.11627044058E+02 -0.11628412675E+03  0.28891006436E+03  0.31165078469E+03  0.50400001928E-02 0. -1.
</event>
<event>
 5   0  0.3627496E-03  0.7995184E+03  0.7818609E-02  0.9560714E-01
        1   -1    0    0  501    0  0.00000000000E+00  0.00000000000E+00  0.75529872643E+03  0.75529872645E+03  0.50400001928E-02 0. -1.
       -1   -1    0    0    0  501  0.00000000000E+00  0.00000000000E+00 -0.21158175916E+03  0.21158175922E+03  0.50400001928E-02 0.  1.
    10030    2    1    2    0    0  0.00000000000E+00  0.00000000000E+00  0.54371696727E+03  0.96688048567E+03  0.79951843824E+03 0.  0.
        3    1    3    3  502    0  0.17128359351E+03 -0.36116709075E+03  0.27822169200E+03  0.48701853861E+03  0.10100000352E+00 0. -1.
       -3    1    3    3    0  502 -0.17128359351E+03  0.36116709075E+03  0.26549527527E+03  0.47986194706E+03  0.10100000352E+00 0.  1.
</event>
<event>
 5   0  0.6337108E-03  0.7980568E+03  0.7818609E-02  0.9562834E-01
       -2   -1    0    0    0  501  0.00000000000E+00  0.00000000000E+00  0.43790576780E+03  0.43790576781E+03  0.25500000920E-02 0.  1.
        2   -1    0    0  501    0  0.00000000000E+00  0.00000000000E+00 -0.36360254331E+03  0.36360254332E+03  0.25500000920E-02 0. -1.
    10030    2    1    2    0    0  0.00000000000E+00  0.00000000000E+00  0.74303224491E+02  0.80150831113E+03  0.79805676718E+03 0.  0.
        4    1    3    3  502    0 -0.29157109619E+03 -0.44757338960E+02 -0.23272063530E+03  0.37573585205E+03  0.12699999809E+01 0. -1.
       -4    1    3    3    0  502  0.29157109619E+03  0.44757338960E+02  0.30702385979E+03  0.42577245907E+03  0.12699999809E+01 0.  1.
</event>
<event>
 5   0  0.6337108E-03  0.7997665E+03  0.7818609E-02  0.9560355E-01
        2   -1    0    0  501    0  0.00000000000E+00  0.00000000000E+00  0.73994105798E+03  0.73994105799E+03  0.25500000920E-02 0. -1.
       -2   -1    0    0    0  501  0.00000000000E+00  0.00000000000E+00 -0.21610721208E+03  0.21610721209E+03  0.25500000920E-02 0.  1.
    10030    2    1    2    0    0  0.00000000000E+00  0.00000000000E+00  0.52383384591E+03  0.95604827008E+03  0.79976646379E+03 0.  0.
        4    1    3    3  502    0  0.10223128412E+03  0.11308672649E+03 -0.18000496378E+03  0.23588820032E+03  0.12699999809E+01 0.  1.
       -4    1    3    3    0  502 -0.10223128412E+03 -0.11308672649E+03  0.70383880969E+03  0.72016006977E+03  0.12699999809E+01 0. -1.
</event>
<event>
 5   0  0.2478000E-03  0.8028029E+03  0.7818609E-02  0.9555969E-01
       -4   -1    0    0    0  501  0.00000000000E+00  0.00000000000E+00  0.22785902697E+03  0.22786256619E+03  0.12699999809E+01 0. -1.
        4   -1    0    0  501    0  0.00000000000E+00  0.00000000000E+00 -0.70710791602E+03  0.70710905651E+03  0.12699999809E+01 0.  1.
    10030    2    1    2    0    0  0.00000000000E+00  0.00000000000E+00 -0.47924888905E+03  0.93497162270E+03  0.80280286347E+03 0.  0.
        4    1    3    3  502    0  0.37134486582E+01 -0.15643712034E+03 -0.67012202085E+03  0.68815078148E+03  0.12699999809E+01 0.  1.
       -4    1    3    3    0  502 -0.37134486582E+01  0.15643712034E+03  0.19087313180E+03  0.24682084122E+03  0.12699999809E+01 0. -1.
</event>
<event>
 5   0  0.3627496E-03  0.7976771E+03  0.7818609E-02  0.9563386E-01
       -1   -1    0    0    0  501  0.00000000000E+00  0.00000000000E+00  0.14436891121E+03  0.14436891130E+03  0.50400001928E-02 0.  1.
        1   -1    0    0  501    0  0.00000000000E+00  0.00000000000E+00 -0.11018450565E+04  0.11018450565E+04  0.50400001928E-02 0. -1.
    10030    2    1    2    0    0  0.00000000000E+00  0.00000000000E+00 -0.95747614527E+03  0.12462139678E+04  0.79767705542E+03 0.  0.
        3    1    3    3  502    0  0.14846623433E+03 -0.17622476333E+03 -0.98732683276E+03  0.10138597905E+04  0.10100000352E+00 0. -1.
       -3    1    3    3    0  502 -0.14846623433E+03  0.17622476333E+03  0.29850687495E+02  0.23235417726E+03  0.10100000352E+00 0.  1.
</event>
<event>
 5   0  0.3753450E-03  0.8019699E+03  0.7818609E-02  0.9557170E-01
       -1   -1    0    0    0  501  0.00000000000E+00  0.00000000000E+00  0.25506134784E+03  0.25506134789E+03  0.50400001928E-02 0.  1.
        1   -1    0    0  501    0  0.00000000000E+00  0.00000000000E+00 -0.63039319276E+03  0.63039319278E+03  0.50400001928E-02 0. -1.
    10030    2    1    2    0    0  0.00000000000E+00  0.00000000000E+00 -0.37533184492E+03  0.88545454068E+03  0.80196991826E+03 0.  0.
        5    1    3    3  502    0 -0.14042747828E+03  0.19226895242E+03 -0.54386356564E+03  0.59371448925E+03  0.46999998093E+01 0. -1.
       -5    1    3    3    0  502  0.14042747828E+03 -0.19226895242E+03  0.16853172072E+03  0.29174005143E+03  0.46999998093E+01 0.  1.
</event>
<event>
 5   0  0.6153659E-03  0.8084624E+03  0.7818609E-02  0.9547848E-01
       -2   -1    0    0    0  501  0.00000000000E+00  0.00000000000E+00  0.10547801774E+03  0.10547801777E+03  0.25500000920E-02 0. -1.
        2   -1    0    0  501    0  0.00000000000E+00  0.00000000000E+00 -0.15491651675E+04  0.15491651675E+04  0.25500000920E-02 0.  1.
    10030    2    1    2    0    0  0.00000000000E+00  0.00000000000E+00 -0.14436871497E+04  0.16546431852E+04  0.80846241975E+03 0.  0.
        2    1    3    3  502    0 -0.29039575839E+03 -0.10412920054E+03 -0.12564486875E+04  0.12937680979E+04  0.25500000920E-02 0.  1.
       -2    1    3    3    0  502  0.29039575839E+03  0.10412920054E+03 -0.18723846225E+03  0.36087508732E+03  0.25500000920E-02 0. -1.
</event>
<event>
 5   0  0.6536209E-03  0.8000681E+03  0.7818609E-02  0.9559919E-01
        2   -1    0    0  501    0  0.00000000000E+00  0.00000000000E+00  0.16340434594E+04  0.16340434594E+04  0.25500000920E-02 0.  1.
       -2   -1    0    0    0  501  0.00000000000E+00  0.00000000000E+00 -0.97933275949E+02  0.97933275982E+02  0.25500000920E-02 0. -1.
    10030    2    1    2    0    0  0.00000000000E+00  0.00000000000E+00  0.15361101835E+04  0.17319767354E+04  0.80006806974E+03 0.  0.
        3    1    3    3  502    0 -0.21381281054E+03 -0.30747690607E+02  0.39174647375E+02  0.21953587776E+03  0.10100000352E+00 0. -1.
       -3    1    3    3    0  502  0.21381281054E+03  0.30747690607E+02  0.14969355361E+04  0.15124408576E+04  0.10100000352E+00 0.  1.
</event>
<event>
 5   0  0.6256781E-03  0.7991428E+03  0.7818609E-02  0.9561259E-01
        2   -1    0    0  501    0  0.00000000000E+00  0.00000000000E+00  0.19461439475E+04  0.19461439475E+04  0.25500000920E-02 0.  1.
       -2   -1    0    0    0  501  0.00000000000E+00  0.00000000000E+00 -0.82037775090E+02  0.82037775130E+02  0.25500000920E-02 0. -1.
    10030    2    1    2    0    0  0.00000000000E+00  0.00000000000E+00  0.18641061725E+04  0.20281817227E+04  0.79914283956E+03 0.  0.
        1    1    3    3  502    0 -0.16706474777E+03  0.25142722286E+03  0.26765845089E+03  0.40344432665E+03  0.50400001928E-02 0. -1.
       -1    1    3    3    0  502  0.16706474777E+03 -0.25142722286E+03  0.15964477216E+04  0.16247373960E+04  0.50400001928E-02 0.  1.
</event>
<event>
 5   0  0.6153659E-03  0.8009775E+03  0.7818609E-02  0.9558603E-01
        2   -1    0    0  501    0  0.00000000000E+00  0.00000000000E+00  0.42453170128E+03  0.42453170129E+03  0.25500000920E-02 0. -1.
       -2   -1    0    0    0  501  0.00000000000E+00  0.00000000000E+00 -0.37780741416E+03  0.37780741417E+03  0.25500000920E-02 0.  1.
    10030    2    1    2    0    0  0.00000000000E+00  0.00000000000E+00  0.46724287122E+02  0.80233911546E+03  0.80097746359E+03 0.  0.
        2    1    3    3  502    0  0.10695187003E+03 -0.24056966979E+03  0.32566775799E+03  0.41877435108E+03  0.25500000920E-02 0. -1.
       -2    1    3    3    0  502 -0.10695187003E+03  0.24056966979E+03 -0.27894347087E+03  0.38356476438E+03  0.25500000920E-02 0.  1.
</event>
<event>
 5   0  0.6536209E-03  0.8001323E+03  0.7818609E-02  0.9559826E-01
        2   -1    0    0  501    0  0.00000000000E+00  0.00000000000E+00  0.93305910311E+03  0.93305910311E+03  0.25500000920E-02 0. -1.
       -2   -1    0    0    0  501  0.00000000000E+00  0.00000000000E+00 -0.17153568362E+03  0.17153568364E+03  0.25500000920E-02 0.  1.
    10030    2    1    2    0    0  0.00000000000E+00  0.00000000000E+00  0.76152341949E+03  0.11045947867E+04  0.80013231686E+03 0.  0.
        3    1    3    3  502    0 -0.20732680405E+03 -0.22725958478E+03  0.27658428917E+02  0.30886294929E+03  0.10100000352E+00 0.  1.
       -3    1    3    3    0  502  0.20732680405E+03  0.22725958478E+03  0.73386499057E+03  0.79573183746E+03  0.10100000352E+00 0. -1.
</event>
<event>
 5   0  0.3627496E-03  0.8035342E+03  0.7818609E-02  0.9554915E-01
        1   -1    0    0  501    0  0.00000000000E+00  0.00000000000E+00  0.52496480898E+03  0.52496480900E+03  0.50400001928E-02 0.  1.
       -1   -1    0    0    0  501  0.00000000000E+00  0.00000000000E+00 -0.30748121599E+03  0.30748121603E+03  0.50400001928E-02 0. -1.
    10030    2    1    2    0    0  0.00000000000E+00  0.00000000000E+00  0.21748359299E+03  0.83244602503E+03  0.80353423784E+03 0.  0.
        3    1    3    3  502    0 -0.67558124990E+02  0.19754772074E+02 -0.30104387568E+03  0.30916302585E+03  0.10100000352E+00 0. -1.
       -3    1    3    3    0  502  0.67558124990E+02 -0.19754772074E+02  0.51852746866E+03  0.52328299918E+03  0.10100000352E+00 0.  1.
</event>
<event>
 5   0  0.5813850E-03  0.8048918E+03  0.7818609E-02  0.9552963E-01
       -2   -1    0    0    0  501  0.00000000000E+00  0.00000000000E+00  0.15537711619E+03  0.15537711621E+03  0.25500000920E-02 0.  1.
        2   -1    0    0  501    0  0.00000000000E+00  0.00000000000E+00 -0.10423846268E+04  0.10423846268E+04  0.25500000920E-02 0. -1.
    10030    2    1    2    0    0  0.00000000000E+00  0.00000000000E+00 -0.88700751060E+03  0.11977617430E+04  0.80489183691E+03 0.  0.
        5    1    3    3  502    0 -0.23851224435E+02 -0.93116716858E+02 -0.10250093379E+04  0.10295172833E+04  0.46999998093E+01 0. -1.
       -5    1    3    3    0  502  0.23851224435E+02  0.93116716858E+02  0.13800182732E+03  0.16824445966E+03  0.46999998093E+01 0.  1.
</event>
<event>
 5   0  0.3753450E-03  0.7998794E+03  0.7818609E-02  0.9560192E-01
       -1   -1    0    0    0  501  0.00000000000E+00  0.00000000000E+00  0.15766753244E+04  0.15766753244E+04  0.50400001928E-02 0. -1.
        1   -1    0    0  501    0  0.00000000000E+00  0.00000000000E+00 -0.10144877214E+03  0.10144877226E+03  0.50400001928E-02 0.  1.
    10030    2    1    2    0    0  0.00000000000E+00  0.00000000000E+00  0.14752265523E+04  0.16781240967E+04  0.79987943049E+03 0.  0.
        5    1    3    3  502    0  0.35078738334E+03 -0.17783185548E+03  0.88967971162E+03  0.97274253346E+03  0.46999998093E+01 0.  1.
       -5    1    3    3    0  502 -0.35078738334E+03  0.17783185548E+03  0.58554684067E+03  0.70538156323E+03  0.46999998093E+01 0. -1.
</event>
<event>
 5   0  0.3627496E-03  0.8007870E+03  0.7818609E-02  0.9558879E-01
       -1   -1    0    0    0  501  0.00000000000E+00  0.00000000000E+00  0.28184036440E+03  0.28184036444E+03  0.50400001928E-02 0. -1.
        1   -1    0    0  501    0  0.00000000000E+00  0.00000000000E+00 -0.56881474145E+03  0.56881474147E+03  0.50400001928E-02 0.  1.
    10030    2    1    2    0    0  0.00000000000E+00  0.00000000000E+00 -0.28697437706E+03  0.85065510592E+03  0.80078699798E+03 0.  0.
        3    1    3    3  502    0 -0.31672338147E+03  0.11482209157E+03 -0.37333421887E+03  0.50286803663E+03  0.10100000352E+00 0.  1.
       -3    1    3    3    0  502  0.31672338147E+03 -0.11482209157E+03  0.86359841814E+02  0.34778706929E+03  0.10100000352E+00 0. -1.
</event>
<event>
 5   0  0.6536209E-03  0.7993433E+03  0.7818609E-02  0.9560968E-01
        2   -1    0    0  501    0  0.00000000000E+00  0.00000000000E+00  0.19378433081E+04  0.19378433081E+04  0.25500000920E-02 0. -1.
       -2   -1    0    0    0  501  0.00000000000E+00  0.00000000000E+00 -0.82430522948E+02  0.82430522988E+02  0.25500000920E-02 0.  1.
    10030    2    1    2    0    0  0.00000000000E+00  0.00000000000E+00  0.18554127852E+04  0.20202738311E+04  0.79934332379E+03 0.  0.
        3    1    3    3  502    0 -0.14119916345E+03 -0.18299236085E+03  0.10362111607E+03  0.25329973113E+03  0.10100000352E+00 0.  1.
       -3    1    3    3    0  502  0.14119916345E+03  0.18299236085E+03  0.17517916691E+04  0.17669741000E+04  0.10100000352E+00 0. -1.
</event>
<event>
 5   0  0.3714448E-03  0.8004985E+03  0.7818609E-02  0.9559296E-01
        1   -1    0    0  501    0  0.00000000000E+00  0.00000000000E+00  0.68772984680E+03  0.68772984682E+03  0.50400001928E-02 0.  1.
       -1   -1    0    0    0  501  0.00000000000E+00  0.00000000000E+00 -0.23293950122E+03  0.23293950127E+03  0.50400001928E-02 0. -1.
    10030    2    1    2    0    0  0.00000000000E+00  0.00000000000E+00  0.45479034559E+03  0.92066934809E+03  0.80049846351E+03 0.  0.
        1    1    3    3  502    0 -0.80138194509E+01  0.63379420835E+02  0.68182837430E+03  0.68481464961E+03  0.50400001928E-02 0.  1.
       -1    1    3    3    0  502  0.80138194509E+01 -0.63379420835E+02 -0.22703802872E+03  0.23585469848E+03  0.50400001928E-02 0. -1.
</event>
<event>
 5   0  0.3627496E-03  0.7993381E+03  0.7818609E-02  0.9560976E-01
       -1   -1    0    0    0  501  0.00000000000E+00  0.00000000000E+00  0.32362860062E+03  0.32362860066E+03  0.50400001928E-02 0.  1.
        1   -1    0    0  501    0  0.00000000000E+00  0.00000000000E+00 -0.49357612527E+03  0.49357612530E+03  0.50400001928E-02 0. -1.
    10030    2    1    2    0    0  0.00000000000E+00  0.00000000000E+00 -0.16994752465E+03  0.81720472596E+03  0.79933810306E+03 0.  0.
        3    1    3    3  502    0 -0.15844335964E+03  0.33229669072E+03  0.74099546671E+02  0.37552116039E+03  0.10100000352E+00 0.  1.
       -3    1    3    3    0  502  0.15844335964E+03 -0.33229669072E+03 -0.24404707132E+03  0.44168356558E+03  0.10100000352E+00 0. -1.
</event>
<event>
 5   0  0.3671128E-03  0.7970541E+03  0.7818609E-02  0.9564291E-01
       -1   -1    0    0    0  501  0.00000000000E+00  0.00000000000E+00  0.33377868775E+03  0.33377868779E+03  0.50400001928E-02 0.  1.
        1   -1    0    0  501    0  0.00000000000E+00  0.00000000000E+00 -0.47583571633E+03  0.47583571636E+03  0.50400001928E-02 0. -1.
    10030    2    1    2    0    0  0.00000000000E+00  0.00000000000E+00 -0.14205702858E+03  0.80961440414E+03  0.79705412867E+03 0.  0.
        2    1    3    3  502    0 -0.34684933361E+03  0.14387349541E+03  0.64565824073E+02  0.38101547023E+03  0.25500000920E-02 0.  1.
       -2    1    3    3    0  502  0.34684933361E+03 -0.14387349541E+03 -0.20662285265E+03  0.42859893391E+03  0.25500000920E-02 0. -1.
</event>
<event>
 5   0  0.3753450E-03  0.7996783E+03  0.7818609E-02  0.9560483E-01
        1   -1    0    0  501    0  0.00000000000E+00  0.00000000000E+00  0.26118525182E+03  0.26118525187E+03  0.50400001928E-02 0.  1.
       -1   -1    0    0    0  501  0.00000000000E+00  0.00000000000E+00 -0.61209949651E+03  0.61209949653E+03  0.50400001928E-02 0. -1.
    10030    2    1    2    0    0  0.00000000000E+00  0.00000000000E+00 -0.35091424469E+03  0.87328474840E+03  0.79967833825E+03 0.  0.
        5    1    3    3  502    0 -0.18476805338E+03  0.18908025556E+02  0.21118314754E+03  0.28127772536E+03  0.46999998093E+01 0.  1.
       -5    1    3    3    0  502  0.18476805338E+03 -0.18908025556E+02 -0.56209739223E+03  0.59200702304E+03  0.46999998093E+01 0. -1.
</event>
<event>
 5   0  0.6337108E-03  0.7989466E+03  0.7818609E-02  0.9561543E-01
        2   -1    0    0  501    0  0.00000000000E+00  0.00000000000E+00  0.11656996475E+04  0.11656996475E+04  0.25500000920E-02 0. -1.
       -2   -1    0    0    0  501  0.00000000000E+00  0.00000000000E+00 -0.13689540119E+03  0.13689540121E+03  0.25500000920E-02 0.  1.
    10030    2    1    2    0    0  0.00000000000E+00  0.00000000000E+00  0.10288042463E+04  0.13025950487E+04  0.79894660879E+03 0.  0.
        4    1    3    3  502    0 -0.30828102873E+02  0.12408951938E+03  0.11314327651E+04  0.11386352777E+04  0.12699999809E+01 0. -1.
       -4    1    3    3    0  502  0.30828102873E+02 -0.12408951938E+03 -0.10262851879E+03  0.16395977103E+03  0.12699999809E+01 0.  1.
</event>
<event>
 5   0  0.6256781E-03  0.8006132E+03  0.7818609E-02  0.9559130E-01
        2   -1    0    0  501    0  0.00000000000E+00  0.00000000000E+00  0.19469231992E+04  0.19469231992E+04  0.25500000920E-02 0.  1.
       -2   -1    0    0    0  501  0.00000000000E+00  0.00000000000E+00 -0.82306973794E+02  0.82306973833E+02  0.25500000920E-02 0. -1.
    10030    2    1    2    0    0  0.00000000000E+00  0.00000000000E+00  0.18646162255E+04  0.20292301731E+04  0.80061315697E+03 0.  0.
        1    1    3    3  502    0  0.29635175652E+03  0.10050714522E+03  0.15650402535E+04  0.15960191243E+04  0.50400001928E-02 0.  1.
       -1    1    3    3    0  502 -0.29635175652E+03 -0.10050714522E+03  0.29957597190E+03  0.43321104880E+03  0.50400001928E-02 0. -1.
</event>
<event>
 5   0  0.3860515E-03  0.8010122E+03  0.7818609E-02  0.9558553E-01
       -1   -1    0    0    0  501  0.00000000000E+00  0.00000000000E+00  0.11423023205E+04  0.11423023205E+04  0.50400001928E-02 0.  1.
        1   -1    0    0  501    0  0.00000000000E+00  0.00000000000E+00 -0.14042267850E+03  0.14042267859E+03  0.50400001928E-02 0. -1.
    10030    2    1    2    0    0  0.00000000000E+00  0.00000000000E+00  0.10018796420E+04  0.12827249991E+04  0.80101223851E+03 0.  0.
        4    1    3    3  502    0 -0.25419540691E+03  0.17756302503E+03  0.94998336029E+02  0.32429959837E+03  0.12699999809E+01 0. -1.
       -4    1    3    3    0  502  0.25419540691E+03 -0.17756302503E+03  0.90688130593E+03  0.95842540070E+03  0.12699999809E+01 0.  1.
</event>
<event>
 5   0  0.6153659E-03  0.8013760E+03  0.7818609E-02  0.9558028E-01
        2   -1    0    0  501    0  0.00000000000E+00  0.00000000000E+00  0.24338207383E+03  0.24338207384E+03  0.25500000920E-02 0. -1.
       -2   -1    0    0    0  501  0.00000000000E+00  0.00000000000E+00 -0.65966591652E+03  0.65966591653E+03  0.25500000920E-02 0.  1.
    10030    2    1    2    0    0  0.00000000000E+00  0.00000000000E+00 -0.41628384270E+03  0.90304799037E+03  0.80137596372E+03 0.  0.
        2    1    3    3  502    0  0.53801966505E+01  0.22180602472E+03  0.16784169350E+03  0.27820440902E+03  0.25500000920E-02 0. -1.
       -2    1    3    3    0  502 -0.53801966505E+01 -0.22180602472E+03 -0.58412553619E+03  0.62484358135E+03  0.25500000920E-02 0.  1.
</event>
<event>
 5   0  0.3627496E-03  0.8000969E+03  0.7818609E-02  0.9559877E-01
       -1   -1    0    0    0  501  0.00000000000E+00  0.00000000000E+00  0.91863453051E+03  0.91863453052E+03  0.50400001928E-02 0.  1.
        1   -1    0    0  501    0  0.00000000000E+00  0.00000000000E+00 -0.17421373687E+03  0.17421373695E+03  0.50400001928E-02 0. -1.
    10030    2    1    2    0    0  0.00000000000E+00  0.00000000000E+00  0.74442079364E+03  0.10928482675E+04  0.80009688020E+03 0.  0.
        3    1    3    3  502    0 -0.98559799556E+02  0.11161957243E+03 -0.13495023490E+03  0.20095904841E+03  0.10100000352E+00 0. -1.
       -3    1    3    3    0  502  0.98559799556E+02 -0.11161957243E+03  0.87937102854E+03  0.89188921906E+03  0.10100000352E+00 0.  1.
</event>
<event>
 5   0  0.6153659E-03  0.7980658E+03  0.7818609E-02  0.9562821E-01
       -2   -1    0    0    0  501  0.00000000000E+00  0.00000000000E+00  0.85376993816E+02  0.85376993854E+02  0.25500000920E-02 0. -1.
        2   -1    0    0  501    0  0.00000000000E+00  0.00000000000E+00 -0.18649901995E+04  0.18649901995E+04  0.25500000920E-02 0.  1.
    10030    2    1    2    0    0  0.00000000000E+00  0.00000000000E+00 -0.17796132057E+04  0.19503671934E+04  0.79806580372E+03 0.  0.
        2    1    3    3  502    0  0.16217616241E+02 -0.37544504540E+03 -0.56187941662E+03  0.67596632462E+03  0.25500000920E-02 0. -1.
       -2    1    3    3    0  502 -0.16217616241E+02  0.37544504540E+03 -0.12177337891E+04  0.12744008687E+04  0.25500000920E-02 0.  1.
</event>
<event>
 5   0  0.3671128E-03  0.8009148E+03  0.7818609E-02  0.9558694E-01
        1   -1    0    0  501    0  0.00000000000E+00  0.00000000000E+00  0.79440402537E+03  0.79440402539E+03  0.50400001928E-02 0. -1.
       -1   -1    0    0    0  501  0.00000000000E+00  0.00000000000E+00 -0.20186971250E+03  0.20186971256E+03  0.50400001928E-02 0.  1.
    10030    2    1    2    0    0  0.00000000000E+00  0.00000000000E+00  0.59253431287E+03  0.99627373795E+03  0.80091475764E+03 0.  0.
        2    1    3    3  502    0  0.34862625868E+03  0.18214434238E+03  0.38976229604E+03  0.55374315085E+03  0.25500000920E-02 0. -1.
       -2    1    3    3    0  502 -0.34862625868E+03 -0.18214434238E+03  0.20277201684E+03  0.44253058710E+03  0.25500000920E-02 0.  1.
</event>
<event>
 5   0  0.3671128E-03  0.7996736E+03  0.7818609E-02  0.9560490E-01
        1   -1    0    0  501    0  0.00000000000E+00  0.00000000000E+00  0.19276449820E+04  0.19276449820E+04  0.50400001928E-02 0.  1.
       -1   -1    0    0    0  501  0.00000000000E+00  0.00000000000E+00 -0.82935123368E+02  0.82935123521E+02  0.50400001928E-02 0. -1.
    10030    2    1    2    0    0  0.00000000000E+00  0.00000000000E+00  0.18447098586E+04  0.20105801055E+04  0.79967361980E+03 0.  0.
        2    1    3    3  502    0  0.26125004642E+03  0.24132598205E+03  0.46299875942E+03  0.58383017017E+03  0.25500000920E-02 0. -1.
       -2    1    3    3    0  502 -0.26125004642E+03 -0.24132598205E+03  0.13817110992E+04  0.14267499353E+04  0.25500000920E-02 0.  1.
</event>
<event>
 5   0  0.3671128E-03  0.7932191E+03  0.7818609E-02  0.9569884E-01
        1   -1    0    0  501    0  0.00000000000E+00  0.00000000000E+00  0.57733071550E+03  0.57733071553E+03  0.50400001928E-02 0.  1.
       -1   -1    0    0    0  501  0.00000000000E+00  0.00000000000E+00 -0.27245935505E+03  0.27245935509E+03  0.50400001928E-02 0. -1.
    10030    2    1    2    0    0  0.00000000000E+00  0.00000000000E+00  0.30487136046E+03  0.84979007062E+03  0.79321914859E+03 0.  0.
        2    1    3    3  502    0 -0.94483163226E+02 -0.38702356023E+01  0.56507693114E+03  0.57293453812E+03  0.25500000920E-02 0.  1.
       -2    1    3    3    0  502  0.94483163226E+02  0.38702356023E+01 -0.26020557068E+03  0.27685553250E+03  0.25500000920E-02 0. -1.
</event>
<event>
 5   0  0.6153659E-03  0.8044251E+03  0.7818609E-02  0.9553634E-01
        2   -1    0    0  501    0  0.00000000000E+00  0.00000000000E+00  0.11928224392E+03  0.11928224395E+03  0.25500000920E-02 0.  1.
       -2   -1    0    0    0  501  0.00000000000E+00  0.00000000000E+00 -0.13562364784E+04  0.13562364785E+04  0.25500000920E-02 0. -1.
    10030    2    1    2    0    0  0.00000000000E+00  0.00000000000E+00 -0.12369542345E+04  0.14755187224E+04  0.80442508776E+03 0.  0.
        2    1    3    3  502    0 -0.24601666768E+03 -0.19889469354E+03 -0.16288915287E+03  0.35583166810E+03  0.25500000920E-02 0.  1.
       -2    1    3    3    0  502  0.24601666768E+03  0.19889469354E+03 -0.10740650817E+04  0.11196870543E+04  0.25500000920E-02 0. -1.
</event>
<event>
 5   0  0.3753450E-03  0.8002324E+03  0.7818609E-02  0.9559681E-01
       -1   -1    0    0    0  501  0.00000000000E+00  0.00000000000E+00  0.28628727844E+04  0.28628727844E+04  0.50400001928E-02 0.  1.
        1   -1    0    0  501    0  0.00000000000E+00  0.00000000000E+00 -0.55920386932E+02  0.55920387159E+02  0.50400001928E-02 0. -1.
    10030    2    1    2    0    0  0.00000000000E+00  0.00000000000E+00  0.28069523974E+04  0.29187931715E+04  0.80023235170E+03 0.  0.
        5    1    3    3  502    0 -0.24457363989E+03 -0.26361371073E+03  0.76374519724E+03  0.84417845869E+03  0.46999998093E+01 0. -1.
       -5    1    3    3    0  502  0.24457363989E+03  0.26361371073E+03  0.20432072002E+04  0.20746147129E+04  0.46999998093E+01 0.  1.
</event>
<event>
 5   0  0.5813850E-03  0.7973941E+03  0.7818609E-02  0.9563797E-01
       -2   -1    0    0    0  501  0.00000000000E+00  0.00000000000E+00  0.14766855610E+03  0.14766855612E+03  0.25500000920E-02 0.  1.
        2   -1    0    0  501    0  0.00000000000E+00  0.00000000000E+00 -0.10764603346E+04  0.10764603346E+04  0.25500000920E-02 0. -1.
    10030    2    1    2    0    0  0.00000000000E+00  0.00000000000E+00 -0.92879177851E+03  0.12241288907E+04  0.79739411416E+03 0.  0.
        5    1    3    3  502    0  0.20516145288E+02 -0.13305533033E+03 -0.10404654290E+04  0.10491496710E+04  0.46999998093E+01 0. -1.
       -5    1    3    3    0  502 -0.20516145288E+02  0.13305533033E+03  0.11167365047E+03  0.17497921978E+03  0.46999998093E+01 0.  1.
</event>
<event>
 5   0  0.5813850E-03  0.8071258E+03  0.7818609E-02  0.9549760E-01
        2   -1    0    0  501    0  0.00000000000E+00  0.00000000000E+00  0.12899193723E+03  0.12899193725E+03  0.25500000920E-02 0.  1.
       -2   -1    0    0    0  501  0.00000000000E+00  0.00000000000E+00 -0.12625829861E+04  0.12625829861E+04  0.25500000920E-02 0. -1.
    10030    2    1    2    0    0  0.00000000000E+00  0.00000000000E+00 -0.11335910489E+04  0.13915749234E+04  0.80712582739E+03 0.  0.
        5    1    3    3  502    0  0.28231209450E+02 -0.33149351337E+03 -0.17304837371E+03  0.37503703848E+03  0.46999998093E+01 0.  1.
       -5    1    3    3    0  502 -0.28231209450E+02  0.33149351337E+03 -0.96054267518E+03  0.10165378849E+04  0.46999998093E+01 0. -1.
</event>
<event>
 5   0  0.6337108E-03  0.7997164E+03  0.7818609E-02  0.9560428E-01
        2   -1    0    0  501    0  0.00000000000E+00  0.00000000000E+00  0.85374740926E+03  0.85374740926E+03  0.25500000920E-02 0. -1.
       -2   -1    0    0    0  501  0.00000000000E+00  0.00000000000E+00 -0.18727621590E+03  0.18727621592E+03  0.25500000920E-02 0.  1.
    10030    2    1    2    0    0  0.00000000000E+00  0.00000000000E+00  0.66647119336E+03  0.10410236252E+04  0.79971641012E+03 0.  0.
        4    1    3    3  502    0  0.57448408360E+02  0.26369694657E+03 -0.50829997413E+02  0.27463011632E+03  0.12699999809E+01 0.  1.
       -4    1    3    3    0  502 -0.57448408360E+02 -0.26369694657E+03  0.71730119077E+03  0.76639350886E+03  0.12699999809E+01 0. -1.
</event>
<event>
 5   0  0.3860515E-03  0.8021910E+03  0.7818609E-02  0.9556851E-01
        1   -1    0    0  501    0  0.00000000000E+00  0.00000000000E+00  0.11931058034E+03  0.11931058045E+03  0.50400001928E-02 0. -1.
       -1   -1    0    0    0  501  0.00000000000E+00  0.00000000000E+00 -0.13483935278E+04  0.13483935278E+04  0.50400001928E-02 0.  1.
    10030    2    1    2    0    0  0.00000000000E+00  0.00000000000E+00 -0.12290829475E+04  0.14677041083E+04  0.80219103565E+03 0.  0.
        4    1    3    3  502    0  0.50848525513E+02  0.91597864894E+02  0.93831361730E+02  0.14064735598E+03  0.12699999809E+01 0. -1.
       -4    1    3    3    0  502 -0.50848525513E+02 -0.91597864894E+02 -0.13229143092E+04  0.13270567523E+04  0.12699999809E+01 0.  1.
</event>
<event>
 5   0  0.2478000E-03  0.8068310E+03  0.7818609E-02  0.9550182E-01
       -4   -1    0    0    0  501  0.00000000000E+00  0.00000000000E+00  0.86577609177E+03  0.86577702324E+03  0.12699999809E+01 0.  1.
        4   -1    0    0  501    0  0.00000000000E+00  0.00000000000E+00 -0.18797159748E+03  0.18797588770E+03  0.12699999809E+01 0. -1.
    10030    2    1    2    0    0  0.00000000000E+00  0.00000000000E+00  0.67780449429E+03  0.10537529109E+04  0.80683100142E+03 0.  0.
        5    1    3    3  502    0 -0.28039755172E+03 -0.23785796109E+03  0.12223046469E+03  0.38750686853E+03  0.46999998093E+01 0. -1.
       -5    1    3    3    0  502  0.28039755172E+03  0.23785796109E+03  0.55557402960E+03  0.66624604241E+03  0.46999998093E+01 0.  1.
</event>
<event>
 5   0  0.2478000E-03  0.7992863E+03  0.7818609E-02  0.9561051E-01
        3   -1    0    0  501    0  0.00000000000E+00  0.00000000000E+00  0.10697829759E+04  0.10697829806E+04  0.10100000352E+00 0.  1.
       -3   -1    0    0    0  501  0.00000000000E+00  0.00000000000E+00 -0.14929627652E+03  0.14929631069E+03  0.10100000352E+00 0. -1.
    10030    2    1    2    0    0  0.00000000000E+00  0.00000000000E+00  0.92048669934E+03  0.12190792913E+04  0.79928627841E+03 0.  0.
        4    1    3    3  502    0  0.38773308881E+03 -0.74734468380E+02  0.36633652710E+03  0.53863369084E+03  0.12699999809E+01 0. -1.
       -4    1    3    3    0  502 -0.38773308881E+03  0.74734468380E+02  0.55415017223E+03  0.68044560048E+03  0.12699999809E+01 0.  1.
</event>
<event>
 5   0  0.6153659E-03  0.8074809E+03  0.7818609E-02  0.9549252E-01
       -2   -1    0    0    0  501  0.00000000000E+00  0.00000000000E+00  0.22811307181E+03  0.22811307182E+03  0.25500000920E-02 0.  1.
        2   -1    0    0  501    0  0.00000000000E+00  0.00000000000E+00 -0.71458571981E+03  0.71458571982E+03  0.25500000920E-02 0. -1.
    10030    2    1    2    0    0  0.00000000000E+00  0.00000000000E+00 -0.48647264800E+03  0.94269879164E+03  0.80748088182E+03 0.  0.
        2    1    3    3  502    0 -0.13945981262E+02 -0.29170083962E+03 -0.56870860546E+03  0.63930692798E+03  0.25500000920E-02 0.  1.
       -2    1    3    3    0  502  0.13945981262E+02  0.29170083962E+03  0.82235957455E+02  0.30339186366E+03  0.25500000920E-02 0. -1.
</event>
<event>
 5   0  0.3671128E-03  0.8135531E+03  0.7818609E-02  0.9540604E-01
       -1   -1    0    0    0  501  0.00000000000E+00  0.00000000000E+00  0.25315251372E+03  0.25315251377E+03  0.50400001928E-02 0. -1.
        1   -1    0    0  501    0  0.00000000000E+00  0.00000000000E+00 -0.65362637678E+03  0.65362637680E+03  0.50400001928E-02 0.  1.
    10030    2    1    2    0    0  0.00000000000E+00  0.00000000000E+00 -0.40047386306E+03  0.90677889057E+03  0.81355309685E+03 0.  0.
        2    1    3    3  502    0  0.28033221797E+03 -0.27699407259E+03 -0.87915740712E+02  0.40378341491E+03  0.25500000920E-02 0. -1.
       -2    1    3    3    0  502 -0.28033221797E+03  0.27699407259E+03 -0.31255812235E+03  0.50299547566E+03  0.25500000920E-02 0.  1.
</event>
<event>
 5   0  0.6536209E-03  0.8018320E+03  0.7818609E-02  0.9557369E-01
       -2   -1    0    0    0  501  0.00000000000E+00  0.00000000000E+00  0.66079785241E+02  0.66079785291E+02  0.25500000920E-02 0. -1.
        2   -1    0    0  501    0  0.00000000000E+00  0.00000000000E+00 -0.24324174700E+04  0.24324174700E+04  0.25500000920E-02 0.  1.
    10030    2    1    2    0    0  0.00000000000E+00  0.00000000000E+00 -0.23663376848E+04  0.24984972553E+04  0.80183196269E+03 0.  0.
        3    1    3    3  502    0  0.29727585946E+03  0.26849587095E+03 -0.12344307972E+04  0.12977990494E+04  0.10100000352E+00 0.  1.
       -3    1    3    3    0  502 -0.29727585946E+03 -0.26849587095E+03 -0.11319068876E+04  0.12006982059E+04  0.10100000352E+00 0. -1.
</event>
<event>
 5   0  0.5813850E-03  0.7887550E+03  0.7818609E-02  0.9576438E-01
       -2   -1    0    0    0  501  0.00000000000E+00  0.00000000000E+00  0.73182296740E+02  0.73182296785E+02  0.25500000920E-02 0.  1.
        2   -1    0    0  501    0  0.00000000000E+00  0.00000000000E+00 -0.21252903834E+04  0.21252903834E+04  0.25500000920E-02 0. -1.
    10030    2    1    2    0    0  0.00000000000E+00  0.00000000000E+00 -0.20521080866E+04  0.21984726801E+04  0.78875504827E+03 0.  0.
        5    1    3    3  502    0  0.11498760102E+02  0.35121988331E+03 -0.52726589677E+03  0.63365530362E+03  0.46999998093E+01 0.  1.
       -5    1    3    3    0  502 -0.11498760102E+02 -0.35121988331E+03 -0.15248421898E+04  0.15648173765E+04  0.46999998093E+01 0. -1.
</event>
<event>
 5   0  0.3753450E-03  0.8017876E+03  0.7818609E-02  0.9557433E-01
       -1   -1    0    0    0  501  0.00000000000E+00  0.00000000000E+00  0.15910272723E+03  0.15910272731E+03  0.50400001928E-02 0.  1.
        1   -1    0    0  501    0  0.00000000000E+00  0.00000000000E+00 -0.10101388688E+04  0.10101388688E+04  0.50400001928E-02 0. -1.
    10030    2    1    2    0    0  0.00000000000E+00  0.00000000000E+00 -0.85103614161E+03  0.11692415962E+04  0.80178762516E+03 0.  0.
        5    1    3    3  502    0 -0.69483130971E+02  0.17632150441E+03  0.89605530139E+02  0.20968647891E+03  0.46999998093E+01 0.  1.
       -5    1    3    3    0  502  0.69483130971E+02 -0.17632150441E+03 -0.94064167174E+03  0.95955511724E+03  0.46999998093E+01 0. -1.
</event>
<event>
 5   0  0.3627496E-03  0.8021813E+03  0.7818609E-02  0.9556865E-01
       -1   -1    0    0    0  501  0.00000000000E+00  0.00000000000E+00  0.33912763151E+03  0.33912763155E+03  0.50400001928E-02 0.  1.
        1   -1    0    0  501    0  0.00000000000E+00  0.00000000000E+00 -0.47437509378E+03  0.47437509381E+03  0.50400001928E-02 0. -1.
    10030    2    1    2    0    0  0.00000000000E+00  0.00000000000E+00 -0.13524746227E+03  0.81350272536E+03  0.80218128133E+03 0.  0.
        3    1    3    3  502    0 -0.13253171595E+03  0.31155997151E+03 -0.28569210182E+03  0.44300593543E+03  0.10100000352E+00 0. -1.
       -3    1    3    3    0  502  0.13253171595E+03 -0.31155997151E+03  0.15044463955E+03  0.37049678993E+03  0.10100000352E+00 0.  1.
</event>
<event>
 5   0  0.6536209E-03  0.7975590E+03  0.7818609E-02  0.9563557E-01
       -2   -1    0    0    0  501  0.00000000000E+00  0.00000000000E+00  0.22042997771E+03  0.22042997773E+03  0.25500000920E-02 0.  1.
        2   -1    0    0  501    0  0.00000000000E+00  0.00000000000E+00 -0.72143139049E+03  0.72143139050E+03  0.25500000920E-02 0. -1.
    10030    2    1    2    0    0  0.00000000000E+00  0.00000000000E+00 -0.50100141278E+03  0.94186136823E+03  0.79755903941E+03 0.  0.
        3    1    3    3  502    0 -0.35644002633E+03 -0.76944457902E+02 -0.44112180038E+03  0.57232717474E+03  0.10100000352E+00 0.  1.
       -3    1    3    3    0  502  0.35644002633E+03  0.76944457902E+02 -0.59879612402E+02  0.36953419349E+03  0.10100000352E+00 0. -1.
</event>
<event>
 5   0  0.6256781E-03  0.8001715E+03  0.7818609E-02  0.9559769E-01
       -2   -1    0    0    0  501  0.00000000000E+00  0.00000000000E+00  0.19197715875E+04  0.19197715875E+04  0.25500000920E-02 0. -1.
        2   -1    0    0  501    0  0.00000000000E+00  0.00000000000E+00 -0.83378985106E+02  0.83378985145E+02  0.25500000920E-02 0.  1.
    10030    2    1    2    0    0  0.00000000000E+00  0.00000000000E+00  0.18363926024E+04  0.20031505726E+04  0.80017149822E+03 0.  0.
        1    1    3    3  502    0 -0.11161011193E+03  0.12990947461E+03  0.13032909074E+02  0.17176479681E+03  0.50400001928E-02 0.  1.
       -1    1    3    3    0  502  0.11161011193E+03 -0.12990947461E+03  0.18233596933E+04  0.18313857758E+04  0.50400001928E-02 0. -1.
</event>
<event>
 5   0  0.6256781E-03  0.8068159E+03  0.7818609E-02  0.9550203E-01
       -2   -1    0    0    0  501  0.00000000000E+00  0.00000000000E+00  0.19775668156E+03  0.19775668158E+03  0.25500000920E-02 0.  1.
        2   -1    0    0  501    0  0.00000000000E+00  0.00000000000E+00 -0.82292019889E+03  0.82292019890E+03  0.25500000920E-02 0. -1.
    10030    2    1    2    0    0  0.00000000000E+00  0.00000000000E+00 -0.62516351733E+03  0.10206768805E+04  0.80681588416E+03 0.  0.
        1    1    3    3  502    0  0.22835141935E+03 -0.16444859077E+03 -0.67825041457E+03  0.73431010794E+03  0.50400001928E-02 0. -1.
       -1    1    3    3    0  502 -0.22835141935E+03  0.16444859077E+03  0.53086897244E+02  0.28636677254E+03  0.50400001928E-02 0.  1.
</event>
<event>
 5   0  0.6153659E-03  0.7857343E+03  0.7818609E-02  0.9580899E-01
        2   -1    0    0  501    0  0.00000000000E+00  0.00000000000E+00  0.72028628650E+03  0.72028628651E+03  0.25500000920E-02 0. -1.
       -2   -1    0    0    0  501  0.00000000000E+00  0.00000000000E+00 -0.21428230281E+03  0.21428230282E+03  0.25500000920E-02 0.  1.
    10030    2    1    2    0    0  0.00000000000E+00  0.00000000000E+00  0.50600398370E+03  0.93456858933E+03  0.78573431684E+03 0.  0.
        2    1    3    3  502    0  0.49470878262E+02  0.35571242720E+03  0.44243717584E+03  0.56985029019E+03  0.25500000920E-02 0. -1.
       -2    1    3    3    0  502 -0.49470878262E+02 -0.35571242720E+03  0.63566807854E+02  0.36471829914E+03  0.25500000920E-02 0.  1.
</event>
<event>
 5   0  0.3714448E-03  0.7998015E+03  0.7818609E-02  0.9560304E-01
        1   -1    0    0  501    0  0.00000000000E+00  0.00000000000E+00  0.34419361937E+03  0.34419361941E+03  0.50400001928E-02 0. -1.
       -1   -1    0    0    0  501  0.00000000000E+00  0.00000000000E+00 -0.46462396934E+03  0.46462396936E+03  0.50400001928E-02 0.  1.
    10030    2    1    2    0    0  0.00000000000E+00  0.00000000000E+00 -0.12043034997E+03  0.80881758877E+03  0.79980148957E+03 0.  0.
        1    1    3    3  502    0 -0.33163141594E+03  0.11418314128E+03 -0.25448336125E+03  0.43333470548E+03  0.50400001928E-02 0.  1.
       -1    1    3    3    0  502  0.33163141594E+03 -0.11418314128E+03  0.13405301129E+03  0.37548288330E+03  0.50400001928E-02 0. -1.
</event>
<event>
 5   0  0.6256781E-03  0.8061995E+03  0.7818609E-02  0.9551087E-01
        2   -1    0    0  501    0  0.00000000000E+00  0.00000000000E+00  0.74025299585E+03  0.74025299585E+03  0.25500000920E-02 0. -1.
       -2   -1    0    0    0  501  0.00000000000E+00  0.00000000000E+00 -0.21950524144E+03  0.21950524145E+03  0.25500000920E-02 0.  1.
    10030    2    1    2    0    0  0.00000000000E+00  0.00000000000E+00  0.52074775441E+03  0.95975823730E+03  0.80619951026E+03 0.  0.
        1    1    3    3  502    0 -0.48942955736E+02  0.39756066219E+03  0.20661090728E+03  0.45070828711E+03  0.50400001928E-02 0.  1.
       -1    1    3    3    0  502  0.48942955736E+02 -0.39756066219E+03  0.31413684713E+03  0.50904995019E+03  0.50400001928E-02 0. -1.
</event>
<event>
 5   0  0.6337108E-03  0.7923777E+03  0.7818609E-02  0.9571116E-01
        2   -1    0    0  501    0  0.00000000000E+00  0.00000000000E+00  0.60747009606E+03  0.60747009606E+03  0.25500000920E-02 0. -1.
       -2   -1    0    0    0  501  0.00000000000E+00  0.00000000000E+00 -0.25839230090E+03  0.25839230091E+03  0.25500000920E-02 0.  1.
    10030    2    1    2    0    0  0.00000000000E+00  0.00000000000E+00  0.34907779516E+03  0.86586239698E+03  0.79237767726E+03 0.  0.
        4    1    3    3  502    0 -0.34106793301E+03  0.65409465352E+02  0.38290071274E+03  0.51693355646E+03  0.12699999809E+01 0. -1.
       -4    1    3    3    0  502  0.34106793301E+03 -0.65409465352E+02 -0.33822917579E+02  0.34892884051E+03  0.12699999809E+01 0.  1.
</event>
<event>
 5   0  0.6536209E-03  0.8010755E+03  0.7818609E-02  0.9558462E-01
        2   -1    0    0  501    0  0.00000000000E+00  0.00000000000E+00  0.54824485721E+03  0.54824485722E+03  0.25500000920E-02 0. -1.
       -2   -1    0    0    0  501  0.00000000000E+00  0.00000000000E+00 -0.29262559073E+03  0.29262559074E+03  0.25500000920E-02 0.  1.
    10030    2    1    2    0    0  0.00000000000E+00  0.00000000000E+00  0.25561926649E+03  0.84087044796E+03  0.80107546514E+03 0.  0.
        3    1    3    3  502    0  0.77811707592E+02  0.29141237871E+03 -0.14882481234E+03  0.33634011250E+03  0.10100000352E+00 0.  1.
       -3    1    3    3    0  502 -0.77811707592E+02 -0.29141237871E+03  0.40444407882E+03  0.50453033546E+03  0.10100000352E+00 0. -1.
</event>
<event>
 5   0  0.3627496E-03  0.7735120E+03  0.7818609E-02  0.9599169E-01
       -1   -1    0    0    0  501  0.00000000000E+00  0.00000000000E+00  0.19797975313E+03  0.19797975320E+03  0.50400001928E-02 0.  1.
        1   -1    0    0  501    0  0.00000000000E+00  0.00000000000E+00 -0.75553276351E+03  0.75553276353E+03  0.50400001928E-02 0. -1.
    10030    2    1    2    0    0  0.00000000000E+00  0.00000000000E+00 -0.55755301038E+03  0.95351251673E+03  0.77351196511E+03 0.  0.
        3    1    3    3  502    0  0.25473930454E+03 -0.88034227842E+02  0.63147762355E+02  0.27682086020E+03  0.10100000352E+00 0.  1.
       -3    1    3    3    0  502 -0.25473930454E+03  0.88034227842E+02 -0.62070077273E+03  0.67669165653E+03  0.10100000352E+00 0. -1.
</event>
<event>
 5   0  0.2478000E-03  0.8005294E+03  0.7818609E-02  0.9559251E-01
       -4   -1    0    0    0  501  0.00000000000E+00  0.00000000000E+00  0.48962700612E+03  0.48962865318E+03  0.12699999809E+01 0. -1.
        4   -1    0    0  501    0  0.00000000000E+00  0.00000000000E+00 -0.32720857190E+03  0.32721103653E+03  0.12699999809E+01 0.  1.
    10030    2    1    2    0    0  0.00000000000E+00  0.00000000000E+00  0.16241843421E+03  0.81683968971E+03  0.80052940666E+03 0.  0.
        4    1    3    3  502    0  0.10234107314E+03 -0.78600919479E+00  0.47605046900E+03  0.48692912728E+03  0.12699999809E+01 0. -1.
       -4    1    3    3    0  502 -0.10234107314E+03  0.78600919479E+00 -0.31363203479E+03  0.32991056243E+03  0.12699999809E+01 0.  1.
</event>
<event>
 5   0  0.6256781E-03  0.8020318E+03  0.7818609E-02  0.9557081E-01
       -2   -1    0    0    0  501  0.00000000000E+00  0.00000000000E+00  0.11484188772E+03  0.11484188775E+03  0.25500000920E-02 0.  1.
        2   -1    0    0  501    0  0.00000000000E+00  0.00000000000E+00 -0.14003057987E+04  0.14003057987E+04  0.25500000920E-02 0. -1.
    10030    2    1    2    0    0  0.00000000000E+00  0.00000000000E+00 -0.12854639110E+04  0.15151476865E+04  0.80203182315E+03 0.  0.
        1    1    3    3  502    0  0.28696358368E+03 -0.27655838147E+03 -0.55864681374E+03  0.68623530894E+03  0.50400001928E-02 0. -1.
       -1    1    3    3    0  502 -0.28696358368E+03  0.27655838147E+03 -0.72681709728E+03  0.82891237754E+03  0.50400001928E-02 0.  1.
</event>
<event>
 5   0  0.6337108E-03  0.7992156E+03  0.7818609E-02  0.9561153E-01
       -2   -1    0    0    0  501  0.00000000000E+00  0.00000000000E+00  0.49362519602E+03  0.49362519603E+03  0.25500000920E-02 0.  1.
        2   -1    0    0  501    0  0.00000000000E+00  0.00000000000E+00 -0.32349728151E+03  0.32349728152E+03  0.25500000920E-02 0. -1.
    10030    2    1    2    0    0  0.00000000000E+00  0.00000000000E+00  0.17012791451E+03  0.81712247755E+03  0.79921563800E+03 0.  0.
        4    1    3    3  502    0 -0.12659732343E+03 -0.12723842578E+03  0.45009035765E+03  0.48456108206E+03  0.12699999809E+01 0.  1.
       -4    1    3    3    0  502  0.12659732343E+03  0.12723842578E+03 -0.27996244315E+03  0.33256139549E+03  0.12699999809E+01 0. -1.
</event>
<event>
 5   0  0.6536209E-03  0.8007302E+03  0.7818609E-02  0.9558961E-01
       -2   -1    0    0    0  501  0.00000000000E+00  0.00000000000E+00  0.22967236278E+03  0.22967236279E+03  0.25500000920E-02 0.  1.
        2   -1    0    0  501    0  0.00000000000E+00  0.00000000000E+00 -0.69791684932E+03  0.69791684932E+03  0.25500000920E-02 0. -1.
    10030    2    1    2    0    0  0.00000000000E+00  0.00000000000E+00 -0.46824448654E+03  0.92758921212E+03  0.80073019630E+03 0.  0.
        3    1    3    3  502    0  0.11051214663E+03 -0.93414674197E+02  0.19831948123E+03  0.24549921129E+03  0.10100000352E+00 0.  1.
       -3    1    3    3    0  502 -0.11051214663E+03  0.93414674197E+02 -0.66656396777E+03  0.68209000083E+03  0.10100000352E+00 0. -1.
</event>
<event>
 5   0  0.3714448E-03  0.8022718E+03  0.7818609E-02  0.9556735E-01
        1   -1    0    0  501    0  0.00000000000E+00  0.00000000000E+00  0.91918123658E+03  0.91918123659E+03  0.50400001928E-02 0. -1.
       -1   -1    0    0    0  501  0.00000000000E+00  0.00000000000E+00 -0.17505796761E+03  0.17505796768E+03  0.50400001928E-02 0.  1.
    10030    2    1    2    0    0  0.00000000000E+00  0.00000000000E+00  0.74412326897E+03  0.10942392043E+04  0.80227177237E+03 0.  0.
        1    1    3    3  502    0 -0.17178075317E+03 -0.83563470282E+02 -0.10903605518E+03  0.21995531837E+03  0.50400001928E-02 0.  1.
       -1    1    3    3    0  502  0.17178075317E+03  0.83563470282E+02  0.85315932415E+03  0.87428388590E+03  0.50400001928E-02 0. -1.
</event>
<event>
 5   0  0.6153659E-03  0.7989222E+03  0.7818609E-02  0.9561579E-01
       -2   -1    0    0    0  501  0.00000000000E+00  0.00000000000E+00  0.29530268835E+03  0.29530268836E+03  0.25500000920E-02 0.  1.
        2   -1    0    0  501    0  0.00000000000E+00  0.00000000000E+00 -0.54035797238E+03  0.54035797239E+03  0.25500000920E-02 0. -1.
    10030    2    1    2    0    0  0.00000000000E+00  0.00000000000E+00 -0.24505528403E+03  0.83566066075E+03  0.79892217874E+03 0.  0.
        2    1    3    3  502    0  0.25960228577E+03  0.27929974907E+03  0.19729908967E+01  0.38132084824E+03  0.25500000920E-02 0.  1.
       -2    1    3    3    0  502 -0.25960228577E+03 -0.27929974907E+03 -0.24702827493E+03  0.45433981250E+03  0.25500000920E-02 0. -1.
</event>
<event>
 5   0  0.3860515E-03  0.8045646E+03  0.7818609E-02  0.9553433E-01
       -1   -1    0    0    0  501  0.00000000000E+00  0.00000000000E+00  0.11292387749E+03  0.11292387761E+03  0.50400001928E-02 0.  1.
        1   -1    0    0  501    0  0.00000000000E+00  0.00000000000E+00 -0.14330986932E+04  0.14330986932E+04  0.50400001928E-02 0. -1.
    10030    2    1    2    0    0  0.00000000000E+00  0.00000000000E+00 -0.13201748157E+04  0.15460225708E+04  0.80456463099E+03 0.  0.
        4    1    3    3  502    0 -0.24342114643E+03 -0.26146537539E+02 -0.12734606628E+04  0.12967810796E+04  0.12699999809E+01 0. -1.
       -4    1    3    3    0  502  0.24342114643E+03  0.26146537539E+02 -0.46714152966E+02  0.24924149122E+03  0.12699999809E+01 0.  1.
</event>
<event>
 5   0  0.3671128E-03  0.7896559E+03  0.7818609E-02  0.9575112E-01
        1   -1    0    0  501    0  0.00000000000E+00  0.00000000000E+00  0.27848370696E+03  0.27848370700E+03  0.50400001928E-02 0. -1.
       -1   -1    0    0    0  501  0.00000000000E+00  0.00000000000E+00 -0.55977824281E+03  0.55977824284E+03  0.50400001928E-02 0.  1.
    10030    2    1    2    0    0  0.00000000000E+00  0.00000000000E+00 -0.28129453586E+03  0.83826194984E+03  0.78965592548E+03 0.  0.
        2    1    3    3  502    0 -0.11246076631E+03 -0.87551848890E+02 -0.53151863287E+03  0.55029520014E+03  0.25500000920E-02 0.  1.
       -2    1    3    3    0  502  0.11246076631E+03  0.87551848890E+02  0.25022409701E+03  0.28796674970E+03  0.25500000920E-02 0. -1.
</event>
<event>
 5   0  0.5813850E-03  0.8097265E+03  0.7818609E-02  0.9546044E-01
        2   -1    0    0  501    0  0.00000000000E+00  0.00000000000E+00  0.13173618749E+04  0.13173618749E+04  0.25500000920E-02 0.  1.
       -2   -1    0    0    0  501  0.00000000000E+00  0.00000000000E+00 -0.12442614822E+03  0.12442614825E+03  0.25500000920E-02 0. -1.
    10030    2    1    2    0    0  0.00000000000E+00  0.00000000000E+00  0.11929357267E+04  0.14417880232E+04  0.80972653145E+03 0.  0.
        5    1    3    3  502    0 -0.25068173646E+03  0.20474819999E+03  0.16349231776E+03  0.36264995017E+03  0.46999998093E+01 0. -1.
       -5    1    3    3    0  502  0.25068173646E+03 -0.20474819999E+03  0.10294434089E+04  0.10791380730E+04  0.46999998093E+01 0.  1.
</event>
<event>
 5   0  0.3714448E-03  0.8006405E+03  0.7818609E-02  0.9559090E-01
        1   -1    0    0  501    0  0.00000000000E+00  0.00000000000E+00  0.11818699187E+03  0.11818699197E+03  0.50400001928E-02 0.  1.
       -1   -1    0    0    0  501  0.00000000000E+00  0.00000000000E+00 -0.13559555905E+04  0.13559555905E+04  0.50400001928E-02 0. -1.
    10030    2    1    2    0    0  0.00000000000E+00  0.00000000000E+00 -0.12377685986E+04  0.14741425825E+04  0.80064052466E+03 0.  0.
        1    1    3    3  502    0 -0.84785822850E+01 -0.20126862506E+03  0.18064182130E+02  0.20225543377E+03  0.50400001928E-02 0.  1.
       -1    1    3    3    0  502  0.84785822850E+01  0.20126862506E+03 -0.12558327808E+04  0.12718871487E+04  0.50400001928E-02 0. -1.
</event>
<event>
 5   0  0.6337108E-03  0.7960557E+03  0.7818609E-02  0.9565744E-01
       -2   -1    0    0    0  501  0.00000000000E+00  0.00000000000E+00  0.71390450214E+03  0.71390450214E+03  0.25500000920E-02 0. -1.
        2   -1    0    0  501    0  0.00000000000E+00  0.00000000000E+00 -0.22191509546E+03  0.22191509547E+03  0.25500000920E-02 0.  1.
    10030    2    1    2    0    0  0.00000000000E+00  0.00000000000E+00  0.49198940668E+03  0.93581959762E+03  0.79605574114E+03 0.  0.
        4    1    3    3  502    0 -0.93248157671E+02 -0.31533780305E+03 -0.17635778252E+02  0.32931107257E+03  0.12699999809E+01 0.  1.
       -4    1    3    3    0  502  0.93248157671E+02  0.31533780305E+03  0.50962518493E+03  0.60650852505E+03  0.12699999809E+01 0. -1.
</event>
<event>
 5   0  0.3753450E-03  0.7972095E+03  0.7818609E-02  0.9564065E-01
        1   -1    0    0  501    0  0.00000000000E+00  0.00000000000E+00  0.20738260561E+03  0.20738260567E+03  0.50400001928E-02 0. -1.
       -1   -1    0    0    0  501  0.00000000000E+00  0.00000000000E+00 -0.76614785924E+03  0.76614785926E+03  0.50400001928E-02 0.  1.
    10030    2    1    2    0    0  0.00000000000E+00  0.00000000000E+00 -0.55876525363E+03  0.97353046492E+03  0.79720948155E+03 0.  0.
        5    1    3    3  502    0 -0.36554646860E+03  0.11052640594E+03 -0.41874268476E+03  0.56675200322E+03  0.46999998093E+01 0.  1.
       -5    1    3    3    0  502  0.36554646860E+03 -0.11052640594E+03 -0.14002256887E+03  0.40677846171E+03  0.46999998093E+01 0. -1.
</event>
<event>
 5   0  0.6536209E-03  0.8037699E+03  0.7818609E-02  0.9554576E-01
        2   -1    0    0  501    0  0.00000000000E+00  0.00000000000E+00  0.13224963166E+04  0.13224963166E+04  0.25500000920E-02 0.  1.
       -2   -1    0    0    0  501  0.00000000000E+00  0.00000000000E+00 -0.12212626044E+03  0.12212626046E+03  0.25500000920E-02 0. -1.
    10030    2    1    2    0    0  0.00000000000E+00  0.00000000000E+00  0.12003700562E+04  0.14446225771E+04  0.80376994124E+03 0.  0.
        3    1    3    3  502    0  0.21911944748E+03  0.12739450793E+03  0.39641328808E+02  0.25654266324E+03  0.10100000352E+00 0. -1.
       -3    1    3    3    0  502 -0.21911944748E+03 -0.12739450793E+03  0.11607287274E+04  0.11880799139E+04  0.10100000352E+00 0.  1.
</event>
<event>
 5   0  0.6536209E-03  0.8073783E+03  0.7818609E-02  0.9549398E-01
        2   -1    0    0  501    0  0.00000000000E+00  0.00000000000E+00  0.12388554618E+03  0.12388554621E+03  0.25500000920E-02 0.  1.
       -2   -1    0    0    0  501  0.00000000000E+00  0.00000000000E+00 -0.13154476014E+04  0.13154476014E+04  0.25500000920E-02 0. -1.
    10030    2    1    2    0    0  0.00000000000E+00  0.00000000000E+00 -0.11915620553E+04  0.14393331477E+04  0.80737833659E+03 0.  0.
        3    1    3    3  502    0 -0.56100858740E+02  0.36592951440E+03 -0.88275658876E+03  0.95724130764E+03  0.10100000352E+00 0.  1.
       -3    1    3    3    0  502  0.56100858740E+02 -0.36592951440E+03 -0.30880546651E+03  0.48209184001E+03  0.10100000352E+00 0. -1.
</event>
<event>
 5   0  0.3627496E-03  0.8008935E+03  0.7818609E-02  0.9558725E-01
       -1   -1    0    0    0  501  0.00000000000E+00  0.00000000000E+00  0.27298166041E+03  0.27298166046E+03  0.50400001928E-02 0.  1.
        1   -1    0    0  501    0  0.00000000000E+00  0.00000000000E+00 -0.58742994507E+03  0.58742994509E+03  0.50400001928E-02 0. -1.
    10030    2    1    2    0    0  0.00000000000E+00  0.00000000000E+00 -0.31444828466E+03  0.86041160554E+03  0.80089350555E+03 0.  0.
        3    1    3    3  502    0 -0.36591168718E+03  0.10191015345E+03 -0.29345701963E+03  0.47999382783E+03  0.10100000352E+00 0. -1.
       -3    1    3    3    0  502  0.36591168718E+03 -0.10191015345E+03 -0.20991265031E+02  0.38041777771E+03  0.10100000352E+00 0.  1.
</event>
<event>
 5   0  0.6153659E-03  0.8021517E+03  0.7818609E-02  0.9556908E-01
       -2   -1    0    0    0  501  0.00000000000E+00  0.00000000000E+00  0.15914554653E+03  0.15914554655E+03  0.25500000920E-02 0. -1.
        2   -1    0    0  501    0  0.00000000000E+00  0.00000000000E+00 -0.10107844614E+04  0.10107844614E+04  0.25500000920E-02 0.  1.
    10030    2    1    2    0    0  0.00000000000E+00  0.00000000000E+00 -0.85163891487E+03  0.11699300080E+04  0.80215172019E+03 0.  0.
        2    1    3    3  502    0  0.13010528021E+03 -0.15546262400E+03 -0.93056190940E+03  0.95238725245E+03  0.25500000920E-02 0.  1.
       -2    1    3    3    0  502 -0.13010528021E+03  0.15546262400E+03  0.78922994530E+02  0.21754275550E+03  0.25500000920E-02 0. -1.
</event>
<event>
 5   0  0.6337108E-03  0.7995867E+03  0.7818609E-02  0.9560615E-01
       -2   -1    0    0    0  501  0.00000000000E+00  0.00000000000E+00  0.26058086115E+03  0.26058086117E+03  0.25500000920E-02 0. -1.
        2   -1    0    0  501    0  0.00000000000E+00  0.00000000000E+00 -0.61337864799E+03  0.61337864799E+03  0.25500000920E-02 0.  1.
    10030    2    1    2    0    0  0.00000000000E+00  0.00000000000E+00 -0.35279778683E+03  0.87395950916E+03  0.79958673404E+03 0.  0.
        4    1    3    3  502    0 -0.17387683975E+02  0.60530112607E+02 -0.60792063035E+03  0.61117536910E+03  0.12699999809E+01 0.  1.
       -4    1    3    3    0  502  0.17387683975E+02 -0.60530112607E+02  0.25512284351E+03  0.26278414006E+03  0.12699999809E+01 0. -1.
</event>
<event>
 5   0  0.6337108E-03  0.8040412E+03  0.7818609E-02  0.9554186E-01
        2   -1    0    0  501    0  0.00000000000E+00  0.00000000000E+00  0.16481955195E+04  0.16481955195E+04  0.25500000920E-02 0.  1.
       -2   -1    0    0    0  501  0.00000000000E+00  0.00000000000E+00 -0.98059095561E+02  0.98059095594E+02  0.25500000920E-02 0. -1.
    10030    2    1    2    0    0  0.00000000000E+00  0.00000000000E+00  0.15501364239E+04  0.17462546151E+04  0.80404119790E+03 0.  0.
        4    1    3    3  502    0  0.39780032768E+03 -0.42104469520E+01  0.90088773616E+03  0.98481630502E+03  0.12699999809E+01 0.  1.
       -4    1    3    3    0  502 -0.39780032768E+03  0.42104469520E+01  0.64924868775E+03  0.76143831005E+03  0.12699999809E+01 0. -1.
</event>
<event>
 5   0  0.3671128E-03  0.7895165E+03  0.7818609E-02  0.9575317E-01
       -1   -1    0    0    0  501  0.00000000000E+00  0.00000000000E+00  0.21465438219E+03  0.21465438225E+03  0.50400001928E-02 0.  1.
        1   -1    0    0  501    0  0.00000000000E+00  0.00000000000E+00 -0.72597669674E+03  0.72597669676E+03  0.50400001928E-02 0. -1.
    10030    2    1    2    0    0  0.00000000000E+00  0.00000000000E+00 -0.51132231455E+03  0.94063107900E+03  0.78951650865E+03 0.  0.
        2    1    3    3  502    0  0.42005128012E+02 -0.28786414730E+03 -0.57357536870E+03  0.64313210281E+03  0.25500000920E-02 0. -1.
       -2    1    3    3    0  502 -0.42005128012E+02  0.28786414730E+03  0.62253054149E+02  0.29749897619E+03  0.25500000920E-02 0.  1.
</event>
<event>
 5   0  0.3627496E-03  0.8024127E+03  0.7818609E-02  0.9556531E-01
       -1   -1    0    0    0  501  0.00000000000E+00  0.00000000000E+00  0.28270138845E+03  0.28270138849E+03  0.50400001928E-02 0. -1.
        1   -1    0    0  501    0  0.00000000000E+00  0.00000000000E+00 -0.56938711028E+03  0.56938711030E+03  0.50400001928E-02 0.  1.
    10030    2    1    2    0    0  0.00000000000E+00  0.00000000000E+00 -0.28668572183E+03  0.85208849880E+03  0.80241267854E+03 0.  0.
        3    1    3    3  502    0  0.18258123328E+03  0.74562549683E+02  0.22767364942E+03  0.30121550658E+03  0.10100000352E+00 0. -1.
       -3    1    3    3    0  502 -0.18258123328E+03 -0.74562549683E+02 -0.51435937125E+03  0.55087299222E+03  0.10100000352E+00 0.  1.
</event>
<event>
 5   0  0.3714448E-03  0.8010611E+03  0.7818609E-02  0.9558482E-01
       -1   -1    0    0    0  501  0.00000000000E+00  0.00000000000E+00  0.17513588579E+03  0.17513588586E+03  0.50400001928E-02 0. -1.
        1   -1    0    0  501    0  0.00000000000E+00  0.00000000000E+00 -0.91600146555E+03  0.91600146556E+03  0.50400001928E-02 0.  1.
    10030    2    1    2    0    0  0.00000000000E+00  0.00000000000E+00 -0.74086557976E+03  0.10911373514E+04  0.80106111651E+03 0.  0.
        1    1    3    3  502    0 -0.75961944466E+02 -0.18427290701E+03  0.10278800442E+03  0.22425899122E+03  0.50400001928E-02 0. -1.
       -1    1    3    3    0  502  0.75961944466E+02  0.18427290701E+03 -0.84365358417E+03  0.86687836020E+03  0.50400001928E-02 0.  1.
</event>
<event>
 5   0  0.3671128E-03  0.8006422E+03  0.7818609E-02  0.9559088E-01
        1   -1    0    0  501    0  0.00000000000E+00  0.00000000000E+00  0.11503275256E+04  0.11503275256E+04  0.50400001928E-02 0. -1.
       -1   -1    0    0    0  501  0.00000000000E+00  0.00000000000E+00 -0.13931420905E+03  0.13931420914E+03  0.50400001928E-02 0.  1.
    10030    2    1    2    0    0  0.00000000000E+00  0.00000000000E+00  0.10110133166E+04  0.12896417348E+04  0.80064216587E+03 0.  0.
        2    1    3    3  502    0  0.15340500863E+03  0.36712625001E+03  0.43452005406E+03  0.58917099174E+03  0.25500000920E-02 0.  1.
       -2    1    3    3    0  502 -0.15340500863E+03 -0.36712625001E+03  0.57649326250E+03  0.70047074303E+03  0.25500000920E-02 0. -1.
</event>
<event>
 5   0  0.3714448E-03  0.7983375E+03  0.7818609E-02  0.9562427E-01
        1   -1    0    0  501    0  0.00000000000E+00  0.00000000000E+00  0.68537740042E+03  0.68537740044E+03  0.50400001928E-02 0. -1.
       -1   -1    0    0    0  501  0.00000000000E+00  0.00000000000E+00 -0.23247873637E+03  0.23247873643E+03  0.50400001928E-02 0.  1.
    10030    2    1    2    0    0  0.00000000000E+00  0.00000000000E+00  0.45289866405E+03  0.91785613687E+03  0.79833745252E+03 0.  0.
        1    1    3    3  502    0  0.91649474614E+02 -0.17268552940E+03  0.62656764614E+03  0.65635884505E+03  0.50400001928E-02 0. -1.
       -1    1    3    3    0  502 -0.91649474614E+02  0.17268552940E+03 -0.17366898209E+03  0.26149729182E+03  0.50400001928E-02 0.  1.
</event>
<event>
 5   0  0.6153659E-03  0.8002623E+03  0.7818609E-02  0.9559637E-01
        2   -1    0    0  501    0  0.00000000000E+00  0.00000000000E+00  0.17499807321E+04  0.17499807321E+04  0.25500000920E-02 0. -1.
       -2   -1    0    0    0  501  0.00000000000E+00  0.00000000000E+00 -0.91489546396E+02  0.91489546432E+02  0.25500000920E-02 0.  1.
    10030    2    1    2    0    0  0.00000000000E+00  0.00000000000E+00  0.16584911857E+04  0.18414702785E+04  0.80026231553E+03 0.  0.
        2    1    3    3  502    0 -0.25711835702E+03  0.25327881853E+03  0.43171765250E+03  0.56270786463E+03  0.25500000920E-02 0.  1.
       -2    1    3    3    0  502  0.25711835702E+03 -0.25327881853E+03  0.12267735332E+04  0.12787624139E+04  0.25500000920E-02 0. -1.
</event>
<event>
 5   0  0.3860515E-03  0.8563041E+03  0.7818609E-02  0.9481915E-01
        1   -1    0    0  501    0  0.00000000000E+00  0.00000000000E+00  0.43665378504E+03  0.43665378507E+03  0.50400001928E-02 0.  1.
       -1   -1    0    0    0  501  0.00000000000E+00  0.00000000000E+00 -0.41981584833E+03  0.41981584836E+03  0.50400001928E-02 0. -1.
    10030    2    1    2    0    0  0.00000000000E+00  0.00000000000E+00  0.16837936719E+02  0.85646963343E+03  0.85630410303E+03 0.  0.
        4    1    3    3  502    0 -0.42501667479E+03  0.45545148626E+02  0.32898827966E+02  0.42871608343E+03  0.12699999809E+01 0. -1.
       -4    1    3    3    0  502  0.42501667479E+03 -0.45545148626E+02 -0.16060891248E+02  0.42775355000E+03  0.12699999809E+01 0.  1.
</event>
<event>
 5   0  0.6153659E-03  0.7835777E+03  0.7818609E-02  0.9584097E-01
        2   -1    0    0  501    0  0.00000000000E+00  0.00000000000E+00  0.16366125613E+03  0.16366125615E+03  0.25500000920E-02 0. -1.
       -2   -1    0    0    0  501  0.00000000000E+00  0.00000000000E+00 -0.93790375821E+03  0.93790375821E+03  0.25500000920E-02 0.  1.
    10030    2    1    2    0    0  0.00000000000E+00  0.00000000000E+00 -0.77424250208E+03  0.11015650144E+04  0.78357771078E+03 0.  0.
        2    1    3    3  502    0 -0.17871471188E+03 -0.10577384873E+03 -0.85416378966E+03  0.87904654876E+03  0.25500000920E-02 0.  1.
       -2    1    3    3    0  502  0.17871471188E+03  0.10577384873E+03  0.79921287584E+02  0.22251846560E+03  0.25500000920E-02 0. -1.
</event>
<event>
 5   0  0.3860515E-03  0.8015994E+03  0.7818609E-02  0.9557705E-01
        1   -1    0    0  501    0  0.00000000000E+00  0.00000000000E+00  0.63122206548E+03  0.63122206550E+03  0.50400001928E-02 0. -1.
       -1   -1    0    0    0  501  0.00000000000E+00  0.00000000000E+00 -0.25449110162E+03  0.25449110167E+03  0.50400001928E-02 0.  1.
    10030    2    1    2    0    0  0.00000000000E+00  0.00000000000E+00  0.37673096386E+03  0.88571316717E+03  0.80159939830E+03 0.  0.
        4    1    3    3  502    0 -0.10522087605E+03 -0.34932292342E+03  0.49971326250E+01  0.36486233269E+03  0.12699999809E+01 0.  1.
       -4    1    3    3    0  502  0.10522087605E+03  0.34932292342E+03  0.37173383124E+03  0.52085083447E+03  0.12699999809E+01 0. -1.
</event>
<event>
 5   0  0.3627496E-03  0.7964190E+03  0.7818609E-02  0.9565215E-01
       -1   -1    0    0    0  501  0.00000000000E+00  0.00000000000E+00  0.21556023209E+03  0.21556023215E+03  0.50400001928E-02 0.  1.
        1   -1    0    0  501    0  0.00000000000E+00  0.00000000000E+00 -0.73562174853E+03  0.73562174855E+03  0.50400001928E-02 0. -1.
    10030    2    1    2    0    0  0.00000000000E+00  0.00000000000E+00 -0.52006151644E+03  0.95118198070E+03  0.79641897235E+03 0.  0.
        3    1    3    3  502    0 -0.65358581014E+02 -0.10196471995E+03 -0.71309082939E+03  0.72330290293E+03  0.10100000352E+00 0. -1.
       -3    1    3    3    0  502  0.65358581014E+02  0.10196471995E+03  0.19302931295E+03  0.22787907777E+03  0.10100000352E+00 0.  1.
</event>
<event>
 5   0  0.6153659E-03  0.7954816E+03  0.7818609E-02  0.9566580E-01
        2   -1    0    0  501    0  0.00000000000E+00  0.00000000000E+00  0.64620678178E+03  0.64620678179E+03  0.25500000920E-02 0. -1.
       -2   -1    0    0    0  501  0.00000000000E+00  0.00000000000E+00 -0.24480977513E+03  0.24480977514E+03  0.25500000920E-02 0.  1.
    10030    2    1    2    0    0  0.00000000000E+00  0.00000000000E+00  0.40139700666E+03  0.89101655693E+03  0.79548158229E+03 0.  0.
        2    1    3    3  502    0  0.98237907279E+02  0.86340709347E+02 -0.22003524717E+03  0.25597053448E+03  0.25500000920E-02 0.  1.
       -2    1    3    3    0  502 -0.98237907279E+02 -0.86340709347E+02  0.62143225383E+03  0.63504602244E+03  0.25500000920E-02 0. -1.
</event>
<event>
 5   0  0.6256781E-03  0.7806180E+03  0.7818609E-02  0.9588503E-01
        2   -1    0    0  501    0  0.00000000000E+00  0.00000000000E+00  0.14402710550E+04  0.14402710550E+04  0.25500000920E-02 0. -1.
       -2   -1    0    0    0  501  0.00000000000E+00  0.00000000000E+00 -0.10577252648E+03  0.10577252651E+03  0.25500000920E-02 0.  1.
    10030    2    1    2    0    0  0.00000000000E+00  0.00000000000E+00  0.13344985285E+04  0.15460435815E+04  0.78061798166E+03 0.  0.
        1    1    3    3  502    0 -0.20286392168E+03 -0.56870182999E+02  0.13179791908E+04  0.13347123794E+04  0.50400001928E-02 0. -1.
       -1    1    3    3    0  502  0.20286392168E+03  0.56870182999E+02  0.16519337751E+02  0.21133120209E+03  0.50400001928E-02 0.  1.
</event>
<event>
 5   0  0.5813850E-03  0.8043870E+03  0.7818609E-02  0.9553689E-01
       -2   -1    0    0    0  501  0.00000000000E+00  0.00000000000E+00  0.83597300367E+03  0.83597300368E+03  0.25500000920E-02 0.  1.
        2   -1    0    0  501    0  0.00000000000E+00  0.00000000000E+00 -0.19349863038E+03  0.19349863040E+03  0.25500000920E-02 0. -1.
    10030    2    1    2    0    0  0.00000000000E+00  0.00000000000E+00  0.64247437329E+03  0.10294716341E+04  0.80438704927E+03 0.  0.
        5    1    3    3  502    0 -0.27744264435E+03  0.29095783638E+03  0.30801979868E+03  0.50648708753E+03  0.46999998093E+01 0. -1.
       -5    1    3    3    0  502  0.27744264435E+03 -0.29095783638E+03  0.33445457461E+03  0.52298454655E+03  0.46999998093E+01 0.  1.
</event>
<event>
 5   0  0.3860515E-03  0.8029281E+03  0.7818609E-02  0.9555788E-01
        1   -1    0    0  501    0  0.00000000000E+00  0.00000000000E+00  0.15074413598E+04  0.15074413598E+04  0.50400001928E-02 0. -1.
       -1   -1    0    0    0  501  0.00000000000E+00  0.00000000000E+00 -0.10691850063E+03  0.10691850075E+03  0.50400001928E-02 0.  1.
    10030    2    1    2    0    0  0.00000000000E+00  0.00000000000E+00  0.14005228592E+04  0.16143598606E+04  0.80292806674E+03 0.  0.
        4    1    3    3  502    0 -0.15145507784E+03  0.12158846962E+03  0.14066898028E+04  0.14200352851E+04  0.12699999809E+01 0. -1.
       -4    1    3    3    0  502  0.15145507784E+03 -0.12158846962E+03 -0.61669436595E+01  0.19432457550E+03  0.12699999809E+01 0.  1.
</event>
<event>
 5   0  0.3714448E-03  0.7991534E+03  0.7818609E-02  0.9561243E-01
       -1   -1    0    0    0  501  0.00000000000E+00  0.00000000000E+00  0.26423323800E+03  0.26423323805E+03  0.50400001928E-02 0. -1.
        1   -1    0    0  501    0  0.00000000000E+00  0.00000000000E+00 -0.60424477464E+03  0.60424477466E+03  0.50400001928E-02 0.  1.
    10030    2    1    2    0    0  0.00000000000E+00  0.00000000000E+00 -0.34001153664E+03  0.86847801271E+03  0.79915343552E+03 0.  0.
        1    1    3    3  502    0  0.25498159591E+03  0.18744908753E+03  0.95099998904E+02  0.33044936751E+03  0.50400001928E-02 0. -1.
       -1    1    3    3    0  502 -0.25498159591E+03 -0.18744908753E+03 -0.43511153555E+03  0.53802864521E+03  0.50400001928E-02 0.  1.
</event>
<event>
 5   0  0.3627496E-03  0.8005289E+03  0.7818609E-02  0.9559252E-01
        1   -1    0    0  501    0  0.00000000000E+00  0.00000000000E+00  0.77517256632E+03  0.77517256634E+03  0.50400001928E-02 0.  1.
       -1   -1    0    0    0  501  0.00000000000E+00  0.00000000000E+00 -0.20667864710E+03  0.20667864716E+03  0.50400001928E-02 0. -1.
    10030    2    1    2    0    0  0.00000000000E+00  0.00000000000E+00  0.56849391922E+03  0.98185121350E+03  0.80052886847E+03 0.  0.
        3    1    3    3  502    0  0.64348839955E+02 -0.20131168655E+03  0.70115781853E+03  0.73231787158E+03  0.10100000352E+00 0.  1.
       -3    1    3    3    0  502 -0.64348839955E+02  0.20131168655E+03 -0.13266389931E+03  0.24953334192E+03  0.10100000352E+00 0. -1.
</event>
<event>
 5   0  0.6536209E-03  0.8014998E+03  0.7818609E-02  0.9557849E-01
       -2   -1    0    0    0  501  0.00000000000E+00  0.00000000000E+00  0.26114530705E+03  0.26114530707E+03  0.25500000920E-02 0. -1.
        2   -1    0    0  501    0  0.00000000000E+00  0.00000000000E+00 -0.61498516464E+03  0.61498516465E+03  0.25500000920E-02 0.  1.
    10030    2    1    2    0    0  0.00000000000E+00  0.00000000000E+00 -0.35383985759E+03  0.87613047171E+03  0.80149981825E+03 0.  0.
        3    1    3    3  502    0  0.33020685372E+03  0.51619763201E+02  0.64802381872E+02  0.34044166181E+03  0.10100000352E+00 0. -1.
       -3    1    3    3    0  502 -0.33020685372E+03 -0.51619763201E+02 -0.41864223946E+03  0.53568880991E+03  0.10100000352E+00 0.  1.
</event>
<event>
 5   0  0.6153659E-03  0.8020564E+03  0.7818609E-02  0.9557045E-01
        2   -1    0    0  501    0  0.00000000000E+00  0.00000000000E+00  0.10436199937E+04  0.10436199937E+04  0.25500000920E-02 0.  1.
       -2   -1    0    0    0  501  0.00000000000E+00  0.00000000000E+00 -0.15410171843E+03  0.15410171846E+03  0.25500000920E-02 0. -1.
    10030    2    1    2    0    0  0.00000000000E+00  0.00000000000E+00  0.88951827526E+03  0.11977217122E+04  0.80205644299E+03 0.  0.
        2    1    3    3  502    0  0.38973485338E+03 -0.94194598023E+02  0.43341032933E+03  0.59043237701E+03  0.25500000920E-02 0. -1.
       -2    1    3    3    0  502 -0.38973485338E+03  0.94194598023E+02  0.45610794593E+03  0.60728933515E+03  0.25500000920E-02 0.  1.
</event>
<event>
 5   0  0.2478000E-03  0.7997717E+03  0.7818609E-02  0.9560348E-01
        4   -1    0    0  501    0  0.00000000000E+00  0.00000000000E+00  0.29963895227E+03  0.29964164367E+03  0.12699999809E+01 0. -1.
       -4   -1    0    0    0  501  0.00000000000E+00  0.00000000000E+00 -0.53366543434E+03  0.53366694549E+03  0.12699999809E+01 0.  1.
    10030    2    1    2    0    0  0.00000000000E+00  0.00000000000E+00 -0.23402648207E+03  0.83330858916E+03  0.79977172397E+03 0.  0.
        4    1    3    3  502    0 -0.24142604373E+03  0.17409144369E+03 -0.39525565132E+03  0.49479592577E+03  0.12699999809E+01 0.  1.
       -4    1    3    3    0  502  0.24142604373E+03 -0.17409144369E+03  0.16122916925E+03  0.33851266339E+03  0.12699999809E+01 0. -1.
</event>
<event>
 5   0  0.2478000E-03  0.8001881E+03  0.7818609E-02  0.9559745E-01
       -4   -1    0    0    0  501  0.00000000000E+00  0.00000000000E+00  0.51379746924E+03  0.51379903883E+03  0.12699999809E+01 0.  1.
        4   -1    0    0  501    0  0.00000000000E+00  0.00000000000E+00 -0.31154985813E+03  0.31155244662E+03  0.12699999809E+01 0. -1.
    10030    2    1    2    0    0  0.00000000000E+00  0.00000000000E+00  0.20224761112E+03  0.82535148545E+03  0.80018808935E+03 0.  0.
        5    1    3    3  502    0  0.61303380689E+02  0.19464774572E+03  0.45604840686E+03  0.49964796487E+03  0.46999998093E+01 0.  1.
       -5    1    3    3    0  502 -0.61303380689E+02 -0.19464774572E+03 -0.25380079575E+03  0.32570352058E+03  0.46999998093E+01 0. -1.
</event>
<event>
 5   0  0.6337108E-03  0.7980896E+03  0.7818609E-02  0.9562786E-01
        2   -1    0    0  501    0  0.00000000000E+00  0.00000000000E+00  0.96646830830E+03  0.96646830830E+03  0.25500000920E-02 0. -1.
       -2   -1    0    0    0  501  0.00000000000E+00  0.00000000000E+00 -0.16476148726E+03  0.16476148728E+03  0.25500000920E-02 0.  1.
    10030    2    1    2    0    0  0.00000000000E+00  0.00000000000E+00  0.80170682104E+03  0.11312297956E+04  0.79808960869E+03 0.  0.
        4    1    3    3  502    0  0.31598983824E+03  0.10014822854E+03  0.71575054294E+03  0.78878368274E+03  0.12699999809E+01 0. -1.
       -4    1    3    3    0  502 -0.31598983824E+03 -0.10014822854E+03  0.85956278105E+02  0.34244611283E+03  0.12699999809E+01 0.  1.
</event>
<event>
 5   0  0.3627496E-03  0.7949084E+03  0.7818609E-02  0.9567416E-01
        1   -1    0    0  501    0  0.00000000000E+00  0.00000000000E+00  0.22814012955E+03  0.22814012961E+03  0.50400001928E-02 0. -1.
       -1   -1    0    0    0  501  0.00000000000E+00  0.00000000000E+00 -0.69242458630E+03  0.69242458632E+03  0.50400001928E-02 0.  1.
    10030    2    1    2    0    0  0.00000000000E+00  0.00000000000E+00 -0.46428445675E+03  0.92056471593E+03  0.79490838430E+03 0.  0.
        3    1    3    3  502    0  0.36082905329E+03  0.87339473839E+02 -0.39650765969E+03  0.54317964228E+03  0.10100000352E+00 0. -1.
       -3    1    3    3    0  502 -0.36082905329E+03 -0.87339473839E+02 -0.67776797056E+02  0.37738507365E+03  0.10100000352E+00 0.  1.
</event>
<event>
 5   0  0.6256781E-03  0.7988742E+03  0.7818609E-02  0.9561648E-01
       -2   -1    0    0    0  501  0.00000000000E+00  0.00000000000E+00  0.21422925160E+03  0.21422925162E+03  0.25500000920E-02 0. -1.
        2   -1    0    0  501    0  0.00000000000E+00  0.00000000000E+00 -0.74476290950E+03  0.74476290950E+03  0.25500000920E-02 0.  1.
    10030    2    1    2    0    0  0.00000000000E+00  0.00000000000E+00 -0.53053365790E+03  0.95899216112E+03  0.79887420970E+03 0.  0.
        1    1    3    3  502    0 -0.15960242428E+03 -0.15509660765E+03 -0.66344425921E+03  0.69977580456E+03  0.50400001928E-02 0.  1.
       -1    1    3    3    0  502  0.15960242428E+03  0.15509660765E+03  0.13291060132E+03  0.25921635656E+03  0.50400001928E-02 0. -1.
</event>
<event>
 5   0  0.2478000E-03  0.7958215E+03  0.7818609E-02  0.9566085E-01
        4   -1    0    0  501    0  0.00000000000E+00  0.00000000000E+00  0.12214779580E+04  0.12214786182E+04  0.12699999809E+01 0. -1.
       -4   -1    0    0    0  501  0.00000000000E+00  0.00000000000E+00 -0.12962026915E+03  0.12962649064E+03  0.12699999809E+01 0.  1.
    10030    2    1    2    0    0  0.00000000000E+00  0.00000000000E+00  0.10918576888E+04  0.13511051088E+04  0.79582146395E+03 0.  0.
        1    1    3    3  502    0 -0.14089891254E+03  0.36413914261E+03  0.41570881801E+03  0.57031889337E+03  0.50400001928E-02 0.  1.
       -1    1    3    3    0  502  0.14089891254E+03 -0.36413914261E+03  0.67614887081E+03  0.78078621546E+03  0.50400001928E-02 0. -1.
</event>
<event>
 5   0  0.3671128E-03  0.8022816E+03  0.7818609E-02  0.9556720E-01
        1   -1    0    0  501    0  0.00000000000E+00  0.00000000000E+00  0.24439265923E+03  0.24439265929E+03  0.50400001928E-02 0. -1.
       -1   -1    0    0    0  501  0.00000000000E+00  0.00000000000E+00 -0.65842375698E+03  0.65842375700E+03  0.50400001928E-02 0.  1.
    10030    2    1    2    0    0  0.00000000000E+00  0.00000000000E+00 -0.41403109775E+03  0.90281641629E+03  0.80228157876E+03 0.  0.
        2    1    3    3  502    0 -0.20509188852E+03 -0.21850352607E+03  0.93059722505E+02  0.31379385845E+03  0.25500000920E-02 0. -1.
       -2    1    3    3    0  502  0.20509188852E+03  0.21850352607E+03 -0.50709082025E+03  0.58902255783E+03  0.25500000920E-02 0.  1.
</event>
<event>
 5   0  0.6337108E-03  0.7964340E+03  0.7818609E-02  0.9565193E-01
       -2   -1    0    0    0  501  0.00000000000E+00  0.00000000000E+00  0.28484287205E+03  0.28484287207E+03  0.25500000920E-02 0. -1.
        2   -1    0    0  501    0  0.00000000000E+00  0.00000000000E+00 -0.55671664692E+03  0.55671664693E+03  0.25500000920E-02 0.  1.
    10030    2    1    2    0    0  0.00000000000E+00  0.00000000000E+00 -0.27187377487E+03  0.84155951899E+03  0.79643397375E+03 0.  0.
        4    1    3    3  502    0  0.77420703490E+01  0.39699574927E+03 -0.16780513419E+03  0.43107509851E+03  0.12699999809E+01 0. -1.
       -4    1    3    3    0  502 -0.77420703490E+01 -0.39699574927E+03 -0.10406864067E+03  0.41048442049E+03  0.12699999809E+01 0.  1.
</event>
<event>
 5   0  0.6153659E-03  0.7927103E+03  0.7818609E-02  0.9570629E-01
       -2   -1    0    0    0  501  0.00000000000E+00  0.00000000000E+00  0.24745658576E+03  0.24745658577E+03  0.25500000920E-02 0. -1.
        2   -1    0    0  501    0  0.00000000000E+00  0.00000000000E+00 -0.63484839625E+03  0.63484839625E+03  0.25500000920E-02 0.  1.
    10030    2    1    2    0    0  0.00000000000E+00  0.00000000000E+00 -0.38739181048E+03  0.88230498203E+03  0.79271032949E+03 0.  0.
        2    1    3    3  502    0 -0.25792936175E+03 -0.18758691568E+03  0.68233737267E+02  0.32614758852E+03  0.25500000920E-02 0. -1.
       -2    1    3    3    0  502  0.25792936175E+03  0.18758691568E+03 -0.45562554775E+03  0.55615739351E+03  0.25500000920E-02 0.  1.
</event>
<event>
 5   0  0.3753450E-03  0.8012887E+03  0.7818609E-02  0.9558154E-01
        1   -1    0    0  501    0  0.00000000000E+00  0.00000000000E+00  0.70823399565E+03  0.70823399567E+03  0.50400001928E-02 0. -1.
       -1   -1    0    0    0  501  0.00000000000E+00  0.00000000000E+00 -0.22664248671E+03  0.22664248677E+03  0.50400001928E-02 0.  1.
    10030    2    1    2    0    0  0.00000000000E+00  0.00000000000E+00  0.48159150895E+03  0.93487648244E+03  0.80128874691E+03 0.  0.
        5    1    3    3  502    0  0.22160230627E+03  0.61180096254E+01  0.63011689300E+03  0.66799281510E+03  0.46999998093E+01 0. -1.
       -5    1    3    3    0  502 -0.22160230627E+03 -0.61180096254E+01 -0.14852538406E+03  0.26688366734E+03  0.46999998093E+01 0.  1.
</event>
<event>
 5   0  0.5813850E-03  0.7978713E+03  0.7818609E-02  0.9563103E-01
        2   -1    0    0  501    0  0.00000000000E+00  0.00000000000E+00  0.17558630721E+04  0.17558630721E+04  0.25500000920E-02 0.  1.
       -2   -1    0    0    0  501  0.00000000000E+00  0.00000000000E+00 -0.90638980135E+02  0.90638980171E+02  0.25500000920E-02 0. -1.
    10030    2    1    2    0    0  0.00000000000E+00  0.00000000000E+00  0.16652240920E+04  0.18465020523E+04  0.79787126317E+03 0.  0.
        5    1    3    3  502    0  0.30675096888E+03  0.16618465027E+03  0.38496641380E+03  0.51955242724E+03  0.46999998093E+01 0. -1.
       -5    1    3    3    0  502 -0.30675096888E+03 -0.16618465027E+03  0.12802576782E+04  0.13269496250E+04  0.46999998093E+01 0.  1.
</event>
<event>
 5   0  0.6153659E-03  0.7993206E+03  0.7818609E-02  0.9561001E-01
        2   -1    0    0  501    0  0.00000000000E+00  0.00000000000E+00  0.82994555688E+03  0.82994555688E+03  0.25500000920E-02 0.  1.
       -2   -1    0    0    0  501  0.00000000000E+00  0.00000000000E+00 -0.19245644933E+03  0.19245644935E+03  0.25500000920E-02 0. -1.
    10030    2    1    2    0    0  0.00000000000E+00  0.00000000000E+00  0.63748910755E+03  0.10224020062E+04  0.79932064912E+03 0.  0.
        2    1    3    3  502    0  0.37714547769E+03  0.47915399617E+02  0.16108018690E+03  0.41289396154E+03  0.25500000920E-02 0. -1.
       -2    1    3    3    0  502 -0.37714547769E+03 -0.47915399617E+02  0.47640892065E+03  0.60950804469E+03  0.25500000920E-02 0.  1.
</event>
<event>
 5   0  0.5813850E-03  0.8031448E+03  0.7818609E-02  0.9555476E-01
        2   -1    0    0  501    0  0.00000000000E+00  0.00000000000E+00  0.38531659387E+03  0.38531659388E+03  0.25500000920E-02 0. -1.
       -2   -1    0    0    0  501  0.00000000000E+00  0.00000000000E+00 -0.41851399295E+03  0.41851399296E+03  0.25500000920E-02 0.  1.
    10030    2    1    2    0    0  0.00000000000E+00  0.00000000000E+00 -0.33197399083E+02  0.80383058684E+03  0.80314478460E+03 0.  0.
        5    1    3    3  502    0  0.41676938445E+02 -0.39491561850E+03  0.42975091558E+02  0.39945495544E+03  0.46999998093E+01 0. -1.
       -5    1    3    3    0  502 -0.41676938445E+02  0.39491561850E+03 -0.76172490641E+02  0.40437563139E+03  0.46999998093E+01 0.  1.
</event>
<event>
 5   0  0.3627496E-03  0.8012137E+03  0.7818609E-02  0.9558262E-01
       -1   -1    0    0    0  501  0.00000000000E+00  0.00000000000E+00  0.14691531414E+03  0.14691531423E+03  0.50400001928E-02 0.  1.
        1   -1    0    0  501    0  0.00000000000E+00  0.00000000000E+00 -0.10923697402E+04  0.10923697402E+04  0.50400001928E-02 0. -1.
    10030    2    1    2    0    0  0.00000000000E+00  0.00000000000E+00 -0.94545442603E+03  0.12392850544E+04  0.80121368834E+03 0.  0.
        3    1    3    3  502    0  0.57885190220E+02 -0.30533643841E+02 -0.10840453872E+04  0.10860190654E+04  0.10100000352E+00 0. -1.
       -3    1    3    3    0  502 -0.57885190220E+02  0.30533643841E+02  0.13859096121E+03  0.15326598899E+03  0.10100000352E+00 0.  1.
</event>
<event>
 5   0  0.6256781E-03  0.8030957E+03  0.7818609E-02  0.9555547E-01
        2   -1    0    0  501    0  0.00000000000E+00  0.00000000000E+00  0.13771479940E+04  0.13771479940E+04  0.25500000920E-02 0. -1.
       -2   -1    0    0    0  501  0.00000000000E+00  0.00000000000E+00 -0.11708304986E+03  0.11708304989E+03  0.25500000920E-02 0.  1.
    10030    2    1    2    0    0  0.00000000000E+00  0.00000000000E+00  0.12600649441E+04  0.14942310439E+04  0.80309572846E+03 0.  0.
        1    1    3    3  502    0 -0.36355728491E+03 -0.17036993127E+03  0.64192778484E+03  0.75714667923E+03  0.50400001928E-02 0. -1.
       -1    1    3    3    0  502  0.36355728491E+03  0.17036993127E+03  0.61813715931E+03  0.73708436467E+03  0.50400001928E-02 0.  1.
</event>
<event>
 5   0  0.3627496E-03  0.8023433E+03  0.7818609E-02  0.9556632E-01
       -1   -1    0    0    0  501  0.00000000000E+00  0.00000000000E+00  0.23687338658E+03  0.23687338664E+03  0.50400001928E-02 0. -1.
        1   -1    0    0  501    0  0.00000000000E+00  0.00000000000E+00 -0.67942910696E+03  0.67942910698E+03  0.50400001928E-02 0.  1.
    10030    2    1    2    0    0  0.00000000000E+00  0.00000000000E+00 -0.44255572038E+03  0.91630249362E+03  0.80234325209E+03 0.  0.
        3    1    3    3  502    0  0.24873306984E+02 -0.36336301936E+03 -0.29201287569E+02  0.36538211592E+03  0.10100000352E+00 0.  1.
       -3    1    3    3    0  502 -0.24873306984E+02  0.36336301936E+03 -0.41335443281E+03  0.55092037770E+03  0.10100000352E+00 0. -1.
</event>
<event>
 5   0  0.6153659E-03  0.7983684E+03  0.7818609E-02  0.9562382E-01
        2   -1    0    0  501    0  0.00000000000E+00  0.00000000000E+00  0.50297043199E+03  0.50297043200E+03  0.25500000920E-02 0.  1.
       -2   -1    0    0    0  501  0.00000000000E+00  0.00000000000E+00 -0.31681388206E+03  0.31681388207E+03  0.25500000920E-02 0. -1.
    10030    2    1    2    0    0  0.00000000000E+00  0.00000000000E+00  0.18615654993E+03  0.81978431407E+03  0.79836837395E+03 0.  0.
        2    1    3    3  502    0  0.19324460003E+03 -0.28543587532E+03 -0.11364501460E+03  0.36294945063E+03  0.25500000920E-02 0. -1.
       -2    1    3    3    0  502 -0.19324460003E+03  0.28543587532E+03  0.29980156453E+03  0.45683486345E+03  0.25500000920E-02 0.  1.
</event>
<event>
 5   0  0.6536209E-03  0.7981125E+03  0.7818609E-02  0.9562753E-01
       -2   -1    0    0    0  501  0.00000000000E+00  0.00000000000E+00  0.48780858251E+03  0.48780858251E+03  0.25500000920E-02 0.  1.
        2   -1    0    0  501    0  0.00000000000E+00  0.00000000000E+00 -0.32645162687E+03  0.32645162688E+03  0.25500000920E-02 0. -1.
    10030    2    1    2    0    0  0.00000000000E+00  0.00000000000E+00  0.16135695564E+03  0.81426020939E+03  0.79811253684E+03 0.  0.
        3    1    3    3  502    0  0.14025416774E+03 -0.60444188039E+02 -0.29545554760E+03  0.33259392995E+03  0.10100000352E+00 0. -1.
       -3    1    3    3    0  502 -0.14025416774E+03  0.60444188039E+02  0.45681250323E+03  0.48166627944E+03  0.10100000352E+00 0.  1.
</event>
<event>
 5   0  0.6256781E-03  0.8080626E+03  0.7818609E-02  0.9548420E-01
        2   -1    0    0  501    0  0.00000000000E+00  0.00000000000E+00  0.42174449799E+03  0.42174449800E+03  0.25500000920E-02 0.  1.
       -2   -1    0    0    0  501  0.00000000000E+00  0.00000000000E+00 -0.38706204103E+03  0.38706204104E+03  0.25500000920E-02 0. -1.
    10030    2    1    2    0    0  0.00000000000E+00  0.00000000000E+00  0.34682456962E+02  0.80880653904E+03  0.80806258716E+03 0.  0.
        1    1    3    3  502    0  0.23326451922E+03 -0.20971257753E+03 -0.23754904012E+03  0.39347331242E+03  0.50400001928E-02 0. -1.
       -1    1    3    3    0  502 -0.23326451922E+03  0.20971257753E+03  0.27223149708E+03  0.41533322661E+03  0.50400001928E-02 0.  1.
</event>
<event>
 5   0  0.5813850E-03  0.7985954E+03  0.7818609E-02  0.9562052E-01
        2   -1    0    0  501    0  0.00000000000E+00  0.00000000000E+00  0.57558787732E+03  0.57558787733E+03  0.25500000920E-02 0.  1.
       -2   -1    0    0    0  501  0.00000000000E+00  0.00000000000E+00 -0.27700141841E+03  0.27700141842E+03  0.25500000920E-02 0. -1.
    10030    2    1    2    0    0  0.00000000000E+00  0.00000000000E+00  0.29858645891E+03  0.85258929576E+03  0.79859541308E+03 0.  0.
        5    1    3    3  502    0  0.31346926808E+03  0.12375071829E+03  0.37787009421E+03  0.50634486312E+03  0.46999998093E+01 0.  1.
       -5    1    3    3    0  502 -0.31346926808E+03 -0.12375071829E+03 -0.79283635297E+02  0.34624443264E+03  0.46999998093E+01 0. -1.
</event>
<event>
 5   0  0.3860515E-03  0.7944363E+03  0.7818609E-02  0.9568105E-01
        1   -1    0    0  501    0  0.00000000000E+00  0.00000000000E+00  0.16649032089E+03  0.16649032097E+03  0.50400001928E-02 0.  1.
       -1   -1    0    0    0  501  0.00000000000E+00  0.00000000000E+00 -0.94769621805E+03  0.94769621806E+03  0.50400001928E-02 0. -1.
    10030    2    1    2    0    0  0.00000000000E+00  0.00000000000E+00 -0.78120589715E+03  0.11141865390E+04  0.79443627184E+03 0.  0.
        4    1    3    3  502    0 -0.33601692372E+03 -0.12616440464E+03 -0.15195007881E+03  0.38976309391E+03  0.12699999809E+01 0.  1.
       -4    1    3    3    0  502  0.33601692372E+03  0.12616440464E+03 -0.62925581835E+03  0.72442344512E+03  0.12699999809E+01 0. -1.
</event>
<event>
 5   0  0.3627496E-03  0.7983972E+03  0.7818609E-02  0.9562340E-01
        1   -1    0    0  501    0  0.00000000000E+00  0.00000000000E+00  0.12569535941E+03  0.12569535951E+03  0.50400001928E-02 0. -1.
       -1   -1    0    0    0  501  0.00000000000E+00  0.00000000000E+00 -0.12678233574E+04  0.12678233574E+04  0.50400001928E-02 0.  1.
    10030    2    1    2    0    0  0.00000000000E+00  0.00000000000E+00 -0.11421279980E+04  0.13935187169E+04  0.79839717597E+03 0.  0.
        3    1    3    3  502    0 -0.51499490654E+02  0.69064376947E+01  0.11976781468E+03  0.13055357542E+03  0.10100000352E+00 0. -1.
       -3    1    3    3    0  502  0.51499490654E+02 -0.69064376947E+01 -0.12618958126E+04  0.12629651415E+04  0.10100000352E+00 0.  1.
</event>
<event>
 5   0  0.2478000E-03  0.7977090E+03  0.7818609E-02  0.9563339E-01
        3   -1    0    0  501    0  0.00000000000E+00  0.00000000000E+00  0.38748929373E+03  0.38748930690E+03  0.10100000352E+00 0. -1.
       -3   -1    0    0    0  501  0.00000000000E+00  0.00000000000E+00 -0.41055306773E+03  0.41055308016E+03  0.10100000352E+00 0.  1.
    10030    2    1    2    0    0  0.00000000000E+00  0.00000000000E+00 -0.23063774003E+02  0.79804238705E+03  0.79770904086E+03 0.  0.
        4    1    3    3  502    0 -0.22047896774E+03  0.26404682520E+03 -0.21348653560E+03  0.40485777119E+03  0.12699999809E+01 0.  1.
       -4    1    3    3    0  502  0.22047896774E+03 -0.26404682520E+03  0.19042276160E+03  0.39318461586E+03  0.12699999809E+01 0. -1.
</event>
<event>
 5   0  0.6337108E-03  0.7959261E+03  0.7818609E-02  0.9565933E-01
        2   -1    0    0  501    0  0.00000000000E+00  0.00000000000E+00  0.15163365582E+04  0.15163365582E+04  0.25500000920E-02 0.  1.
       -2   -1    0    0    0  501  0.00000000000E+00  0.00000000000E+00 -0.10444554876E+03  0.10444554879E+03  0.25500000920E-02 0. -1.
    10030    2    1    2    0    0  0.00000000000E+00  0.00000000000E+00  0.14118910094E+04  0.16207821069E+04  0.79592613713E+03 0.  0.
        4    1    3    3  502    0  0.29450361630E+03 -0.26304760513E+03  0.80666894557E+03  0.89813296522E+03  0.12699999809E+01 0.  1.
       -4    1    3    3    0  502 -0.29450361630E+03  0.26304760513E+03  0.60522206383E+03  0.72264914172E+03  0.12699999809E+01 0. -1.
</event>
<event>
 5   0  0.3860515E-03  0.8000661E+03  0.7818609E-02  0.9559921E-01
        1   -1    0    0  501    0  0.00000000000E+00  0.00000000000E+00  0.59498011614E+03  0.59498011616E+03  0.50400001928E-02 0.  1.
       -1   -1    0    0    0  501  0.00000000000E+00  0.00000000000E+00 -0.26896100830E+03  0.26896100834E+03  0.50400001928E-02 0. -1.
    10030    2    1    2    0    0  0.00000000000E+00  0.00000000000E+00  0.32601910784E+03  0.86394112450E+03  0.80006612722E+03 0.  0.
        4    1    3    3  502    0  0.26373495258E+03 -0.24029830250E+03  0.35835397323E+03  0.50568624900E+03  0.12699999809E+01 0.  1.
       -4    1    3    3    0  502 -0.26373495258E+03  0.24029830250E+03 -0.32334865390E+02  0.35825487550E+03  0.12699999809E+01 0. -1.
</event>
<event>
 5   0  0.2478000E-03  0.8021882E+03  0.7818609E-02  0.9556855E-01
        3   -1    0    0  501    0  0.00000000000E+00  0.00000000000E+00  0.28706649789E+03  0.28706651566E+03  0.10100000352E+00 0. -1.
       -3   -1    0    0    0  501  0.00000000000E+00  0.00000000000E+00 -0.56041535103E+03  0.56041536013E+03  0.10100000352E+00 0.  1.
    10030    2    1    2    0    0  0.00000000000E+00  0.00000000000E+00 -0.27334885313E+03  0.84748187579E+03  0.80218821624E+03 0.  0.
        4    1    3    3  502    0  0.36642486561E+03 -0.16159284731E+03 -0.11315916714E+03  0.41615626927E+03  0.12699999809E+01 0. -1.
       -4    1    3    3    0  502 -0.36642486561E+03  0.16159284731E+03 -0.16018968599E+03  0.43132560652E+03  0.12699999809E+01 0.  1.
</event>
<event>
 5   0  0.3714448E-03  0.7982988E+03  0.7818609E-02  0.9562483E-01
        1   -1    0    0  501    0  0.00000000000E+00  0.00000000000E+00  0.44814386370E+03  0.44814386373E+03  0.50400001928E-02 0. -1.
       -1   -1    0    0    0  501  0.00000000000E+00  0.00000000000E+00 -0.35551136634E+03  0.35551136637E+03  0.50400001928E-02 0.  1.
    10030    2    1    2    0    0  0.00000000000E+00  0.00000000000E+00  0.92632497366E+02  0.80365523010E+03  0.79829878448E+03 0.  0.
        1    1    3    3  502    0 -0.33060841771E+02  0.39691890151E+03  0.20014258265E+02  0.39879594305E+03  0.50400001928E-02 0.  1.
       -1    1    3    3    0  502  0.33060841771E+02 -0.39691890151E+03  0.72618239101E+02  0.40485928705E+03  0.50400001928E-02 0. -1.
</event>
<event>
 5   0  0.6256781E-03  0.8011108E+03  0.7818609E-02  0.9558411E-01
        2   -1    0    0  501    0  0.00000000000E+00  0.00000000000E+00  0.18128092739E+04  0.18128092739E+04  0.25500000920E-02 0. -1.
       -2   -1    0    0    0  501  0.00000000000E+00  0.00000000000E+00 -0.88506066385E+02  0.88506066422E+02  0.25500000920E-02 0.  1.
    10030    2    1    2    0    0  0.00000000000E+00  0.00000000000E+00  0.17243032075E+04  0.19013153403E+04  0.80111077380E+03 0.  0.
        1    1    3    3  502    0 -0.36163556432E+03  0.15210560010E+03  0.67039114059E+03  0.77675007329E+03  0.50400001928E-02 0. -1.
       -1    1    3    3    0  502  0.36163556432E+03 -0.15210560010E+03  0.10539120669E+04  0.11245652670E+04  0.50400001928E-02 0.  1.
</event>
<event>
 5   0  0.3753450E-03  0.8115225E+03  0.7818609E-02  0.9543487E-01
        1   -1    0    0  501    0  0.00000000000E+00  0.00000000000E+00  0.89393095532E+03  0.89393095533E+03  0.50400001928E-02 0.  1.
       -1   -1    0    0    0  501  0.00000000000E+00  0.00000000000E+00 -0.18417774735E+03  0.18417774742E+03  0.50400001928E-02 0. -1.
    10030    2    1    2    0    0  0.00000000000E+00  0.00000000000E+00  0.70975320797E+03  0.10781087027E+04  0.81152249428E+03 0.  0.
        5    1    3    3  502    0 -0.76903385933E+02  0.33272387606E+03  0.64593905853E+03  0.73067001156E+03  0.46999998093E+01 0.  1.
       -5    1    3    3    0  502  0.76903385933E+02 -0.33272387606E+03  0.63814149441E+02  0.34743869119E+03  0.46999998093E+01 0. -1.
</event>
<event>
 5   0  0.6337108E-03  0.7792945E+03  0.7818609E-02  0.9590481E-01
        2   -1    0    0  501    0  0.00000000000E+00  0.00000000000E+00  0.14470173443E+04  0.14470173443E+04  0.25500000920E-02 0.  1.
       -2   -1    0    0    0  501  0.00000000000E+00  0.00000000000E+00 -0.10492271358E+03  0.10492271361E+03  0.25500000920E-02 0. -1.
    10030    2    1    2    0    0  0.00000000000E+00  0.00000000000E+00  0.13420946307E+04  0.15519400579E+04  0.77929451786E+03 0.  0.
        4    1    3    3  502    0 -0.31784342334E+03  0.21230129320E+03  0.82175674496E+03  0.90630129739E+03  0.12699999809E+01 0. -1.
       -4    1    3    3    0  502  0.31784342334E+03 -0.21230129320E+03  0.52033788577E+03  0.64563876055E+03  0.12699999809E+01 0.  1.
</event>
<event>
 5   0  0.6256781E-03  0.7995065E+03  0.7818609E-02  0.9560732E-01
       -2   -1    0    0    0  501  0.00000000000E+00  0.00000000000E+00  0.19122274389E+03  0.19122274390E+03  0.25500000920E-02 0. -1.
        2   -1    0    0  501    0  0.00000000000E+00  0.00000000000E+00 -0.83568856097E+03  0.83568856097E+03  0.25500000920E-02 0.  1.
    10030    2    1    2    0    0  0.00000000000E+00  0.00000000000E+00 -0.64446581708E+03  0.10269113049E+04  0.79950649697E+03 0.  0.
        1    1    3    3  502    0  0.30372520407E+02 -0.21924037196E+03  0.10533777321E+03  0.24512216787E+03  0.50400001928E-02 0. -1.
       -1    1    3    3    0  502 -0.30372520407E+02  0.21924037196E+03 -0.74980359029E+03  0.78178913700E+03  0.50400001928E-02 0.  1.
</event>
<event>
 5   0  0.6536209E-03  0.7998394E+03  0.7818609E-02  0.9560250E-01
       -2   -1    0    0    0  501  0.00000000000E+00  0.00000000000E+00  0.37069847483E+03  0.37069847484E+03  0.25500000920E-02 0. -1.
        2   -1    0    0  501    0  0.00000000000E+00  0.00000000000E+00 -0.43144439334E+03  0.43144439335E+03  0.25500000920E-02 0.  1.
    10030    2    1    2    0    0  0.00000000000E+00  0.00000000000E+00 -0.60745918514E+02  0.80214286819E+03  0.79983943036E+03 0.  0.
        3    1    3    3  502    0 -0.53303302296E+02 -0.35691741217E+03 -0.20321920320E+03  0.41416100238E+03  0.10100000352E+00 0.  1.
       -3    1    3    3    0  502  0.53303302296E+02  0.35691741217E+03  0.14247328469E+03  0.38798186580E+03  0.10100000352E+00 0. -1.
</event>
<event>
 5   0  0.6153659E-03  0.7949219E+03  0.7818609E-02  0.9567397E-01
       -2   -1    0    0    0  501  0.00000000000E+00  0.00000000000E+00  0.36719576047E+03  0.36719576048E+03  0.25500000920E-02 0. -1.
        2   -1    0    0  501    0  0.00000000000E+00  0.00000000000E+00 -0.43022072492E+03  0.43022072493E+03  0.25500000920E-02 0.  1.
    10030    2    1    2    0    0  0.00000000000E+00  0.00000000000E+00 -0.63024964457E+02  0.79741648541E+03  0.79492194903E+03 0.  0.
        2    1    3    3  502    0 -0.15135986291E+03  0.13717718452E+03 -0.37353379041E+03  0.42574039113E+03  0.25500000920E-02 0.  1.
       -2    1    3    3    0  502  0.15135986291E+03 -0.13717718452E+03  0.31050882596E+03  0.37167609428E+03  0.25500000920E-02 0. -1.
</event>
<event>
 5   0  0.6256781E-03  0.7990737E+03  0.7818609E-02  0.9561359E-01
        2   -1    0    0  501    0  0.00000000000E+00  0.00000000000E+00  0.42262522085E+03  0.42262522086E+03  0.25500000920E-02 0.  1.
       -2   -1    0    0    0  501  0.00000000000E+00  0.00000000000E+00 -0.37770979217E+03  0.37770979217E+03  0.25500000920E-02 0. -1.
    10030    2    1    2    0    0  0.00000000000E+00  0.00000000000E+00  0.44915428687E+02  0.80033501304E+03  0.79907367455E+03 0.  0.
        1    1    3    3  502    0 -0.83573961354E+02 -0.27261580870E+03 -0.25785134308E+03  0.38443634235E+03  0.50400001928E-02 0. -1.
       -1    1    3    3    0  502  0.83573961354E+02  0.27261580870E+03  0.30276677177E+03  0.41589867069E+03  0.50400001928E-02 0.  1.
</event>
<event>
 5   0  0.5813850E-03  0.8007111E+03  0.7818609E-02  0.9558988E-01
       -2   -1    0    0    0  501  0.00000000000E+00  0.00000000000E+00  0.54111211398E+03  0.54111211398E+03  0.25500000920E-02 0.  1.
        2   -1    0    0  501    0  0.00000000000E+00  0.00000000000E+00 -0.29621321350E+03  0.29621321351E+03  0.25500000920E-02 0. -1.
    10030    2    1    2    0    0  0.00000000000E+00  0.00000000000E+00  0.24489890048E+03  0.83732532749E+03  0.80071107936E+03 0.  0.
        5    1    3    3  502    0  0.31717352104E+03 -0.66858563530E+01 -0.13288518673E+03  0.34398300245E+03  0.46999998093E+01 0. -1.
       -5    1    3    3    0  502 -0.31717352104E+03  0.66858563530E+01  0.37778408721E+03  0.49334232504E+03  0.46999998093E+01 0.  1.
</event>
<event>
 5   0  0.2478000E-03  0.8171180E+03  0.7818609E-02  0.9535565E-01
        3   -1    0    0  501    0  0.00000000000E+00  0.00000000000E+00  0.15255343130E+04  0.15255343164E+04  0.10100000352E+00 0. -1.
       -3   -1    0    0    0  501  0.00000000000E+00  0.00000000000E+00 -0.10941766971E+03  0.10941771632E+03  0.10100000352E+00 0.  1.
    10030    2    1    2    0    0  0.00000000000E+00  0.00000000000E+00  0.14161166433E+04  0.16349520327E+04  0.81711798520E+03 0.  0.
        5    1    3    3  502    0 -0.14197925658E+03  0.37899992853E+03  0.59666672577E+03  0.72099398525E+03  0.46999998093E+01 0.  1.
       -5    1    3    3    0  502  0.14197925658E+03 -0.37899992853E+03  0.81944991755E+03  0.91395804745E+03  0.46999998093E+01 0. -1.
</event>
<event>
 5   0  0.6153659E-03  0.7966843E+03  0.7818609E-02  0.9564829E-01
        2   -1    0    0  501    0  0.00000000000E+00  0.00000000000E+00  0.72589754152E+03  0.72589754153E+03  0.25500000920E-02 0. -1.
       -2   -1    0    0    0  501  0.00000000000E+00  0.00000000000E+00 -0.21859347096E+03  0.21859347098E+03  0.25500000920E-02 0.  1.
    10030    2    1    2    0    0  0.00000000000E+00  0.00000000000E+00  0.50730407056E+03  0.94449101250E+03  0.79668428671E+03 0.  0.
        2    1    3    3  502    0 -0.23400339857E+03 -0.32164930061E+03  0.27909534263E+03  0.48591159011E+03  0.25500000920E-02 0. -1.
       -2    1    3    3    0  502  0.23400339857E+03  0.32164930061E+03  0.22820872794E+03  0.45857942239E+03  0.25500000920E-02 0.  1.
</event>
<event>
 5   0  0.3627496E-03  0.7994169E+03  0.7818609E-02  0.9560862E-01
        1   -1    0    0  501    0  0.00000000000E+00  0.00000000000E+00  0.15821293569E+03  0.15821293577E+03  0.50400001928E-02 0.  1.
       -1   -1    0    0    0  501  0.00000000000E+00  0.00000000000E+00 -0.10098215681E+04  0.10098215681E+04  0.50400001928E-02 0. -1.
    10030    2    1    2    0    0  0.00000000000E+00  0.00000000000E+00 -0.85160863239E+03  0.11680345039E+04  0.79941687463E+03 0.  0.
        3    1    3    3  502    0 -0.18843868612E+03  0.11635560921E+03  0.60371724599E+02  0.22954851677E+03  0.10100000352E+00 0.  1.
       -3    1    3    3    0  502  0.18843868612E+03 -0.11635560921E+03 -0.91198035699E+03  0.93848598709E+03  0.10100000352E+00 0. -1.
</event>
<event>
 5   0  0.3714448E-03  0.8026538E+03  0.7818609E-02  0.9556184E-01
        1   -1    0    0  501    0  0.00000000000E+00  0.00000000000E+00  0.65177935124E+03  0.65177935126E+03  0.50400001928E-02 0. -1.
       -1   -1    0    0    0  501  0.00000000000E+00  0.00000000000E+00 -0.24711320013E+03  0.24711320018E+03  0.50400001928E-02 0.  1.
    10030    2    1    2    0    0  0.00000000000E+00  0.00000000000E+00  0.40466615111E+03  0.89889255143E+03  0.80265380157E+03 0.  0.
        1    1    3    3  502    0  0.37688507923E+03  0.12527444553E+03  0.26693136701E+03  0.47852732876E+03  0.50400001928E-02 0.  1.
       -1    1    3    3    0  502 -0.37688507923E+03 -0.12527444553E+03  0.13773478410E+03  0.42036522267E+03  0.50400001928E-02 0. -1.
</event>
<event>
 5   0  0.6153659E-03  0.8119403E+03  0.7818609E-02  0.9542893E-01
       -2   -1    0    0    0  501  0.00000000000E+00  0.00000000000E+00  0.20039857989E+04  0.20039857989E+04  0.25500000920E-02 0.  1.
        2   -1    0    0  501    0  0.00000000000E+00  0.00000000000E+00 -0.82241977807E+02  0.82241977846E+02  0.25500000920E-02 0. -1.
    10030    2    1    2    0    0  0.00000000000E+00  0.00000000000E+00  0.19217438211E+04  0.20862277768E+04  0.81194028264E+03 0.  0.
        2    1    3    3  502    0  0.13901529303E+03  0.18068835383E+03  0.97762695311E+02  0.24805458574E+03  0.25500000920E-02 0. -1.
       -2    1    3    3    0  502 -0.13901529303E+03 -0.18068835383E+03  0.18239811258E+04  0.18381731910E+04  0.25500000920E-02 0.  1.
</event>
<event>
 5   0  0.5813850E-03  0.8120176E+03  0.7818609E-02  0.9542783E-01
        2   -1    0    0  501    0  0.00000000000E+00  0.00000000000E+00  0.66292296551E+03  0.66292296552E+03  0.25500000920E-02 0. -1.
       -2   -1    0    0    0  501  0.00000000000E+00  0.00000000000E+00 -0.24866110951E+03  0.24866110952E+03  0.25500000920E-02 0.  1.
    10030    2    1    2    0    0  0.00000000000E+00  0.00000000000E+00  0.41426185600E+03  0.91158407503E+03  0.81201763559E+03 0.  0.
        5    1    3    3  502    0  0.30337291400E+03 -0.18533946905E+03 -0.12956882494E+02  0.35577494929E+03  0.46999998093E+01 0.  1.
       -5    1    3    3    0  502 -0.30337291400E+03  0.18533946905E+03  0.42721873850E+03  0.55580912575E+03  0.46999998093E+01 0. -1.
</event>
<event>
 5   0  0.5813850E-03  0.8010613E+03  0.7818609E-02  0.9558482E-01
        2   -1    0    0  501    0  0.00000000000E+00  0.00000000000E+00  0.53451432707E+03  0.53451432708E+03  0.25500000920E-02 0.  1.
       -2   -1    0    0    0  501  0.00000000000E+00  0.00000000000E+00 -0.30013193158E+03  0.30013193159E+03  0.25500000920E-02 0. -1.
    10030    2    1    2    0    0  0.00000000000E+00  0.00000000000E+00  0.23438239549E+03  0.83464625867E+03  0.80106133960E+03 0.  0.
        5    1    3    3  502    0  0.31362855046E+03  0.54422889885E+02  0.37044128472E+03  0.48843991855E+03  0.46999998093E+01 0.  1.
       -5    1    3    3    0  502 -0.31362855046E+03 -0.54422889885E+02 -0.13605888923E+03  0.34620634012E+03  0.46999998093E+01 0. -1.
</event>
<event>
 5   0  0.3860515E-03  0.7995016E+03  0.7818609E-02  0.9560739E-01
        1   -1    0    0  501    0  0.00000000000E+00  0.00000000000E+00  0.11608257503E+04  0.11608257503E+04  0.50400001928E-02 0.  1.
       -1   -1    0    0    0  501  0.00000000000E+00  0.00000000000E+00 -0.13766124043E+03  0.13766124052E+03  0.50400001928E-02 0. -1.
    10030    2    1    2    0    0  0.00000000000E+00  0.00000000000E+00  0.10231645099E+04  0.12984869908E+04  0.79950162669E+03 0.  0.
        4    1    3    3  502    0  0.30669459823E+03  0.25606055832E+03  0.49037434034E+03  0.63253236492E+03  0.12699999809E+01 0.  1.
       -4    1    3    3    0  502 -0.30669459823E+03 -0.25606055832E+03  0.53279016952E+03  0.66595462590E+03  0.12699999809E+01 0. -1.
</event>
<event>
 5   0  0.3753450E-03  0.8009747E+03  0.7818609E-02  0.9558607E-01
        1   -1    0    0  501    0  0.00000000000E+00  0.00000000000E+00  0.71182688360E+03  0.71182688362E+03  0.50400001928E-02 0.  1.
       -1   -1    0    0    0  501  0.00000000000E+00  0.00000000000E+00 -0.22532182235E+03  0.22532182240E+03  0.50400001928E-02 0. -1.
    10030    2    1    2    0    0  0.00000000000E+00  0.00000000000E+00  0.48650506125E+03  0.93714870602E+03  0.80097473279E+03 0.  0.
        5    1    3    3  502    0 -0.52093142952E+02  0.33831466207E+02 -0.21961895743E+03  0.22828236925E+03  0.46999998093E+01 0. -1.
       -5    1    3    3    0  502  0.52093142952E+02 -0.33831466207E+02  0.70612401868E+03  0.70886633677E+03  0.46999998093E+01 0.  1.
</event>
<event>
 5   0  0.6256781E-03  0.7982369E+03  0.7818609E-02  0.9562573E-01
       -2   -1    0    0    0  501  0.00000000000E+00  0.00000000000E+00  0.22535645820E+03  0.22535645822E+03  0.25500000920E-02 0.  1.
        2   -1    0    0  501    0  0.00000000000E+00  0.00000000000E+00 -0.70686033345E+03  0.70686033346E+03  0.25500000920E-02 0. -1.
    10030    2    1    2    0    0  0.00000000000E+00  0.00000000000E+00 -0.48150387525E+03  0.93221679167E+03  0.79823691019E+03 0.  0.
        1    1    3    3  502    0  0.19204103045E+03 -0.54568343424E+02 -0.64435692299E+03  0.67457638983E+03  0.50400001928E-02 0. -1.
       -1    1    3    3    0  502 -0.19204103045E+03  0.54568343424E+02  0.16285304774E+03  0.25764040185E+03  0.50400001928E-02 0.  1.
</event>
<event>
 5   0  0.6337108E-03  0.7992645E+03  0.7818609E-02  0.9561082E-01
       -2   -1    0    0    0  501  0.00000000000E+00  0.00000000000E+00  0.69322085104E+02  0.69322085151E+02  0.25500000920E-02 0.  1.
        2   -1    0    0  501    0  0.00000000000E+00  0.00000000000E+00 -0.23038247983E+04  0.23038247983E+04  0.25500000920E-02 0. -1.
    10030    2    1    2    0    0  0.00000000000E+00  0.00000000000E+00 -0.22345027132E+04  0.23731468835E+04  0.79926450889E+03 0.  0.
        4    1    3    3  502    0 -0.37247809538E+03  0.72250078322E+02 -0.74469150489E+03  0.83577931041E+03  0.12699999809E+01 0.  1.
       -4    1    3    3    0  502  0.37247809538E+03 -0.72250078322E+02 -0.14898112083E+04  0.15373675731E+04  0.12699999809E+01 0. -1.
</event>
<event>
 5   0  0.6153659E-03  0.8020508E+03  0.7818609E-02  0.9557053E-01
       -2   -1    0    0    0  501  0.00000000000E+00  0.00000000000E+00  0.24815621633E+03  0.24815621634E+03  0.25500000920E-02 0.  1.
        2   -1    0    0  501    0  0.00000000000E+00  0.00000000000E+00 -0.64806497236E+03  0.64806497236E+03  0.25500000920E-02 0. -1.
    10030    2    1    2    0    0  0.00000000000E+00  0.00000000000E+00 -0.39990875603E+03  0.89622118871E+03  0.80205075023E+03 0.  0.
        2    1    3    3  502    0  0.12313288459E+03 -0.21088312018E+03 -0.55540376124E+03  0.60671800340E+03  0.25500000920E-02 0. -1.
       -2    1    3    3    0  502 -0.12313288459E+03  0.21088312018E+03  0.15549500522E+03  0.28950318530E+03  0.25500000920E-02 0.  1.
</event>
<event>
 5   0  0.6153659E-03  0.8018754E+03  0.7818609E-02  0.9557307E-01
        2   -1    0    0  501    0  0.00000000000E+00  0.00000000000E+00  0.16159897427E+04  0.16159897427E+04  0.25500000920E-02 0. -1.
       -2   -1    0    0    0  501  0.00000000000E+00  0.00000000000E+00 -0.99475281059E+02  0.99475281091E+02  0.25500000920E-02 0.  1.
    10030    2    1    2    0    0  0.00000000000E+00  0.00000000000E+00  0.15165144616E+04  0.17154650237E+04  0.80187538650E+03 0.  0.
        2    1    3    3  502    0 -0.21222307960E+03  0.25581764109E+03  0.12379114548E+04  0.12817589753E+04  0.25500000920E-02 0. -1.
       -2    1    3    3    0  502  0.21222307960E+03 -0.25581764109E+03  0.27860300681E+03  0.43370604840E+03  0.25500000920E-02 0.  1.
</event>
<event>
 5   0  0.2478000E-03  0.7986064E+03  0.7818609E-02  0.9562036E-01
       -4   -1    0    0    0  501  0.00000000000E+00  0.00000000000E+00  0.22076786992E+03  0.22077152282E+03  0.12699999809E+01 0. -1.
        4   -1    0    0  501    0  0.00000000000E+00  0.00000000000E+00 -0.72221014211E+03  0.72221125875E+03  0.12699999809E+01 0.  1.
    10030    2    1    2    0    0  0.00000000000E+00  0.00000000000E+00 -0.50144227219E+03  0.94298278157E+03  0.79860639492E+03 0.  0.
        4    1    3    3  502    0  0.19197561388E+03  0.34381308061E+03 -0.32886165608E+03  0.51304353856E+03  0.12699999809E+01 0.  1.
       -4    1    3    3    0  502 -0.19197561388E+03 -0.34381308061E+03 -0.17258061612E+03  0.42993924301E+03  0.12699999809E+01 0. -1.
</event>
<event>
 5   0  0.3714448E-03  0.8000107E+03  0.7818609E-02  0.9560002E-01
        1   -1    0    0  501    0  0.00000000000E+00  0.00000000000E+00  0.16335036324E+04  0.16335036325E+04  0.50400001928E-02 0.  1.
       -1   -1    0    0    0  501  0.00000000000E+00  0.00000000000E+00 -0.97951593014E+02  0.97951593143E+02  0.50400001928E-02 0. -1.
    10030    2    1    2    0    0  0.00000000000E+00  0.00000000000E+00  0.15355520394E+04  0.17314552256E+04  0.80001070771E+03 0.  0.
        1    1    3    3  502    0 -0.10783492805E+03  0.61885408874E+02 -0.55070177098E+02  0.13598124860E+03  0.50400001928E-02 0. -1.
       -1    1    3    3    0  502  0.10783492805E+03 -0.61885408874E+02  0.15906222165E+04  0.15954739770E+04  0.50400001928E-02 0.  1.
</event>
<event>
 5   0  0.5813850E-03  0.7947161E+03  0.7818609E-02  0.9567697E-01
        2   -1    0    0  501    0  0.00000000000E+00  0.00000000000E+00  0.23753780860E+03  0.23753780862E+03  0.25500000920E-02 0. -1.
       -2   -1    0    0    0  501  0.00000000000E+00  0.00000000000E+00 -0.66470854409E+03  0.66470854409E+03  0.25500000920E-02 0.  1.
    10030    2    1    2    0    0  0.00000000000E+00  0.00000000000E+00 -0.42717073549E+03  0.90224635271E+03  0.79471607743E+03 0.  0.
        5    1    3    3  502    0  0.21335202557E+03  0.18058084458E+03  0.10701119119E+03  0.29933595388E+03  0.46999998093E+01 0. -1.
       -5    1    3    3    0  502 -0.21335202557E+03 -0.18058084458E+03 -0.53418192667E+03  0.60291039884E+03  0.46999998093E+01 0.  1.
</event>
<event>
 5   0  0.6256781E-03  0.8003062E+03  0.7818609E-02  0.9559574E-01
       -2   -1    0    0    0  501  0.00000000000E+00  0.00000000000E+00  0.17326888410E+03  0.17326888412E+03  0.25500000920E-02 0.  1.
        2   -1    0    0  501    0  0.00000000000E+00  0.00000000000E+00 -0.92412723442E+03  0.92412723443E+03  0.25500000920E-02 0. -1.
    10030    2    1    2    0    0  0.00000000000E+00  0.00000000000E+00 -0.75085835032E+03  0.10973961185E+04  0.80030617814E+03 0.  0.
        1    1    3    3  502    0  0.23228341330E+03 -0.21245118774E+03 -0.36675567924E+02  0.31691669027E+03  0.50400001928E-02 0.  1.
       -1    1    3    3    0  502 -0.23228341330E+03  0.21245118774E+03 -0.71418278239E+03  0.78047942827E+03  0.50400001928E-02 0. -1.
</event>
<event>
 5   0  0.3860515E-03  0.8008061E+03  0.7818609E-02  0.9558851E-01
        1   -1    0    0  501    0  0.00000000000E+00  0.00000000000E+00  0.35506036102E+03  0.35506036106E+03  0.50400001928E-02 0.  1.
       -1   -1    0    0    0  501  0.00000000000E+00  0.00000000000E+00 -0.45153614725E+03  0.45153614728E+03  0.50400001928E-02 0. -1.
    10030    2    1    2    0    0  0.00000000000E+00  0.00000000000E+00 -0.96475786227E+02  0.80659650833E+03  0.80080606262E+03 0.  0.
        4    1    3    3  502    0 -0.16312062764E+03 -0.59879797549E+02  0.31510173687E+03  0.35983975155E+03  0.12699999809E+01 0.  1.
       -4    1    3    3    0  502  0.16312062764E+03  0.59879797549E+02 -0.41157752310E+03  0.44675675679E+03  0.12699999809E+01 0. -1.
</event>
<event>
 5   0  0.3627496E-03  0.7974819E+03  0.7818609E-02  0.9563669E-01
       -1   -1    0    0    0  501  0.00000000000E+00  0.00000000000E+00  0.39860958914E+03  0.39860958918E+03  0.50400001928E-02 0.  1.
        1   -1    0    0  501    0  0.00000000000E+00  0.00000000000E+00 -0.39887236950E+03  0.39887236954E+03  0.50400001928E-02 0. -1.
    10030    2    1    2    0    0  0.00000000000E+00  0.00000000000E+00 -0.26278036085E+00  0.79748195871E+03  0.79748191542E+03 0.  0.
        3    1    3    3  502    0 -0.28958419992E+03 -0.21042134004E+03 -0.17579639898E+03  0.39879886319E+03  0.10100000352E+00 0. -1.
       -3    1    3    3    0  502  0.28958419992E+03  0.21042134004E+03  0.17553361862E+03  0.39868309552E+03  0.10100000352E+00 0.  1.
</event>
<event>
 5   0  0.5813850E-03  0.7964087E+03  0.7818609E-02  0.9565230E-01
       -2   -1    0    0    0  501  0.00000000000E+00  0.00000000000E+00  0.10779605240E+03  0.10779605243E+03  0.25500000920E-02 0. -1.
        2   -1    0    0  501    0  0.00000000000E+00  0.00000000000E+00 -0.14709882192E+04  0.14709882192E+04  0.25500000920E-02 0.  1.
    10030    2    1    2    0    0  0.00000000000E+00  0.00000000000E+00 -0.13631921668E+04  0.15787842716E+04  0.79640874727E+03 0.  0.
        5    1    3    3  502    0  0.72509256838E+01 -0.33901792187E+03 -0.10953339313E+04  0.11466316926E+04  0.46999998093E+01 0.  1.
       -5    1    3    3    0  502 -0.72509256838E+01  0.33901792187E+03 -0.26785823541E+03  0.43215257901E+03  0.46999998093E+01 0. -1.
</event>
<event>
 5   0  0.5813850E-03  0.8010282E+03  0.7818609E-02  0.9558530E-01
       -2   -1    0    0    0  501  0.00000000000E+00  0.00000000000E+00  0.16576527855E+03  0.16576527857E+03  0.25500000920E-02 0.  1.
        2   -1    0    0  501    0  0.00000000000E+00  0.00000000000E+00 -0.96770284273E+03  0.96770284274E+03  0.25500000920E-02 0. -1.
    10030    2    1    2    0    0  0.00000000000E+00  0.00000000000E+00 -0.80193756418E+03  0.11334681213E+04  0.80102816752E+03 0.  0.
        5    1    3    3  502    0 -0.29411118071E+03  0.67912761715E+02 -0.28531930694E+02  0.30323207431E+03  0.46999998093E+01 0.  1.
       -5    1    3    3    0  502  0.29411118071E+03 -0.67912761715E+02 -0.77340563349E+03  0.83023604700E+03  0.46999998093E+01 0. -1.
</event>
<event>
 5   0  0.6153659E-03  0.7996425E+03  0.7818609E-02  0.9560535E-01
       -2   -1    0    0    0  501  0.00000000000E+00  0.00000000000E+00  0.14824992828E+03  0.14824992830E+03  0.25500000920E-02 0.  1.
        2   -1    0    0  501    0  0.00000000000E+00  0.00000000000E+00 -0.10782942241E+04  0.10782942241E+04  0.25500000920E-02 0. -1.
    10030    2    1    2    0    0  0.00000000000E+00  0.00000000000E+00 -0.93004429579E+03  0.12265441524E+04  0.79964252362E+03 0.  0.
        2    1    3    3  502    0 -0.20672553172E+03 -0.19074299947E+03 -0.29181037486E+02  0.28278944511E+03  0.25500000920E-02 0.  1.
       -2    1    3    3    0  502  0.20672553172E+03  0.19074299947E+03 -0.90086325831E+03  0.94375470726E+03  0.25500000920E-02 0. -1.
</event>
<event>
 5   0  0.6337108E-03  0.7992646E+03  0.7818609E-02  0.9561082E-01
       -2   -1    0    0    0  501  0.00000000000E+00  0.00000000000E+00  0.15896923291E+03  0.15896923294E+03  0.25500000920E-02 0.  1.
        2   -1    0    0  501    0  0.00000000000E+00  0.00000000000E+00 -0.10046345098E+04  0.10046345098E+04  0.25500000920E-02 0. -1.
    10030    2    1    2    0    0  0.00000000000E+00  0.00000000000E+00 -0.84566527688E+03  0.11636037427E+04  0.79926460548E+03 0.  0.
        4    1    3    3  502    0 -0.17823104609E+03 -0.12092109685E+02  0.97601874423E+02  0.20356881809E+03  0.12699999809E+01 0.  1.
       -4    1    3    3    0  502  0.17823104609E+03  0.12092109685E+02 -0.94326715130E+03  0.96003492464E+03  0.12699999809E+01 0. -1.
</event>
<event>
 5   0  0.3714448E-03  0.7947796E+03  0.7818609E-02  0.9567604E-01
       -1   -1    0    0    0  501  0.00000000000E+00  0.00000000000E+00  0.27889570769E+03  0.27889570773E+03  0.50400001928E-02 0.  1.
        1   -1    0    0  501    0  0.00000000000E+00  0.00000000000E+00 -0.56622832615E+03  0.56622832618E+03  0.50400001928E-02 0. -1.
    10030    2    1    2    0    0  0.00000000000E+00  0.00000000000E+00 -0.28733261847E+03  0.84512403391E+03  0.79477959149E+03 0.  0.
        1    1    3    3  502    0 -0.34868283156E+03  0.61290657199E+01 -0.34626434814E+03  0.49144306007E+03  0.50400001928E-02 0. -1.
       -1    1    3    3    0  502  0.34868283156E+03 -0.61290657199E+01  0.58931729666E+02  0.35368097384E+03  0.50400001928E-02 0.  1.
</event>
<event>
 5   0  0.3714448E-03  0.8057606E+03  0.7818609E-02  0.9551716E-01
        1   -1    0    0  501    0  0.00000000000E+00  0.00000000000E+00  0.14042006763E+04  0.14042006763E+04  0.50400001928E-02 0. -1.
       -1   -1    0    0    0  501  0.00000000000E+00  0.00000000000E+00 -0.11559068794E+03  0.11559068805E+03  0.50400001928E-02 0.  1.
    10030    2    1    2    0    0  0.00000000000E+00  0.00000000000E+00  0.12886099884E+04  0.15197913644E+04  0.80576056560E+03 0.  0.
        1    1    3    3  502    0 -0.17652519368E+03  0.34706647781E+03  0.83937634750E+03  0.92529397317E+03  0.50400001928E-02 0. -1.
       -1    1    3    3    0  502  0.17652519368E+03 -0.34706647781E+03  0.44923364089E+03  0.59449739121E+03  0.50400001928E-02 0.  1.
</event>
<event>
 5   0  0.3627496E-03  0.8011503E+03  0.7818609E-02  0.9558354E-01
       -1   -1    0    0    0  501  0.00000000000E+00  0.00000000000E+00  0.19178319630E+03  0.19178319636E+03  0.50400001928E-02 0. -1.
        1   -1    0    0  501    0  0.00000000000E+00  0.00000000000E+00 -0.83667636455E+03  0.83667636456E+03  0.50400001928E-02 0.  1.
    10030    2    1    2    0    0  0.00000000000E+00  0.00000000000E+00 -0.64489316825E+03  0.10284595609E+04  0.80115034170E+03 0.  0.
        3    1    3    3  502    0  0.15156745885E+03 -0.36000457558E+03 -0.20845851350E+03  0.44275382671E+03  0.10100000352E+00 0.  1.
       -3    1    3    3    0  502 -0.15156745885E+03  0.36000457558E+03 -0.43643465475E+03  0.58570573421E+03  0.10100000352E+00 0. -1.
</event>
<event>
 5   0  0.6256781E-03  0.8017633E+03  0.7818609E-02  0.9557468E-01
       -2   -1    0    0    0  501  0.00000000000E+00  0.00000000000E+00  0.28565673022E+03  0.28565673023E+03  0.25500000920E-02 0. -1.
        2   -1    0    0  501    0  0.00000000000E+00  0.00000000000E+00 -0.56258463811E+03  0.56258463812E+03  0.25500000920E-02 0.  1.
    10030    2    1    2    0    0  0.00000000000E+00  0.00000000000E+00 -0.27692790789E+03  0.84824136835E+03  0.80176327729E+03 0.  0.
        1    1    3    3  502    0  0.27100760860E+03 -0.99468288199E+02 -0.43273750764E+03  0.52019305533E+03  0.50400001928E-02 0.  1.
       -1    1    3    3    0  502 -0.27100760860E+03  0.99468288199E+02  0.15580959975E+03  0.32804831302E+03  0.50400001928E-02 0. -1.
</event>
<event>
 5   0  0.3753450E-03  0.7995662E+03  0.7818609E-02  0.9560645E-01
        1   -1    0    0  501    0  0.00000000000E+00  0.00000000000E+00  0.19493448747E+04  0.19493448747E+04  0.50400001928E-02 0. -1.
       -1   -1    0    0    0  501  0.00000000000E+00  0.00000000000E+00 -0.81989864222E+02  0.81989864377E+02  0.50400001928E-02 0.  1.
    10030    2    1    2    0    0  0.00000000000E+00  0.00000000000E+00  0.18673550105E+04  0.20313347391E+04  0.79956618678E+03 0.  0.
        5    1    3    3  502    0 -0.20370012769E+03 -0.20864828847E+03  0.23895738117E+03  0.37702860676E+03  0.46999998093E+01 0.  1.
       -5    1    3    3    0  502  0.20370012769E+03  0.20864828847E+03  0.16283976293E+04  0.16543061323E+04  0.46999998093E+01 0. -1.
</event>
<event>
 5   0  0.6337108E-03  0.8127093E+03  0.7818609E-02  0.9541801E-01
       -2   -1    0    0    0  501  0.00000000000E+00  0.00000000000E+00  0.23792666569E+03  0.23792666571E+03  0.25500000920E-02 0. -1.
        2   -1    0    0  501    0  0.00000000000E+00  0.00000000000E+00 -0.69401258450E+03  0.69401258450E+03  0.25500000920E-02 0.  1.
    10030    2    1    2    0    0  0.00000000000E+00  0.00000000000E+00 -0.45608591880E+03  0.93193925021E+03  0.81270929658E+03 0.  0.
        4    1    3    3  502    0 -0.25917280646E+02 -0.40463255325E+03 -0.25888230919E+03  0.48106223246E+03  0.12699999809E+01 0. -1.
       -4    1    3    3    0  502  0.25917280646E+02  0.40463255325E+03 -0.19720360961E+03  0.45087701775E+03  0.12699999809E+01 0.  1.
</event>
<event>
 5   0  0.3860515E-03  0.8019524E+03  0.7818609E-02  0.9557195E-01
       -1   -1    0    0    0  501  0.00000000000E+00  0.00000000000E+00  0.38205471997E+03  0.38205472000E+03  0.50400001928E-02 0. -1.
        1   -1    0    0  501    0  0.00000000000E+00  0.00000000000E+00 -0.42083476485E+03  0.42083476488E+03  0.50400001928E-02 0.  1.
    10030    2    1    2    0    0  0.00000000000E+00  0.00000000000E+00 -0.38780044885E+02  0.80288948488E+03  0.80195238827E+03 0.  0.
        4    1    3    3  502    0 -0.61723974264E+02 -0.27911438494E+03  0.26212461976E+03  0.38784741595E+03  0.12699999809E+01 0. -1.
       -4    1    3    3    0  502  0.61723974264E+02  0.27911438494E+03 -0.30090466464E+03  0.41504206893E+03  0.12699999809E+01 0.  1.
</event>
<event>
 5   0  0.3753450E-03  0.8027252E+03  0.7818609E-02  0.9556081E-01
        1   -1    0    0  501    0  0.00000000000E+00  0.00000000000E+00  0.42537251042E+03  0.42537251045E+03  0.50400001928E-02 0.  1.
       -1   -1    0    0    0  501  0.00000000000E+00  0.00000000000E+00 -0.37870788795E+03  0.37870788799E+03  0.50400001928E-02 0. -1.
    10030    2    1    2    0    0  0.00000000000E+00  0.00000000000E+00  0.46664622470E+02  0.80408039844E+03  0.80272517101E+03 0.  0.
        5    1    3    3  502    0 -0.50649504132E+02 -0.39188725901E+03  0.93656528993E+02  0.40612144915E+03  0.46999998093E+01 0.  1.
       -5    1    3    3    0  502  0.50649504132E+02  0.39188725901E+03 -0.46991906524E+02  0.39795894929E+03  0.46999998093E+01 0. -1.
</event>
<event>
 5   0  0.6256781E-03  0.8149617E+03  0.7818609E-02  0.9538610E-01
       -2   -1    0    0    0  501  0.00000000000E+00  0.00000000000E+00  0.24210748506E+03  0.24210748508E+03  0.25500000920E-02 0.  1.
        2   -1    0    0  501    0  0.00000000000E+00  0.00000000000E+00 -0.68581383495E+03  0.68581383496E+03  0.25500000920E-02 0. -1.
    10030    2    1    2    0    0  0.00000000000E+00  0.00000000000E+00 -0.44370634989E+03  0.92792132004E+03  0.81496174833E+03 0.  0.
        1    1    3    3  502    0 -0.39394161389E+03 -0.23568479278E+02 -0.10632412429E+03  0.40871785843E+03  0.50400001928E-02 0.  1.
       -1    1    3    3    0  502  0.39394161389E+03  0.23568479278E+02 -0.33738222560E+03  0.51920346161E+03  0.50400001928E-02 0. -1.
</event>
<event>
 5   0  0.3627496E-03  0.7986731E+03  0.7818609E-02  0.9561940E-01
       -1   -1    0    0    0  501  0.00000000000E+00  0.00000000000E+00  0.80724490827E+02  0.80724490985E+02  0.50400001928E-02 0. -1.
        1   -1    0    0  501    0  0.00000000000E+00  0.00000000000E+00 -0.19754805836E+04  0.19754805836E+04  0.50400001928E-02 0.  1.
    10030    2    1    2    0    0  0.00000000000E+00  0.00000000000E+00 -0.18947560928E+04  0.20562050746E+04  0.79867306057E+03 0.  0.
        3    1    3    3  502    0 -0.23314069121E+03  0.32161330188E+03 -0.10529008675E+04  0.11253399241E+04  0.10100000352E+00 0. -1.
       -3    1    3    3    0  502  0.23314069121E+03 -0.32161330188E+03 -0.84185522532E+03  0.93086515052E+03  0.10100000352E+00 0.  1.
</event>
<event>
 5   0  0.6153659E-03  0.8079247E+03  0.7818609E-02  0.9548617E-01
       -2   -1    0    0    0  501  0.00000000000E+00  0.00000000000E+00  0.13895537010E+03  0.13895537012E+03  0.25500000920E-02 0. -1.
        2   -1    0    0  501    0  0.00000000000E+00  0.00000000000E+00 -0.11743739791E+04  0.11743739791E+04  0.25500000920E-02 0.  1.
    10030    2    1    2    0    0  0.00000000000E+00  0.00000000000E+00 -0.10354186090E+04  0.13133293492E+04  0.80792467698E+03 0.  0.
        2    1    3    3  502    0 -0.43139945069E+02 -0.29435128678E+03 -0.96194174437E+03  0.10068940632E+04  0.25500000920E-02 0.  1.
       -2    1    3    3    0  502  0.43139945069E+02  0.29435128678E+03 -0.73476864611E+02  0.30643528603E+03  0.25500000920E-02 0. -1.
</event>
<event>
 5   0  0.6153659E-03  0.8021595E+03  0.7818609E-02  0.9556897E-01
       -2   -1    0    0    0  501  0.00000000000E+00  0.00000000000E+00  0.90952056461E+02  0.90952056497E+02  0.25500000920E-02 0.  1.
        2   -1    0    0  501    0  0.00000000000E+00  0.00000000000E+00 -0.17686788440E+04  0.17686788440E+04  0.25500000920E-02 0. -1.
    10030    2    1    2    0    0  0.00000000000E+00  0.00000000000E+00 -0.16777267876E+04  0.18596309005E+04  0.80215953056E+03 0.  0.
        2    1    3    3  502    0 -0.11680701371E+03 -0.12142835379E+03  0.49278741788E+01  0.16856158372E+03  0.25500000920E-02 0.  1.
       -2    1    3    3    0  502  0.11680701371E+03  0.12142835379E+03 -0.16826546617E+04  0.16910693168E+04  0.25500000920E-02 0. -1.
</event>
<event>
 5   0  0.6337108E-03  0.8005125E+03  0.7818609E-02  0.9559276E-01
        2   -1    0    0  501    0  0.00000000000E+00  0.00000000000E+00  0.36859108551E+03  0.36859108552E+03  0.25500000920E-02 0.  1.
       -2   -1    0    0    0  501  0.00000000000E+00  0.00000000000E+00 -0.43464175661E+03  0.43464175662E+03  0.25500000920E-02 0. -1.
    10030    2    1    2    0    0  0.00000000000E+00  0.00000000000E+00 -0.66050671100E+02  0.80323284214E+03  0.80051252803E+03 0.  0.
        4    1    3    3  502    0 -0.11653224033E+02  0.35779200006E+03 -0.21266598834E+03  0.41638845858E+03  0.12699999809E+01 0. -1.
       -4    1    3    3    0  502  0.11653224033E+02 -0.35779200006E+03  0.14661531724E+03  0.38684438356E+03  0.12699999809E+01 0.  1.
</event>
<event>
 5   0  0.5813850E-03  0.8003691E+03  0.7818609E-02  0.9559483E-01
        2   -1    0    0  501    0  0.00000000000E+00  0.00000000000E+00  0.78951955362E+03  0.78951955362E+03  0.25500000920E-02 0. -1.
       -2   -1    0    0    0  501  0.00000000000E+00  0.00000000000E+00 -0.20284195257E+03  0.20284195259E+03  0.25500000920E-02 0.  1.
    10030    2    1    2    0    0  0.00000000000E+00  0.00000000000E+00  0.58667760105E+03  0.99236150621E+03  0.80036913449E+03 0.  0.
        5    1    3    3  502    0 -0.25814750303E+03 -0.30575057802E+03  0.29156417534E+03  0.49513160636E+03  0.46999998093E+01 0. -1.
       -5    1    3    3    0  502  0.25814750303E+03  0.30575057802E+03  0.29511342571E+03  0.49722989986E+03  0.46999998093E+01 0.  1.
</event>
<event>
 5   0  0.6256781E-03  0.7961708E+03  0.7818609E-02  0.9565576E-01
       -2   -1    0    0    0  501  0.00000000000E+00  0.00000000000E+00  0.23667842738E+03  0.23667842739E+03  0.25500000920E-02 0.  1.
        2   -1    0    0  501    0  0.00000000000E+00  0.00000000000E+00 -0.66956668870E+03  0.66956668871E+03  0.25500000920E-02 0. -1.
    10030    2    1    2    0    0  0.00000000000E+00  0.00000000000E+00 -0.43288826132E+03  0.90624511610E+03  0.79617081311E+03 0.  0.
        1    1    3    3  502    0 -0.11701148723E+02  0.31644232392E+03 -0.49104279316E+03  0.58429075466E+03  0.50400001928E-02 0. -1.
       -1    1    3    3    0  502  0.11701148723E+02 -0.31644232392E+03  0.58154531836E+02  0.32195436143E+03  0.50400001928E-02 0.  1.
</event>
<event>
 5   0  0.5813850E-03  0.8016902E+03  0.7818609E-02  0.9557574E-01
        2   -1    0    0  501    0  0.00000000000E+00  0.00000000000E+00  0.26438050727E+03  0.26438050728E+03  0.25500000920E-02 0.  1.
       -2   -1    0    0    0  501  0.00000000000E+00  0.00000000000E+00 -0.60774828047E+03  0.60774828048E+03  0.25500000920E-02 0. -1.
    10030    2    1    2    0    0  0.00000000000E+00  0.00000000000E+00 -0.34336777320E+03  0.87212878776E+03  0.80169021122E+03 0.  0.
        5    1    3    3  502    0 -0.31057092490E+03 -0.14404470592E+02 -0.44687854945E+03  0.54441189932E+03  0.46999998093E+01 0. -1.
       -5    1    3    3    0  502  0.31057092490E+03  0.14404470592E+02  0.10351077625E+03  0.32771688844E+03  0.46999998093E+01 0.  1.
</event>
<event>
 5   0  0.3860515E-03  0.7680402E+03  0.7818609E-02  0.9607466E-01
       -1   -1    0    0    0  501  0.00000000000E+00  0.00000000000E+00  0.20826944353E+03  0.20826944359E+03  0.50400001928E-02 0.  1.
        1   -1    0    0  501    0  0.00000000000E+00  0.00000000000E+00 -0.70808006708E+03  0.70808006710E+03  0.50400001928E-02 0. -1.
    10030    2    1    2    0    0  0.00000000000E+00  0.00000000000E+00 -0.49981062355E+03  0.91634951069E+03  0.76804021140E+03 0.  0.
        4    1    3    3  502    0 -0.14478748377E+03  0.30280942822E+03 -0.27294083023E+02  0.33675442854E+03  0.12699999809E+01 0.  1.
       -4    1    3    3    0  502  0.14478748377E+03 -0.30280942822E+03 -0.47251654053E+03  0.57959508215E+03  0.12699999809E+01 0. -1.
</event>
<event>
 5   0  0.3627496E-03  0.7670102E+03  0.7818609E-02  0.9609036E-01
        1   -1    0    0  501    0  0.00000000000E+00  0.00000000000E+00  0.14715373336E+04  0.14715373336E+04  0.50400001928E-02 0. -1.
       -1   -1    0    0    0  501  0.00000000000E+00  0.00000000000E+00 -0.99947283796E+02  0.99947283923E+02  0.50400001928E-02 0.  1.
    10030    2    1    2    0    0  0.00000000000E+00  0.00000000000E+00  0.13715900498E+04  0.15714846175E+04  0.76701019446E+03 0.  0.
        3    1    3    3  502    0 -0.10216851290E+03 -0.14988664801E+03 -0.64953642205E+01  0.18151201678E+03  0.10100000352E+00 0.  1.
       -3    1    3    3    0  502  0.10216851290E+03  0.14988664801E+03  0.13780854140E+04  0.13899726007E+04  0.10100000352E+00 0. -1.
</event>
<event>
 5   0  0.6337108E-03  0.8013837E+03  0.7818609E-02  0.9558016E-01
       -2   -1    0    0    0  501  0.00000000000E+00  0.00000000000E+00  0.26044168149E+03  0.26044168150E+03  0.25500000920E-02 0. -1.
        2   -1    0    0  501    0  0.00000000000E+00  0.00000000000E+00 -0.61646803740E+03  0.61646803740E+03  0.25500000920E-02 0.  1.
    10030    2    1    2    0    0  0.00000000000E+00  0.00000000000E+00 -0.35602635591E+03  0.87690971891E+03  0.80138373394E+03 0.  0.
        4    1    3    3  502    0 -0.20798275528E+03  0.44366165389E+02  0.19359065899E+03  0.28758327364E+03  0.12699999809E+01 0. -1.
       -4    1    3    3    0  502  0.20798275528E+03 -0.44366165389E+02 -0.54961701490E+03  0.58932644527E+03  0.12699999809E+01 0.  1.
</event>
<event>
 5   0  0.6153659E-03  0.8004254E+03  0.7818609E-02  0.9559402E-01
        2   -1    0    0  501    0  0.00000000000E+00  0.00000000000E+00  0.61825187375E+03  0.61825187376E+03  0.25500000920E-02 0.  1.
       -2   -1    0    0    0  501  0.00000000000E+00  0.00000000000E+00 -0.25906949593E+03  0.25906949594E+03  0.25500000920E-02 0. -1.
    10030    2    1    2    0    0  0.00000000000E+00  0.00000000000E+00  0.35918237783E+03  0.87732136969E+03  0.80042539014E+03 0.  0.
        2    1    3    3  502    0  0.10466903319E+03  0.29993775157E+02 -0.24252338142E+03  0.26584360741E+03  0.25500000920E-02 0. -1.
       -2    1    3    3    0  502 -0.10466903319E+03 -0.29993775157E+02  0.60170575925E+03  0.61147776229E+03  0.25500000920E-02 0.  1.
</event>
<event>
 5   0  0.3753450E-03  0.8001130E+03  0.7818609E-02  0.9559854E-01
       -1   -1    0    0    0  501  0.00000000000E+00  0.00000000000E+00  0.11197780141E+04  0.11197780141E+04  0.50400001928E-02 0.  1.
        1   -1    0    0  501    0  0.00000000000E+00  0.00000000000E+00 -0.14292582838E+03  0.14292582847E+03  0.50400001928E-02 0. -1.
    10030    2    1    2    0    0  0.00000000000E+00  0.00000000000E+00  0.97685218568E+03  0.12627038425E+04  0.80011299284E+03 0.  0.
        5    1    3    3  502    0  0.22006274450E+03 -0.25815083087E+03  0.15382092336E+03  0.37249487172E+03  0.46999998093E+01 0. -1.
       -5    1    3    3    0  502 -0.22006274450E+03  0.25815083087E+03  0.82303126231E+03  0.89020897083E+03  0.46999998093E+01 0.  1.
</event>
<event>
 5   0  0.3671128E-03  0.7997974E+03  0.7818609E-02  0.9560310E-01
       -1   -1    0    0    0  501  0.00000000000E+00  0.00000000000E+00  0.47672750435E+03  0.47672750438E+03  0.50400001928E-02 0.  1.
        1   -1    0    0  501    0  0.00000000000E+00  0.00000000000E+00 -0.33545150837E+03  0.33545150841E+03  0.50400001928E-02 0. -1.
    10030    2    1    2    0    0  0.00000000000E+00  0.00000000000E+00  0.14127599598E+03  0.81217901279E+03  0.79979737545E+03 0.  0.
        2    1    3    3  502    0 -0.54879454034E+02 -0.10455672863E+03  0.45861963726E+03  0.47357769760E+03  0.25500000920E-02 0.  1.
       -2    1    3    3    0  502  0.54879454034E+02  0.10455672863E+03 -0.31734364128E+03  0.33860131518E+03  0.25500000920E-02 0. -1.
</event>
<event>
 5   0  0.5813850E-03  0.7997283E+03  0.7818609E-02  0.9560410E-01
        2   -1    0    0  501    0  0.00000000000E+00  0.00000000000E+00  0.68078854062E+03  0.68078854063E+03  0.25500000920E-02 0.  1.
       -2   -1    0    0    0  501  0.00000000000E+00  0.00000000000E+00 -0.23486197448E+03  0.23486197449E+03  0.25500000920E-02 0. -1.
    10030    2    1    2    0    0  0.00000000000E+00  0.00000000000E+00  0.44592656614E+03  0.91565051512E+03  0.79972830602E+03 0.  0.
        5    1    3    3  502    0  0.60250652707E+02  0.16589294524E+03 -0.18781549444E+03  0.25777385512E+03  0.46999998093E+01 0. -1.
       -5    1    3    3    0  502 -0.60250652707E+02 -0.16589294524E+03  0.63374206058E+03  0.65787666001E+03  0.46999998093E+01 0.  1.
</event>
<event>
 5   0  0.3671128E-03  0.8030577E+03  0.7818609E-02  0.9555602E-01
        1   -1    0    0  501    0  0.00000000000E+00  0.00000000000E+00  0.60524768692E+03  0.60524768694E+03  0.50400001928E-02 0.  1.
       -1   -1    0    0    0  501  0.00000000000E+00  0.00000000000E+00 -0.26637926029E+03  0.26637926034E+03  0.50400001928E-02 0. -1.
    10030    2    1    2    0    0  0.00000000000E+00  0.00000000000E+00  0.33886842663E+03  0.87162694728E+03  0.80305773432E+03 0.  0.
        2    1    3    3  502    0 -0.18899448056E+03  0.28094623301E+03  0.40367564949E+03  0.52688113415E+03  0.25500000920E-02 0.  1.
       -2    1    3    3    0  502  0.18899448056E+03 -0.28094623301E+03 -0.64807222860E+02  0.34474581312E+03  0.25500000920E-02 0. -1.
</event>
<event>
 5   0  0.3627496E-03  0.8020757E+03  0.7818609E-02  0.9557018E-01
        1   -1    0    0  501    0  0.00000000000E+00  0.00000000000E+00  0.10301154106E+04  0.10301154106E+04  0.50400001928E-02 0. -1.
       -1   -1    0    0    0  501  0.00000000000E+00  0.00000000000E+00 -0.15612944370E+03  0.15612944378E+03  0.50400001928E-02 0.  1.
    10030    2    1    2    0    0  0.00000000000E+00  0.00000000000E+00  0.87398596691E+03  0.11862448544E+04  0.80207567240E+03 0.  0.
        3    1    3    3  502    0 -0.57568053717E+02  0.33095089645E+03  0.11300510800E+03  0.35441887831E+03  0.10100000352E+00 0.  1.
       -3    1    3    3    0  502  0.57568053717E+02 -0.33095089645E+03  0.76098085891E+03  0.83182597609E+03  0.10100000352E+00 0. -1.
</event>
<event>
 5   0  0.3714448E-03  0.8013463E+03  0.7818609E-02  0.9558071E-01
       -1   -1    0    0    0  501  0.00000000000E+00  0.00000000000E+00  0.36627837924E+03  0.36627837927E+03  0.50400001928E-02 0. -1.
        1   -1    0    0  501    0  0.00000000000E+00  0.00000000000E+00 -0.43829765170E+03  0.43829765173E+03  0.50400001928E-02 0.  1.
    10030    2    1    2    0    0  0.00000000000E+00  0.00000000000E+00 -0.72019272468E+02  0.80457603101E+03  0.80134625104E+03 0.  0.
        1    1    3    3  502    0  0.25564366419E+03 -0.30814454921E+03 -0.51309401232E+02  0.40365752926E+03  0.50400001928E-02 0.  1.
       -1    1    3    3    0  502 -0.25564366419E+03  0.30814454921E+03 -0.20709871236E+02  0.40091850174E+03  0.50400001928E-02 0. -1.
</event>
<event>
 5   0  0.6256781E-03  0.8061991E+03  0.7818609E-02  0.9551087E-01
        2   -1    0    0  501    0  0.00000000000E+00  0.00000000000E+00  0.59077117020E+03  0.59077117020E+03  0.25500000920E-02 0. -1.
       -2   -1    0    0    0  501  0.00000000000E+00  0.00000000000E+00 -0.27504598336E+03  0.27504598337E+03  0.25500000920E-02 0.  1.
    10030    2    1    2    0    0  0.00000000000E+00  0.00000000000E+00  0.31572518684E+03  0.86581715358E+03  0.80619907580E+03 0.  0.
        1    1    3    3  502    0 -0.22141835834E+03  0.22584682536E+03 -0.11053104818E+03  0.33503729728E+03  0.50400001928E-02 0. -1.
       -1    1    3    3    0  502  0.22141835834E+03 -0.22584682536E+03  0.42625623502E+03  0.53077985629E+03  0.50400001928E-02 0.  1.
</event>
<event>
 5   0  0.2478000E-03  0.8022447E+03  0.7818609E-02  0.9556774E-01
        3   -1    0    0  501    0  0.00000000000E+00  0.00000000000E+00  0.36217207517E+03  0.36217208925E+03  0.10100000352E+00 0.  1.
       -3   -1    0    0    0  501  0.00000000000E+00  0.00000000000E+00 -0.44426150697E+03  0.44426151845E+03  0.10100000352E+00 0. -1.
    10030    2    1    2    0    0  0.00000000000E+00  0.00000000000E+00 -0.82089431802E+02  0.80643360770E+03  0.80224465645E+03 0.  0.
        2    1    3    3  502    0  0.24266290717E+03 -0.27825603781E+03  0.11657778156E+03  0.38717191047E+03  0.25500000920E-02 0.  1.
       -2    1    3    3    0  502 -0.24266290717E+03  0.27825603781E+03 -0.19866721336E+03  0.41926169723E+03  0.25500000920E-02 0. -1.
</event>
<event>
 5   0  0.6536209E-03  0.8002075E+03  0.7818609E-02  0.9559717E-01
       -2   -1    0    0    0  501  0.00000000000E+00  0.00000000000E+00  0.45791818753E+03  0.45791818754E+03  0.25500000920E-02 0. -1.
        2   -1    0    0  501    0  0.00000000000E+00  0.00000000000E+00 -0.34958870685E+03  0.34958870686E+03  0.25500000920E-02 0.  1.
    10030    2    1    2    0    0  0.00000000000E+00  0.00000000000E+00  0.10832948068E+03  0.80750689439E+03  0.80020754065E+03 0.  0.
        3    1    3    3  502    0 -0.13892735406E+03 -0.95536143006E+01 -0.32434464995E+03  0.35297527308E+03  0.10100000352E+00 0.  1.
       -3    1    3    3    0  502  0.13892735406E+03  0.95536143006E+01  0.43267413063E+03  0.45453162131E+03  0.10100000352E+00 0. -1.
</event>
<event>
 5   0  0.5813850E-03  0.7988295E+03  0.7818609E-02  0.9561713E-01
        2   -1    0    0  501    0  0.00000000000E+00  0.00000000000E+00  0.71020928609E+03  0.71020928609E+03  0.25500000920E-02 0. -1.
       -2   -1    0    0    0  501  0.00000000000E+00  0.00000000000E+00 -0.22462693172E+03  0.22462693173E+03  0.25500000920E-02 0.  1.
    10030    2    1    2    0    0  0.00000000000E+00  0.00000000000E+00  0.48558235437E+03  0.93483621783E+03  0.79882947572E+03 0.  0.
        5    1    3    3  502    0 -0.27368236965E+03  0.41890109497E+02 -0.94058510874E+02  0.29244813933E+03  0.46999998093E+01 0.  1.
       -5    1    3    3    0  502  0.27368236965E+03 -0.41890109497E+02  0.57964086525E+03  0.64238807850E+03  0.46999998093E+01 0. -1.
</event>
<event>
 5   0  0.6337108E-03  0.7962745E+03  0.7818609E-02  0.9565425E-01
       -2   -1    0    0    0  501  0.00000000000E+00  0.00000000000E+00  0.21262754217E+03  0.21262754219E+03  0.25500000920E-02 0. -1.
        2   -1    0    0  501    0  0.00000000000E+00  0.00000000000E+00 -0.74549730080E+03  0.74549730081E+03  0.25500000920E-02 0.  1.
    10030    2    1    2    0    0  0.00000000000E+00  0.00000000000E+00 -0.53286975863E+03  0.95812484300E+03  0.79627447222E+03 0.  0.
        4    1    3    3  502    0 -0.98585936966E+02 -0.72517264668E+02 -0.72229988620E+03  0.73259584980E+03  0.12699999809E+01 0.  1.
       -4    1    3    3    0  502  0.98585936966E+02  0.72517264668E+02  0.18943012757E+03  0.22552899320E+03  0.12699999809E+01 0. -1.
</event>
<event>
 5   0  0.6256781E-03  0.7984559E+03  0.7818609E-02  0.9562255E-01
        2   -1    0    0  501    0  0.00000000000E+00  0.00000000000E+00  0.26113754538E+03  0.26113754539E+03  0.25500000920E-02 0.  1.
       -2   -1    0    0    0  501  0.00000000000E+00  0.00000000000E+00 -0.61034095317E+03  0.61034095318E+03  0.25500000920E-02 0. -1.
    10030    2    1    2    0    0  0.00000000000E+00  0.00000000000E+00 -0.34920340779E+03  0.87147849856E+03  0.79845585567E+03 0.  0.
        1    1    3    3  502    0  0.64228407631E+01  0.33006328273E+03 -0.41963249805E+03  0.53392364336E+03  0.50400001928E-02 0. -1.
       -1    1    3    3    0  502 -0.64228407631E+01 -0.33006328273E+03  0.70429090259E+02  0.33755485520E+03  0.50400001928E-02 0.  1.
</event>
<event>
 5   0  0.3671128E-03  0.8057178E+03  0.7818609E-02  0.9551778E-01
       -1   -1    0    0    0  501  0.00000000000E+00  0.00000000000E+00  0.44576040919E+03  0.44576040922E+03  0.50400001928E-02 0. -1.
        1   -1    0    0  501    0  0.00000000000E+00  0.00000000000E+00 -0.36408638329E+03  0.36408638333E+03  0.50400001928E-02 0.  1.
    10030    2    1    2    0    0  0.00000000000E+00  0.00000000000E+00  0.81674025899E+02  0.80984679255E+03  0.80571780475E+03 0.  0.
        2    1    3    3  502    0  0.33250932974E+03 -0.15420387061E+03  0.20888833818E+03  0.42187157513E+03  0.25500000920E-02 0. -1.
       -2    1    3    3    0  502 -0.33250932974E+03  0.15420387061E+03 -0.12721431228E+03  0.38797521741E+03  0.25500000920E-02 0.  1.
</event>
<event>
 5   0  0.3627496E-03  0.8000763E+03  0.7818609E-02  0.9559907E-01
       -1   -1    0    0    0  501  0.00000000000E+00  0.00000000000E+00  0.32049336082E+03  0.32049336086E+03  0.50400001928E-02 0.  1.
        1   -1    0    0  501    0  0.00000000000E+00  0.00000000000E+00 -0.49932550972E+03  0.49932550974E+03  0.50400001928E-02 0. -1.
    10030    2    1    2    0    0  0.00000000000E+00  0.00000000000E+00 -0.17883214890E+03  0.81981887060E+03  0.80007627331E+03 0.  0.
        3    1    3    3  502    0  0.21032655702E+03  0.33966589494E+03 -0.68408474211E+02  0.40532691783E+03  0.10100000352E+00 0. -1.
       -3    1    3    3    0  502 -0.21032655702E+03 -0.33966589494E+03 -0.11042367469E+03  0.41449195277E+03  0.10100000352E+00 0.  1.
</event>
<event>
 5   0  0.2478000E-03  0.7989928E+03  0.7818609E-02  0.9561476E-01
        3   -1    0    0  501    0  0.00000000000E+00  0.00000000000E+00  0.16669440163E+03  0.16669443223E+03  0.10100000352E+00 0. -1.
       -3   -1    0    0    0  501  0.00000000000E+00  0.00000000000E+00 -0.95742491332E+03  0.95742491865E+03  0.10100000352E+00 0.  1.
    10030    2    1    2    0    0  0.00000000000E+00  0.00000000000E+00 -0.79073051168E+03  0.11241193509E+04  0.79899284910E+03 0.  0.
        1    1    3    3  502    0  0.23576548950E+03 -0.30773583612E+03 -0.53112164750E+03  0.65755373571E+03  0.50400001928E-02 0.  1.
       -1    1    3    3    0  502 -0.23576548950E+03  0.30773583612E+03 -0.25960886418E+03  0.46656561517E+03  0.50400001928E-02 0. -1.
</event>
<event>
 5   0  0.6536209E-03  0.7978516E+03  0.7818609E-02  0.9563132E-01
       -2   -1    0    0    0  501  0.00000000000E+00  0.00000000000E+00  0.39046308429E+03  0.39046308429E+03  0.25500000920E-02 0.  1.
        2   -1    0    0  501    0  0.00000000000E+00  0.00000000000E+00 -0.40757194003E+03  0.40757194004E+03  0.25500000920E-02 0. -1.
    10030    2    1    2    0    0  0.00000000000E+00  0.00000000000E+00 -0.17108855744E+02  0.79803502433E+03  0.79785160720E+03 0.  0.
        3    1    3    3  502    0 -0.16337349458E+02  0.33750511284E+03  0.20354425848E+03  0.39447038614E+03  0.10100000352E+00 0.  1.
       -3    1    3    3    0  502  0.16337349458E+02 -0.33750511284E+03 -0.22065311422E+03  0.40356463819E+03  0.10100000352E+00 0. -1.
</event>
<event>
 5   0  0.6536209E-03  0.8030872E+03  0.7818609E-02  0.9555559E-01
        2   -1    0    0  501    0  0.00000000000E+00  0.00000000000E+00  0.82318062670E+03  0.82318062670E+03  0.25500000920E-02 0. -1.
       -2   -1    0    0    0  501  0.00000000000E+00  0.00000000000E+00 -0.19587105347E+03  0.19587105348E+03  0.25500000920E-02 0.  1.
    10030    2    1    2    0    0  0.00000000000E+00  0.00000000000E+00  0.62730957323E+03  0.10190516802E+04  0.80308718470E+03 0.  0.
        3    1    3    3  502    0 -0.94824072090E+01  0.23700486044E+03  0.72478422841E+03  0.76260960384E+03  0.10100000352E+00 0. -1.
       -3    1    3    3    0  502  0.94824072090E+01 -0.23700486044E+03 -0.97474655178E+02  0.25644207635E+03  0.10100000352E+00 0.  1.
</event>
<event>
 5   0  0.3671128E-03  0.8023101E+03  0.7818609E-02  0.9556679E-01
        1   -1    0    0  501    0  0.00000000000E+00  0.00000000000E+00  0.84136227235E+03  0.84136227236E+03  0.50400001928E-02 0. -1.
       -1   -1    0    0    0  501  0.00000000000E+00  0.00000000000E+00 -0.19126762448E+03  0.19126762455E+03  0.50400001928E-02 0.  1.
    10030    2    1    2    0    0  0.00000000000E+00  0.00000000000E+00  0.65009464786E+03  0.10326298969E+04  0.80231007273E+03 0.  0.
        2    1    3    3  502    0  0.30959851479E+03 -0.24230805205E+03  0.42769822921E+03  0.58093907402E+03  0.25500000920E-02 0. -1.
       -2    1    3    3    0  502 -0.30959851479E+03  0.24230805205E+03  0.22239641865E+03  0.45169082289E+03  0.25500000920E-02 0.  1.
</event>
<event>
 5   0  0.3714448E-03  0.7954351E+03  0.7818609E-02  0.9566648E-01
        1   -1    0    0  501    0  0.00000000000E+00  0.00000000000E+00  0.55763649354E+03  0.55763649356E+03  0.50400001928E-02 0. -1.
       -1   -1    0    0    0  501  0.00000000000E+00  0.00000000000E+00 -0.28366017884E+03  0.28366017888E+03  0.50400001928E-02 0.  1.
    10030    2    1    2    0    0  0.00000000000E+00  0.00000000000E+00  0.27397631470E+03  0.84129667244E+03  0.79543514509E+03 0.  0.
        1    1    3    3  502    0  0.10311357119E+03  0.33203586439E+03 -0.67276506638E+02  0.35412759307E+03  0.50400001928E-02 0.  1.
       -1    1    3    3    0  502 -0.10311357119E+03 -0.33203586439E+03  0.34125282134E+03  0.48716907937E+03  0.50400001928E-02 0. -1.
</event>
<event>
 5   0  0.5813850E-03  0.7848889E+03  0.7818609E-02  0.9582151E-01
        2   -1    0    0  501    0  0.00000000000E+00  0.00000000000E+00  0.24675468973E+03  0.24675468975E+03  0.25500000920E-02 0. -1.
       -2   -1    0    0    0  501  0.00000000000E+00  0.00000000000E+00 -0.62415292162E+03  0.62415292162E+03  0.25500000920E-02 0.  1.
    10030    2    1    2    0    0  0.00000000000E+00  0.00000000000E+00 -0.37739823188E+03  0.87090761137E+03  0.78488893616E+03 0.  0.
        5    1    3    3  502    0 -0.13238409359E+03 -0.33033206142E+03 -0.37218759899E+03  0.51496652112E+03  0.46999998093E+01 0. -1.
       -5    1    3    3    0  502  0.13238409359E+03  0.33033206142E+03 -0.52106328970E+01  0.35594109025E+03  0.46999998093E+01 0.  1.
</event>
<event>
 5   0  0.3860515E-03  0.7983991E+03  0.7818609E-02  0.9562337E-01
        1   -1    0    0  501    0  0.00000000000E+00  0.00000000000E+00  0.10302588468E+03  0.10302588480E+03  0.50400001928E-02 0.  1.
       -1   -1    0    0    0  501  0.00000000000E+00  0.00000000000E+00 -0.15467984242E+04  0.15467984242E+04  0.50400001928E-02 0. -1.
    10030    2    1    2    0    0  0.00000000000E+00  0.00000000000E+00 -0.14437725395E+04  0.16498243090E+04  0.79839908863E+03 0.  0.
        4    1    3    3  502    0 -0.39561740531E+03  0.51543848167E+02 -0.75027701579E+03  0.84975709058E+03  0.12699999809E+01 0. -1.
       -4    1    3    3    0  502  0.39561740531E+03 -0.51543848167E+02 -0.69349552372E+03  0.80006721841E+03  0.12699999809E+01 0.  1.
</event>
<event>
 5   0  0.3714448E-03  0.7967207E+03  0.7818609E-02  0.9564776E-01
        1   -1    0    0  501    0  0.00000000000E+00  0.00000000000E+00  0.48698648110E+03  0.48698648113E+03  0.50400001928E-02 0.  1.
       -1   -1    0    0    0  501  0.00000000000E+00  0.00000000000E+00 -0.32586322722E+03  0.32586322726E+03  0.50400001928E-02 0. -1.
    10030    2    1    2    0    0  0.00000000000E+00  0.00000000000E+00  0.16112325388E+03  0.81284970839E+03  0.79672074498E+03 0.  0.
        1    1    3    3  502    0  0.27752313736E+03 -0.26209381506E+03  0.19679214464E+03  0.42946409382E+03  0.50400001928E-02 0.  1.
       -1    1    3    3    0  502 -0.27752313736E+03  0.26209381506E+03 -0.35668890763E+02  0.38338561457E+03  0.50400001928E-02 0. -1.
</event>
<event>
 5   0  0.6337108E-03  0.8004109E+03  0.7818609E-02  0.9559423E-01
        2   -1    0    0  501    0  0.00000000000E+00  0.00000000000E+00  0.25456669228E+03  0.25456669229E+03  0.25500000920E-02 0. -1.
       -2   -1    0    0    0  501  0.00000000000E+00  0.00000000000E+00 -0.62916478390E+03  0.62916478391E+03  0.25500000920E-02 0.  1.
    10030    2    1    2    0    0  0.00000000000E+00  0.00000000000E+00 -0.37459809163E+03  0.88373147620E+03  0.80041088934E+03 0.  0.
        4    1    3    3  502    0 -0.33764895980E+03 -0.68042221278E+02 -0.41229180481E+03  0.53723617631E+03  0.12699999809E+01 0.  1.
       -4    1    3    3    0  502  0.33764895980E+03  0.68042221278E+02  0.37693713183E+02  0.34649529988E+03  0.12699999809E+01 0. -1.
</event>
<event>
 5   0  0.3714448E-03  0.8010003E+03  0.7818609E-02  0.9558570E-01
       -1   -1    0    0    0  501  0.00000000000E+00  0.00000000000E+00  0.54905632035E+03  0.54905632038E+03  0.50400001928E-02 0.  1.
        1   -1    0    0  501    0  0.00000000000E+00  0.00000000000E+00 -0.29213830980E+03  0.29213830984E+03  0.50400001928E-02 0. -1.
    10030    2    1    2    0    0  0.00000000000E+00  0.00000000000E+00  0.25691801056E+03  0.84119463021E+03  0.80100033817E+03 0.  0.
        1    1    3    3  502    0 -0.36142874967E+03  0.62242149100E+02 -0.40537000096E+02  0.36898248551E+03  0.50400001928E-02 0. -1.
       -1    1    3    3    0  502  0.36142874967E+03 -0.62242149100E+02  0.29745501065E+03  0.47221214470E+03  0.50400001928E-02 0.  1.
</event>
<event>
 5   0  0.3714448E-03  0.8013365E+03  0.7818609E-02  0.9558085E-01
       -1   -1    0    0    0  501  0.00000000000E+00  0.00000000000E+00  0.23397550436E+03  0.23397550441E+03  0.50400001928E-02 0. -1.
        1   -1    0    0  501    0  0.00000000000E+00  0.00000000000E+00 -0.68611902592E+03  0.68611902594E+03  0.50400001928E-02 0.  1.
    10030    2    1    2    0    0  0.00000000000E+00  0.00000000000E+00 -0.45214352156E+03  0.92009453035E+03  0.80133649655E+03 0.  0.
        1    1    3    3  502    0  0.14380791387E+03 -0.29727026975E+03  0.34457607135E+02  0.33202056575E+03  0.50400001928E-02 0. -1.
       -1    1    3    3    0  502 -0.14380791387E+03  0.29727026975E+03 -0.48660112870E+03  0.58807396460E+03  0.50400001928E-02 0.  1.
</event>
<event>
 5   0  0.3714448E-03  0.8019344E+03  0.7818609E-02  0.9557221E-01
        1   -1    0    0  501    0  0.00000000000E+00  0.00000000000E+00  0.37318852248E+03  0.37318852252E+03  0.50400001928E-02 0.  1.
       -1   -1    0    0    0  501  0.00000000000E+00  0.00000000000E+00 -0.43081362963E+03  0.43081362966E+03  0.50400001928E-02 0. -1.
    10030    2    1    2    0    0  0.00000000000E+00  0.00000000000E+00 -0.57625107150E+02  0.80400215218E+03  0.80193441610E+03 0.  0.
        1    1    3    3  502    0 -0.36764991100E+03  0.13174535375E+03  0.62258917867E+02  0.39547372627E+03  0.50400001928E-02 0.  1.
       -1    1    3    3    0  502  0.36764991100E+03 -0.13174535375E+03 -0.11988402502E+03  0.40852842590E+03  0.50400001928E-02 0. -1.
</event>
<event>
 5   0  0.3753450E-03  0.7960585E+03  0.7818609E-02  0.9565740E-01
       -1   -1    0    0    0  501  0.00000000000E+00  0.00000000000E+00  0.42761590082E+03  0.42761590085E+03  0.50400001928E-02 0.  1.
        1   -1    0    0  501    0  0.00000000000E+00  0.00000000000E+00 -0.37048965762E+03  0.37048965766E+03  0.50400001928E-02 0. -1.
    10030    2    1    2    0    0  0.00000000000E+00  0.00000000000E+00  0.57126243201E+02  0.79810555851E+03  0.79605846196E+03 0.  0.
        5    1    3    3  502    0 -0.10475567949E+03 -0.13678386296E+03  0.38826366093E+03  0.42479917366E+03  0.46999998093E+01 0.  1.
       -5    1    3    3    0  502  0.10475567949E+03  0.13678386296E+03 -0.33113741773E+03  0.37330638485E+03  0.46999998093E+01 0. -1.
</event>
<event>
 5   0  0.3627496E-03  0.8291213E+03  0.7818609E-02  0.9518796E-01
        1   -1    0    0  501    0  0.00000000000E+00  0.00000000000E+00  0.32468446137E+03  0.32468446141E+03  0.50400001928E-02 0.  1.
       -1   -1    0    0    0  501  0.00000000000E+00  0.00000000000E+00 -0.52931553688E+03  0.52931553690E+03  0.50400001928E-02 0. -1.
    10030    2    1    2    0    0  0.00000000000E+00  0.00000000000E+00 -0.20463107550E+03  0.85399999832E+03  0.82912129394E+03 0.  0.
        3    1    3    3  502    0 -0.73515824416E+02  0.10338747000E+03  0.30420032123E+03  0.32959276544E+03  0.10100000352E+00 0.  1.
       -3    1    3    3    0  502  0.73515824416E+02 -0.10338747000E+03 -0.50883139673E+03  0.52440723288E+03  0.10100000352E+00 0. -1.
</event>
<event>
 5   0  0.3671128E-03  0.8034293E+03  0.7818609E-02  0.9555067E-01
       -1   -1    0    0    0  501  0.00000000000E+00  0.00000000000E+00  0.28066889348E+03  0.28066889353E+03  0.50400001928E-02 0.  1.
        1   -1    0    0  501    0  0.00000000000E+00  0.00000000000E+00 -0.57496448577E+03  0.57496448579E+03  0.50400001928E-02 0. -1.
    10030    2    1    2    0    0  0.00000000000E+00  0.00000000000E+00 -0.29429559229E+03  0.85563337932E+03  0.80342926519E+03 0.  0.
        2    1    3    3  502    0 -0.21685732401E+03 -0.32896008719E+03 -0.23054850829E+03  0.45650241251E+03  0.25500000920E-02 0.  1.
       -2    1    3    3    0  502  0.21685732401E+03  0.32896008719E+03 -0.63747083995E+02  0.39913096681E+03  0.25500000920E-02 0. -1.
</event>
<event>
 5   0  0.3671128E-03  0.7976614E+03  0.7818609E-02  0.9563408E-01
       -1   -1    0    0    0  501  0.00000000000E+00  0.00000000000E+00  0.45629635617E+03  0.45629635620E+03  0.50400001928E-02 0. -1.
        1   -1    0    0  501    0  0.00000000000E+00  0.00000000000E+00 -0.34860220429E+03  0.34860220433E+03  0.50400001928E-02 0.  1.
    10030    2    1    2    0    0  0.00000000000E+00  0.00000000000E+00  0.10769415188E+03  0.80489856052E+03  0.79766137075E+03 0.  0.
        2    1    3    3  502    0 -0.55091536287E+02  0.31150624568E+03 -0.19124489153E+03  0.36965636341E+03  0.25500000920E-02 0.  1.
       -2    1    3    3    0  502  0.55091536287E+02 -0.31150624568E+03  0.29893904341E+03  0.43524219711E+03  0.25500000920E-02 0. -1.
</event>
<event>
 5   0  0.3671128E-03  0.8006866E+03  0.7818609E-02  0.9559024E-01
        1   -1    0    0  501    0  0.00000000000E+00  0.00000000000E+00  0.82084925281E+03  0.82084925283E+03  0.50400001928E-02 0. -1.
       -1   -1    0    0    0  501  0.00000000000E+00  0.00000000000E+00 -0.19525481541E+03  0.19525481547E+03  0.50400001928E-02 0.  1.
    10030    2    1    2    0    0  0.00000000000E+00  0.00000000000E+00  0.62559443740E+03  0.10161040683E+04  0.80068662878E+03 0.  0.
        2    1    3    3  502    0  0.27202531131E+02  0.24289861645E+03 -0.89580914606E+02  0.26031606912E+03  0.25500000920E-02 0.  1.
       -2    1    3    3    0  502 -0.27202531131E+02 -0.24289861645E+03  0.71517535201E+03  0.75578799918E+03  0.25500000920E-02 0. -1.
</event>
<event>
 5   0  0.5813850E-03  0.7982644E+03  0.7818609E-02  0.9562533E-01
       -2   -1    0    0    0  501  0.00000000000E+00  0.00000000000E+00  0.24808804884E+03  0.24808804885E+03  0.25500000920E-02 0.  1.
        2   -1    0    0  501    0  0.00000000000E+00  0.00000000000E+00 -0.64213704807E+03  0.64213704807E+03  0.25500000920E-02 0. -1.
    10030    2    1    2    0    0  0.00000000000E+00  0.00000000000E+00 -0.39404899923E+03  0.89022509692E+03  0.79826443576E+03 0.  0.
        5    1    3    3  502    0 -0.18970406534E+03  0.34436333942E+03 -0.12048324711E+03  0.41123234889E+03  0.46999998093E+01 0. -1.
       -5    1    3    3    0  502  0.18970406534E+03 -0.34436333942E+03 -0.27356575212E+03  0.47899274804E+03  0.46999998093E+01 0.  1.
</event>
<event>
 5   0  0.3714448E-03  0.7990439E+03  0.7818609E-02  0.9561402E-01
       -1   -1    0    0    0  501  0.00000000000E+00  0.00000000000E+00  0.36308795307E+03  0.36308795311E+03  0.50400001928E-02 0.  1.
        1   -1    0    0  501    0  0.00000000000E+00  0.00000000000E+00 -0.43961192882E+03  0.43961192885E+03  0.50400001928E-02 0. -1.
    10030    2    1    2    0    0  0.00000000000E+00  0.00000000000E+00 -0.76523975746E+02  0.80269988195E+03  0.79904391720E+03 0.  0.
        1    1    3    3  502    0 -0.12970722986E+03  0.93497919439E+02  0.32954429875E+03  0.36628577816E+03  0.50400001928E-02 0.  1.
       -1    1    3    3    0  502  0.12970722986E+03 -0.93497919439E+02 -0.40606827449E+03  0.43641410380E+03  0.50400001928E-02 0. -1.
</event>
<event>
 5   0  0.3753450E-03  0.7999122E+03  0.7818609E-02  0.9560144E-01
       -1   -1    0    0    0  501  0.00000000000E+00  0.00000000000E+00  0.18434491215E+03  0.18434491222E+03  0.50400001928E-02 0.  1.
        1   -1    0    0  501    0  0.00000000000E+00  0.00000000000E+00 -0.86774765616E+03  0.86774765618E+03  0.50400001928E-02 0. -1.
    10030    2    1    2    0    0  0.00000000000E+00  0.00000000000E+00 -0.68340274401E+03  0.10520925684E+04  0.79991215890E+03 0.  0.
        5    1    3    3  502    0  0.34707962600E+02 -0.24282839068E+03  0.73747031015E+02  0.25618544957E+03  0.46999998093E+01 0.  1.
       -5    1    3    3    0  502 -0.34707962600E+02  0.24282839068E+03 -0.75714977502E+03  0.79590711883E+03  0.46999998093E+01 0. -1.
</event>
<event>
 5   0  0.6536209E-03  0.7997275E+03  0.7818609E-02  0.9560412E-01
       -2   -1    0    0    0  501  0.00000000000E+00  0.00000000000E+00  0.33802516117E+03  0.33802516118E+03  0.25500000920E-02 0. -1.
        2   -1    0    0  501    0  0.00000000000E+00  0.00000000000E+00 -0.47301509058E+03  0.47301509058E+03  0.25500000920E-02 0.  1.
    10030    2    1    2    0    0  0.00000000000E+00  0.00000000000E+00 -0.13498992941E+03  0.81104025176E+03  0.79972745916E+03 0.  0.
        3    1    3    3  502    0 -0.29945630770E+03  0.10002624611E+03  0.18135679024E+03  0.36410112015E+03  0.10100000352E+00 0. -1.
       -3    1    3    3    0  502  0.29945630770E+03 -0.10002624611E+03 -0.31634671965E+03  0.44693913161E+03  0.10100000352E+00 0.  1.
</event>
<event>
 5   0  0.3860515E-03  0.7998388E+03  0.7818609E-02  0.9560250E-01
        1   -1    0    0  501    0  0.00000000000E+00  0.00000000000E+00  0.38461768519E+03  0.38461768522E+03  0.50400001928E-02 0.  1.
       -1   -1    0    0    0  501  0.00000000000E+00  0.00000000000E+00 -0.41582985829E+03  0.41582985832E+03  0.50400001928E-02 0. -1.
    10030    2    1    2    0    0  0.00000000000E+00  0.00000000000E+00 -0.31212173104E+02  0.80044754354E+03  0.79983877763E+03 0.  0.
        4    1    3    3  502    0  0.37179074512E+02  0.39469578258E+03  0.37034901858E+02  0.39817112053E+03  0.12699999809E+01 0.  1.
       -4    1    3    3    0  502 -0.37179074512E+02 -0.39469578258E+03 -0.68247074961E+02  0.40227642301E+03  0.12699999809E+01 0. -1.
</event>
<event>
 5   0  0.6337108E-03  0.8003634E+03  0.7818609E-02  0.9559491E-01
        2   -1    0    0  501    0  0.00000000000E+00  0.00000000000E+00  0.21813212965E+04  0.21813212965E+04  0.25500000920E-02 0. -1.
       -2   -1    0    0    0  501  0.00000000000E+00  0.00000000000E+00 -0.73416684247E+02  0.73416684291E+02  0.25500000920E-02 0.  1.
    10030    2    1    2    0    0  0.00000000000E+00  0.00000000000E+00  0.21079046123E+04  0.22547379808E+04  0.80036335978E+03 0.  0.
        4    1    3    3  502    0  0.22665516762E+03 -0.14019019906E+02  0.12568483250E+03  0.25955228365E+03  0.12699999809E+01 0.  1.
       -4    1    3    3    0  502 -0.22665516762E+03  0.14019019906E+02  0.19822197798E+04  0.19951856972E+04  0.12699999809E+01 0. -1.
</event>
<event>
 5   0  0.6256781E-03  0.7973660E+03  0.7818609E-02  0.9563838E-01
        2   -1    0    0  501    0  0.00000000000E+00  0.00000000000E+00  0.14314872290E+04  0.14314872290E+04  0.25500000920E-02 0. -1.
       -2   -1    0    0    0  501  0.00000000000E+00  0.00000000000E+00 -0.11103704784E+03  0.11103704787E+03  0.25500000920E-02 0.  1.
    10030    2    1    2    0    0  0.00000000000E+00  0.00000000000E+00  0.13204501811E+04  0.15425242768E+04  0.79736595348E+03 0.  0.
        1    1    3    3  502    0 -0.18520109782E+03  0.28073838401E+03  0.24606220264E+03  0.41672544257E+03  0.50400001928E-02 0.  1.
       -1    1    3    3    0  502  0.18520109782E+03 -0.28073838401E+03  0.10743879785E+04  0.11257988343E+04  0.50400001928E-02 0. -1.
</event>
<event>
 5   0  0.3627496E-03  0.8001035E+03  0.7818609E-02  0.9559867E-01
        1   -1    0    0  501    0  0.00000000000E+00  0.00000000000E+00  0.45791704164E+03  0.45791704167E+03  0.50400001928E-02 0. -1.
       -1   -1    0    0    0  501  0.00000000000E+00  0.00000000000E+00 -0.34949867365E+03  0.34949867368E+03  0.50400001928E-02 0.  1.
    10030    2    1    2    0    0  0.00000000000E+00  0.00000000000E+00  0.10841836799E+03  0.80741571535E+03  0.80010349010E+03 0.  0.
        3    1    3    3  502    0  0.20409315507E+03  0.30695068291E+03  0.21109267222E+03  0.42477389768E+03  0.10100000352E+00 0. -1.
       -3    1    3    3    0  502 -0.20409315507E+03 -0.30695068291E+03 -0.10267430422E+03  0.38264181767E+03  0.10100000352E+00 0.  1.
</event>
<event>
 5   0  0.6536209E-03  0.8008824E+03  0.7818609E-02  0.9558741E-01
       -2   -1    0    0    0  501  0.00000000000E+00  0.00000000000E+00  0.97063258433E+02  0.97063258466E+02  0.25500000920E-02 0.  1.
        2   -1    0    0  501    0  0.00000000000E+00  0.00000000000E+00 -0.16520481161E+04  0.16520481161E+04  0.25500000920E-02 0. -1.
    10030    2    1    2    0    0  0.00000000000E+00  0.00000000000E+00 -0.15549848577E+04  0.17491113746E+04  0.80088244647E+03 0.  0.
        3    1    3    3  502    0 -0.28470584178E+03 -0.20678440058E+03 -0.11949467310E+04  0.12456784917E+04  0.10100000352E+00 0. -1.
       -3    1    3    3    0  502  0.28470584178E+03  0.20678440058E+03 -0.36003812671E+03  0.50343288287E+03  0.10100000352E+00 0.  1.
</event>
<event>
 5   0  0.3860515E-03  0.7804666E+03  0.7818609E-02  0.9588729E-01
        1   -1    0    0  501    0  0.00000000000E+00  0.00000000000E+00  0.45420444511E+03  0.45420444514E+03  0.50400001928E-02 0.  1.
       -1   -1    0    0    0  501  0.00000000000E+00  0.00000000000E+00 -0.33527201030E+03  0.33527201034E+03  0.50400001928E-02 0. -1.
    10030    2    1    2    0    0  0.00000000000E+00  0.00000000000E+00  0.11893243481E+03  0.78947645548E+03  0.78046662306E+03 0.  0.
        4    1    3    3  502    0 -0.13948397097E+03 -0.16948354017E+03  0.38583616536E+03  0.44390495373E+03  0.12699999809E+01 0.  1.
       -4    1    3    3    0  502  0.13948397097E+03  0.16948354017E+03 -0.26690373054E+03  0.34557150175E+03  0.12699999809E+01 0. -1.
</event>
<event>
 5   0  0.6153659E-03  0.7959415E+03  0.7818609E-02  0.9565910E-01
        2   -1    0    0  501    0  0.00000000000E+00  0.00000000000E+00  0.18532331358E+04  0.18532331358E+04  0.25500000920E-02 0. -1.
       -2   -1    0    0    0  501  0.00000000000E+00  0.00000000000E+00 -0.85461840601E+02  0.85461840639E+02  0.25500000920E-02 0.  1.
    10030    2    1    2    0    0  0.00000000000E+00  0.00000000000E+00  0.17677712952E+04  0.19386949764E+04  0.79594149254E+03 0.  0.
        2    1    3    3  502    0 -0.20584137350E+03  0.57786720388E+02  0.17014725223E+04  0.17148523903E+04  0.25500000920E-02 0. -1.
       -2    1    3    3    0  502  0.20584137350E+03 -0.57786720388E+02  0.66298772862E+02  0.22384258618E+03  0.25500000920E-02 0.  1.
</event>
<event>
 5   0  0.3860515E-03  0.8035409E+03  0.7818609E-02  0.9554906E-01
        1   -1    0    0  501    0  0.00000000000E+00  0.00000000000E+00  0.43860992049E+03  0.43860992051E+03  0.50400001928E-02 0. -1.
       -1   -1    0    0    0  501  0.00000000000E+00  0.00000000000E+00 -0.36802521762E+03  0.36802521766E+03  0.50400001928E-02 0.  1.
    10030    2    1    2    0    0  0.00000000000E+00  0.00000000000E+00  0.70584702863E+02  0.80663513817E+03  0.80354094224E+03 0.  0.
        4    1    3    3  502    0  0.34296928512E+03  0.18874118795E+03  0.12601031208E+03  0.41125585493E+03  0.12699999809E+01 0. -1.
       -4    1    3    3    0  502 -0.34296928512E+03 -0.18874118795E+03 -0.55425609213E+02  0.39537928325E+03  0.12699999809E+01 0.  1.
</event>
<event>
 5   0  0.3860515E-03  0.7997831E+03  0.7818609E-02  0.9560331E-01
       -1   -1    0    0    0  501  0.00000000000E+00  0.00000000000E+00  0.29976364844E+03  0.29976364849E+03  0.50400001928E-02 0.  1.
        1   -1    0    0  501    0  0.00000000000E+00  0.00000000000E+00 -0.53346444458E+03  0.53346444461E+03  0.50400001928E-02 0. -1.
    10030    2    1    2    0    0  0.00000000000E+00  0.00000000000E+00 -0.23370079614E+03  0.83322809309E+03  0.79978309122E+03 0.  0.
        4    1    3    3  502    0 -0.14510648303E+03 -0.96661504080E+02 -0.49177780651E+03  0.52177232742E+03  0.12699999809E+01 0. -1.
       -4    1    3    3    0  502  0.14510648303E+03  0.96661504080E+02  0.25807701037E+03  0.31145576567E+03  0.12699999809E+01 0.  1.
</event>
<event>
 5   0  0.3671128E-03  0.7995794E+03  0.7818609E-02  0.9560626E-01
        1   -1    0    0  501    0  0.00000000000E+00  0.00000000000E+00  0.11670108324E+04  0.11670108324E+04  0.50400001928E-02 0.  1.
       -1   -1    0    0    0  501  0.00000000000E+00  0.00000000000E+00 -0.13695828691E+03  0.13695828700E+03  0.50400001928E-02 0. -1.
    10030    2    1    2    0    0  0.00000000000E+00  0.00000000000E+00  0.10300525455E+04  0.13039691194E+04  0.79957940063E+03 0.  0.
        2    1    3    3  502    0  0.43263352039E+02  0.61455919170E+02 -0.12533390596E+03  0.14614080751E+03  0.25500000920E-02 0. -1.
       -2    1    3    3    0  502 -0.43263352039E+02 -0.61455919170E+02  0.11553864515E+04  0.11578283119E+04  0.25500000920E-02 0.  1.
</event>
<event>
 5   0  0.6153659E-03  0.8002431E+03  0.7818609E-02  0.9559665E-01
       -2   -1    0    0    0  501  0.00000000000E+00  0.00000000000E+00  0.38129566702E+03  0.38129566703E+03  0.25500000920E-02 0. -1.
        2   -1    0    0  501    0  0.00000000000E+00  0.00000000000E+00 -0.41987696040E+03  0.41987696041E+03  0.25500000920E-02 0.  1.
    10030    2    1    2    0    0  0.00000000000E+00  0.00000000000E+00 -0.38581293379E+02  0.80117262744E+03  0.80024312728E+03 0.  0.
        2    1    3    3  502    0  0.13639053331E+03 -0.37610349526E+03 -0.12876258331E+02  0.40027742224E+03  0.25500000920E-02 0.  1.
       -2    1    3    3    0  502 -0.13639053331E+03  0.37610349526E+03 -0.25705035047E+02  0.40089520520E+03  0.25500000920E-02 0. -1.
</event>
<event>
 5   0  0.6256781E-03  0.7920329E+03  0.7818609E-02  0.9571621E-01
       -2   -1    0    0    0  501  0.00000000000E+00  0.00000000000E+00  0.20755876476E+03  0.20755876477E+03  0.25500000920E-02 0.  1.
        2   -1    0    0  501    0  0.00000000000E+00  0.00000000000E+00 -0.75558861988E+03  0.75558861988E+03  0.25500000920E-02 0. -1.
    10030    2    1    2    0    0  0.00000000000E+00  0.00000000000E+00 -0.54802985512E+03  0.96314738466E+03  0.79203293016E+03 0.  0.
        1    1    3    3  502    0 -0.11329286500E+03 -0.25766917572E+03  0.64736698193E+02  0.28882437136E+03  0.50400001928E-02 0.  1.
       -1    1    3    3    0  502  0.11329286500E+03  0.25766917572E+03 -0.61276655331E+03  0.67432301330E+03  0.50400001928E-02 0. -1.
</event>
<event>
 5   0  0.5813850E-03  0.8015307E+03  0.7818609E-02  0.9557804E-01
        2   -1    0    0  501    0  0.00000000000E+00  0.00000000000E+00  0.11763689463E+04  0.11763689463E+04  0.25500000920E-02 0.  1.
       -2   -1    0    0    0  501  0.00000000000E+00  0.00000000000E+00 -0.13653273799E+03  0.13653273801E+03  0.25500000920E-02 0. -1.
    10030    2    1    2    0    0  0.00000000000E+00  0.00000000000E+00  0.10398362083E+04  0.13129016843E+04  0.80153071841E+03 0.  0.
        5    1    3    3  502    0 -0.26425494548E+03  0.28777551980E+03  0.66592344609E+03  0.77208908298E+03  0.46999998093E+01 0.  1.
       -5    1    3    3    0  502  0.26425494548E+03 -0.28777551980E+03  0.37391276222E+03  0.54081260133E+03  0.46999998093E+01 0. -1.
</event>
<event>
 5   0  0.6256781E-03  0.7986750E+03  0.7818609E-02  0.9561937E-01
        2   -1    0    0  501    0  0.00000000000E+00  0.00000000000E+00  0.10999826800E+04  0.10999826800E+04  0.25500000920E-02 0.  1.
       -2   -1    0    0    0  501  0.00000000000E+00  0.00000000000E+00 -0.14497539340E+03  0.14497539343E+03  0.25500000920E-02 0. -1.
    10030    2    1    2    0    0  0.00000000000E+00  0.00000000000E+00  0.95500728664E+03  0.12449580735E+04  0.79867495714E+03 0.  0.
        1    1    3    3  502    0  0.28217607669E+02 -0.24939628986E+03  0.96166885440E+03  0.99388215012E+03  0.50400001928E-02 0.  1.
       -1    1    3    3    0  502 -0.28217607669E+02  0.24939628986E+03 -0.66615677570E+01  0.25107592336E+03  0.50400001928E-02 0. -1.
</event>
<event>
 5   0  0.3714448E-03  0.7978224E+03  0.7818609E-02  0.9563174E-01
        1   -1    0    0  501    0  0.00000000000E+00  0.00000000000E+00  0.41267440827E+03  0.41267440830E+03  0.50400001928E-02 0. -1.
       -1   -1    0    0    0  501  0.00000000000E+00  0.00000000000E+00 -0.38560701552E+03  0.38560701556E+03  0.50400001928E-02 0.  1.
    10030    2    1    2    0    0  0.00000000000E+00  0.00000000000E+00  0.27067392750E+02  0.79828142386E+03  0.79782240375E+03 0.  0.
        1    1    3    3  502    0 -0.38495840974E+03  0.21261000560E+02 -0.88922187398E+02  0.39566673200E+03  0.50400001928E-02 0.  1.
       -1    1    3    3    0  502  0.38495840974E+03 -0.21261000560E+02  0.11598958015E+03  0.40261469186E+03  0.50400001928E-02 0. -1.
</event>
<event>
 5   0  0.5813850E-03  0.8011256E+03  0.7818609E-02  0.9558389E-01
       -2   -1    0    0    0  501  0.00000000000E+00  0.00000000000E+00  0.22433934905E+03  0.22433934907E+03  0.25500000920E-02 0. -1.
        2   -1    0    0  501    0  0.00000000000E+00  0.00000000000E+00 -0.71521369303E+03  0.71521369303E+03  0.25500000920E-02 0.  1.
    10030    2    1    2    0    0  0.00000000000E+00  0.00000000000E+00 -0.49087434398E+03  0.93955304210E+03  0.80112564392E+03 0.  0.
        5    1    3    3  502    0 -0.21709743782E+03  0.33631370477E+03 -0.22925950502E+03  0.46132441531E+03  0.46999998093E+01 0.  1.
       -5    1    3    3    0  502  0.21709743782E+03 -0.33631370477E+03 -0.26161483896E+03  0.47822862679E+03  0.46999998093E+01 0. -1.
</event>
<event>
 5   0  0.3753450E-03  0.8001358E+03  0.7818609E-02  0.9559821E-01
       -1   -1    0    0    0  501  0.00000000000E+00  0.00000000000E+00  0.21824071578E+03  0.21824071584E+03  0.50400001928E-02 0.  1.
        1   -1    0    0  501    0  0.00000000000E+00  0.00000000000E+00 -0.73338441443E+03  0.73338441444E+03  0.50400001928E-02 0. -1.
    10030    2    1    2    0    0  0.00000000000E+00  0.00000000000E+00 -0.51514369864E+03  0.95162513029E+03  0.80013583743E+03 0.  0.
        5    1    3    3  502    0  0.20408775083E+03 -0.15887248373E+03  0.10539773547E+03  0.27932606174E+03  0.46999998093E+01 0.  1.
       -5    1    3    3    0  502 -0.20408775083E+03  0.15887248373E+03 -0.62054143411E+03  0.67229906855E+03  0.46999998093E+01 0. -1.
</event>
<event>
 5   0  0.6337108E-03  0.7973060E+03  0.7818609E-02  0.9563925E-01
        2   -1    0    0  501    0  0.00000000000E+00  0.00000000000E+00  0.15363833546E+04  0.15363833546E+04  0.25500000920E-02 0.  1.
       -2   -1    0    0    0  501  0.00000000000E+00  0.00000000000E+00 -0.10344045684E+03  0.10344045687E+03  0.25500000920E-02 0. -1.
    10030    2    1    2    0    0  0.00000000000E+00  0.00000000000E+00  0.14329428978E+04  0.16398238115E+04  0.79730595409E+03 0.  0.
        4    1    3    3  502    0 -0.15477279806E+03  0.26715962541E+03  0.19781566702E+03  0.36668997189E+03  0.12699999809E+01 0. -1.
       -4    1    3    3    0  502  0.15477279806E+03 -0.26715962541E+03  0.12351272308E+04  0.12731338396E+04  0.12699999809E+01 0.  1.
</event>
<event>
 5   0  0.6337108E-03  0.7634317E+03  0.7818609E-02  0.9614511E-01
        2   -1    0    0  501    0  0.00000000000E+00  0.00000000000E+00  0.19664326596E+03  0.19664326598E+03  0.25500000920E-02 0. -1.
       -2   -1    0    0    0  501  0.00000000000E+00  0.00000000000E+00 -0.74097117579E+03  0.74097117580E+03  0.25500000920E-02 0.  1.
    10030    2    1    2    0    0  0.00000000000E+00  0.00000000000E+00 -0.54432790983E+03  0.93761444178E+03  0.76343170487E+03 0.  0.
        4    1    3    3  502    0 -0.33856950948E+03  0.92214578608E+02 -0.87643595908E+02  0.36168474403E+03  0.12699999809E+01 0. -1.
       -4    1    3    3    0  502  0.33856950948E+03 -0.92214578608E+02 -0.45668431393E+03  0.57592969775E+03  0.12699999809E+01 0.  1.
</event>
<event>
 5   0  0.2478000E-03  0.7964780E+03  0.7818609E-02  0.9565129E-01
       -4   -1    0    0    0  501  0.00000000000E+00  0.00000000000E+00  0.77881745860E+03  0.77881849408E+03  0.12699999809E+01 0.  1.
        4   -1    0    0  501    0  0.00000000000E+00  0.00000000000E+00 -0.20363158199E+03  0.20363554229E+03  0.12699999809E+01 0. -1.
    10030    2    1    2    0    0  0.00000000000E+00  0.00000000000E+00  0.57518587661E+03  0.98245403638E+03  0.79647796011E+03 0.  0.
        3    1    3    3  502    0  0.33495240026E+03 -0.65245299433E+02  0.54081845479E+03  0.63948000030E+03  0.10100000352E+00 0.  1.
       -3    1    3    3    0  502 -0.33495240026E+03  0.65245299433E+02  0.34367421820E+02  0.34297403608E+03  0.10100000352E+00 0. -1.
</event>
<event>
 5   0  0.2478000E-03  0.7996629E+03  0.7818609E-02  0.9560505E-01
        3   -1    0    0  501    0  0.00000000000E+00  0.00000000000E+00  0.22877534914E+03  0.22877537143E+03  0.10100000352E+00 0. -1.
       -3   -1    0    0    0  501  0.00000000000E+00  0.00000000000E+00 -0.69878668265E+03  0.69878668995E+03  0.10100000352E+00 0.  1.
    10030    2    1    2    0    0  0.00000000000E+00  0.00000000000E+00 -0.47001133352E+03  0.92756206138E+03  0.79966288152E+03 0.  0.
        3    1    3    3  502    0  0.20017063964E+03  0.17292126408E+03 -0.58278526645E+03  0.64000681679E+03  0.10100000352E+00 0. -1.
       -3    1    3    3    0  502 -0.20017063964E+03 -0.17292126408E+03  0.11277393293E+03  0.28755524460E+03  0.10100000352E+00 0.  1.
</event>
<event>
 5   0  0.3714448E-03  0.8037766E+03  0.7818609E-02  0.9554567E-01
        1   -1    0    0  501    0  0.00000000000E+00  0.00000000000E+00  0.22152571058E+03  0.22152571064E+03  0.50400001928E-02 0. -1.
       -1   -1    0    0    0  501  0.00000000000E+00  0.00000000000E+00 -0.72909908839E+03  0.72909908841E+03  0.50400001928E-02 0.  1.
    10030    2    1    2    0    0  0.00000000000E+00  0.00000000000E+00 -0.50757337781E+03  0.95062479905E+03  0.80377657014E+03 0.  0.
        1    1    3    3  502    0 -0.75678039117E+02  0.81284968170E+02 -0.71058951405E+03  0.71921614913E+03  0.50400001928E-02 0.  1.
       -1    1    3    3    0  502  0.75678039117E+02 -0.81284968170E+02  0.20301613625E+03  0.23140864992E+03  0.50400001928E-02 0. -1.
</event>
<event>
 5   0  0.3753450E-03  0.8013329E+03  0.7818609E-02  0.9558090E-01
       -1   -1    0    0    0  501  0.00000000000E+00  0.00000000000E+00  0.11030445768E+03  0.11030445779E+03  0.50400001928E-02 0. -1.
        1   -1    0    0  501    0  0.00000000000E+00  0.00000000000E+00 -0.14553681980E+04  0.14553681980E+04  0.50400001928E-02 0.  1.
    10030    2    1    2    0    0  0.00000000000E+00  0.00000000000E+00 -0.13450637403E+04  0.15656726558E+04  0.80133288938E+03 0.  0.
        5    1    3    3  502    0  0.20529912766E+03  0.31327268432E+02 -0.13419376453E+04  0.13579204187E+04  0.46999998093E+01 0.  1.
       -5    1    3    3    0  502 -0.20529912766E+03 -0.31327268432E+02 -0.31260950212E+01  0.20775223713E+03  0.46999998093E+01 0. -1.
</event>
<event>
 5   0  0.6337108E-03  0.7962022E+03  0.7818609E-02  0.9565531E-01
       -2   -1    0    0    0  501  0.00000000000E+00  0.00000000000E+00  0.24922648249E+03  0.24922648250E+03  0.25500000920E-02 0.  1.
        2   -1    0    0  501    0  0.00000000000E+00  0.00000000000E+00 -0.63590554541E+03  0.63590554541E+03  0.25500000920E-02 0. -1.
    10030    2    1    2    0    0  0.00000000000E+00  0.00000000000E+00 -0.38667906292E+03  0.88513202792E+03  0.79620224136E+03 0.  0.
        4    1    3    3  502    0  0.23661438659E+03 -0.31237340782E+03 -0.27131170637E+03  0.47662896341E+03  0.12699999809E+01 0. -1.
       -4    1    3    3    0  502 -0.23661438659E+03  0.31237340782E+03 -0.11536735655E+03  0.40850306450E+03  0.12699999809E+01 0.  1.
</event>
<event>
 5   0  0.5813850E-03  0.8032047E+03  0.7818609E-02  0.9555390E-01
       -2   -1    0    0    0  501  0.00000000000E+00  0.00000000000E+00  0.21555292700E+03  0.21555292701E+03  0.25500000920E-02 0.  1.
        2   -1    0    0  501    0  0.00000000000E+00  0.00000000000E+00 -0.74823593779E+03  0.74823593779E+03  0.25500000920E-02 0. -1.
    10030    2    1    2    0    0  0.00000000000E+00  0.00000000000E+00 -0.53268301079E+03  0.96378886480E+03  0.80320469741E+03 0.  0.
        5    1    3    3  502    0  0.23673643284E+03  0.74454897319E+02 -0.64517476690E+03  0.69127435958E+03  0.46999998093E+01 0. -1.
       -5    1    3    3    0  502 -0.23673643284E+03 -0.74454897319E+02  0.11249175611E+03  0.27251450523E+03  0.46999998093E+01 0.  1.
</event>
<event>
 5   0  0.6256781E-03  0.8029563E+03  0.7818609E-02  0.9555748E-01
        2   -1    0    0  501    0  0.00000000000E+00  0.00000000000E+00  0.10152825897E+04  0.10152825897E+04  0.25500000920E-02 0.  1.
       -2   -1    0    0    0  501  0.00000000000E+00  0.00000000000E+00 -0.15875847184E+03  0.15875847186E+03  0.25500000920E-02 0. -1.
    10030    2    1    2    0    0  0.00000000000E+00  0.00000000000E+00  0.85652411789E+03  0.11740410616E+04  0.80295631872E+03 0.  0.
        1    1    3    3  502    0 -0.23032489217E+03  0.12789364359E+03 -0.14694913527E+02  0.26386034286E+03  0.50400001928E-02 0. -1.
       -1    1    3    3    0  502  0.23032489217E+03 -0.12789364359E+03  0.87121903141E+03  0.91018071873E+03  0.50400001928E-02 0.  1.
</event>
<event>
 5   0  0.6256781E-03  0.8033635E+03  0.7818609E-02  0.9555161E-01
       -2   -1    0    0    0  501  0.00000000000E+00  0.00000000000E+00  0.20162682690E+03  0.20162682692E+03  0.25500000920E-02 0.  1.
        2   -1    0    0  501    0  0.00000000000E+00  0.00000000000E+00 -0.80023201730E+03  0.80023201730E+03  0.25500000920E-02 0. -1.
    10030    2    1    2    0    0  0.00000000000E+00  0.00000000000E+00 -0.59860519039E+03  0.10018588442E+04  0.80336353526E+03 0.  0.
        1    1    3    3  502    0  0.39943492404E+03  0.36814868093E+02 -0.27300577377E+03  0.48521721486E+03  0.50400001928E-02 0.  1.
       -1    1    3    3    0  502 -0.39943492404E+03 -0.36814868093E+02 -0.32559941662E+03  0.51664162936E+03  0.50400001928E-02 0. -1.
</event>
<event>
 5   0  0.3753450E-03  0.8010469E+03  0.7818609E-02  0.9558503E-01
       -1   -1    0    0    0  501  0.00000000000E+00  0.00000000000E+00  0.34175143049E+03  0.34175143053E+03  0.50400001928E-02 0. -1.
        1   -1    0    0  501    0  0.00000000000E+00  0.00000000000E+00 -0.46940263193E+03  0.46940263196E+03  0.50400001928E-02 0.  1.
    10030    2    1    2    0    0  0.00000000000E+00  0.00000000000E+00 -0.12765120144E+03  0.81115406249E+03  0.80104686745E+03 0.  0.
        5    1    3    3  502    0  0.60781969043E+02  0.81050164704E+02  0.32853375673E+03  0.34383149400E+03  0.46999998093E+01 0. -1.
       -5    1    3    3    0  502 -0.60781969043E+02 -0.81050164704E+02 -0.45618495817E+03  0.46732256849E+03  0.46999998093E+01 0.  1.
</event>
<event>
 5   0  0.3753450E-03  0.8007050E+03  0.7818609E-02  0.9558997E-01
        1   -1    0    0  501    0  0.00000000000E+00  0.00000000000E+00  0.33189157630E+03  0.33189157634E+03  0.50400001928E-02 0.  1.
       -1   -1    0    0    0  501  0.00000000000E+00  0.00000000000E+00 -0.48293519986E+03  0.48293519989E+03  0.50400001928E-02 0. -1.
    10030    2    1    2    0    0  0.00000000000E+00  0.00000000000E+00 -0.15104362356E+03  0.81482677623E+03  0.80070500126E+03 0.  0.
        5    1    3    3  502    0  0.89811411642E+02 -0.35437841817E+03  0.90480533546E+02  0.37664169959E+03  0.46999998093E+01 0.  1.
       -5    1    3    3    0  502 -0.89811411642E+02  0.35437841817E+03 -0.24152415711E+03  0.43818507664E+03  0.46999998093E+01 0. -1.
</event>
<event>
 5   0  0.6337108E-03  0.7987535E+03  0.7818609E-02  0.9561823E-01
        2   -1    0    0  501    0  0.00000000000E+00  0.00000000000E+00  0.19078095996E+03  0.19078095997E+03  0.25500000920E-02 0. -1.
       -2   -1    0    0    0  501  0.00000000000E+00  0.00000000000E+00 -0.83604660217E+03  0.83604660217E+03  0.25500000920E-02 0.  1.
    10030    2    1    2    0    0  0.00000000000E+00  0.00000000000E+00 -0.64526564221E+03  0.10268275621E+04  0.79875346220E+03 0.  0.
        4    1    3    3  502    0  0.21705428495E+03 -0.32054560268E+03 -0.19642658842E+03  0.43410489924E+03  0.12699999809E+01 0. -1.
       -4    1    3    3    0  502 -0.21705428495E+03  0.32054560268E+03 -0.44883905379E+03  0.59272266290E+03  0.12699999809E+01 0.  1.
</event>
<event>
 5   0  0.3860515E-03  0.8010330E+03  0.7818609E-02  0.9558523E-01
       -1   -1    0    0    0  501  0.00000000000E+00  0.00000000000E+00  0.34535394222E+03  0.34535394226E+03  0.50400001928E-02 0.  1.
        1   -1    0    0  501    0  0.00000000000E+00  0.00000000000E+00 -0.46449000129E+03  0.46449000132E+03  0.50400001928E-02 0. -1.
    10030    2    1    2    0    0  0.00000000000E+00  0.00000000000E+00 -0.11913605906E+03  0.80984394358E+03  0.80103296585E+03 0.  0.
        4    1    3    3  502    0  0.23511638091E+03 -0.24972689293E+03 -0.26864851490E+03  0.43567978044E+03  0.12699999809E+01 0. -1.
       -4    1    3    3    0  502 -0.23511638091E+03  0.24972689293E+03  0.14951245584E+03  0.37416416314E+03  0.12699999809E+01 0.  1.
</event>
<event>
 5   0  0.6337108E-03  0.7925979E+03  0.7818609E-02  0.9570794E-01
       -2   -1    0    0    0  501  0.00000000000E+00  0.00000000000E+00  0.16629847483E+03  0.16629847485E+03  0.25500000920E-02 0. -1.
        2   -1    0    0  501    0  0.00000000000E+00  0.00000000000E+00 -0.94440340055E+03  0.94440340055E+03  0.25500000920E-02 0.  1.
    10030    2    1    2    0    0  0.00000000000E+00  0.00000000000E+00 -0.77810492572E+03  0.11107018754E+04  0.79259786816E+03 0.  0.
        4    1    3    3  502    0  0.27742375942E+03  0.28224163306E+03 -0.41800811730E+03  0.57563589251E+03  0.12699999809E+01 0.  1.
       -4    1    3    3    0  502 -0.27742375942E+03 -0.28224163306E+03 -0.36009680842E+03  0.53506598290E+03  0.12699999809E+01 0. -1.
</event>
<event>
 5   0  0.3627496E-03  0.8079404E+03  0.7818609E-02  0.9548594E-01
        1   -1    0    0  501    0  0.00000000000E+00  0.00000000000E+00  0.15824303475E+03  0.15824303483E+03  0.50400001928E-02 0.  1.
       -1   -1    0    0    0  501  0.00000000000E+00  0.00000000000E+00 -0.10312739322E+04  0.10312739322E+04  0.50400001928E-02 0. -1.
    10030    2    1    2    0    0  0.00000000000E+00  0.00000000000E+00 -0.87303089747E+03  0.11895169671E+04  0.80794038579E+03 0.  0.
        3    1    3    3  502    0 -0.37353049359E+03  0.22728419567E+02 -0.21250431892E+03  0.43034835478E+03  0.10100000352E+00 0.  1.
       -3    1    3    3    0  502  0.37353049359E+03 -0.22728419567E+02 -0.66052657855E+03  0.75916861228E+03  0.10100000352E+00 0. -1.
</event>
<event>
 5   0  0.3860515E-03  0.8366383E+03  0.7818609E-02  0.9508448E-01
        1   -1    0    0  501    0  0.00000000000E+00  0.00000000000E+00  0.85153075678E+03  0.85153075679E+03  0.50400001928E-02 0.  1.
       -1   -1    0    0    0  501  0.00000000000E+00  0.00000000000E+00 -0.20550155797E+03  0.20550155803E+03  0.50400001928E-02 0. -1.
    10030    2    1    2    0    0  0.00000000000E+00  0.00000000000E+00  0.64602919881E+03  0.10570323148E+04  0.83663826644E+03 0.  0.
        4    1    3    3  502    0 -0.17659545037E+03 -0.17123155339E+03 -0.10447071949E+03  0.26724883928E+03  0.12699999809E+01 0. -1.
       -4    1    3    3    0  502  0.17659545037E+03  0.17123155339E+03  0.75049991830E+03  0.78978347554E+03  0.12699999809E+01 0.  1.
</event>
<event>
 5   0  0.3671128E-03  0.7986716E+03  0.7818609E-02  0.9561942E-01
        1   -1    0    0  501    0  0.00000000000E+00  0.00000000000E+00  0.94854907940E+03  0.94854907942E+03  0.50400001928E-02 0. -1.
       -1   -1    0    0    0  501  0.00000000000E+00  0.00000000000E+00 -0.16811893706E+03  0.16811893713E+03  0.50400001928E-02 0.  1.
    10030    2    1    2    0    0  0.00000000000E+00  0.00000000000E+00  0.78043014235E+03  0.11166680165E+04  0.79867155458E+03 0.  0.
        2    1    3    3  502    0  0.14738070154E+03 -0.16281685900E+03 -0.76104603284E+02  0.23242700232E+03  0.25500000920E-02 0.  1.
       -2    1    3    3    0  502 -0.14738070154E+03  0.16281685900E+03  0.85653474563E+03  0.88424101423E+03  0.25500000920E-02 0. -1.
</event>
<event>
 5   0  0.6256781E-03  0.7989800E+03  0.7818609E-02  0.9561495E-01
       -2   -1    0    0    0  501  0.00000000000E+00  0.00000000000E+00  0.22395137518E+03  0.22395137520E+03  0.25500000920E-02 0.  1.
        2   -1    0    0  501    0  0.00000000000E+00  0.00000000000E+00 -0.71262014275E+03  0.71262014276E+03  0.25500000920E-02 0. -1.
    10030    2    1    2    0    0  0.00000000000E+00  0.00000000000E+00 -0.48866876757E+03  0.93657151796E+03  0.79898000216E+03 0.  0.
        1    1    3    3  502    0  0.39721079836E+03 -0.29550980113E+02 -0.28032295871E+03  0.48706328127E+03  0.50400001928E-02 0. -1.
       -1    1    3    3    0  502 -0.39721079836E+03  0.29550980113E+02 -0.20834580886E+03  0.44950823669E+03  0.50400001928E-02 0.  1.
</event>
<event>
 5   0  0.3714448E-03  0.7910070E+03  0.7818609E-02  0.9573126E-01
        1   -1    0    0  501    0  0.00000000000E+00  0.00000000000E+00  0.32647614672E+03  0.32647614676E+03  0.50400001928E-02 0.  1.
       -1   -1    0    0    0  501  0.00000000000E+00  0.00000000000E+00 -0.47912536730E+03  0.47912536733E+03  0.50400001928E-02 0. -1.
    10030    2    1    2    0    0  0.00000000000E+00  0.00000000000E+00 -0.15264922059E+03  0.80560151408E+03  0.79100696264E+03 0.  0.
        1    1    3    3  502    0  0.36174677294E+03  0.31818319685E+02  0.83250285821E+02  0.37256374396E+03  0.50400001928E-02 0. -1.
       -1    1    3    3    0  502 -0.36174677294E+03 -0.31818319685E+02 -0.23589950641E+03  0.43303777012E+03  0.50400001928E-02 0.  1.
</event>
<event>
 5   0  0.6256781E-03  0.8007018E+03  0.7818609E-02  0.9559002E-01
       -2   -1    0    0    0  501  0.00000000000E+00  0.00000000000E+00  0.22702677050E+03  0.22702677052E+03  0.25500000920E-02 0.  1.
        2   -1    0    0  501    0  0.00000000000E+00  0.00000000000E+00 -0.70599983549E+03  0.70599983549E+03  0.25500000920E-02 0. -1.
    10030    2    1    2    0    0  0.00000000000E+00  0.00000000000E+00 -0.47897306499E+03  0.93302660601E+03  0.80070184872E+03 0.  0.
        1    1    3    3  502    0 -0.11897351020E+02 -0.39466143350E+03 -0.16235304668E+03  0.42691650922E+03  0.50400001928E-02 0.  1.
       -1    1    3    3    0  502  0.11897351020E+02  0.39466143350E+03 -0.31662001830E+03  0.50611009679E+03  0.50400001928E-02 0. -1.
</event>
<event>
 5   0  0.6153659E-03  0.7985782E+03  0.7818609E-02  0.9562077E-01
        2   -1    0    0  501    0  0.00000000000E+00  0.00000000000E+00  0.78896558707E+03  0.78896558707E+03  0.25500000920E-02 0.  1.
       -2   -1    0    0    0  501  0.00000000000E+00  0.00000000000E+00 -0.20207700252E+03  0.20207700254E+03  0.25500000920E-02 0. -1.
    10030    2    1    2    0    0  0.00000000000E+00  0.00000000000E+00  0.58688858455E+03  0.99104258961E+03  0.79857823897E+03 0.  0.
        2    1    3    3  502    0 -0.61204944199E+02  0.23547854336E+03 -0.99459181595E+02  0.26284656815E+03  0.25500000920E-02 0. -1.
       -2    1    3    3    0  502  0.61204944199E+02 -0.23547854336E+03  0.68634776614E+03  0.72819602146E+03  0.25500000920E-02 0.  1.
</event>
<event>
 5   0  0.6337108E-03  0.8015494E+03  0.7818609E-02  0.9557777E-01
       -2   -1    0    0    0  501  0.00000000000E+00  0.00000000000E+00  0.69363365143E+03  0.69363365143E+03  0.25500000920E-02 0. -1.
        2   -1    0    0  501    0  0.00000000000E+00  0.00000000000E+00 -0.23156369069E+03  0.23156369070E+03  0.25500000920E-02 0.  1.
    10030    2    1    2    0    0  0.00000000000E+00  0.00000000000E+00  0.46206996074E+03  0.92519734213E+03  0.80154942035E+03 0.  0.
        4    1    3    3  502    0 -0.11798788075E+02  0.27273964797E+03 -0.10764307362E+03  0.29345318395E+03  0.12699999809E+01 0.  1.
       -4    1    3    3    0  502  0.11798788075E+02 -0.27273964797E+03  0.56971303436E+03  0.63174415818E+03  0.12699999809E+01 0. -1.
</event>
<event>
 5   0  0.3671128E-03  0.7966856E+03  0.7818609E-02  0.9564827E-01
       -1   -1    0    0    0  501  0.00000000000E+00  0.00000000000E+00  0.22584900597E+03  0.22584900602E+03  0.50400001928E-02 0. -1.
        1   -1    0    0  501    0  0.00000000000E+00  0.00000000000E+00 -0.70257991784E+03  0.70257991786E+03  0.50400001928E-02 0.  1.
    10030    2    1    2    0    0  0.00000000000E+00  0.00000000000E+00 -0.47673091188E+03  0.92842892388E+03  0.79668557434E+03 0.  0.
        2    1    3    3  502    0  0.27589575583E+03 -0.99165972531E+01 -0.57301005404E+03  0.63604821281E+03  0.25500000920E-02 0.  1.
       -2    1    3    3    0  502 -0.27589575583E+03  0.99165972531E+01  0.96279142164E+02  0.29238071107E+03  0.25500000920E-02 0. -1.
</event>
<event>
 5   0  0.3714448E-03  0.8012437E+03  0.7818609E-02  0.9558219E-01
        1   -1    0    0  501    0  0.00000000000E+00  0.00000000000E+00  0.53278862745E+03  0.53278862747E+03  0.50400001928E-02 0.  1.
       -1   -1    0    0    0  501  0.00000000000E+00  0.00000000000E+00 -0.30124118515E+03  0.30124118519E+03  0.50400001928E-02 0. -1.
    10030    2    1    2    0    0  0.00000000000E+00  0.00000000000E+00  0.23154744230E+03  0.83402981267E+03  0.80124372720E+03 0.  0.
        1    1    3    3  502    0  0.30814680078E+02 -0.17335434856E+03  0.49035504501E+03  0.52100800844E+03  0.50400001928E-02 0.  1.
       -1    1    3    3    0  502 -0.30814680078E+02  0.17335434856E+03 -0.25880760271E+03  0.31302180422E+03  0.50400001928E-02 0. -1.
</event>
<event>
 5   0  0.6337108E-03  0.8033820E+03  0.7818609E-02  0.9555135E-01
       -2   -1    0    0    0  501  0.00000000000E+00  0.00000000000E+00  0.38049622926E+03  0.38049622927E+03  0.25500000920E-02 0. -1.
        2   -1    0    0  501    0  0.00000000000E+00  0.00000000000E+00 -0.42406638906E+03  0.42406638906E+03  0.25500000920E-02 0.  1.
    10030    2    1    2    0    0  0.00000000000E+00  0.00000000000E+00 -0.43570159793E+02  0.80456261833E+03  0.80338200627E+03 0.  0.
        4    1    3    3  502    0  0.45452347788E+02 -0.33060622460E+03 -0.24569283851E+03  0.41440677535E+03  0.12699999809E+01 0.  1.
       -4    1    3    3    0  502 -0.45452347788E+02  0.33060622460E+03  0.20212267872E+03  0.39015584298E+03  0.12699999809E+01 0. -1.
</event>
<event>
 5   0  0.5813850E-03  0.7917384E+03  0.7818609E-02  0.9572053E-01
        2   -1    0    0  501    0  0.00000000000E+00  0.00000000000E+00  0.17844774518E+04  0.17844774518E+04  0.25500000920E-02 0. -1.
       -2   -1    0    0    0  501  0.00000000000E+00  0.00000000000E+00 -0.87819785867E+02  0.87819785904E+02  0.25500000920E-02 0.  1.
    10030    2    1    2    0    0  0.00000000000E+00  0.00000000000E+00  0.16966576659E+04  0.18722972377E+04  0.79173841068E+03 0.  0.
        5    1    3    3  502    0  0.25086813217E+03 -0.20792055965E+03  0.13798791075E+04  0.14178343416E+04  0.46999998093E+01 0. -1.
       -5    1    3    3    0  502 -0.25086813217E+03  0.20792055965E+03  0.31677855841E+03  0.45446289610E+03  0.46999998093E+01 0.  1.
</event>
<event>
 5   0  0.2478000E-03  0.8002174E+03  0.7818609E-02  0.9559703E-01
       -4   -1    0    0    0  501  0.00000000000E+00  0.00000000000E+00  0.55932935344E+03  0.55933079526E+03  0.12699999809E+01 0. -1.
        4   -1    0    0  501    0  0.00000000000E+00  0.00000000000E+00 -0.28620911484E+03  0.28621193252E+03  0.12699999809E+01 0.  1.
    10030    2    1    2    0    0  0.00000000000E+00  0.00000000000E+00  0.27312023861E+03  0.84554272778E+03  0.80021737032E+03 0.  0.
        3    1    3    3  502    0 -0.17684002454E+03 -0.60121848362E+02 -0.23731761992E+03  0.30200445999E+03  0.10100000352E+00 0.  1.
       -3    1    3    3    0  502  0.17684002454E+03  0.60121848362E+02  0.51043785853E+03  0.54353826779E+03  0.10100000352E+00 0. -1.
</event>
<event>
 5   0  0.2478000E-03  0.8016369E+03  0.7818609E-02  0.9557651E-01
       -3   -1    0    0    0  501  0.00000000000E+00  0.00000000000E+00  0.58244791950E+03  0.58244792826E+03  0.10100000352E+00 0.  1.
        3   -1    0    0  501    0  0.00000000000E+00  0.00000000000E+00 -0.27582797412E+03  0.27582799261E+03  0.10100000352E+00 0. -1.
    10030    2    1    2    0    0  0.00000000000E+00  0.00000000000E+00  0.30661994538E+03  0.85827592087E+03  0.80163692870E+03 0.  0.
        2    1    3    3  502    0  0.27159773002E+03  0.24472910089E+03  0.32922917728E+03  0.49198527514E+03  0.25500000920E-02 0.  1.
       -2    1    3    3    0  502 -0.27159773002E+03 -0.24472910089E+03 -0.22609231898E+02  0.36629064573E+03  0.25500000920E-02 0. -1.
</event>
<event>
 5   0  0.3627496E-03  0.7984929E+03  0.7818609E-02  0.9562201E-01
        1   -1    0    0  501    0  0.00000000000E+00  0.00000000000E+00  0.36906313572E+03  0.36906313576E+03  0.50400001928E-02 0.  1.
       -1   -1    0    0    0  501  0.00000000000E+00  0.00000000000E+00 -0.43189827553E+03  0.43189827556E+03  0.50400001928E-02 0. -1.
    10030    2    1    2    0    0  0.00000000000E+00  0.00000000000E+00 -0.62835139805E+02  0.80096141132E+03  0.79849291019E+03 0.  0.
        3    1    3    3  502    0 -0.67288935863E+02  0.13523562764E+03  0.33929393438E+03  0.37139851909E+03  0.10100000352E+00 0.  1.
       -3    1    3    3    0  502  0.67288935863E+02 -0.13523562764E+03 -0.40212907419E+03  0.42956289223E+03  0.10100000352E+00 0. -1.
</event>
<event>
 5   0  0.6153659E-03  0.8004932E+03  0.7818609E-02  0.9559304E-01
       -2   -1    0    0    0  501  0.00000000000E+00  0.00000000000E+00  0.19101566793E+03  0.19101566794E+03  0.25500000920E-02 0. -1.
        2   -1    0    0  501    0  0.00000000000E+00  0.00000000000E+00 -0.83866071028E+03  0.83866071029E+03  0.25500000920E-02 0.  1.
    10030    2    1    2    0    0  0.00000000000E+00  0.00000000000E+00 -0.64764504236E+03  0.10296763782E+04  0.80049318735E+03 0.  0.
        2    1    3    3  502    0  0.22512875183E+03 -0.33092957081E+03 -0.32382429805E+03  0.51483930673E+03  0.25500000920E-02 0.  1.
       -2    1    3    3    0  502 -0.22512875183E+03  0.33092957081E+03 -0.32382074430E+03  0.51483707150E+03  0.25500000920E-02 0. -1.
</event>
<event>
 5   0  0.6337108E-03  0.8003920E+03  0.7818609E-02  0.9559450E-01
       -2   -1    0    0    0  501  0.00000000000E+00  0.00000000000E+00  0.13641272559E+03  0.13641272561E+03  0.25500000920E-02 0. -1.
        2   -1    0    0  501    0  0.00000000000E+00  0.00000000000E+00 -0.11740607972E+04  0.11740607972E+04  0.25500000920E-02 0.  1.
    10030    2    1    2    0    0  0.00000000000E+00  0.00000000000E+00 -0.10376480717E+04  0.13104735229E+04  0.80039198740E+03 0.  0.
        4    1    3    3  502    0  0.21867024572E+03  0.33271793846E+03 -0.45257310644E+03  0.60277851033E+03  0.12699999809E+01 0.  1.
       -4    1    3    3    0  502 -0.21867024572E+03 -0.33271793846E+03 -0.58507496521E+03  0.70769501253E+03  0.12699999809E+01 0. -1.
</event>
<event>
 5   0  0.3714448E-03  0.7985249E+03  0.7818609E-02  0.9562155E-01
       -1   -1    0    0    0  501  0.00000000000E+00  0.00000000000E+00  0.40980981776E+03  0.40980981779E+03  0.50400001928E-02 0.  1.
        1   -1    0    0  501    0  0.00000000000E+00  0.00000000000E+00 -0.38898652250E+03  0.38898652254E+03  0.50400001928E-02 0. -1.
    10030    2    1    2    0    0  0.00000000000E+00  0.00000000000E+00  0.20823295252E+02  0.79879634032E+03  0.79852487982E+03 0.  0.
        1    1    3    3  502    0  0.29979134929E+03 -0.26354823970E+03  0.15786890560E+01  0.39916790959E+03  0.50400001928E-02 0. -1.
       -1    1    3    3    0  502 -0.29979134929E+03  0.26354823970E+03  0.19244606196E+02  0.39962843074E+03  0.50400001928E-02 0.  1.
</event>
<event>
 5   0  0.3714448E-03  0.7941536E+03  0.7818609E-02  0.9568518E-01
        1   -1    0    0  501    0  0.00000000000E+00  0.00000000000E+00  0.14142436278E+03  0.14142436287E+03  0.50400001928E-02 0. -1.
       -1   -1    0    0    0  501  0.00000000000E+00  0.00000000000E+00 -0.11148715649E+04  0.11148715649E+04  0.50400001928E-02 0.  1.
    10030    2    1    2    0    0  0.00000000000E+00  0.00000000000E+00 -0.97344720209E+03  0.12562959278E+04  0.79415363932E+03 0.  0.
        1    1    3    3  502    0 -0.20629654770E+03  0.32026073791E+03 -0.30954176275E+03  0.49085772761E+03  0.50400001928E-02 0. -1.
       -1    1    3    3    0  502  0.20629654770E+03 -0.32026073791E+03 -0.66390543934E+03  0.76543820015E+03  0.50400001928E-02 0.  1.
</event>
<event>
 5   0  0.6536209E-03  0.8106350E+03  0.7818609E-02  0.9544750E-01
        2   -1    0    0  501    0  0.00000000000E+00  0.00000000000E+00  0.87229411500E+03  0.87229411501E+03  0.25500000920E-02 0.  1.
       -2   -1    0    0    0  501  0.00000000000E+00  0.00000000000E+00 -0.18833359374E+03  0.18833359376E+03  0.25500000920E-02 0. -1.
    10030    2    1    2    0    0  0.00000000000E+00  0.00000000000E+00  0.68396052127E+03  0.10606277088E+04  0.81063502388E+03 0.  0.
        3    1    3    3  502    0  0.16563180027E+03  0.11831253956E+03 -0.11661135836E+03  0.23458467422E+03  0.10100000352E+00 0. -1.
       -3    1    3    3    0  502 -0.16563180027E+03 -0.11831253956E+03  0.80057187962E+03  0.82604303455E+03  0.10100000352E+00 0.  1.
</event>
<event>
 5   0  0.3860515E-03  0.7984714E+03  0.7818609E-02  0.9562232E-01
        1   -1    0    0  501    0  0.00000000000E+00  0.00000000000E+00  0.38282890725E+03  0.38282890728E+03  0.50400001928E-02 0. -1.
       -1   -1    0    0    0  501  0.00000000000E+00  0.00000000000E+00 -0.41634559773E+03  0.41634559776E+03  0.50400001928E-02 0.  1.
    10030    2    1    2    0    0  0.00000000000E+00  0.00000000000E+00 -0.33516690486E+02  0.79917450504E+03  0.79847136515E+03 0.  0.
        4    1    3    3  502    0 -0.34193830241E+03 -0.66557065277E+02 -0.21195796254E+03  0.40777375636E+03  0.12699999809E+01 0.  1.
       -4    1    3    3    0  502  0.34193830241E+03  0.66557065277E+02  0.17844127205E+03  0.39140074868E+03  0.12699999809E+01 0. -1.
</event>
<event>
 5   0  0.3714448E-03  0.8007201E+03  0.7818609E-02  0.9558975E-01
        1   -1    0    0  501    0  0.00000000000E+00  0.00000000000E+00  0.52644641441E+03  0.52644641444E+03  0.50400001928E-02 0. -1.
       -1   -1    0    0    0  501  0.00000000000E+00  0.00000000000E+00 -0.30447196938E+03  0.30447196943E+03  0.50400001928E-02 0.  1.
    10030    2    1    2    0    0  0.00000000000E+00  0.00000000000E+00  0.22197444503E+03  0.83091838386E+03  0.80072011739E+03 0.  0.
        1    1    3    3  502    0 -0.56984704383E+02 -0.33522627720E+03 -0.10832241367E+03  0.35687204820E+03  0.50400001928E-02 0.  1.
       -1    1    3    3    0  502  0.56984704383E+02  0.33522627720E+03  0.33029685870E+03  0.47404633566E+03  0.50400001928E-02 0. -1.
</event>
<event>
 5   0  0.2478000E-03  0.8078682E+03  0.7818609E-02  0.9548698E-01
        3   -1    0    0  501    0  0.00000000000E+00  0.00000000000E+00  0.11349516324E+04  0.11349516369E+04  0.10100000352E+00 0. -1.
       -3   -1    0    0    0  501  0.00000000000E+00  0.00000000000E+00 -0.14376184140E+03  0.14376187688E+03  0.10100000352E+00 0.  1.
    10030    2    1    2    0    0  0.00000000000E+00  0.00000000000E+00  0.99118979102E+03  0.12787135138E+04  0.80786821235E+03 0.  0.
        4    1    3    3  502    0  0.31097075753E+03 -0.46771973989E+02  0.94322470737E+02  0.32831200249E+03  0.12699999809E+01 0.  1.
       -4    1    3    3    0  502 -0.31097075753E+03  0.46771973989E+02  0.89686732028E+03  0.95040151130E+03  0.12699999809E+01 0. -1.
</event>
<event>
 5   0  0.3714448E-03  0.7996188E+03  0.7818609E-02  0.9560569E-01
       -1   -1    0    0    0  501  0.00000000000E+00  0.00000000000E+00  0.20800694995E+03  0.20800695001E+03  0.50400001928E-02 0.  1.
        1   -1    0    0  501    0  0.00000000000E+00  0.00000000000E+00 -0.76847226972E+03  0.76847226973E+03  0.50400001928E-02 0. -1.
    10030    2    1    2    0    0  0.00000000000E+00  0.00000000000E+00 -0.56046531977E+03  0.97647921974E+03  0.79961884165E+03 0.  0.
        1    1    3    3  502    0  0.39332545911E+03  0.45664927325E+02 -0.34775601723E+03  0.52699568302E+03  0.50400001928E-02 0. -1.
       -1    1    3    3    0  502 -0.39332545911E+03 -0.45664927325E+02 -0.21270930254E+03  0.44948353673E+03  0.50400001928E-02 0.  1.
</event>
<event>
 5   0  0.3627496E-03  0.8032502E+03  0.7818609E-02  0.9555324E-01
       -1   -1    0    0    0  501  0.00000000000E+00  0.00000000000E+00  0.44767942414E+03  0.44767942417E+03  0.50400001928E-02 0. -1.
        1   -1    0    0  501    0  0.00000000000E+00  0.00000000000E+00 -0.36030856204E+03  0.36030856207E+03  0.50400001928E-02 0.  1.
    10030    2    1    2    0    0  0.00000000000E+00  0.00000000000E+00  0.87370862105E+02  0.80798798625E+03  0.80325022152E+03 0.  0.
        3    1    3    3  502    0  0.12757186690E+03 -0.38051662312E+03  0.28257506512E+02  0.40232571205E+03  0.10100000352E+00 0. -1.
       -3    1    3    3    0  502 -0.12757186690E+03  0.38051662312E+03  0.59113355593E+02  0.40566227420E+03  0.10100000352E+00 0.  1.
</event>
<event>
 5   0  0.5813850E-03  0.7963438E+03  0.7818609E-02  0.9565324E-01
        2   -1    0    0  501    0  0.00000000000E+00  0.00000000000E+00  0.11036398208E+04  0.11036398209E+04  0.25500000920E-02 0.  1.
       -2   -1    0    0    0  501  0.00000000000E+00  0.00000000000E+00 -0.14365273723E+03  0.14365273725E+03  0.25500000920E-02 0. -1.
    10030    2    1    2    0    0  0.00000000000E+00  0.00000000000E+00  0.95998708362E+03  0.12472925581E+04  0.79634384833E+03 0.  0.
        5    1    3    3  502    0  0.21808372835E+03  0.10057567772E+03 -0.17388584553E+02  0.24083278928E+03  0.46999998093E+01 0. -1.
       -5    1    3    3    0  502 -0.21808372835E+03 -0.10057567772E+03  0.97737566817E+03  0.10064597688E+04  0.46999998093E+01 0.  1.
</event>
<event>
 5   0  0.3860515E-03  0.7958177E+03  0.7818609E-02  0.9566091E-01
        1   -1    0    0  501    0  0.00000000000E+00  0.00000000000E+00  0.10369841174E+04  0.10369841174E+04  0.50400001928E-02 0. -1.
       -1   -1    0    0    0  501  0.00000000000E+00  0.00000000000E+00 -0.15268455040E+03  0.15268455049E+03  0.50400001928E-02 0.  1.
    10030    2    1    2    0    0  0.00000000000E+00  0.00000000000E+00  0.88429956698E+03  0.11896686679E+04  0.79581770222E+03 0.  0.
        4    1    3    3  502    0  0.10178451377E+02 -0.37256985118E+03  0.23383788690E+03  0.43999280123E+03  0.12699999809E+01 0. -1.
       -4    1    3    3    0  502 -0.10178451377E+02  0.37256985118E+03  0.65046168008E+03  0.74967586665E+03  0.12699999809E+01 0.  1.
</event>
<event>
 5   0  0.3714448E-03  0.8005396E+03  0.7818609E-02  0.9559236E-01
       -1   -1    0    0    0  501  0.00000000000E+00  0.00000000000E+00  0.29605590400E+03  0.29605590405E+03  0.50400001928E-02 0. -1.
        1   -1    0    0  501    0  0.00000000000E+00  0.00000000000E+00 -0.54116780447E+03  0.54116780449E+03  0.50400001928E-02 0.  1.
    10030    2    1    2    0    0  0.00000000000E+00  0.00000000000E+00 -0.24511190046E+03  0.83722370854E+03  0.80053962699E+03 0.  0.
        1    1    3    3  502    0  0.18866986696E+03  0.23951266457E+03  0.14866013675E+03  0.33920859581E+03  0.50400001928E-02 0. -1.
       -1    1    3    3    0  502 -0.18866986696E+03 -0.23951266457E+03 -0.39377203721E+03  0.49801511272E+03  0.50400001928E-02 0.  1.
</event>
<event>
 5   0  0.3714448E-03  0.8003363E+03  0.7818609E-02  0.9559531E-01
       -1   -1    0    0    0  501  0.00000000000E+00  0.00000000000E+00  0.22740168155E+03  0.22740168161E+03  0.50400001928E-02 0. -1.
        1   -1    0    0  501    0  0.00000000000E+00  0.00000000000E+00 -0.70419239354E+03  0.70419239356E+03  0.50400001928E-02 0.  1.
    10030    2    1    2    0    0  0.00000000000E+00  0.00000000000E+00 -0.47679071199E+03  0.93159407516E+03  0.80033626548E+03 0.  0.
        1    1    3    3  502    0 -0.10881177264E+03  0.28462031997E+03 -0.54033208858E+03  0.62032853745E+03  0.50400001928E-02 0.  1.
       -1    1    3    3    0  502  0.10881177264E+03 -0.28462031997E+03  0.63541376590E+02  0.31126553771E+03  0.50400001928E-02 0. -1.
</event>
<event>
 5   0  0.5813850E-03  0.8000305E+03  0.7818609E-02  0.9559973E-01
        2   -1    0    0  501    0  0.00000000000E+00  0.00000000000E+00  0.94193250081E+03  0.94193250082E+03  0.25500000920E-02 0.  1.
       -2   -1    0    0    0  501  0.00000000000E+00  0.00000000000E+00 -0.16987651239E+03  0.16987651241E+03  0.25500000920E-02 0. -1.
    10030    2    1    2    0    0  0.00000000000E+00  0.00000000000E+00  0.77205598842E+03  0.11118090132E+04  0.80003051982E+03 0.  0.
        5    1    3    3  502    0 -0.14614689282E+03 -0.37167950685E+03  0.41665043121E+03  0.57716916231E+03  0.46999998093E+01 0.  1.
       -5    1    3    3    0  502  0.14614689282E+03  0.37167950685E+03  0.35540555721E+03  0.53463985092E+03  0.46999998093E+01 0. -1.
</event>
<event>
 5   0  0.6337108E-03  0.7989251E+03  0.7818609E-02  0.9561574E-01
       -2   -1    0    0    0  501  0.00000000000E+00  0.00000000000E+00  0.91935647729E+02  0.91935647765E+02  0.25500000920E-02 0.  1.
        2   -1    0    0  501    0  0.00000000000E+00  0.00000000000E+00 -0.17356743602E+04  0.17356743602E+04  0.25500000920E-02 0. -1.
    10030    2    1    2    0    0  0.00000000000E+00  0.00000000000E+00 -0.16437387124E+04  0.18276100079E+04  0.79892514438E+03 0.  0.
        4    1    3    3  502    0 -0.27326853209E+03  0.26373396975E+03 -0.53856462779E+03  0.65900285935E+03  0.12699999809E+01 0.  1.
       -4    1    3    3    0  502  0.27326853209E+03 -0.26373396975E+03 -0.11051740846E+04  0.11686071486E+04  0.12699999809E+01 0. -1.
</event>
<event>
 5   0  0.3753450E-03  0.7948014E+03  0.7818609E-02  0.9567573E-01
        1   -1    0    0  501    0  0.00000000000E+00  0.00000000000E+00  0.93766755585E+03  0.93766755586E+03  0.50400001928E-02 0.  1.
       -1   -1    0    0    0  501  0.00000000000E+00  0.00000000000E+00 -0.16842568318E+03  0.16842568325E+03  0.50400001928E-02 0. -1.
    10030    2    1    2    0    0  0.00000000000E+00  0.00000000000E+00  0.76924187267E+03  0.11060932391E+04  0.79480135565E+03 0.  0.
        5    1    3    3  502    0 -0.34339869352E+03  0.35810633980E+02  0.11084868208E+03  0.36264939616E+03  0.46999998093E+01 0. -1.
       -5    1    3    3    0  502  0.34339869352E+03 -0.35810633980E+02  0.65839319059E+03  0.74344384296E+03  0.46999998093E+01 0.  1.
</event>
<event>
 5   0  0.6337108E-03  0.7980158E+03  0.7818609E-02  0.9562894E-01
        2   -1    0    0  501    0  0.00000000000E+00  0.00000000000E+00  0.72038574501E+03  0.72038574501E+03  0.25500000920E-02 0.  1.
       -2   -1    0    0    0  501  0.00000000000E+00  0.00000000000E+00 -0.22100283234E+03  0.22100283236E+03  0.25500000920E-02 0. -1.
    10030    2    1    2    0    0  0.00000000000E+00  0.00000000000E+00  0.49938291266E+03  0.94138857737E+03  0.79801576435E+03 0.  0.
        4    1    3    3  502    0  0.32844324014E+03  0.79344937750E+02  0.50003304277E+03  0.60349419045E+03  0.12699999809E+01 0.  1.
       -4    1    3    3    0  502 -0.32844324014E+03 -0.79344937750E+02 -0.65013011016E+00  0.33789438692E+03  0.12699999809E+01 0. -1.
</event>
<event>
 5   0  0.3627496E-03  0.7968378E+03  0.7818609E-02  0.9564606E-01
        1   -1    0    0  501    0  0.00000000000E+00  0.00000000000E+00  0.22474738228E+04  0.22474738229E+04  0.50400001928E-02 0.  1.
       -1   -1    0    0    0  501  0.00000000000E+00  0.00000000000E+00 -0.70629347945E+02  0.70629348125E+02  0.50400001928E-02 0. -1.
    10030    2    1    2    0    0  0.00000000000E+00  0.00000000000E+00  0.21768444749E+04  0.23181031710E+04  0.79683777733E+03 0.  0.
        3    1    3    3  502    0  0.44880568315E+02 -0.29878310115E+03  0.18439670724E+04  0.18685556404E+04  0.10100000352E+00 0.  1.
       -3    1    3    3    0  502 -0.44880568315E+02  0.29878310115E+03  0.33287740246E+03  0.44954753054E+03  0.10100000352E+00 0. -1.
</event>
<event>
 5   0  0.6153659E-03  0.8209779E+03  0.7818609E-02  0.9530139E-01
        2   -1    0    0  501    0  0.00000000000E+00  0.00000000000E+00  0.16667989188E+04  0.16667989188E+04  0.25500000920E-02 0. -1.
       -2   -1    0    0    0  501  0.00000000000E+00  0.00000000000E+00 -0.10109268902E+03  0.10109268905E+03  0.25500000920E-02 0.  1.
    10030    2    1    2    0    0  0.00000000000E+00  0.00000000000E+00  0.15657062298E+04  0.17678916078E+04  0.82097791637E+03 0.  0.
        2    1    3    3  502    0  0.26171102958E+02  0.15780122076E+03  0.15969256743E+04  0.16049167459E+04  0.25500000920E-02 0. -1.
       -2    1    3    3    0  502 -0.26171102958E+02 -0.15780122076E+03 -0.31219444561E+02  0.16297486196E+03  0.25500000920E-02 0.  1.
</event>
<event>
 5   0  0.6256781E-03  0.8030517E+03  0.7818609E-02  0.9555610E-01
        2   -1    0    0  501    0  0.00000000000E+00  0.00000000000E+00  0.49127074269E+03  0.49127074269E+03  0.25500000920E-02 0. -1.
       -2   -1    0    0    0  501  0.00000000000E+00  0.00000000000E+00 -0.32817543644E+03  0.32817543645E+03  0.25500000920E-02 0.  1.
    10030    2    1    2    0    0  0.00000000000E+00  0.00000000000E+00  0.16309530625E+03  0.81944617915E+03  0.80305165562E+03 0.  0.
        1    1    3    3  502    0  0.11305092696E+03 -0.25363075393E+02 -0.31074753733E+03  0.33164413106E+03  0.50400001928E-02 0.  1.
       -1    1    3    3    0  502 -0.11305092696E+03  0.25363075393E+02  0.47384284358E+03  0.48780204809E+03  0.50400001928E-02 0. -1.
</event>
<event>
 5   0  0.2478000E-03  0.8007787E+03  0.7818609E-02  0.9558891E-01
        3   -1    0    0  501    0  0.00000000000E+00  0.00000000000E+00  0.21690471322E+03  0.21690473674E+03  0.10100000352E+00 0. -1.
       -3   -1    0    0    0  501  0.00000000000E+00  0.00000000000E+00 -0.73908781650E+03  0.73908782340E+03  0.10100000352E+00 0.  1.
    10030    2    1    2    0    0  0.00000000000E+00  0.00000000000E+00 -0.52218310328E+03  0.95599256014E+03  0.80077873454E+03 0.  0.
        5    1    3    3  502    0 -0.18771977391E+03  0.11138795970E+02  0.16086694382E+03  0.24751373679E+03  0.46999998093E+01 0. -1.
       -5    1    3    3    0  502  0.18771977391E+03 -0.11138795970E+02 -0.68305004710E+03  0.70847882334E+03  0.46999998093E+01 0.  1.
</event>
<event>
 5   0  0.3860515E-03  0.7998738E+03  0.7818609E-02  0.9560200E-01
       -1   -1    0    0    0  501  0.00000000000E+00  0.00000000000E+00  0.26133443082E+03  0.26133443086E+03  0.50400001928E-02 0. -1.
        1   -1    0    0  501    0  0.00000000000E+00  0.00000000000E+00 -0.61204919115E+03  0.61204919117E+03  0.50400001928E-02 0.  1.
    10030    2    1    2    0    0  0.00000000000E+00  0.00000000000E+00 -0.35071476033E+03  0.87338362203E+03  0.79987380762E+03 0.  0.
        4    1    3    3  502    0  0.39706100747E+03  0.24753936078E+01 -0.22754460653E+03  0.45764804391E+03  0.12699999809E+01 0.  1.
       -4    1    3    3    0  502 -0.39706100747E+03 -0.24753936078E+01 -0.12317015380E+03  0.41573557812E+03  0.12699999809E+01 0. -1.
</event>
<event>
 5   0  0.6256781E-03  0.8013210E+03  0.7818609E-02  0.9558107E-01
       -2   -1    0    0    0  501  0.00000000000E+00  0.00000000000E+00  0.11124512397E+03  0.11124512400E+03  0.25500000920E-02 0.  1.
        2   -1    0    0  501    0  0.00000000000E+00  0.00000000000E+00 -0.14430190631E+04  0.14430190631E+04  0.25500000920E-02 0. -1.
    10030    2    1    2    0    0  0.00000000000E+00  0.00000000000E+00 -0.13317739391E+04  0.15542641871E+04  0.80132099581E+03 0.  0.
        1    1    3    3  502    0  0.27702584034E+03  0.26728034302E+03 -0.45036357965E+03  0.59246050660E+03  0.50400001928E-02 0.  1.
       -1    1    3    3    0  502 -0.27702584034E+03 -0.26728034302E+03 -0.88141035945E+03  0.96180368047E+03  0.50400001928E-02 0. -1.
</event>
<event>
 5   0  0.2478000E-03  0.7951440E+03  0.7818609E-02  0.9567073E-01
       -4   -1    0    0    0  501  0.00000000000E+00  0.00000000000E+00  0.36858572321E+03  0.36858791116E+03  0.12699999809E+01 0. -1.
        4   -1    0    0  501    0  0.00000000000E+00  0.00000000000E+00 -0.42883338158E+03  0.42883526215E+03  0.12699999809E+01 0.  1.
    10030    2    1    2    0    0  0.00000000000E+00  0.00000000000E+00 -0.60247658374E+02  0.79742317330E+03  0.79514397249E+03 0.  0.
        4    1    3    3  502    0 -0.35478945319E+03  0.12815999345E+03 -0.15602782990E+03  0.40822400299E+03  0.12699999809E+01 0.  1.
       -4    1    3    3    0  502  0.35478945319E+03 -0.12815999345E+03  0.95780171526E+02  0.38919917031E+03  0.12699999809E+01 0. -1.
</event>
<event>
 5   0  0.6337108E-03  0.7998418E+03  0.7818609E-02  0.9560246E-01
        2   -1    0    0  501    0  0.00000000000E+00  0.00000000000E+00  0.40983736812E+03  0.40983736813E+03  0.25500000920E-02 0. -1.
       -2   -1    0    0    0  501  0.00000000000E+00  0.00000000000E+00 -0.39024441429E+03  0.39024441430E+03  0.25500000920E-02 0.  1.
    10030    2    1    2    0    0  0.00000000000E+00  0.00000000000E+00  0.19592953824E+02  0.80008178243E+03  0.79984184357E+03 0.  0.
        4    1    3    3  502    0 -0.22667786404E+03 -0.64994678465E+02 -0.31329882034E+03  0.39212871101E+03  0.12699999809E+01 0.  1.
       -4    1    3    3    0  502  0.22667786404E+03  0.64994678465E+02  0.33289177416E+03  0.40795307142E+03  0.12699999809E+01 0. -1.
</event>
<event>
 5   0  0.6536209E-03  0.7995167E+03  0.7818609E-02  0.9560717E-01
       -2   -1    0    0    0  501  0.00000000000E+00  0.00000000000E+00  0.13768261319E+03  0.13768261322E+03  0.25500000920E-02 0.  1.
        2   -1    0    0  501    0  0.00000000000E+00  0.00000000000E+00 -0.11606892043E+04  0.11606892043E+04  0.25500000920E-02 0. -1.
    10030    2    1    2    0    0  0.00000000000E+00  0.00000000000E+00 -0.10230065911E+04  0.12983718176E+04  0.79951666093E+03 0.  0.
        3    1    3    3  502    0 -0.28982874565E+03 -0.12505506738E+03 -0.11316541345E+03  0.33532952850E+03  0.10100000352E+00 0.  1.
       -3    1    3    3    0  502  0.28982874565E+03  0.12505506738E+03 -0.90984117769E+03  0.96304228905E+03  0.10100000352E+00 0. -1.
</event>
<event>
 5   0  0.3671128E-03  0.7958669E+03  0.7818609E-02  0.9566019E-01
       -1   -1    0    0    0  501  0.00000000000E+00  0.00000000000E+00  0.18833543225E+03  0.18833543231E+03  0.50400001928E-02 0. -1.
        1   -1    0    0  501    0  0.00000000000E+00  0.00000000000E+00 -0.84079265849E+03  0.84079265851E+03  0.50400001928E-02 0.  1.
    10030    2    1    2    0    0  0.00000000000E+00  0.00000000000E+00 -0.65245722625E+03  0.10291280908E+04  0.79586694569E+03 0.  0.
        2    1    3    3  502    0  0.27642737919E+03  0.13819567102E+03 -0.20755010415E+01  0.30905411689E+03  0.25500000920E-02 0. -1.
       -2    1    3    3    0  502 -0.27642737919E+03 -0.13819567102E+03 -0.65038172521E+03  0.72007397394E+03  0.25500000920E-02 0.  1.
</event>
<event>
 5   0  0.3860515E-03  0.8018751E+03  0.7818609E-02  0.9557307E-01
        1   -1    0    0  501    0  0.00000000000E+00  0.00000000000E+00  0.21779687554E+03  0.21779687559E+03  0.50400001928E-02 0. -1.
       -1   -1    0    0    0  501  0.00000000000E+00  0.00000000000E+00 -0.73807725414E+03  0.73807725416E+03  0.50400001928E-02 0.  1.
    10030    2    1    2    0    0  0.00000000000E+00  0.00000000000E+00 -0.52028037860E+03  0.95587412975E+03  0.80187510222E+03 0.  0.
        4    1    3    3  502    0 -0.14524358427E+03  0.15613162115E+03  0.14458889743E+03  0.25764383178E+03  0.12699999809E+01 0. -1.
       -4    1    3    3    0  502  0.14524358427E+03 -0.15613162115E+03 -0.66486927603E+03  0.69823029797E+03  0.12699999809E+01 0.  1.
</event>
<event>
 5   0  0.3627496E-03  0.7996330E+03  0.7818609E-02  0.9560549E-01
        1   -1    0    0  501    0  0.00000000000E+00  0.00000000000E+00  0.48746221485E+03  0.48746221487E+03  0.50400001928E-02 0. -1.
       -1   -1    0    0    0  501  0.00000000000E+00  0.00000000000E+00 -0.32792944987E+03  0.32792944991E+03  0.50400001928E-02 0.  1.
    10030    2    1    2    0    0  0.00000000000E+00  0.00000000000E+00  0.15953276498E+03  0.81539166478E+03  0.79963295573E+03 0.  0.
        3    1    3    3  502    0 -0.78659064580E+02 -0.19649197945E+02 -0.31945899436E+03  0.32958670892E+03  0.10100000352E+00 0.  1.
       -3    1    3    3    0  502  0.78659064580E+02  0.19649197945E+02  0.47899175934E+03  0.48580495586E+03  0.10100000352E+00 0. -1.
</event>
<event>
 5   0  0.3627496E-03  0.7991117E+03  0.7818609E-02  0.9561304E-01
        1   -1    0    0  501    0  0.00000000000E+00  0.00000000000E+00  0.16038194711E+04  0.16038194711E+04  0.50400001928E-02 0.  1.
       -1   -1    0    0    0  501  0.00000000000E+00  0.00000000000E+00 -0.99540435559E+02  0.99540435687E+02  0.50400001928E-02 0. -1.
    10030    2    1    2    0    0  0.00000000000E+00  0.00000000000E+00  0.15042790355E+04  0.17033599068E+04  0.79911172893E+03 0.  0.
        3    1    3    3  502    0 -0.28695050507E+03  0.22540891196E+03  0.40517763306E+03  0.54526937791E+03  0.10100000352E+00 0. -1.
       -3    1    3    3    0  502  0.28695050507E+03 -0.22540891196E+03  0.10991014025E+04  0.11580905289E+04  0.10100000352E+00 0.  1.
</event>
<event>
 5   0  0.6256781E-03  0.8003918E+03  0.7818609E-02  0.9559450E-01
       -2   -1    0    0    0  501  0.00000000000E+00  0.00000000000E+00  0.79542415064E+02  0.79542415105E+02  0.25500000920E-02 0. -1.
        2   -1    0    0  501    0  0.00000000000E+00  0.00000000000E+00 -0.20134763264E+04  0.20134763264E+04  0.25500000920E-02 0.  1.
    10030    2    1    2    0    0  0.00000000000E+00  0.00000000000E+00 -0.19339339113E+04  0.20930187415E+04  0.80039182834E+03 0.  0.
        1    1    3    3  502    0 -0.30174040497E+03 -0.24720614859E+03 -0.73309510954E+03  0.83041350636E+03  0.50400001928E-02 0. -1.
       -1    1    3    3    0  502  0.30174040497E+03  0.24720614859E+03 -0.12008388018E+04  0.12626052351E+04  0.50400001928E-02 0.  1.
</event>
<event>
 5   0  0.5813850E-03  0.8027064E+03  0.7818609E-02  0.9556108E-01
        2   -1    0    0  501    0  0.00000000000E+00  0.00000000000E+00  0.81099306958E+03  0.81099306958E+03  0.25500000920E-02 0. -1.
       -2   -1    0    0    0  501  0.00000000000E+00  0.00000000000E+00 -0.19862611418E+03  0.19862611420E+03  0.25500000920E-02 0.  1.
    10030    2    1    2    0    0  0.00000000000E+00  0.00000000000E+00  0.61236695539E+03  0.10096191838E+04  0.80270642716E+03 0.  0.
        5    1    3    3  502    0 -0.20486937778E+03  0.27149566953E+03  0.57412353910E+03  0.66732397579E+03  0.46999998093E+01 0. -1.
       -5    1    3    3    0  502  0.20486937778E+03 -0.27149566953E+03  0.38243416296E+02  0.34229520799E+03  0.46999998093E+01 0.  1.
</event>
<event>
 5   0  0.6153659E-03  0.7954533E+03  0.7818609E-02  0.9566622E-01
       -2   -1    0    0    0  501  0.00000000000E+00  0.00000000000E+00  0.11609555502E+03  0.11609555504E+03  0.25500000920E-02 0. -1.
        2   -1    0    0  501    0  0.00000000000E+00  0.00000000000E+00 -0.13625543214E+04  0.13625543214E+04  0.25500000920E-02 0.  1.
    10030    2    1    2    0    0  0.00000000000E+00  0.00000000000E+00 -0.12464587664E+04  0.14786498765E+04  0.79545333039E+03 0.  0.
        2    1    3    3  502    0  0.35529457775E+03  0.23934308889E+02 -0.29394354885E+03  0.46174657339E+03  0.25500000920E-02 0. -1.
       -2    1    3    3    0  502 -0.35529457775E+03 -0.23934308889E+02 -0.95251521754E+03  0.10169033031E+04  0.25500000920E-02 0.  1.
</event>
<event>
 5   0  0.3714448E-03  0.7954581E+03  0.7818609E-02  0.9566615E-01
        1   -1    0    0  501    0  0.00000000000E+00  0.00000000000E+00  0.73449357192E+03  0.73449357194E+03  0.50400001928E-02 0.  1.
       -1   -1    0    0    0  501  0.00000000000E+00  0.00000000000E+00 -0.21537072264E+03  0.21537072270E+03  0.50400001928E-02 0. -1.
    10030    2    1    2    0    0  0.00000000000E+00  0.00000000000E+00  0.51912284928E+03  0.94986429464E+03  0.79545813566E+03 0.  0.
        1    1    3    3  502    0 -0.23343372360E+02  0.14032788914E+03 -0.18395282445E+03  0.23254133214E+03  0.50400001928E-02 0. -1.
       -1    1    3    3    0  502  0.23343372360E+02 -0.14032788914E+03  0.70307567373E+03  0.71732296249E+03  0.50400001928E-02 0.  1.
</event>
<event>
 5   0  0.6153659E-03  0.8032076E+03  0.7818609E-02  0.9555386E-01
       -2   -1    0    0    0  501  0.00000000000E+00  0.00000000000E+00  0.98778367313E+02  0.98778367346E+02  0.25500000920E-02 0.  1.
        2   -1    0    0  501    0  0.00000000000E+00  0.00000000000E+00 -0.16328030411E+04  0.16328030411E+04  0.25500000920E-02 0. -1.
    10030    2    1    2    0    0  0.00000000000E+00  0.00000000000E+00 -0.15340246738E+04  0.17315814085E+04  0.80320761594E+03 0.  0.
        2    1    3    3  502    0 -0.28504980145E+03 -0.26701270887E+03 -0.56550892246E+03  0.68727688554E+03  0.25500000920E-02 0.  1.
       -2    1    3    3    0  502  0.28504980145E+03  0.26701270887E+03 -0.96851575136E+03  0.10443045229E+04  0.25500000920E-02 0. -1.
</event>
<event>
 5   0  0.3714448E-03  0.8009163E+03  0.7818609E-02  0.9558692E-01
        1   -1    0    0  501    0  0.00000000000E+00  0.00000000000E+00  0.95432617320E+03  0.95432617321E+03  0.50400001928E-02 0. -1.
       -1   -1    0    0    0  501  0.00000000000E+00  0.00000000000E+00 -0.16804185278E+03  0.16804185286E+03  0.50400001928E-02 0.  1.
    10030    2    1    2    0    0  0.00000000000E+00  0.00000000000E+00  0.78628432041E+03  0.11223680261E+04  0.80091632110E+03 0.  0.
        1    1    3    3  502    0 -0.56017116690E+02 -0.21697637897E+02  0.94797613330E+03  0.94987759958E+03  0.50400001928E-02 0. -1.
       -1    1    3    3    0  502  0.56017116690E+02  0.21697637897E+02 -0.16169181288E+03  0.17249042649E+03  0.50400001928E-02 0.  1.
</event>
<event>
 5   0  0.3753450E-03  0.8000024E+03  0.7818609E-02  0.9560014E-01
       -1   -1    0    0    0  501  0.00000000000E+00  0.00000000000E+00  0.42382687515E+03  0.42382687518E+03  0.50400001928E-02 0.  1.
        1   -1    0    0  501    0  0.00000000000E+00  0.00000000000E+00 -0.37751486196E+03  0.37751486199E+03  0.50400001928E-02 0. -1.
    10030    2    1    2    0    0  0.00000000000E+00  0.00000000000E+00  0.46312013191E+02  0.80134173718E+03  0.80000236073E+03 0.  0.
        5    1    3    3  502    0  0.28714612562E+03  0.26530451818E+03 -0.61480838230E+02  0.39577944400E+03  0.46999998093E+01 0. -1.
       -5    1    3    3    0  502 -0.28714612562E+03 -0.26530451818E+03  0.10779285142E+03  0.40556229317E+03  0.46999998093E+01 0.  1.
</event>
<event>
 5   0  0.6337108E-03  0.7979675E+03  0.7818609E-02  0.9562964E-01
       -2   -1    0    0    0  501  0.00000000000E+00  0.00000000000E+00  0.64433804129E+03  0.64433804130E+03  0.25500000920E-02 0.  1.
        2   -1    0    0  501    0  0.00000000000E+00  0.00000000000E+00 -0.24705671757E+03  0.24705671758E+03  0.25500000920E-02 0. -1.
    10030    2    1    2    0    0  0.00000000000E+00  0.00000000000E+00  0.39728132373E+03  0.89139475888E+03  0.79796752188E+03 0.  0.
        4    1    3    3  502    0 -0.76614808685E+02 -0.30445703895E+03  0.47368443786E+03  0.56828028036E+03  0.12699999809E+01 0.  1.
       -4    1    3    3    0  502  0.76614808685E+02  0.30445703895E+03 -0.76403114131E+02  0.32311447852E+03  0.12699999809E+01 0. -1.
</event>
<event>
 5   0  0.3714448E-03  0.7994017E+03  0.7818609E-02  0.9560883E-01
        1   -1    0    0  501    0  0.00000000000E+00  0.00000000000E+00  0.46170967799E+03  0.46170967801E+03  0.50400001928E-02 0. -1.
       -1   -1    0    0    0  501  0.00000000000E+00  0.00000000000E+00 -0.34601998743E+03  0.34601998747E+03  0.50400001928E-02 0.  1.
    10030    2    1    2    0    0  0.00000000000E+00  0.00000000000E+00  0.11568969055E+03  0.80772966548E+03  0.79940171879E+03 0.  0.
        1    1    3    3  502    0  0.20555349165E+03 -0.31950960214E+03 -0.67634851961E+02  0.38589259777E+03  0.50400001928E-02 0. -1.
       -1    1    3    3    0  502 -0.20555349165E+03  0.31950960214E+03  0.18332454251E+03  0.42183706772E+03  0.50400001928E-02 0.  1.
</event>
<event>
 5   0  0.3753450E-03  0.7979496E+03  0.7818609E-02  0.9562990E-01
        1   -1    0    0  501    0  0.00000000000E+00  0.00000000000E+00  0.39009203170E+03  0.39009203174E+03  0.50400001928E-02 0.  1.
       -1   -1    0    0    0  501  0.00000000000E+00  0.00000000000E+00 -0.40805979230E+03  0.40805979233E+03  0.50400001928E-02 0. -1.
    10030    2    1    2    0    0  0.00000000000E+00  0.00000000000E+00 -0.17967760596E+02  0.79815182407E+03  0.79794955595E+03 0.  0.
        5    1    3    3  502    0 -0.79650524173E+02  0.13445331763E+03  0.35817439485E+03  0.39081055225E+03  0.46999998093E+01 0.  1.
       -5    1    3    3    0  502  0.79650524173E+02 -0.13445331763E+03 -0.37614215545E+03  0.40734127182E+03  0.46999998093E+01 0. -1.
</event>
<event>
 5   0  0.3714448E-03  0.7961297E+03  0.7818609E-02  0.9565636E-01
        1   -1    0    0  501    0  0.00000000000E+00  0.00000000000E+00  0.11257091659E+04  0.11257091659E+04  0.50400001928E-02 0.  1.
       -1   -1    0    0    0  501  0.00000000000E+00  0.00000000000E+00 -0.14076071790E+03  0.14076071799E+03  0.50400001928E-02 0. -1.
    10030    2    1    2    0    0  0.00000000000E+00  0.00000000000E+00  0.98494844801E+03  0.12664698839E+04  0.79612971405E+03 0.  0.
        1    1    3    3  502    0  0.27521146296E+03  0.15457102915E+02  0.35624737844E+02  0.27793775085E+03  0.50400001928E-02 0. -1.
       -1    1    3    3    0  502 -0.27521146296E+03 -0.15457102915E+02  0.94932371016E+03  0.98853213305E+03  0.50400001928E-02 0.  1.
</event>
<event>
 5   0  0.3671128E-03  0.7901487E+03  0.7818609E-02  0.9574387E-01
        1   -1    0    0  501    0  0.00000000000E+00  0.00000000000E+00  0.37214554184E+03  0.37214554188E+03  0.50400001928E-02 0.  1.
       -1   -1    0    0    0  501  0.00000000000E+00  0.00000000000E+00 -0.41941587107E+03  0.41941587110E+03  0.50400001928E-02 0. -1.
    10030    2    1    2    0    0  0.00000000000E+00  0.00000000000E+00 -0.47270329228E+02  0.79156141298E+03  0.79014871163E+03 0.  0.
        2    1    3    3  502    0  0.10675495901E+03  0.26031049266E+03  0.25421531323E+03  0.37918807912E+03  0.25500000920E-02 0.  1.
       -2    1    3    3    0  502 -0.10675495901E+03 -0.26031049266E+03 -0.30148564246E+03  0.41237333386E+03  0.25500000920E-02 0. -1.
</event>
<event>
 5   0  0.3671128E-03  0.8012593E+03  0.7818609E-02  0.9558196E-01
        1   -1    0    0  501    0  0.00000000000E+00  0.00000000000E+00  0.22745985923E+03  0.22745985929E+03  0.50400001928E-02 0. -1.
       -1   -1    0    0    0  501  0.00000000000E+00  0.00000000000E+00 -0.70563713637E+03  0.70563713639E+03  0.50400001928E-02 0.  1.
    10030    2    1    2    0    0  0.00000000000E+00  0.00000000000E+00 -0.47817727714E+03  0.93309699568E+03  0.80125931818E+03 0.  0.
        2    1    3    3  502    0  0.34989866150E+03  0.31306873782E+02 -0.46337918878E+03  0.58148900787E+03  0.25500000920E-02 0.  1.
       -2    1    3    3    0  502 -0.34989866150E+03 -0.31306873782E+02 -0.14798088351E+02  0.35160798781E+03  0.25500000920E-02 0. -1.
</event>
<event>
 5   0  0.2478000E-03  0.7996300E+03  0.7818609E-02  0.9560553E-01
       -3   -1    0    0    0  501  0.00000000000E+00  0.00000000000E+00  0.15527471726E+03  0.15527475011E+03  0.10100000352E+00 0.  1.
        3   -1    0    0  501    0  0.00000000000E+00  0.00000000000E+00 -0.10294787692E+04  0.10294787741E+04  0.10100000352E+00 0. -1.
    10030    2    1    2    0    0  0.00000000000E+00  0.00000000000E+00 -0.87420405192E+03  0.11847535242E+04  0.79963003246E+03 0.  0.
        5    1    3    3  502    0  0.20612994284E+03  0.27062788461E+03 -0.74824707462E+03  0.82196397727E+03  0.46999998093E+01 0. -1.
       -5    1    3    3    0  502 -0.20612994284E+03 -0.27062788461E+03 -0.12595697730E+03  0.36278954697E+03  0.46999998093E+01 0.  1.
</event>
<event>
 5   0  0.3753450E-03  0.8003069E+03  0.7818609E-02  0.9559573E-01
        1   -1    0    0  501    0  0.00000000000E+00  0.00000000000E+00  0.40763970229E+03  0.40763970232E+03  0.50400001928E-02 0.  1.
       -1   -1    0    0    0  501  0.00000000000E+00  0.00000000000E+00 -0.39280470498E+03  0.39280470502E+03  0.50400001928E-02 0. -1.
    10030    2    1    2    0    0  0.00000000000E+00  0.00000000000E+00  0.14834997307E+02  0.80044440734E+03  0.80030692368E+03 0.  0.
        5    1    3    3  502    0  0.30746231000E+03 -0.22130575851E+03 -0.12141220723E+03  0.39783454461E+03  0.46999998093E+01 0. -1.
       -5    1    3    3    0  502 -0.30746231000E+03  0.22130575851E+03  0.13624720454E+03  0.40260986273E+03  0.46999998093E+01 0.  1.
</event>
<event>
 5   0  0.6256781E-03  0.8085850E+03  0.7818609E-02  0.9547673E-01
       -2   -1    0    0    0  501  0.00000000000E+00  0.00000000000E+00  0.35205050564E+03  0.35205050565E+03  0.25500000920E-02 0. -1.
        2   -1    0    0  501    0  0.00000000000E+00  0.00000000000E+00 -0.46428680864E+03  0.46428680864E+03  0.25500000920E-02 0.  1.
    10030    2    1    2    0    0  0.00000000000E+00  0.00000000000E+00 -0.11223630300E+03  0.81633731429E+03  0.80858495101E+03 0.  0.
        1    1    3    3  502    0 -0.25662501373E+03  0.25713983173E+03  0.12299507482E+03  0.38354279969E+03  0.50400001928E-02 0. -1.
       -1    1    3    3    0  502  0.25662501373E+03 -0.25713983173E+03 -0.23523137782E+03  0.43279451461E+03  0.50400001928E-02 0.  1.
</event>
<event>
 5   0  0.3671128E-03  0.8064397E+03  0.7818609E-02  0.9550742E-01
        1   -1    0    0  501    0  0.00000000000E+00  0.00000000000E+00  0.91036450463E+03  0.91036450464E+03  0.50400001928E-02 0.  1.
       -1   -1    0    0    0  501  0.00000000000E+00  0.00000000000E+00 -0.17859468449E+03  0.17859468456E+03  0.50400001928E-02 0. -1.
    10030    2    1    2    0    0  0.00000000000E+00  0.00000000000E+00  0.73176982014E+03  0.10889591892E+04  0.80643973493E+03 0.  0.
        2    1    3    3  502    0 -0.19539944184E+03  0.30501732727E+03  0.12672123814E+03  0.38376396913E+03  0.25500000920E-02 0. -1.
       -2    1    3    3    0  502  0.19539944184E+03 -0.30501732727E+03  0.60504858201E+03  0.70519522006E+03  0.25500000920E-02 0.  1.
</event>
<event>
 5   0  0.6536209E-03  0.7978943E+03  0.7818609E-02  0.9563070E-01
       -2   -1    0    0    0  501  0.00000000000E+00  0.00000000000E+00  0.12546589115E+03  0.12546589118E+03  0.25500000920E-02 0. -1.
        2   -1    0    0  501    0  0.00000000000E+00  0.00000000000E+00 -0.12685426638E+04  0.12685426638E+04  0.25500000920E-02 0.  1.
    10030    2    1    2    0    0  0.00000000000E+00  0.00000000000E+00 -0.11430767727E+04  0.13940085550E+04  0.79789431831E+03 0.  0.
        3    1    3    3  502    0 -0.16743671348E+02 -0.92330534417E+02 -0.12489878545E+04  0.12525078639E+04  0.10100000352E+00 0.  1.
       -3    1    3    3    0  502  0.16743671348E+02  0.92330534417E+02  0.10591108188E+03  0.14150069110E+03  0.10100000352E+00 0. -1.
</event>
<event>
 5   0  0.3860515E-03  0.8012661E+03  0.7818609E-02  0.9558186E-01
       -1   -1    0    0    0  501  0.00000000000E+00  0.00000000000E+00  0.45417763143E+03  0.45417763146E+03  0.50400001928E-02 0.  1.
        1   -1    0    0  501    0  0.00000000000E+00  0.00000000000E+00 -0.35340100577E+03  0.35340100580E+03  0.50400001928E-02 0. -1.
    10030    2    1    2    0    0  0.00000000000E+00  0.00000000000E+00  0.10077662567E+03  0.80757863727E+03  0.80126607758E+03 0.  0.
        4    1    3    3  502    0 -0.17638990741E+03  0.23458688619E+03  0.32522843177E+03  0.43808623847E+03  0.12699999809E+01 0.  1.
       -4    1    3    3    0  502  0.17638990741E+03 -0.23458688619E+03 -0.22445180610E+03  0.36949239880E+03  0.12699999809E+01 0. -1.
</event>
<event>
 5   0  0.6256781E-03  0.7977631E+03  0.7818609E-02  0.9563261E-01
        2   -1    0    0  501    0  0.00000000000E+00  0.00000000000E+00  0.15591931337E+03  0.15591931339E+03  0.25500000920E-02 0. -1.
       -2   -1    0    0    0  501  0.00000000000E+00  0.00000000000E+00 -0.10204411937E+04  0.10204411937E+04  0.25500000920E-02 0.  1.
    10030    2    1    2    0    0  0.00000000000E+00  0.00000000000E+00 -0.86452188035E+03  0.11763605071E+04  0.79776309837E+03 0.  0.
        1    1    3    3  502    0  0.21129925345E+03 -0.25419373135E+03 -0.10304881444E+03  0.34623819222E+03  0.50400001928E-02 0. -1.
       -1    1    3    3    0  502 -0.21129925345E+03  0.25419373135E+03 -0.76147306592E+03  0.83012231491E+03  0.50400001928E-02 0.  1.
</event>
<event>
 5   0  0.3714448E-03  0.8097043E+03  0.7818609E-02  0.9546076E-01
       -1   -1    0    0    0  501  0.00000000000E+00  0.00000000000E+00  0.98145574176E+03  0.98145574178E+03  0.50400001928E-02 0. -1.
        1   -1    0    0  501    0  0.00000000000E+00  0.00000000000E+00 -0.16700219825E+03  0.16700219833E+03  0.50400001928E-02 0.  1.
    10030    2    1    2    0    0  0.00000000000E+00  0.00000000000E+00  0.81445354351E+03  0.11484579401E+04  0.80970430753E+03 0.  0.
        1    1    3    3  502    0  0.23764088136E+02 -0.37272739144E+03  0.18560344828E+03  0.41706004394E+03  0.50400001928E-02 0. -1.
       -1    1    3    3    0  502 -0.23764088136E+02  0.37272739144E+03  0.62885009523E+03  0.73139789616E+03  0.50400001928E-02 0.  1.
</event>
<event>
 5   0  0.6337108E-03  0.8006786E+03  0.7818609E-02  0.9559035E-01
        2   -1    0    0  501    0  0.00000000000E+00  0.00000000000E+00  0.65448886283E+03  0.65448886283E+03  0.25500000920E-02 0. -1.
       -2   -1    0    0    0  501  0.00000000000E+00  0.00000000000E+00 -0.24488049075E+03  0.24488049076E+03  0.25500000920E-02 0.  1.
    10030    2    1    2    0    0  0.00000000000E+00  0.00000000000E+00  0.40960837208E+03  0.89936935359E+03  0.80067859701E+03 0.  0.
        4    1    3    3  502    0  0.86527263035E+02 -0.70831107976E+02  0.63658865592E+03  0.64633640068E+03  0.12699999809E+01 0. -1.
       -4    1    3    3    0  502 -0.86527263035E+02  0.70831107976E+02 -0.22698028384E+03  0.25303295291E+03  0.12699999809E+01 0.  1.
</event>
<event>
 5   0  0.2478000E-03  0.8034203E+03  0.7818609E-02  0.9555080E-01
        3   -1    0    0  501    0  0.00000000000E+00  0.00000000000E+00  0.80236678713E+03  0.80236679348E+03  0.10100000352E+00 0. -1.
       -3   -1    0    0    0  501  0.00000000000E+00  0.00000000000E+00 -0.20111878627E+03  0.20111881163E+03  0.10100000352E+00 0.  1.
    10030    2    1    2    0    0  0.00000000000E+00  0.00000000000E+00  0.60124800085E+03  0.10034856051E+04  0.80342031412E+03 0.  0.
        2    1    3    3  502    0  0.21410863916E+03 -0.33974589972E+03  0.31319289355E+03  0.50927357512E+03  0.25500000920E-02 0. -1.
       -2    1    3    3    0  502 -0.21410863916E+03  0.33974589972E+03  0.28805510730E+03  0.49421203000E+03  0.25500000920E-02 0.  1.
</event>
<event>
 5   0  0.6153659E-03  0.8047576E+03  0.7818609E-02  0.9553156E-01
        2   -1    0    0  501    0  0.00000000000E+00  0.00000000000E+00  0.82690388197E+03  0.82690388197E+03  0.25500000920E-02 0. -1.
       -2   -1    0    0    0  501  0.00000000000E+00  0.00000000000E+00 -0.19580110050E+03  0.19580110051E+03  0.25500000920E-02 0.  1.
    10030    2    1    2    0    0  0.00000000000E+00  0.00000000000E+00  0.63110278147E+03  0.10227049825E+04  0.80475757867E+03 0.  0.
        2    1    3    3  502    0  0.23214703114E+02  0.10332635902E+03 -0.17777285132E+03  0.20692618389E+03  0.25500000920E-02 0.  1.
       -2    1    3    3    0  502 -0.23214703114E+02 -0.10332635902E+03  0.80887563279E+03  0.81577879859E+03  0.25500000920E-02 0. -1.
</event>
<event>
 5   0  0.5813850E-03  0.8177251E+03  0.7818609E-02  0.9534709E-01
       -2   -1    0    0    0  501  0.00000000000E+00  0.00000000000E+00  0.62205783093E+03  0.62205783093E+03  0.25500000920E-02 0. -1.
        2   -1    0    0  501    0  0.00000000000E+00  0.00000000000E+00 -0.26873481415E+03  0.26873481417E+03  0.25500000920E-02 0.  1.
    10030    2    1    2    0    0  0.00000000000E+00  0.00000000000E+00  0.35332301677E+03  0.89079264510E+03  0.81772512642E+03 0.  0.
        5    1    3    3  502    0  0.14221924152E+03 -0.13793338301E+02 -0.24061952491E+03  0.27988643162E+03  0.46999998093E+01 0.  1.
       -5    1    3    3    0  502 -0.14221924152E+03  0.13793338301E+02  0.59394254169E+03  0.61090621348E+03  0.46999998093E+01 0. -1.
</event>
<event>
 5   0  0.6153659E-03  0.8021162E+03  0.7818609E-02  0.9556959E-01
        2   -1    0    0  501    0  0.00000000000E+00  0.00000000000E+00  0.24964655853E+03  0.24964655854E+03  0.25500000920E-02 0.  1.
       -2   -1    0    0    0  501  0.00000000000E+00  0.00000000000E+00 -0.64430135760E+03  0.64430135761E+03  0.25500000920E-02 0. -1.
    10030    2    1    2    0    0  0.00000000000E+00  0.00000000000E+00 -0.39465479908E+03  0.89394791615E+03  0.80211624242E+03 0.  0.
        2    1    3    3  502    0  0.74700694944E+02 -0.98370703140E+02 -0.62257474830E+03  0.63470962360E+03  0.25500000920E-02 0. -1.
       -2    1    3    3    0  502 -0.74700694944E+02  0.98370703140E+02  0.22791994923E+03  0.25923829255E+03  0.25500000920E-02 0.  1.
</event>
<event>
 5   0  0.6536209E-03  0.7981686E+03  0.7818609E-02  0.9562672E-01
        2   -1    0    0  501    0  0.00000000000E+00  0.00000000000E+00  0.11392436273E+04  0.11392436273E+04  0.25500000920E-02 0. -1.
       -2   -1    0    0    0  501  0.00000000000E+00  0.00000000000E+00 -0.13980177851E+03  0.13980177853E+03  0.25500000920E-02 0.  1.
    10030    2    1    2    0    0  0.00000000000E+00  0.00000000000E+00  0.99944184884E+03  0.12790454059E+04  0.79816861696E+03 0.  0.
        3    1    3    3  502    0  0.29681659918E+03  0.18404356291E+03  0.80919431057E+03  0.88134418309E+03  0.10100000352E+00 0. -1.
       -3    1    3    3    0  502 -0.29681659918E+03 -0.18404356291E+03  0.19024753826E+03  0.39770122280E+03  0.10100000352E+00 0.  1.
</event>
<event>
 5   0  0.6536209E-03  0.8006318E+03  0.7818609E-02  0.9559103E-01
       -2   -1    0    0    0  501  0.00000000000E+00  0.00000000000E+00  0.31931417329E+03  0.31931417330E+03  0.25500000920E-02 0.  1.
        2   -1    0    0  501    0  0.00000000000E+00  0.00000000000E+00 -0.50186566385E+03  0.50186566385E+03  0.25500000920E-02 0. -1.
    10030    2    1    2    0    0  0.00000000000E+00  0.00000000000E+00 -0.18255149056E+03  0.82117983715E+03  0.80063179942E+03 0.  0.
        3    1    3    3  502    0 -0.35611144310E+03  0.57857527517E+01 -0.27873397605E+03  0.45226261668E+03  0.10100000352E+00 0.  1.
       -3    1    3    3    0  502  0.35611144310E+03 -0.57857527517E+01  0.96182485491E+02  0.36891722047E+03  0.10100000352E+00 0. -1.
</event>
<event>
 5   0  0.6153659E-03  0.7961128E+03  0.7818609E-02  0.9565661E-01
       -2   -1    0    0    0  501  0.00000000000E+00  0.00000000000E+00  0.53980761948E+03  0.53980761949E+03  0.25500000920E-02 0.  1.
        2   -1    0    0  501    0  0.00000000000E+00  0.00000000000E+00 -0.29352846857E+03  0.29352846858E+03  0.25500000920E-02 0. -1.
    10030    2    1    2    0    0  0.00000000000E+00  0.00000000000E+00  0.24627915091E+03  0.83333608807E+03  0.79611281581E+03 0.  0.
        2    1    3    3  502    0  0.29922429953E+03  0.23381582702E+03  0.24806756471E+03  0.45358851293E+03  0.25500000920E-02 0. -1.
       -2    1    3    3    0  502 -0.29922429953E+03 -0.23381582702E+03 -0.17884137947E+01  0.37974757514E+03  0.25500000920E-02 0.  1.
</event>
<event>
 5   0  0.3753450E-03  0.7892870E+03  0.7818609E-02  0.9575655E-01
       -1   -1    0    0    0  501  0.00000000000E+00  0.00000000000E+00  0.39929603467E+03  0.39929603470E+03  0.50400001928E-02 0.  1.
        1   -1    0    0  501    0  0.00000000000E+00  0.00000000000E+00 -0.39004514398E+03  0.39004514401E+03  0.50400001928E-02 0. -1.
    10030    2    1    2    0    0  0.00000000000E+00  0.00000000000E+00  0.92508906932E+01  0.78934117872E+03  0.78928696774E+03 0.  0.
        5    1    3    3  502    0  0.77395745035E+02 -0.33210279583E+03  0.20323168598E+03  0.39699820722E+03  0.46999998093E+01 0.  1.
       -5    1    3    3    0  502 -0.77395745035E+02  0.33210279583E+03 -0.19398079529E+03  0.39234297150E+03  0.46999998093E+01 0. -1.
</event>
<event>
 5   0  0.5813850E-03  0.8000138E+03  0.7818609E-02  0.9559997E-01
        2   -1    0    0  501    0  0.00000000000E+00  0.00000000000E+00  0.13343405770E+04  0.13343405770E+04  0.25500000920E-02 0.  1.
       -2   -1    0    0    0  501  0.00000000000E+00  0.00000000000E+00 -0.11991355263E+03  0.11991355266E+03  0.25500000920E-02 0. -1.
    10030    2    1    2    0    0  0.00000000000E+00  0.00000000000E+00  0.12144270243E+04  0.14542541296E+04  0.80001379744E+03 0.  0.
        5    1    3    3  502    0 -0.19805796488E+03 -0.33704408304E+03  0.76100465485E+03  0.85555586963E+03  0.46999998093E+01 0.  1.
       -5    1    3    3    0  502  0.19805796488E+03  0.33704408304E+03  0.45342236950E+03  0.59869826000E+03  0.46999998093E+01 0. -1.
</event>
<event>
 5   0  0.6536209E-03  0.8034864E+03  0.7818609E-02  0.9554984E-01
       -2   -1    0    0    0  501  0.00000000000E+00  0.00000000000E+00  0.16118963942E+03  0.16118963944E+03  0.25500000920E-02 0.  1.
        2   -1    0    0  501    0  0.00000000000E+00  0.00000000000E+00 -0.10012901832E+04  0.10012901832E+04  0.25500000920E-02 0. -1.
    10030    2    1    2    0    0  0.00000000000E+00  0.00000000000E+00 -0.84010054376E+03  0.11624798226E+04  0.80348641207E+03 0.  0.
        3    1    3    3  502    0 -0.29824195092E+01 -0.36210279860E+03 -0.67176867933E+03  0.76315168892E+03  0.10100000352E+00 0. -1.
       -3    1    3    3    0  502  0.29824195092E+01  0.36210279860E+03 -0.16833186443E+03  0.39932813369E+03  0.10100000352E+00 0.  1.
</event>
<event>
 5   0  0.3860515E-03  0.8000120E+03  0.7818609E-02  0.9560000E-01
        1   -1    0    0  501    0  0.00000000000E+00  0.00000000000E+00  0.66944570769E+03  0.66944570771E+03  0.50400001928E-02 0.  1.
       -1   -1    0    0    0  501  0.00000000000E+00  0.00000000000E+00 -0.23901087381E+03  0.23901087386E+03  0.50400001928E-02 0. -1.
    10030    2    1    2    0    0  0.00000000000E+00  0.00000000000E+00  0.43043483388E+03  0.90845658157E+03  0.80001200890E+03 0.  0.
        4    1    3    3  502    0  0.95690962459E+02  0.38368678455E+03  0.28364224621E+03  0.48664858540E+03  0.12699999809E+01 0.  1.
       -4    1    3    3    0  502 -0.95690962459E+02 -0.38368678455E+03  0.14679258767E+03  0.42180799617E+03  0.12699999809E+01 0. -1.
</event>
<event>
 5   0  0.6256781E-03  0.8064447E+03  0.7818609E-02  0.9550735E-01
       -2   -1    0    0    0  501  0.00000000000E+00  0.00000000000E+00  0.47909413733E+03  0.47909413734E+03  0.25500000920E-02 0. -1.
        2   -1    0    0  501    0  0.00000000000E+00  0.00000000000E+00 -0.33936603271E+03  0.33936603272E+03  0.25500000920E-02 0.  1.
    10030    2    1    2    0    0  0.00000000000E+00  0.00000000000E+00  0.13972810462E+03  0.81846017006E+03  0.80644473261E+03 0.  0.
        1    1    3    3  502    0  0.35786327734E+03 -0.94085873390E+02 -0.92741687929E+02  0.38146991696E+03  0.50400001928E-02 0. -1.
       -1    1    3    3    0  502 -0.35786327734E+03  0.94085873390E+02  0.23246979255E+03  0.43699025310E+03  0.50400001928E-02 0.  1.
</event>
<event>
 5   0  0.6153659E-03  0.8024215E+03  0.7818609E-02  0.9556519E-01
        2   -1    0    0  501    0  0.00000000000E+00  0.00000000000E+00  0.11239693482E+04  0.11239693482E+04  0.25500000920E-02 0.  1.
       -2   -1    0    0    0  501  0.00000000000E+00  0.00000000000E+00 -0.14321570227E+03  0.14321570230E+03  0.25500000920E-02 0. -1.
    10030    2    1    2    0    0  0.00000000000E+00  0.00000000000E+00  0.98075364595E+03  0.12671850505E+04  0.80242148415E+03 0.  0.
        2    1    3    3  502    0  0.28936624831E+03 -0.15685549585E+03  0.12807628562E+03  0.35318551383E+03  0.25500000920E-02 0. -1.
       -2    1    3    3    0  502 -0.28936624831E+03  0.15685549585E+03  0.85267736034E+03  0.91399953669E+03  0.25500000920E-02 0.  1.
</event>
<event>
 5   0  0.3671128E-03  0.7985871E+03  0.7818609E-02  0.9562064E-01
        1   -1    0    0  501    0  0.00000000000E+00  0.00000000000E+00  0.11930894760E+04  0.11930894761E+04  0.50400001928E-02 0. -1.
       -1   -1    0    0    0  501  0.00000000000E+00  0.00000000000E+00 -0.13363234814E+03  0.13363234823E+03  0.50400001928E-02 0.  1.
    10030    2    1    2    0    0  0.00000000000E+00  0.00000000000E+00  0.10594571279E+04  0.13267218243E+04  0.79858712309E+03 0.  0.
        2    1    3    3  502    0  0.33790884084E+03 -0.30717707887E+02  0.18002066971E+03  0.38410077301E+03  0.25500000920E-02 0.  1.
       -2    1    3    3    0  502 -0.33790884084E+03  0.30717707887E+02  0.87943645819E+03  0.94262105127E+03  0.25500000920E-02 0. -1.
</event>
<event>
 5   0  0.5813850E-03  0.8034214E+03  0.7818609E-02  0.9555078E-01
       -2   -1    0    0    0  501  0.00000000000E+00  0.00000000000E+00  0.18190452227E+03  0.18190452229E+03  0.25500000920E-02 0.  1.
        2   -1    0    0  501    0  0.00000000000E+00  0.00000000000E+00 -0.88712180043E+03  0.88712180044E+03  0.25500000920E-02 0. -1.
    10030    2    1    2    0    0  0.00000000000E+00  0.00000000000E+00 -0.70521727816E+03  0.10690263227E+04  0.80342135226E+03 0.  0.
        5    1    3    3  502    0 -0.15528462288E+03 -0.35995198347E+03 -0.23607249980E+03  0.45763638368E+03  0.46999998093E+01 0. -1.
       -5    1    3    3    0  502  0.15528462288E+03  0.35995198347E+03 -0.46914477837E+03  0.61138993905E+03  0.46999998093E+01 0.  1.
</event>
<event>
 5   0  0.3627496E-03  0.7993111E+03  0.7818609E-02  0.9561015E-01
        1   -1    0    0  501    0  0.00000000000E+00  0.00000000000E+00  0.24654522691E+03  0.24654522696E+03  0.50400001928E-02 0.  1.
       -1   -1    0    0    0  501  0.00000000000E+00  0.00000000000E+00 -0.64785092353E+03  0.64785092355E+03  0.50400001928E-02 0. -1.
    10030    2    1    2    0    0  0.00000000000E+00  0.00000000000E+00 -0.40130569663E+03  0.89439615051E+03  0.79931108581E+03 0.  0.
        3    1    3    3  502    0 -0.12284274836E+03 -0.36565556908E+03 -0.31763733493E+03  0.49968772525E+03  0.10100000352E+00 0. -1.
       -3    1    3    3    0  502  0.12284274836E+03  0.36565556908E+03 -0.83668361695E+02  0.39470842526E+03  0.10100000352E+00 0.  1.
</event>
<event>
 5   0  0.3627496E-03  0.8046117E+03  0.7818609E-02  0.9553366E-01
       -1   -1    0    0    0  501  0.00000000000E+00  0.00000000000E+00  0.68167737107E+03  0.68167737109E+03  0.50400001928E-02 0.  1.
        1   -1    0    0  501    0  0.00000000000E+00  0.00000000000E+00 -0.23742902357E+03  0.23742902362E+03  0.50400001928E-02 0. -1.
    10030    2    1    2    0    0  0.00000000000E+00  0.00000000000E+00  0.44424834750E+03  0.91910639471E+03  0.80461168929E+03 0.  0.
        3    1    3    3  502    0  0.36385637761E+03  0.14843877280E+03  0.12369777784E+03  0.41197898398E+03  0.10100000352E+00 0. -1.
       -3    1    3    3    0  502 -0.36385637761E+03 -0.14843877280E+03  0.32055056967E+03  0.50712741073E+03  0.10100000352E+00 0.  1.
</event>
<event>
 5   0  0.3671128E-03  0.8032470E+03  0.7818609E-02  0.9555329E-01
        1   -1    0    0  501    0  0.00000000000E+00  0.00000000000E+00  0.26070363071E+03  0.26070363076E+03  0.50400001928E-02 0.  1.
       -1   -1    0    0    0  501  0.00000000000E+00  0.00000000000E+00 -0.61871570038E+03  0.61871570040E+03  0.50400001928E-02 0. -1.
    10030    2    1    2    0    0  0.00000000000E+00  0.00000000000E+00 -0.35801206967E+03  0.87941933116E+03  0.80324698442E+03 0.  0.
        2    1    3    3  502    0  0.32142417714E+03  0.20133676581E+03 -0.32363739512E+03  0.49858916800E+03  0.25500000920E-02 0. -1.
       -2    1    3    3    0  502 -0.32142417714E+03 -0.20133676581E+03 -0.34374674551E+02  0.38083016316E+03  0.25500000920E-02 0.  1.
</event>
<event>
 5   0  0.6337108E-03  0.7959877E+03  0.7818609E-02  0.9565843E-01
       -2   -1    0    0    0  501  0.00000000000E+00  0.00000000000E+00  0.29018936688E+03  0.29018936689E+03  0.25500000920E-02 0.  1.
        2   -1    0    0  501    0  0.00000000000E+00  0.00000000000E+00 -0.54584735064E+03  0.54584735065E+03  0.25500000920E-02 0. -1.
    10030    2    1    2    0    0  0.00000000000E+00  0.00000000000E+00 -0.25565798376E+03  0.83603671754E+03  0.79598768107E+03 0.  0.
        4    1    3    3  502    0 -0.23740696625E+03  0.18489118840E+03  0.14575838740E+03  0.33435600722E+03  0.12699999809E+01 0.  1.
       -4    1    3    3    0  502  0.23740696625E+03 -0.18489118840E+03 -0.40141637116E+03  0.50168071032E+03  0.12699999809E+01 0. -1.
</event>
<event>
 5   0  0.6153659E-03  0.8013023E+03  0.7818609E-02  0.9558134E-01
       -2   -1    0    0    0  501  0.00000000000E+00  0.00000000000E+00  0.56858789440E+03  0.56858789440E+03  0.25500000920E-02 0.  1.
        2   -1    0    0  501    0  0.00000000000E+00  0.00000000000E+00 -0.28231582308E+03  0.28231582309E+03  0.25500000920E-02 0. -1.
    10030    2    1    2    0    0  0.00000000000E+00  0.00000000000E+00  0.28627207132E+03  0.85090371749E+03  0.80130233846E+03 0.  0.
        2    1    3    3  502    0 -0.56026311889E+02  0.87387347466E+01  0.56430534709E+03  0.56714710426E+03  0.25500000920E-02 0.  1.
       -2    1    3    3    0  502  0.56026311889E+02 -0.87387347466E+01 -0.27803327577E+03  0.28375661323E+03  0.25500000920E-02 0. -1.
</event>
<event>
 5   0  0.6337108E-03  0.7966231E+03  0.7818609E-02  0.9564918E-01
       -2   -1    0    0    0  501  0.00000000000E+00  0.00000000000E+00  0.15051225379E+04  0.15051225379E+04  0.25500000920E-02 0.  1.
        2   -1    0    0  501    0  0.00000000000E+00  0.00000000000E+00 -0.10540809708E+03  0.10540809711E+03  0.25500000920E-02 0. -1.
    10030    2    1    2    0    0  0.00000000000E+00  0.00000000000E+00  0.13997144408E+04  0.16105306350E+04  0.79662312950E+03 0.  0.
        4    1    3    3  502    0  0.30917059907E+03  0.24869885524E+03  0.62944787141E+03  0.74407245323E+03  0.12699999809E+01 0. -1.
       -4    1    3    3    0  502 -0.30917059907E+03 -0.24869885524E+03  0.77026656943E+03  0.86645818180E+03  0.12699999809E+01 0.  1.
</event>
<event>
 5   0  0.6256781E-03  0.7996782E+03  0.7818609E-02  0.9560483E-01
       -2   -1    0    0    0  501  0.00000000000E+00  0.00000000000E+00  0.30600958665E+03  0.30600958666E+03  0.25500000920E-02 0. -1.
        2   -1    0    0  501    0  0.00000000000E+00  0.00000000000E+00 -0.52243888698E+03  0.52243888699E+03  0.25500000920E-02 0.  1.
    10030    2    1    2    0    0  0.00000000000E+00  0.00000000000E+00 -0.21642930034E+03  0.82844847365E+03  0.79967820493E+03 0.  0.
        1    1    3    3  502    0  0.97092581883E+01  0.25103859261E+03 -0.43046298642E+03  0.49841050087E+03  0.50400001928E-02 0.  1.
       -1    1    3    3    0  502 -0.97092581883E+01 -0.25103859261E+03  0.21403368608E+03  0.33003797278E+03  0.50400001928E-02 0. -1.
</event>
<event>
 5   0  0.6536209E-03  0.7973688E+03  0.7818609E-02  0.9563833E-01
        2   -1    0    0  501    0  0.00000000000E+00  0.00000000000E+00  0.81144260920E+03  0.81144260921E+03  0.25500000920E-02 0. -1.
       -2   -1    0    0    0  501  0.00000000000E+00  0.00000000000E+00 -0.19588477738E+03  0.19588477739E+03  0.25500000920E-02 0.  1.
    10030    2    1    2    0    0  0.00000000000E+00  0.00000000000E+00  0.61555783183E+03  0.10073273866E+04  0.79736881019E+03 0.  0.
        3    1    3    3  502    0  0.37132662784E+03 -0.93455407429E+02  0.16748920744E+03  0.41793542866E+03  0.10100000352E+00 0. -1.
       -3    1    3    3    0  502 -0.37132662784E+03  0.93455407429E+02  0.44806862439E+03  0.58939195794E+03  0.10100000352E+00 0.  1.
</event>
<event>
 5   0  0.3714448E-03  0.7965476E+03  0.7818609E-02  0.9565028E-01
       -1   -1    0    0    0  501  0.00000000000E+00  0.00000000000E+00  0.97940588591E+03  0.97940588592E+03  0.50400001928E-02 0.  1.
        1   -1    0    0  501    0  0.00000000000E+00  0.00000000000E+00 -0.16195740405E+03  0.16195740413E+03  0.50400001928E-02 0. -1.
    10030    2    1    2    0    0  0.00000000000E+00  0.00000000000E+00  0.81744848186E+03  0.11413632900E+04  0.79654763786E+03 0.  0.
        1    1    3    3  502    0 -0.46288279857E+02 -0.25419489397E+03  0.84302014554E+03  0.88172592952E+03  0.50400001928E-02 0.  1.
       -1    1    3    3    0  502  0.46288279857E+02  0.25419489397E+03 -0.25571663683E+02  0.25963736053E+03  0.50400001928E-02 0. -1.
</event>
<event>
 5   0  0.6153659E-03  0.8010468E+03  0.7818609E-02  0.9558503E-01
        2   -1    0    0  501    0  0.00000000000E+00  0.00000000000E+00  0.99192460447E+03  0.99192460448E+03  0.25500000920E-02 0. -1.
       -2   -1    0    0    0  501  0.00000000000E+00  0.00000000000E+00 -0.16172497843E+03  0.16172497845E+03  0.25500000920E-02 0.  1.
    10030    2    1    2    0    0  0.00000000000E+00  0.00000000000E+00  0.83019962605E+03  0.11536495829E+04  0.80104677834E+03 0.  0.
        2    1    3    3  502    0 -0.37554578942E+03 -0.13837448478E+03  0.43726391957E+03  0.59277472395E+03  0.25500000920E-02 0.  1.
       -2    1    3    3    0  502  0.37554578942E+03  0.13837448478E+03  0.39293570648E+03  0.56087485897E+03  0.25500000920E-02 0. -1.
</event>
<event>
 5   0  0.3671128E-03  0.8003993E+03  0.7818609E-02  0.9559439E-01
        1   -1    0    0  501    0  0.00000000000E+00  0.00000000000E+00  0.80612031740E+03  0.80612031742E+03  0.50400001928E-02 0. -1.
       -1   -1    0    0    0  501  0.00000000000E+00  0.00000000000E+00 -0.19867972579E+03  0.19867972585E+03  0.50400001928E-02 0.  1.
    10030    2    1    2    0    0  0.00000000000E+00  0.00000000000E+00  0.60744059161E+03  0.10048000433E+04  0.80039930948E+03 0.  0.
        2    1    3    3  502    0  0.25361188126E+03 -0.95080184592E+02  0.67357755146E+03  0.72599307549E+03  0.25500000920E-02 0. -1.
       -2    1    3    3    0  502 -0.25361188126E+03  0.95080184592E+02 -0.66136959847E+02  0.27880696778E+03  0.25500000920E-02 0.  1.
</event>
<event>
 5   0  0.6153659E-03  0.8002180E+03  0.7818609E-02  0.9559702E-01
       -2   -1    0    0    0  501  0.00000000000E+00  0.00000000000E+00  0.47212947439E+03  0.47212947440E+03  0.25500000920E-02 0.  1.
        2   -1    0    0  501    0  0.00000000000E+00  0.00000000000E+00 -0.33907482477E+03  0.33907482478E+03  0.25500000920E-02 0. -1.
    10030    2    1    2    0    0  0.00000000000E+00  0.00000000000E+00  0.13305464962E+03  0.81120429918E+03  0.80021801731E+03 0.  0.
        2    1    3    3  502    0 -0.35440106010E+02 -0.39644038817E+03  0.25147350594E+02  0.39881495926E+03  0.25500000920E-02 0.  1.
       -2    1    3    3    0  502  0.35440106010E+02  0.39644038817E+03  0.10790729903E+03  0.41238933991E+03  0.25500000920E-02 0. -1.
</event>
<event>
 5   0  0.6337108E-03  0.8017697E+03  0.7818609E-02  0.9557459E-01
       -2   -1    0    0    0  501  0.00000000000E+00  0.00000000000E+00  0.19097678151E+03  0.19097678153E+03  0.25500000920E-02 0.  1.
        2   -1    0    0  501    0  0.00000000000E+00  0.00000000000E+00 -0.84150881548E+03  0.84150881549E+03  0.25500000920E-02 0. -1.
    10030    2    1    2    0    0  0.00000000000E+00  0.00000000000E+00 -0.65053203397E+03  0.10324855970E+04  0.80176965572E+03 0.  0.
        4    1    3    3  502    0 -0.46486334630E+02  0.15339466923E+03 -0.79844692322E+03  0.81437706620E+03  0.12699999809E+01 0. -1.
       -4    1    3    3    0  502  0.46486334630E+02 -0.15339466923E+03  0.14791488924E+03  0.21810853082E+03  0.12699999809E+01 0.  1.
</event>
<event>
 5   0  0.3860515E-03  0.8005797E+03  0.7818609E-02  0.9559178E-01
        1   -1    0    0  501    0  0.00000000000E+00  0.00000000000E+00  0.10746248030E+04  0.10746248030E+04  0.50400001928E-02 0. -1.
       -1   -1    0    0    0  501  0.00000000000E+00  0.00000000000E+00 -0.14910501496E+03  0.14910501505E+03  0.50400001928E-02 0.  1.
    10030    2    1    2    0    0  0.00000000000E+00  0.00000000000E+00  0.92551978807E+03  0.12237298181E+04  0.80057965849E+03 0.  0.
        4    1    3    3  502    0 -0.14688638475E+02 -0.34303628157E+03  0.14823143572E+03  0.37398371356E+03  0.12699999809E+01 0.  1.
       -4    1    3    3    0  502  0.14688638475E+02  0.34303628157E+03  0.77728835235E+03  0.84974610454E+03  0.12699999809E+01 0. -1.
</event>
<event>
 5   0  0.3627496E-03  0.8011096E+03  0.7818609E-02  0.9558412E-01
       -1   -1    0    0    0  501  0.00000000000E+00  0.00000000000E+00  0.54854389600E+03  0.54854389603E+03  0.50400001928E-02 0. -1.
        1   -1    0    0  501    0  0.00000000000E+00  0.00000000000E+00 -0.29249101766E+03  0.29249101770E+03  0.50400001928E-02 0.  1.
    10030    2    1    2    0    0  0.00000000000E+00  0.00000000000E+00  0.25605287835E+03  0.84103491373E+03  0.80110963644E+03 0.  0.
        3    1    3    3  502    0  0.16135600030E+03  0.31136590777E+03 -0.75164347986E+02  0.35865607031E+03  0.10100000352E+00 0.  1.
       -3    1    3    3    0  502 -0.16135600030E+03 -0.31136590777E+03  0.33121722633E+03  0.48237884342E+03  0.10100000352E+00 0. -1.
</event>
<event>
 5   0  0.6536209E-03  0.7958354E+03  0.7818609E-02  0.9566065E-01
       -2   -1    0    0    0  501  0.00000000000E+00  0.00000000000E+00  0.14028437770E+03  0.14028437772E+03  0.25500000920E-02 0.  1.
        2   -1    0    0  501    0  0.00000000000E+00  0.00000000000E+00 -0.11286965660E+04  0.11286965660E+04  0.25500000920E-02 0. -1.
    10030    2    1    2    0    0  0.00000000000E+00  0.00000000000E+00 -0.98841218828E+03  0.12689809437E+04  0.79583539852E+03 0.  0.
        3    1    3    3  502    0  0.35870441477E+03  0.13166013528E+03 -0.67130080599E+03  0.77242995199E+03  0.10100000352E+00 0. -1.
       -3    1    3    3    0  502 -0.35870441477E+03 -0.13166013528E+03 -0.31711138228E+03  0.49655099171E+03  0.10100000352E+00 0.  1.
</event>
<event>
 5   0  0.3753450E-03  0.7943018E+03  0.7818609E-02  0.9568302E-01
       -1   -1    0    0    0  501  0.00000000000E+00  0.00000000000E+00  0.22182645213E+03  0.22182645218E+03  0.50400001928E-02 0. -1.
        1   -1    0    0  501    0  0.00000000000E+00  0.00000000000E+00 -0.71104604174E+03  0.71104604176E+03  0.50400001928E-02 0.  1.
    10030    2    1    2    0    0  0.00000000000E+00  0.00000000000E+00 -0.48921958961E+03  0.93287249394E+03  0.79430175821E+03 0.  0.
        5    1    3    3  502    0  0.26138001534E+02 -0.95338343642E+02 -0.69633150501E+03  0.70332940345E+03  0.46999998093E+01 0.  1.
       -5    1    3    3    0  502 -0.26138001534E+02  0.95338343642E+02  0.20711191540E+03  0.22954309049E+03  0.46999998093E+01 0. -1.
</event>
<event>
 5   0  0.3860515E-03  0.8000334E+03  0.7818609E-02  0.9559969E-01
        1   -1    0    0  501    0  0.00000000000E+00  0.00000000000E+00  0.61195510686E+03  0.61195510689E+03  0.50400001928E-02 0. -1.
       -1   -1    0    0    0  501  0.00000000000E+00  0.00000000000E+00 -0.26147893068E+03  0.26147893073E+03  0.50400001928E-02 0.  1.
    10030    2    1    2    0    0  0.00000000000E+00  0.00000000000E+00  0.35047617618E+03  0.87343403762E+03  0.80003341680E+03 0.  0.
        4    1    3    3  502    0 -0.34633999945E+03  0.23300195030E+02  0.39226645120E+03  0.52380232525E+03  0.12699999809E+01 0.  1.
       -4    1    3    3    0  502  0.34633999945E+03 -0.23300195030E+02 -0.41790275015E+02  0.34963171237E+03  0.12699999809E+01 0. -1.
</event>
<event>
 5   0  0.6337108E-03  0.7993179E+03  0.7818609E-02  0.9561005E-01
       -2   -1    0    0    0  501  0.00000000000E+00  0.00000000000E+00  0.24670269107E+03  0.24670269108E+03  0.25500000920E-02 0. -1.
        2   -1    0    0  501    0  0.00000000000E+00  0.00000000000E+00 -0.64744846302E+03  0.64744846302E+03  0.25500000920E-02 0.  1.
    10030    2    1    2    0    0  0.00000000000E+00  0.00000000000E+00 -0.40074577195E+03  0.89415115410E+03  0.79931790462E+03 0.  0.
        4    1    3    3  502    0 -0.34354017302E+03 -0.34231889059E+02 -0.42558984591E+03  0.54801460067E+03  0.12699999809E+01 0.  1.
       -4    1    3    3    0  502  0.34354017302E+03  0.34231889059E+02  0.24844073961E+02  0.34613655343E+03  0.12699999809E+01 0. -1.
</event>
<event>
 5   0  0.6256781E-03  0.7985366E+03  0.7818609E-02  0.9562138E-01
       -2   -1    0    0    0  501  0.00000000000E+00  0.00000000000E+00  0.84815913948E+02  0.84815913986E+02  0.25500000920E-02 0. -1.
        2   -1    0    0  501    0  0.00000000000E+00  0.00000000000E+00 -0.18795432530E+04  0.18795432530E+04  0.25500000920E-02 0.  1.
    10030    2    1    2    0    0  0.00000000000E+00  0.00000000000E+00 -0.17947273391E+04  0.19643591670E+04  0.79853660867E+03 0.  0.
        1    1    3    3  502    0 -0.10252895451E+03 -0.35843756608E+03 -0.12489341906E+04  0.13033903052E+04  0.50400001928E-02 0.  1.
       -1    1    3    3    0  502  0.10252895451E+03  0.35843756608E+03 -0.54579314846E+03  0.66096886176E+03  0.50400001928E-02 0. -1.
</event>
<event>
 5   0  0.3671128E-03  0.8005250E+03  0.7818609E-02  0.9559257E-01
        1   -1    0    0  501    0  0.00000000000E+00  0.00000000000E+00  0.69366506841E+03  0.69366506843E+03  0.50400001928E-02 0.  1.
       -1   -1    0    0    0  501  0.00000000000E+00  0.00000000000E+00 -0.23096171778E+03  0.23096171784E+03  0.50400001928E-02 0. -1.
    10030    2    1    2    0    0  0.00000000000E+00  0.00000000000E+00  0.46270335063E+03  0.92462678627E+03  0.80052501722E+03 0.  0.
        2    1    3    3  502    0  0.12559515047E+03 -0.16688030067E+03 -0.16302973709E+03  0.26495635821E+03  0.25500000920E-02 0. -1.
       -2    1    3    3    0  502 -0.12559515047E+03  0.16688030067E+03  0.62573308772E+03  0.65967042805E+03  0.25500000920E-02 0.  1.
</event>
<event>
 5   0  0.6153659E-03  0.7997927E+03  0.7818609E-02  0.9560317E-01
        2   -1    0    0  501    0  0.00000000000E+00  0.00000000000E+00  0.44496508237E+03  0.44496508238E+03  0.25500000920E-02 0. -1.
       -2   -1    0    0    0  501  0.00000000000E+00  0.00000000000E+00 -0.35939245715E+03  0.35939245716E+03  0.25500000920E-02 0.  1.
    10030    2    1    2    0    0  0.00000000000E+00  0.00000000000E+00  0.85572625221E+02  0.80435753954E+03  0.79979270891E+03 0.  0.
        2    1    3    3  502    0  0.39136508889E+02  0.39402782758E+02  0.44106788385E+03  0.44455047384E+03  0.25500000920E-02 0. -1.
       -2    1    3    3    0  502 -0.39136508889E+02 -0.39402782758E+02 -0.35549525863E+03  0.35980706570E+03  0.25500000920E-02 0.  1.
</event>
<event>
 5   0  0.2478000E-03  0.8005857E+03  0.7818609E-02  0.9559170E-01
       -3   -1    0    0    0  501  0.00000000000E+00  0.00000000000E+00  0.54862291677E+03  0.54862292607E+03  0.10100000352E+00 0. -1.
        3   -1    0    0  501    0  0.00000000000E+00  0.00000000000E+00 -0.29206648008E+03  0.29206649755E+03  0.10100000352E+00 0.  1.
    10030    2    1    2    0    0  0.00000000000E+00  0.00000000000E+00  0.25655643669E+03  0.84068942362E+03  0.80058572419E+03 0.  0.
        1    1    3    3  502    0  0.88617703779E+01  0.38848057693E+03  0.27345297642E+02  0.38954262277E+03  0.50400001928E-02 0.  1.
       -1    1    3    3    0  502 -0.88617703779E+01 -0.38848057693E+03  0.22921113905E+03  0.45114680085E+03  0.50400001928E-02 0. -1.
</event>
<event>
 5   0  0.6256781E-03  0.8019733E+03  0.7818609E-02  0.9557165E-01
        2   -1    0    0  501    0  0.00000000000E+00  0.00000000000E+00  0.23806704829E+03  0.23806704830E+03  0.25500000920E-02 0.  1.
       -2   -1    0    0    0  501  0.00000000000E+00  0.00000000000E+00 -0.67539913795E+03  0.67539913795E+03  0.25500000920E-02 0. -1.
    10030    2    1    2    0    0  0.00000000000E+00  0.00000000000E+00 -0.43733208966E+03  0.91346618626E+03  0.80197326439E+03 0.  0.
        1    1    3    3  502    0  0.15094397300E+03  0.31415296631E+03  0.71770462668E+01  0.34860820307E+03  0.50400001928E-02 0.  1.
       -1    1    3    3    0  502 -0.15094397300E+03 -0.31415296631E+03 -0.44450913592E+03  0.56485798319E+03  0.50400001928E-02 0. -1.
</event>
<event>
 5   0  0.6536209E-03  0.7978270E+03  0.7818609E-02  0.9563168E-01
       -2   -1    0    0    0  501  0.00000000000E+00  0.00000000000E+00  0.29281926501E+03  0.29281926503E+03  0.25500000920E-02 0.  1.
        2   -1    0    0  501    0  0.00000000000E+00  0.00000000000E+00 -0.54344773781E+03  0.54344773781E+03  0.25500000920E-02 0. -1.
    10030    2    1    2    0    0  0.00000000000E+00  0.00000000000E+00 -0.25062847279E+03  0.83626700284E+03  0.79782696662E+03 0.  0.
        3    1    3    3  502    0 -0.95311999620E+01  0.37676768628E+03 -0.26233046296E+03  0.45919714197E+03  0.10100000352E+00 0. -1.
       -3    1    3    3    0  502  0.95311999620E+01 -0.37676768628E+03  0.11701990162E+02  0.37706986087E+03  0.10100000352E+00 0.  1.
</event>
<event>
 5   0  0.6153659E-03  0.8025281E+03  0.7818609E-02  0.9556365E-01
        2   -1    0    0  501    0  0.00000000000E+00  0.00000000000E+00  0.21201872282E+04  0.21201872282E+04  0.25500000920E-02 0.  1.
       -2   -1    0    0    0  501  0.00000000000E+00  0.00000000000E+00 -0.75942753546E+02  0.75942753589E+02  0.25500000920E-02 0. -1.
    10030    2    1    2    0    0  0.00000000000E+00  0.00000000000E+00  0.20442444746E+04  0.21961299818E+04  0.80252814578E+03 0.  0.
        2    1    3    3  502    0  0.37723055272E+03 -0.41976116465E+02  0.66587079089E+03  0.76645208227E+03  0.25500000920E-02 0. -1.
       -2    1    3    3    0  502 -0.37723055272E+03  0.41976116465E+02  0.13783736838E+04  0.14296778995E+04  0.25500000920E-02 0.  1.
</event>
<event>
 5   0  0.3753450E-03  0.8023971E+03  0.7818609E-02  0.9556554E-01
        1   -1    0    0  501    0  0.00000000000E+00  0.00000000000E+00  0.72225578920E+03  0.72225578922E+03  0.50400001928E-02 0.  1.
       -1   -1    0    0    0  501  0.00000000000E+00  0.00000000000E+00 -0.22285774005E+03  0.22285774010E+03  0.50400001928E-02 0. -1.
    10030    2    1    2    0    0  0.00000000000E+00  0.00000000000E+00  0.49939804916E+03  0.94511352932E+03  0.80239714095E+03 0.  0.
        5    1    3    3  502    0 -0.14901892085E+02 -0.95254082004E+02 -0.20897642982E+03  0.23019262531E+03  0.46999998093E+01 0. -1.
       -5    1    3    3    0  502  0.14901892085E+02  0.95254082004E+02  0.70837447898E+03  0.71492090401E+03  0.46999998093E+01 0.  1.
</event>
<event>
 5   0  0.6337108E-03  0.8006315E+03  0.7818609E-02  0.9559104E-01
        2   -1    0    0  501    0  0.00000000000E+00  0.00000000000E+00  0.93153785403E+03  0.93153785404E+03  0.25500000920E-02 0.  1.
       -2   -1    0    0    0  501  0.00000000000E+00  0.00000000000E+00 -0.17203024598E+03  0.17203024599E+03  0.25500000920E-02 0. -1.
    10030    2    1    2    0    0  0.00000000000E+00  0.00000000000E+00  0.75950760806E+03  0.11035681000E+04  0.80063146622E+03 0.  0.
        4    1    3    3  502    0  0.15766828812E-01  0.33984606401E+03  0.67135599702E+03  0.75247314578E+03  0.12699999809E+01 0.  1.
       -4    1    3    3    0  502 -0.15766828812E-01 -0.33984606401E+03  0.88151611032E+02  0.35109495425E+03  0.12699999809E+01 0. -1.
</event>
<event>
 5   0  0.3627496E-03  0.7938518E+03  0.7818609E-02  0.9568959E-01
        1   -1    0    0  501    0  0.00000000000E+00  0.00000000000E+00  0.65866237932E+03  0.65866237934E+03  0.50400001928E-02 0. -1.
       -1   -1    0    0    0  501  0.00000000000E+00  0.00000000000E+00 -0.23919713844E+03  0.23919713849E+03  0.50400001928E-02 0.  1.
    10030    2    1    2    0    0  0.00000000000E+00  0.00000000000E+00  0.41946524088E+03  0.89785951783E+03  0.79385176541E+03 0.  0.
        3    1    3    3  502    0  0.81810800854E+02 -0.38829425813E+03  0.19932308107E+03  0.44406659285E+03  0.10100000352E+00 0. -1.
       -3    1    3    3    0  502 -0.81810800854E+02  0.38829425813E+03  0.22014215981E+03  0.45379292498E+03  0.10100000352E+00 0.  1.
</event>
<event>
 5   0  0.3714448E-03  0.8008403E+03  0.7818609E-02  0.9558802E-01
        1   -1    0    0  501    0  0.00000000000E+00  0.00000000000E+00  0.81517265385E+03  0.81517265387E+03  0.50400001928E-02 0.  1.
       -1   -1    0    0    0  501  0.00000000000E+00  0.00000000000E+00 -0.19668996852E+03  0.19668996858E+03  0.50400001928E-02 0. -1.
    10030    2    1    2    0    0  0.00000000000E+00  0.00000000000E+00  0.61848268534E+03  0.10118626224E+04  0.80084026787E+03 0.  0.
        1    1    3    3  502    0 -0.13046457420E+03  0.40531834322E+02  0.78481561489E+03  0.79661746410E+03  0.50400001928E-02 0.  1.
       -1    1    3    3    0  502  0.13046457420E+03 -0.40531834322E+02 -0.16633292955E+03  0.21524515835E+03  0.50400001928E-02 0. -1.
</event>
<event>
 5   0  0.6536209E-03  0.8298103E+03  0.7818609E-02  0.9517843E-01
       -2   -1    0    0    0  501  0.00000000000E+00  0.00000000000E+00  0.23484337351E+03  0.23484337352E+03  0.25500000920E-02 0.  1.
        2   -1    0    0  501    0  0.00000000000E+00  0.00000000000E+00 -0.73302600936E+03  0.73302600936E+03  0.25500000920E-02 0. -1.
    10030    2    1    2    0    0  0.00000000000E+00  0.00000000000E+00 -0.49818263585E+03  0.96786938288E+03  0.82981034198E+03 0.  0.
        3    1    3    3  502    0  0.91031948842E+02 -0.36113144385E+03 -0.35789710433E+02  0.37414388813E+03  0.10100000352E+00 0.  1.
       -3    1    3    3    0  502 -0.91031948842E+02  0.36113144385E+03 -0.46239292542E+03  0.59372549476E+03  0.10100000352E+00 0. -1.
</event>
<event>
 5   0  0.3753450E-03  0.8170288E+03  0.7818609E-02  0.9535690E-01
       -1   -1    0    0    0  501  0.00000000000E+00  0.00000000000E+00  0.62037926398E+03  0.62037926400E+03  0.50400001928E-02 0.  1.
        1   -1    0    0  501    0  0.00000000000E+00  0.00000000000E+00 -0.26900323022E+03  0.26900323027E+03  0.50400001928E-02 0. -1.
    10030    2    1    2    0    0  0.00000000000E+00  0.00000000000E+00  0.35137603376E+03  0.88938249427E+03  0.81702882691E+03 0.  0.
        5    1    3    3  502    0  0.15602366476E+03 -0.29537566751E+03  0.43160721830E+03  0.54579945933E+03  0.46999998093E+01 0.  1.
       -5    1    3    3    0  502 -0.15602366476E+03  0.29537566751E+03 -0.80231184533E+02  0.34358303493E+03  0.46999998093E+01 0. -1.
</event>
<event>
 5   0  0.3627496E-03  0.7986997E+03  0.7818609E-02  0.9561901E-01
        1   -1    0    0  501    0  0.00000000000E+00  0.00000000000E+00  0.27064296179E+03  0.27064296183E+03  0.50400001928E-02 0.  1.
       -1   -1    0    0    0  501  0.00000000000E+00  0.00000000000E+00 -0.58926455501E+03  0.58926455503E+03  0.50400001928E-02 0. -1.
    10030    2    1    2    0    0  0.00000000000E+00  0.00000000000E+00 -0.31862159322E+03  0.85990751687E+03  0.79869970445E+03 0.  0.
        3    1    3    3  502    0  0.45928833147E+02 -0.30735670169E+03  0.11071350170E+03  0.32990163602E+03  0.10100000352E+00 0.  1.
       -3    1    3    3    0  502 -0.45928833147E+02  0.30735670169E+03 -0.42933509493E+03  0.53000588084E+03  0.10100000352E+00 0. -1.
</event>
<event>
 5   0  0.3860515E-03  0.7998138E+03  0.7818609E-02  0.9560287E-01
       -1   -1    0    0    0  501  0.00000000000E+00  0.00000000000E+00  0.25898690041E+03  0.25898690046E+03  0.50400001928E-02 0.  1.
        1   -1    0    0  501    0  0.00000000000E+00  0.00000000000E+00 -0.61750438184E+03  0.61750438186E+03  0.50400001928E-02 0. -1.
    10030    2    1    2    0    0  0.00000000000E+00  0.00000000000E+00 -0.35851748144E+03  0.87649128232E+03  0.79981384302E+03 0.  0.
        4    1    3    3  502    0 -0.30710605822E+02 -0.16978654416E+03 -0.57461289948E+03  0.59996017288E+03  0.12699999809E+01 0. -1.
       -4    1    3    3    0  502  0.30710605822E+02  0.16978654416E+03  0.21609541804E+03  0.27653110944E+03  0.12699999809E+01 0.  1.
</event>
<event>
 5   0  0.3753450E-03  0.7982445E+03  0.7818609E-02  0.9562562E-01
        1   -1    0    0  501    0  0.00000000000E+00  0.00000000000E+00  0.10206677588E+04  0.10206677588E+04  0.50400001928E-02 0. -1.
       -1   -1    0    0    0  501  0.00000000000E+00  0.00000000000E+00 -0.15607290503E+03  0.15607290511E+03  0.50400001928E-02 0.  1.
    10030    2    1    2    0    0  0.00000000000E+00  0.00000000000E+00  0.86459485374E+03  0.11767406639E+04  0.79824452956E+03 0.  0.
        5    1    3    3  502    0  0.12054684082E+03 -0.14663872509E+03  0.94981397587E+03  0.96860886599E+03  0.46999998093E+01 0. -1.
       -5    1    3    3    0  502 -0.12054684082E+03  0.14663872509E+03 -0.85219122124E+02  0.20813179791E+03  0.46999998093E+01 0.  1.
</event>
<event>
 5   0  0.3860515E-03  0.7999469E+03  0.7818609E-02  0.9560094E-01
       -1   -1    0    0    0  501  0.00000000000E+00  0.00000000000E+00  0.25616509562E+03  0.25616509567E+03  0.50400001928E-02 0. -1.
        1   -1    0    0  501    0  0.00000000000E+00  0.00000000000E+00 -0.62451422726E+03  0.62451422728E+03  0.50400001928E-02 0.  1.
    10030    2    1    2    0    0  0.00000000000E+00  0.00000000000E+00 -0.36834913164E+03  0.88067932295E+03  0.79994686517E+03 0.  0.
        4    1    3    3  502    0  0.81764922072E+02  0.10494104977E+03 -0.59944123313E+03  0.61402730500E+03  0.12699999809E+01 0.  1.
       -4    1    3    3    0  502 -0.81764922072E+02 -0.10494104977E+03  0.23109210149E+03  0.26665201795E+03  0.12699999809E+01 0. -1.
</event>
<event>
 5   0  0.6536209E-03  0.8000563E+03  0.7818609E-02  0.9559936E-01
       -2   -1    0    0    0  501  0.00000000000E+00  0.00000000000E+00  0.73571922371E+02  0.73571922415E+02  0.25500000920E-02 0.  1.
        2   -1    0    0  501    0  0.00000000000E+00  0.00000000000E+00 -0.21750487268E+04  0.21750487268E+04  0.25500000920E-02 0. -1.
    10030    2    1    2    0    0  0.00000000000E+00  0.00000000000E+00 -0.21014768045E+04  0.22486206492E+04  0.80005628835E+03 0.  0.
        3    1    3    3  502    0  0.84960216262E+02  0.38780062132E+03 -0.11888561015E+04  0.12533899634E+04  0.10100000352E+00 0.  1.
       -3    1    3    3    0  502 -0.84960216262E+02 -0.38780062132E+03 -0.91262070299E+03  0.99523068581E+03  0.10100000352E+00 0. -1.
</event>
<event>
 5   0  0.3860515E-03  0.7998891E+03  0.7818609E-02  0.9560178E-01
        1   -1    0    0  501    0  0.00000000000E+00  0.00000000000E+00  0.13681613286E+04  0.13681613286E+04  0.50400001928E-02 0.  1.
       -1   -1    0    0    0  501  0.00000000000E+00  0.00000000000E+00 -0.11691284979E+03  0.11691284990E+03  0.50400001928E-02 0. -1.
    10030    2    1    2    0    0  0.00000000000E+00  0.00000000000E+00  0.12512484788E+04  0.14850741785E+04  0.79988909227E+03 0.  0.
        4    1    3    3  502    0  0.81675967864E+02 -0.33393755721E+03  0.24618326924E+03  0.42283929665E+03  0.12699999809E+01 0. -1.
       -4    1    3    3    0  502 -0.81675967864E+02  0.33393755721E+03  0.10050652095E+04  0.10622348818E+04  0.12699999809E+01 0.  1.
</event>
<event>
 5   0  0.6536209E-03  0.8017596E+03  0.7818609E-02  0.9557474E-01
       -2   -1    0    0    0  501  0.00000000000E+00  0.00000000000E+00  0.12975941938E+03  0.12975941940E+03  0.25500000920E-02 0. -1.
        2   -1    0    0  501    0  0.00000000000E+00  0.00000000000E+00 -0.12384814390E+04  0.12384814390E+04  0.25500000920E-02 0.  1.
    10030    2    1    2    0    0  0.00000000000E+00  0.00000000000E+00 -0.11087220196E+04  0.13682408584E+04  0.80175964591E+03 0.  0.
        3    1    3    3  502    0 -0.25948405929E+03 -0.30060213450E+03 -0.64800369979E+03  0.76000159567E+03  0.10100000352E+00 0.  1.
       -3    1    3    3    0  502  0.25948405929E+03  0.30060213450E+03 -0.46071831982E+03  0.60823926272E+03  0.10100000352E+00 0. -1.
</event>
<event>
 5   0  0.6337108E-03  0.8008949E+03  0.7818609E-02  0.9558723E-01
        2   -1    0    0  501    0  0.00000000000E+00  0.00000000000E+00  0.37874460533E+03  0.37874460534E+03  0.25500000920E-02 0. -1.
       -2   -1    0    0    0  501  0.00000000000E+00  0.00000000000E+00 -0.42339390272E+03  0.42339390273E+03  0.25500000920E-02 0.  1.
    10030    2    1    2    0    0  0.00000000000E+00  0.00000000000E+00 -0.44649297388E+02  0.80213850806E+03  0.80089489096E+03 0.  0.
        4    1    3    3  502    0  0.36587289482E+03 -0.10333256042E+03 -0.14828141169E+03  0.40808036360E+03  0.12699999809E+01 0. -1.
       -4    1    3    3    0  502 -0.36587289482E+03  0.10333256042E+03  0.10363211430E+03  0.39405814446E+03  0.12699999809E+01 0.  1.
</event>
<event>
 5   0  0.3860515E-03  0.8037958E+03  0.7818609E-02  0.9554539E-01
       -1   -1    0    0    0  501  0.00000000000E+00  0.00000000000E+00  0.32036756047E+03  0.32036756051E+03  0.50400001928E-02 0. -1.
        1   -1    0    0  501    0  0.00000000000E+00  0.00000000000E+00 -0.50417686910E+03  0.50417686913E+03  0.50400001928E-02 0.  1.
    10030    2    1    2    0    0  0.00000000000E+00  0.00000000000E+00 -0.18380930863E+03  0.82454442964E+03  0.80379577911E+03 0.  0.
        4    1    3    3  502    0  0.12748514840E+03 -0.33096984809E+03  0.10198979827E+03  0.36904882503E+03  0.12699999809E+01 0. -1.
       -4    1    3    3    0  502 -0.12748514840E+03  0.33096984809E+03 -0.28579910690E+03  0.45549560460E+03  0.12699999809E+01 0.  1.
</event>
<event>
 5   0  0.3714448E-03  0.8019692E+03  0.7818609E-02  0.9557171E-01
       -1   -1    0    0    0  501  0.00000000000E+00  0.00000000000E+00  0.31294584681E+03  0.31294584685E+03  0.50400001928E-02 0. -1.
        1   -1    0    0  501    0  0.00000000000E+00  0.00000000000E+00 -0.51379061146E+03  0.51379061149E+03  0.50400001928E-02 0.  1.
    10030    2    1    2    0    0  0.00000000000E+00  0.00000000000E+00 -0.20084476466E+03  0.82673645834E+03  0.80196917151E+03 0.  0.
        1    1    3    3  502    0 -0.28862127209E+03  0.13670579156E+03  0.14954907332E+03  0.35264094701E+03  0.50400001928E-02 0. -1.
       -1    1    3    3    0  502  0.28862127209E+03 -0.13670579156E+03 -0.35039383797E+03  0.47409551133E+03  0.50400001928E-02 0.  1.
</event>
<event>
 5   0  0.6153659E-03  0.8011135E+03  0.7818609E-02  0.9558407E-01
        2   -1    0    0  501    0  0.00000000000E+00  0.00000000000E+00  0.46775599016E+03  0.46775599017E+03  0.25500000920E-02 0. -1.
       -2   -1    0    0    0  501  0.00000000000E+00  0.00000000000E+00 -0.34301158956E+03  0.34301158957E+03  0.25500000920E-02 0.  1.
    10030    2    1    2    0    0  0.00000000000E+00  0.00000000000E+00  0.12474440060E+03  0.81076757974E+03  0.80111353931E+03 0.  0.
        2    1    3    3  502    0  0.46857139370E+02  0.31228277001E+03 -0.18703129372E+03  0.36701066032E+03  0.25500000920E-02 0.  1.
       -2    1    3    3    0  502 -0.46857139370E+02 -0.31228277001E+03  0.31177569432E+03  0.44375691941E+03  0.25500000920E-02 0. -1.
</event>
<event>
 5   0  0.6536209E-03  0.7994408E+03  0.7818609E-02  0.9560827E-01
        2   -1    0    0  501    0  0.00000000000E+00  0.00000000000E+00  0.44042283842E+03  0.44042283842E+03  0.25500000920E-02 0. -1.
       -2   -1    0    0    0  501  0.00000000000E+00  0.00000000000E+00 -0.36277951755E+03  0.36277951756E+03  0.25500000920E-02 0.  1.
    10030    2    1    2    0    0  0.00000000000E+00  0.00000000000E+00  0.77643320865E+02  0.80320235598E+03  0.79944076665E+03 0.  0.
        3    1    3    3  502    0 -0.23615767234E+03 -0.29758809359E+03 -0.86050130543E+02  0.38953017190E+03  0.10100000352E+00 0.  1.
       -3    1    3    3    0  502  0.23615767234E+03  0.29758809359E+03  0.16369345141E+03  0.41367218409E+03  0.10100000352E+00 0. -1.
</event>
<event>
 5   0  0.3860515E-03  0.7665891E+03  0.7818609E-02  0.9609678E-01
       -1   -1    0    0    0  501  0.00000000000E+00  0.00000000000E+00  0.23422243015E+03  0.23422243021E+03  0.50400001928E-02 0.  1.
        1   -1    0    0  501    0  0.00000000000E+00  0.00000000000E+00 -0.62724445546E+03  0.62724445548E+03  0.50400001928E-02 0. -1.
    10030    2    1    2    0    0  0.00000000000E+00  0.00000000000E+00 -0.39302202530E+03  0.86146688568E+03  0.76658912251E+03 0.  0.
        4    1    3    3  502    0  0.28364960167E+03 -0.21744445244E+03 -0.40903196965E+02  0.35974139440E+03  0.12699999809E+01 0.  1.
       -4    1    3    3    0  502 -0.28364960167E+03  0.21744445244E+03 -0.35211882834E+03  0.50172549128E+03  0.12699999809E+01 0. -1.
</event>
<event>
 5   0  0.3671128E-03  0.8022385E+03  0.7818609E-02  0.9556783E-01
        1   -1    0    0  501    0  0.00000000000E+00  0.00000000000E+00  0.28259438987E+04  0.28259438987E+04  0.50400001928E-02 0. -1.
       -1   -1    0    0    0  501  0.00000000000E+00  0.00000000000E+00 -0.56935540469E+02  0.56935540692E+02  0.50400001928E-02 0.  1.
    10030    2    1    2    0    0  0.00000000000E+00  0.00000000000E+00  0.27690083582E+04  0.28828794394E+04  0.80223847710E+03 0.  0.
        2    1    3    3  502    0 -0.30666542462E+03 -0.47949435502E+02  0.47147650528E+03  0.56447579759E+03  0.25500000920E-02 0.  1.
       -2    1    3    3    0  502  0.30666542462E+03  0.47949435502E+02  0.22975318530E+04  0.23184036418E+04  0.25500000920E-02 0. -1.
</event>
<event>
 5   0  0.3714448E-03  0.8333196E+03  0.7818609E-02  0.9513002E-01
        1   -1    0    0  501    0  0.00000000000E+00  0.00000000000E+00  0.67455852457E+03  0.67455852459E+03  0.50400001928E-02 0. -1.
       -1   -1    0    0    0  501  0.00000000000E+00  0.00000000000E+00 -0.25736146930E+03  0.25736146935E+03  0.50400001928E-02 0.  1.
    10030    2    1    2    0    0  0.00000000000E+00  0.00000000000E+00  0.41719705527E+03  0.93191999395E+03  0.83331956187E+03 0.  0.
        1    1    3    3  502    0  0.25532565398E+03 -0.30923751080E+03  0.82142286679E+02  0.40934873024E+03  0.50400001928E-02 0.  1.
       -1    1    3    3    0  502 -0.25532565398E+03  0.30923751080E+03  0.33505476859E+03  0.52257126370E+03  0.50400001928E-02 0. -1.
</event>
<event>
 5   0  0.6153659E-03  0.7813152E+03  0.7818609E-02  0.9587463E-01
       -2   -1    0    0    0  501  0.00000000000E+00  0.00000000000E+00  0.99956274929E+02  0.99956274962E+02  0.25500000920E-02 0.  1.
        2   -1    0    0  501    0  0.00000000000E+00  0.00000000000E+00 -0.15268011013E+04  0.15268011013E+04  0.25500000920E-02 0. -1.
    10030    2    1    2    0    0  0.00000000000E+00  0.00000000000E+00 -0.14268448263E+04  0.16267573762E+04  0.78131517500E+03 0.  0.
        2    1    3    3  502    0 -0.88217094307E+02  0.32954396672E+03 -0.31710615073E+03  0.46576581301E+03  0.25500000920E-02 0.  1.
       -2    1    3    3    0  502  0.88217094307E+02 -0.32954396672E+03 -0.11097386756E+04  0.11609915632E+04  0.25500000920E-02 0. -1.
</event>
<event>
 5   0  0.2478000E-03  0.7980596E+03  0.7818609E-02  0.9562830E-01
       -3   -1    0    0    0  501  0.00000000000E+00  0.00000000000E+00  0.12618363524E+04  0.12618363564E+04  0.10100000352E+00 0. -1.
        3   -1    0    0  501    0  0.00000000000E+00  0.00000000000E+00 -0.12618493835E+03  0.12618497877E+03  0.10100000352E+00 0.  1.
    10030    2    1    2    0    0  0.00000000000E+00  0.00000000000E+00  0.11356514140E+04  0.13880213352E+04  0.79805957970E+03 0.  0.
        3    1    3    3  502    0  0.23429973165E+02 -0.51617359917E+02  0.12547977442E+04  0.12560775074E+04  0.10100000352E+00 0. -1.
       -3    1    3    3    0  502 -0.23429973165E+02  0.51617359917E+02 -0.11914633021E+03  0.13194382778E+03  0.10100000352E+00 0.  1.
</event>
<event>
 5   0  0.3627496E-03  0.8018204E+03  0.7818609E-02  0.9557386E-01
        1   -1    0    0  501    0  0.00000000000E+00  0.00000000000E+00  0.57606515839E+03  0.57606515841E+03  0.50400001928E-02 0.  1.
       -1   -1    0    0    0  501  0.00000000000E+00  0.00000000000E+00 -0.27901181345E+03  0.27901181349E+03  0.50400001928E-02 0. -1.
    10030    2    1    2    0    0  0.00000000000E+00  0.00000000000E+00  0.29705334494E+03  0.85507697191E+03  0.80182039020E+03 0.  0.
        3    1    3    3  502    0 -0.42376392895E+02  0.33674743142E+03  0.37608767742E+03  0.50659307393E+03  0.10100000352E+00 0.  1.
       -3    1    3    3    0  502  0.42376392895E+02 -0.33674743142E+03 -0.79034332482E+02  0.34848389798E+03  0.10100000352E+00 0. -1.
</event>
<event>
 5   0  0.3627496E-03  0.7998978E+03  0.7818609E-02  0.9560165E-01
       -1   -1    0    0    0  501  0.00000000000E+00  0.00000000000E+00  0.11343407947E+03  0.11343407958E+03  0.50400001928E-02 0.  1.
        1   -1    0    0  501    0  0.00000000000E+00  0.00000000000E+00 -0.14101503558E+04  0.14101503559E+04  0.50400001928E-02 0. -1.
    10030    2    1    2    0    0  0.00000000000E+00  0.00000000000E+00 -0.12967162764E+04  0.15235844354E+04  0.79989776252E+03 0.  0.
        3    1    3    3  502    0 -0.27489697821E+03  0.11748052772E+03 -0.11544167141E+04  0.11924965337E+04  0.10100000352E+00 0. -1.
       -3    1    3    3    0  502  0.27489697821E+03 -0.11748052772E+03 -0.14229956231E+03  0.33108790171E+03  0.10100000352E+00 0.  1.
</event>
<event>
 5   0  0.6536209E-03  0.8014987E+03  0.7818609E-02  0.9557850E-01
       -2   -1    0    0    0  501  0.00000000000E+00  0.00000000000E+00  0.66408347962E+02  0.66408348011E+02  0.25500000920E-02 0.  1.
        2   -1    0    0  501    0  0.00000000000E+00  0.00000000000E+00 -0.24183715010E+04  0.24183715010E+04  0.25500000920E-02 0. -1.
    10030    2    1    2    0    0  0.00000000000E+00  0.00000000000E+00 -0.23519631530E+04  0.24847798490E+04  0.80149873662E+03 0.  0.
        3    1    3    3  502    0 -0.32579600980E+03  0.15997354985E+03 -0.17026949992E+04  0.17409494097E+04  0.10100000352E+00 0. -1.
       -3    1    3    3    0  502  0.32579600980E+03 -0.15997354985E+03 -0.64926815384E+03  0.74383043931E+03  0.10100000352E+00 0.  1.
</event>
<event>
 5   0  0.6536209E-03  0.8102664E+03  0.7818609E-02  0.9545275E-01
       -2   -1    0    0    0  501  0.00000000000E+00  0.00000000000E+00  0.18335962992E+03  0.18335962994E+03  0.25500000920E-02 0.  1.
        2   -1    0    0  501    0  0.00000000000E+00  0.00000000000E+00 -0.89514212674E+03  0.89514212675E+03  0.25500000920E-02 0. -1.
    10030    2    1    2    0    0  0.00000000000E+00  0.00000000000E+00 -0.71178249682E+03  0.10785017567E+04  0.81026644777E+03 0.  0.
        3    1    3    3  502    0 -0.20120520705E+03  0.33468004220E+02 -0.82181294563E+03  0.84674681603E+03  0.10100000352E+00 0. -1.
       -3    1    3    3    0  502  0.20120520705E+03 -0.33468004220E+02  0.11003044881E+03  0.23175494065E+03  0.10100000352E+00 0.  1.
</event>
<event>
 5   0  0.3714448E-03  0.8003665E+03  0.7818609E-02  0.9559487E-01
        1   -1    0    0  501    0  0.00000000000E+00  0.00000000000E+00  0.69578112860E+03  0.69578112862E+03  0.50400001928E-02 0. -1.
       -1   -1    0    0    0  501  0.00000000000E+00  0.00000000000E+00 -0.23016811684E+03  0.23016811690E+03  0.50400001928E-02 0.  1.
    10030    2    1    2    0    0  0.00000000000E+00  0.00000000000E+00  0.46561301176E+03  0.92594924551E+03  0.80036649640E+03 0.  0.
        1    1    3    3  502    0 -0.12603583330E+03 -0.37359270955E+03  0.31203634735E+03  0.50281530008E+03  0.50400001928E-02 0. -1.
       -1    1    3    3    0  502  0.12603583330E+03  0.37359270955E+03  0.15357666441E+03  0.42313394543E+03  0.50400001928E-02 0.  1.
</event>
<event>
 5   0  0.6256781E-03  0.7991176E+03  0.7818609E-02  0.9561295E-01
       -2   -1    0    0    0  501  0.00000000000E+00  0.00000000000E+00  0.25328371793E+03  0.25328371795E+03  0.25500000920E-02 0.  1.
        2   -1    0    0  501    0  0.00000000000E+00  0.00000000000E+00 -0.63030996240E+03  0.63030996241E+03  0.25500000920E-02 0. -1.
    10030    2    1    2    0    0  0.00000000000E+00  0.00000000000E+00 -0.37702624447E+03  0.88359368035E+03  0.79911764024E+03 0.  0.
        1    1    3    3  502    0  0.75614866458E+02 -0.35976872588E+03 -0.15455626596E+02  0.36795382940E+03  0.50400001928E-02 0.  1.
       -1    1    3    3    0  502 -0.75614866458E+02  0.35976872588E+03 -0.36157061787E+03  0.51563985095E+03  0.50400001928E-02 0. -1.
</event>
<event>
 5   0  0.3671128E-03  0.8005223E+03  0.7818609E-02  0.9559261E-01
       -1   -1    0    0    0  501  0.00000000000E+00  0.00000000000E+00  0.26255575095E+03  0.26255575100E+03  0.50400001928E-02 0. -1.
        1   -1    0    0  501    0  0.00000000000E+00  0.00000000000E+00 -0.61019031850E+03  0.61019031852E+03  0.50400001928E-02 0.  1.
    10030    2    1    2    0    0  0.00000000000E+00  0.00000000000E+00 -0.34763456755E+03  0.87274606952E+03  0.80052227283E+03 0.  0.
        2    1    3    3  502    0  0.20833120061E+02  0.15734583739E+03 -0.57441558594E+03  0.59594043059E+03  0.25500000920E-02 0.  1.
       -2    1    3    3    0  502 -0.20833120061E+02 -0.15734583739E+03  0.22678101838E+03  0.27680563893E+03  0.25500000920E-02 0. -1.
</event>
<event>
 5   0  0.3714448E-03  0.7870383E+03  0.7818609E-02  0.9578971E-01
        1   -1    0    0  501    0  0.00000000000E+00  0.00000000000E+00  0.14264219439E+04  0.14264219439E+04  0.50400001928E-02 0.  1.
       -1   -1    0    0    0  501  0.00000000000E+00  0.00000000000E+00 -0.10856346434E+03  0.10856346446E+03  0.50400001928E-02 0. -1.
    10030    2    1    2    0    0  0.00000000000E+00  0.00000000000E+00  0.13178584796E+04  0.15349854084E+04  0.78703826576E+03 0.  0.
        1    1    3    3  502    0 -0.16139803754E+03  0.35863881262E+03  0.63231715066E+03  0.74464495129E+03  0.50400001928E-02 0.  1.
       -1    1    3    3    0  502  0.16139803754E+03 -0.35863881262E+03  0.68554132894E+03  0.79034045711E+03  0.50400001928E-02 0. -1.
</event>
<event>
 5   0  0.5813850E-03  0.7947863E+03  0.7818609E-02  0.9567595E-01
       -2   -1    0    0    0  501  0.00000000000E+00  0.00000000000E+00  0.31063101613E+03  0.31063101614E+03  0.25500000920E-02 0.  1.
        2   -1    0    0  501    0  0.00000000000E+00  0.00000000000E+00 -0.50838870182E+03  0.50838870183E+03  0.25500000920E-02 0. -1.
    10030    2    1    2    0    0  0.00000000000E+00  0.00000000000E+00 -0.19775768569E+03  0.81901971797E+03  0.79478625817E+03 0.  0.
        5    1    3    3  502    0  0.22120770903E+03 -0.17683911800E+03 -0.38611462762E+03  0.47886482419E+03  0.46999998093E+01 0. -1.
       -5    1    3    3    0  502 -0.22120770903E+03  0.17683911800E+03  0.18835694193E+03  0.34015489378E+03  0.46999998093E+01 0.  1.
</event>
<event>
 5   0  0.6256781E-03  0.8003763E+03  0.7818609E-02  0.9559473E-01
        2   -1    0    0  501    0  0.00000000000E+00  0.00000000000E+00  0.15915827227E+03  0.15915827229E+03  0.25500000920E-02 0. -1.
       -2   -1    0    0    0  501  0.00000000000E+00  0.00000000000E+00 -0.10062346459E+04  0.10062346459E+04  0.25500000920E-02 0.  1.
    10030    2    1    2    0    0  0.00000000000E+00  0.00000000000E+00 -0.84707637367E+03  0.11653929182E+04  0.80037633088E+03 0.  0.
        1    1    3    3  502    0  0.26326390054E+03 -0.20137770658E+03 -0.97012249582E+02  0.34535813097E+03  0.50400001928E-02 0. -1.
       -1    1    3    3    0  502 -0.26326390054E+03  0.20137770658E+03 -0.75006412409E+03  0.82003478726E+03  0.50400001928E-02 0.  1.
</event>
<event>
 5   0  0.3671128E-03  0.8028843E+03  0.7818609E-02  0.9555852E-01
       -1   -1    0    0    0  501  0.00000000000E+00  0.00000000000E+00  0.39433582516E+03  0.39433582519E+03  0.50400001928E-02 0. -1.
        1   -1    0    0  501    0  0.00000000000E+00  0.00000000000E+00 -0.40867651755E+03  0.40867651758E+03  0.50400001928E-02 0.  1.
    10030    2    1    2    0    0  0.00000000000E+00  0.00000000000E+00 -0.14340692384E+02  0.80301234277E+03  0.80288428007E+03 0.  0.
        2    1    3    3  502    0  0.76756760306E+02  0.38769465973E+03  0.63247150301E+02  0.40024861207E+03  0.25500000920E-02 0. -1.
       -2    1    3    3    0  502 -0.76756760306E+02 -0.38769465973E+03 -0.77587842685E+02  0.40276373071E+03  0.25500000920E-02 0.  1.
</event>
<event>
 5   0  0.3671128E-03  0.7984089E+03  0.7818609E-02  0.9562323E-01
        1   -1    0    0  501    0  0.00000000000E+00  0.00000000000E+00  0.74832183913E+03  0.74832183915E+03  0.50400001928E-02 0. -1.
       -1   -1    0    0    0  501  0.00000000000E+00  0.00000000000E+00 -0.21296211532E+03  0.21296211538E+03  0.50400001928E-02 0.  1.
    10030    2    1    2    0    0  0.00000000000E+00  0.00000000000E+00  0.53535972381E+03  0.96128395453E+03  0.79840892239E+03 0.  0.
        2    1    3    3  502    0 -0.25729083893E+03 -0.20452789587E+03 -0.51103104966E+01  0.32871925904E+03  0.25500000920E-02 0.  1.
       -2    1    3    3    0  502  0.25729083893E+03  0.20452789587E+03  0.54047003431E+03  0.63256469549E+03  0.25500000920E-02 0. -1.
</event>
<event>
 5   0  0.6153659E-03  0.7984407E+03  0.7818609E-02  0.9562277E-01
        2   -1    0    0  501    0  0.00000000000E+00  0.00000000000E+00  0.10681548231E+04  0.10681548231E+04  0.25500000920E-02 0.  1.
       -2   -1    0    0    0  501  0.00000000000E+00  0.00000000000E+00 -0.14920766953E+03  0.14920766955E+03  0.25500000920E-02 0. -1.
    10030    2    1    2    0    0  0.00000000000E+00  0.00000000000E+00  0.91894715358E+03  0.12173624927E+04  0.79844071006E+03 0.  0.
        2    1    3    3  502    0  0.64968164090E+02  0.23587369729E+03  0.94045867088E+03  0.97176117182E+03  0.25500000920E-02 0.  1.
       -2    1    3    3    0  502 -0.64968164090E+02 -0.23587369729E+03 -0.21511517302E+02  0.24560132085E+03  0.25500000920E-02 0. -1.
</event>
<event>
 5   0  0.2478000E-03  0.8059528E+03  0.7818609E-02  0.9551440E-01
       -3   -1    0    0    0  501  0.00000000000E+00  0.00000000000E+00  0.56555490834E+03  0.56555491736E+03  0.10100000352E+00 0.  1.
        3   -1    0    0  501    0  0.00000000000E+00  0.00000000000E+00 -0.28713386021E+03  0.28713387797E+03  0.10100000352E+00 0. -1.
    10030    2    1    2    0    0  0.00000000000E+00  0.00000000000E+00  0.27842104813E+03  0.85268879534E+03  0.80595279120E+03 0.  0.
        4    1    3    3  502    0  0.26126202558E+03  0.29193442109E+03  0.23904793000E+03  0.45894343656E+03  0.12699999809E+01 0.  1.
       -4    1    3    3    0  502 -0.26126202558E+03 -0.29193442109E+03  0.39373118129E+02  0.39374535877E+03  0.12699999809E+01 0. -1.
</event>
<event>
 5   0  0.3627496E-03  0.8051372E+03  0.7818609E-02  0.9552611E-01
       -1   -1    0    0    0  501  0.00000000000E+00  0.00000000000E+00  0.26184023437E+03  0.26184023442E+03  0.50400001928E-02 0. -1.
        1   -1    0    0  501    0  0.00000000000E+00  0.00000000000E+00 -0.61893266243E+03  0.61893266245E+03  0.50400001928E-02 0.  1.
    10030    2    1    2    0    0  0.00000000000E+00  0.00000000000E+00 -0.35709242806E+03  0.88077289687E+03  0.80513718936E+03 0.  0.
        3    1    3    3  502    0 -0.10864973704E+03  0.11815558430E+03 -0.58241058342E+03  0.60412548807E+03  0.10100000352E+00 0.  1.
       -3    1    3    3    0  502  0.10864973704E+03 -0.11815558430E+03  0.22531815536E+03  0.27664740880E+03  0.10100000352E+00 0. -1.
</event>
<event>
 5   0  0.5813850E-03  0.7999643E+03  0.7818609E-02  0.9560069E-01
        2   -1    0    0  501    0  0.00000000000E+00  0.00000000000E+00  0.99811661109E+03  0.99811661109E+03  0.25500000920E-02 0.  1.
       -2   -1    0    0    0  501  0.00000000000E+00  0.00000000000E+00 -0.16028759770E+03  0.16028759772E+03  0.25500000920E-02 0. -1.
    10030    2    1    2    0    0  0.00000000000E+00  0.00000000000E+00  0.83782901339E+03  0.11584042088E+04  0.79996428377E+03 0.  0.
        5    1    3    3  502    0 -0.20312039391E+03  0.20681562550E+03  0.81794389676E+03  0.86780464715E+03  0.46999998093E+01 0.  1.
       -5    1    3    3    0  502  0.20312039391E+03 -0.20681562550E+03  0.19885116632E+02  0.29059956166E+03  0.46999998093E+01 0. -1.
</event>
<event>
 5   0  0.3627496E-03  0.7936840E+03  0.7818609E-02  0.9569204E-01
       -1   -1    0    0    0  501  0.00000000000E+00  0.00000000000E+00  0.14296886698E+03  0.14296886707E+03  0.50400001928E-02 0. -1.
        1   -1    0    0  501    0  0.00000000000E+00  0.00000000000E+00 -0.11015236527E+04  0.11015236527E+04  0.50400001928E-02 0.  1.
    10030    2    1    2    0    0  0.00000000000E+00  0.00000000000E+00 -0.95855478573E+03  0.12444925198E+04  0.79368403949E+03 0.  0.
        3    1    3    3  502    0 -0.84349903234E+02 -0.21487749792E+03  0.26862840967E+02  0.23239808027E+03  0.10100000352E+00 0. -1.
       -3    1    3    3    0  502  0.84349903234E+02  0.21487749792E+03 -0.98541762669E+03  0.10120944395E+04  0.10100000352E+00 0.  1.
</event>
<event>
 5   0  0.6153659E-03  0.8002422E+03  0.7818609E-02  0.9559667E-01
       -2   -1    0    0    0  501  0.00000000000E+00  0.00000000000E+00  0.28691047485E+03  0.28691047486E+03  0.25500000920E-02 0. -1.
        2   -1    0    0  501    0  0.00000000000E+00  0.00000000000E+00 -0.55800291106E+03  0.55800291107E+03  0.25500000920E-02 0.  1.
    10030    2    1    2    0    0  0.00000000000E+00  0.00000000000E+00 -0.27109243621E+03  0.84491338593E+03  0.80024216382E+03 0.  0.
        2    1    3    3  502    0 -0.27393438324E+03 -0.26911148485E+03 -0.25423040643E+03  0.46053679240E+03  0.25500000920E-02 0.  1.
       -2    1    3    3    0  502  0.27393438324E+03  0.26911148485E+03 -0.16862029781E+02  0.38437659353E+03  0.25500000920E-02 0. -1.
</event>
<event>
 5   0  0.6153659E-03  0.8011035E+03  0.7818609E-02  0.9558421E-01
       -2   -1    0    0    0  501  0.00000000000E+00  0.00000000000E+00  0.65736318318E+03  0.65736318318E+03  0.25500000920E-02 0.  1.
        2   -1    0    0  501    0  0.00000000000E+00  0.00000000000E+00 -0.24406857261E+03  0.24406857262E+03  0.25500000920E-02 0. -1.
    10030    2    1    2    0    0  0.00000000000E+00  0.00000000000E+00  0.41329461057E+03  0.90143175580E+03  0.80110347350E+03 0.  0.
        2    1    3    3  502    0 -0.26684156125E+03  0.73465679411E+02 -0.11916692750E+03  0.30133433505E+03  0.25500000920E-02 0. -1.
       -2    1    3    3    0  502  0.26684156125E+03 -0.73465679411E+02  0.53246153807E+03  0.60009742075E+03  0.25500000920E-02 0.  1.
</event>
<event>
 5   0  0.3714448E-03  0.7934460E+03  0.7818609E-02  0.9569552E-01
       -1   -1    0    0    0  501  0.00000000000E+00  0.00000000000E+00  0.23871583402E+03  0.23871583407E+03  0.50400001928E-02 0.  1.
        1   -1    0    0  501    0  0.00000000000E+00  0.00000000000E+00 -0.65931588983E+03  0.65931588985E+03  0.50400001928E-02 0. -1.
    10030    2    1    2    0    0  0.00000000000E+00  0.00000000000E+00 -0.42060005581E+03  0.89803172393E+03  0.79344600965E+03 0.  0.
        1    1    3    3  502    0  0.17078572388E+02 -0.38967175252E+03 -0.12826598271E+03  0.41059458678E+03  0.50400001928E-02 0.  1.
       -1    1    3    3    0  502 -0.17078572388E+02  0.38967175252E+03 -0.29233407310E+03  0.48743713715E+03  0.50400001928E-02 0. -1.
</event>
<event>
 5   0  0.6536209E-03  0.8022438E+03  0.7818609E-02  0.9556775E-01
        2   -1    0    0  501    0  0.00000000000E+00  0.00000000000E+00  0.16442961894E+03  0.16442961896E+03  0.25500000920E-02 0.  1.
       -2   -1    0    0    0  501  0.00000000000E+00  0.00000000000E+00 -0.97852677529E+03  0.97852677529E+03  0.25500000920E-02 0. -1.
    10030    2    1    2    0    0  0.00000000000E+00  0.00000000000E+00 -0.81409715636E+03  0.11429563942E+04  0.80224381529E+03 0.  0.
        3    1    3    3  502    0 -0.13459928246E+03 -0.22109264173E+03 -0.84362043582E+03  0.88243661132E+03  0.10100000352E+00 0. -1.
       -3    1    3    3    0  502  0.13459928246E+03  0.22109264173E+03  0.29523279465E+02  0.26051978293E+03  0.10100000352E+00 0.  1.
</event>
<event>
 5   0  0.6153659E-03  0.7993205E+03  0.7818609E-02  0.9561001E-01
        2   -1    0    0  501    0  0.00000000000E+00  0.00000000000E+00  0.64988280155E+03  0.64988280156E+03  0.25500000920E-02 0.  1.
       -2   -1    0    0    0  501  0.00000000000E+00  0.00000000000E+00 -0.24578018781E+03  0.24578018782E+03  0.25500000920E-02 0. -1.
    10030    2    1    2    0    0  0.00000000000E+00  0.00000000000E+00  0.40410261375E+03  0.89566298938E+03  0.79932050399E+03 0.  0.
        2    1    3    3  502    0 -0.12409609567E+03 -0.20140662201E+03 -0.15889841452E+03  0.28497925274E+03  0.25500000920E-02 0. -1.
       -2    1    3    3    0  502  0.12409609567E+03  0.20140662201E+03  0.56300102827E+03  0.61068373663E+03  0.25500000920E-02 0.  1.
</event>
<event>
 5   0  0.3627496E-03  0.7979780E+03  0.7818609E-02  0.9562949E-01
        1   -1    0    0  501    0  0.00000000000E+00  0.00000000000E+00  0.13572641280E+04  0.13572641281E+04  0.50400001928E-02 0. -1.
       -1   -1    0    0    0  501  0.00000000000E+00  0.00000000000E+00 -0.11728904716E+03  0.11728904727E+03  0.50400001928E-02 0.  1.
    10030    2    1    2    0    0  0.00000000000E+00  0.00000000000E+00  0.12399750809E+04  0.14745531753E+04  0.79797798568E+03 0.  0.
        3    1    3    3  502    0  0.29250567283E+03  0.20849205339E+03  0.29905641166E+03  0.46740052687E+03  0.10100000352E+00 0.  1.
       -3    1    3    3    0  502 -0.29250567283E+03 -0.20849205339E+03  0.94091866923E+03  0.10071526484E+04  0.10100000352E+00 0. -1.
</event>
<event>
 5   0  0.3627496E-03  0.8077241E+03  0.7818609E-02  0.9548904E-01
       -1   -1    0    0    0  501  0.00000000000E+00  0.00000000000E+00  0.16577097530E+03  0.16577097538E+03  0.50400001928E-02 0.  1.
        1   -1    0    0  501    0  0.00000000000E+00  0.00000000000E+00 -0.98391507052E+03  0.98391507053E+03  0.50400001928E-02 0. -1.
    10030    2    1    2    0    0  0.00000000000E+00  0.00000000000E+00 -0.81814409521E+03  0.11496860459E+04  0.80772411356E+03 0.  0.
        3    1    3    3  502    0 -0.15503812471E+03 -0.16061284638E+03  0.69972660811E+02  0.23394334784E+03  0.10100000352E+00 0. -1.
       -3    1    3    3    0  502  0.15503812471E+03  0.16061284638E+03 -0.88811675602E+03  0.91574269807E+03  0.10100000352E+00 0.  1.
</event>
<event>
 5   0  0.3860515E-03  0.8009536E+03  0.7818609E-02  0.9558638E-01
       -1   -1    0    0    0  501  0.00000000000E+00  0.00000000000E+00  0.97928744274E+02  0.97928744404E+02  0.50400001928E-02 0.  1.
        1   -1    0    0  501    0  0.00000000000E+00  0.00000000000E+00 -0.16377382433E+04  0.16377382433E+04  0.50400001928E-02 0. -1.
    10030    2    1    2    0    0  0.00000000000E+00  0.00000000000E+00 -0.15398094990E+04  0.17356669877E+04  0.80095355605E+03 0.  0.
        4    1    3    3  502    0  0.28155180754E+03  0.10545381708E+02 -0.13866341312E+04  0.14149694174E+04  0.12699999809E+01 0. -1.
       -4    1    3    3    0  502 -0.28155180754E+03 -0.10545381708E+02 -0.15317536781E+03  0.32069757032E+03  0.12699999809E+01 0.  1.
</event>
<event>
 5   0  0.6536209E-03  0.8009908E+03  0.7818609E-02  0.9558584E-01
       -2   -1    0    0    0  501  0.00000000000E+00  0.00000000000E+00  0.12357204064E+03  0.12357204067E+03  0.25500000920E-02 0.  1.
        2   -1    0    0  501    0  0.00000000000E+00  0.00000000000E+00 -0.12980004134E+04  0.12980004134E+04  0.25500000920E-02 0. -1.
    10030    2    1    2    0    0  0.00000000000E+00  0.00000000000E+00 -0.11744283727E+04  0.14215724541E+04  0.80099078612E+03 0.  0.
        3    1    3    3  502    0  0.15181603619E+03  0.17730758357E+03 -0.11647925415E+04  0.11879510777E+04  0.10100000352E+00 0. -1.
       -3    1    3    3    0  502 -0.15181603619E+03 -0.17730758357E+03 -0.96358311996E+01  0.23362137633E+03  0.10100000352E+00 0.  1.
</event>
<event>
 5   0  0.6153659E-03  0.8247005E+03  0.7818609E-02  0.9524937E-01
        2   -1    0    0  501    0  0.00000000000E+00  0.00000000000E+00  0.27745281548E+03  0.27745281549E+03  0.25500000920E-02 0. -1.
       -2   -1    0    0    0  501  0.00000000000E+00  0.00000000000E+00 -0.61283469733E+03  0.61283469734E+03  0.25500000920E-02 0.  1.
    10030    2    1    2    0    0  0.00000000000E+00  0.00000000000E+00 -0.33538188185E+03  0.89028751283E+03  0.82470046006E+03 0.  0.
        2    1    3    3  502    0 -0.18188927983E+03 -0.25206022427E+03  0.12480874087E+03  0.33495565166E+03  0.25500000920E-02 0. -1.
       -2    1    3    3    0  502  0.18188927983E+03  0.25206022427E+03 -0.46019062272E+03  0.55533186117E+03  0.25500000920E-02 0.  1.
</event>
<event>
 5   0  0.6337108E-03  0.7949682E+03  0.7818609E-02  0.9567329E-01
       -2   -1    0    0    0  501  0.00000000000E+00  0.00000000000E+00  0.11709441079E+03  0.11709441082E+03  0.25500000920E-02 0.  1.
        2   -1    0    0  501    0  0.00000000000E+00  0.00000000000E+00 -0.13492838400E+04  0.13492838400E+04  0.25500000920E-02 0. -1.
    10030    2    1    2    0    0  0.00000000000E+00  0.00000000000E+00 -0.12321894292E+04  0.14663782508E+04  0.79496816605E+03 0.  0.
        4    1    3    3  502    0 -0.20742446807E+03  0.33671919220E+03 -0.68958334841E+03  0.79494121270E+03  0.12699999809E+01 0. -1.
       -4    1    3    3    0  502  0.20742446807E+03 -0.33671919220E+03 -0.54260608083E+03  0.67143703815E+03  0.12699999809E+01 0.  1.
</event>
<event>
 5   0  0.3671128E-03  0.7980170E+03  0.7818609E-02  0.9562892E-01
        1   -1    0    0  501    0  0.00000000000E+00  0.00000000000E+00  0.12826822904E+04  0.12826822904E+04  0.50400001928E-02 0.  1.
       -1   -1    0    0    0  501  0.00000000000E+00  0.00000000000E+00 -0.12412096744E+03  0.12412096754E+03  0.50400001928E-02 0. -1.
    10030    2    1    2    0    0  0.00000000000E+00  0.00000000000E+00  0.11585613230E+04  0.14068032580E+04  0.79801695942E+03 0.  0.
        2    1    3    3  502    0  0.79647295152E+02 -0.38873736412E+03  0.50559048803E+03  0.64271468902E+03  0.25500000920E-02 0.  1.
       -2    1    3    3    0  502 -0.79647295152E+02  0.38873736412E+03  0.65297083496E+03  0.76408856895E+03  0.25500000920E-02 0. -1.
</event>
<event>
 5   0  0.3753450E-03  0.8010405E+03  0.7818609E-02  0.9558512E-01
       -1   -1    0    0    0  501  0.00000000000E+00  0.00000000000E+00  0.36562378440E+03  0.36562378443E+03  0.50400001928E-02 0. -1.
        1   -1    0    0  501    0  0.00000000000E+00  0.00000000000E+00 -0.43874739377E+03  0.43874739380E+03  0.50400001928E-02 0.  1.
    10030    2    1    2    0    0  0.00000000000E+00  0.00000000000E+00 -0.73123609377E+02  0.80437117824E+03  0.80104052964E+03 0.  0.
        5    1    3    3  502    0  0.89719827193E+02 -0.38622040939E+03  0.20051158411E+02  0.39703902953E+03  0.46999998093E+01 0.  1.
       -5    1    3    3    0  502 -0.89719827193E+02  0.38622040939E+03 -0.93174767789E+02  0.40733214871E+03  0.46999998093E+01 0. -1.
</event>
<event>
 5   0  0.6256781E-03  0.8162865E+03  0.7818609E-02  0.9536738E-01
       -2   -1    0    0    0  501  0.00000000000E+00  0.00000000000E+00  0.17242969312E+03  0.17242969314E+03  0.25500000920E-02 0.  1.
        2   -1    0    0  501    0  0.00000000000E+00  0.00000000000E+00 -0.96608011184E+03  0.96608011185E+03  0.25500000920E-02 0. -1.
    10030    2    1    2    0    0  0.00000000000E+00  0.00000000000E+00 -0.79365041872E+03  0.11385098050E+04  0.81628646253E+03 0.  0.
        1    1    3    3  502    0 -0.37936445970E+02 -0.27120422912E+03 -0.81892796302E+03  0.86350096495E+03  0.50400001928E-02 0. -1.
       -1    1    3    3    0  502  0.37936445970E+02  0.27120422912E+03  0.25277544300E+02  0.27500884003E+03  0.50400001928E-02 0.  1.
</event>
<event>
 5   0  0.6153659E-03  0.7989456E+03  0.7818609E-02  0.9561545E-01
        2   -1    0    0  501    0  0.00000000000E+00  0.00000000000E+00  0.67572765066E+03  0.67572765066E+03  0.25500000920E-02 0.  1.
       -2   -1    0    0    0  501  0.00000000000E+00  0.00000000000E+00 -0.23615802119E+03  0.23615802120E+03  0.25500000920E-02 0. -1.
    10030    2    1    2    0    0  0.00000000000E+00  0.00000000000E+00  0.43956962947E+03  0.91188567186E+03  0.79894556723E+03 0.  0.
        2    1    3    3  502    0 -0.73384597535E+02  0.61007886076E+02 -0.22295640315E+03  0.24252179084E+03  0.25500000920E-02 0. -1.
       -2    1    3    3    0  502  0.73384597535E+02 -0.61007886076E+02  0.66252603262E+03  0.66936388103E+03  0.25500000920E-02 0.  1.
</event>
<event>
 5   0  0.3714448E-03  0.7509993E+03  0.7818609E-02  0.9633784E-01
       -1   -1    0    0    0  501  0.00000000000E+00  0.00000000000E+00  0.75010402408E+03  0.75010402409E+03  0.50400001928E-02 0. -1.
        1   -1    0    0  501    0  0.00000000000E+00  0.00000000000E+00 -0.18797393493E+03  0.18797393500E+03  0.50400001928E-02 0.  1.
    10030    2    1    2    0    0  0.00000000000E+00  0.00000000000E+00  0.56213008915E+03  0.93807795909E+03  0.75099934767E+03 0.  0.
        1    1    3    3  502    0 -0.20015085413E+03  0.57036176930E+02  0.67147122176E+03  0.70298441772E+03  0.50400001928E-02 0. -1.
       -1    1    3    3    0  502  0.20015085413E+03 -0.57036176930E+02 -0.10934113261E+03  0.23509354137E+03  0.50400001928E-02 0.  1.
</event>
<event>
 5   0  0.3627496E-03  0.7987098E+03  0.7818609E-02  0.9561887E-01
       -1   -1    0    0    0  501  0.00000000000E+00  0.00000000000E+00  0.42404971804E+03  0.42404971807E+03  0.50400001928E-02 0.  1.
        1   -1    0    0  501    0  0.00000000000E+00  0.00000000000E+00 -0.37609819023E+03  0.37609819026E+03  0.50400001928E-02 0. -1.
    10030    2    1    2    0    0  0.00000000000E+00  0.00000000000E+00  0.47951527807E+02  0.80014790833E+03  0.79870978846E+03 0.  0.
        3    1    3    3  502    0 -0.31238134225E+01  0.36731730205E+03 -0.13299894351E+03  0.39066672212E+03  0.10100000352E+00 0. -1.
       -3    1    3    3    0  502  0.31238134225E+01 -0.36731730205E+03  0.18095047132E+03  0.40948118621E+03  0.10100000352E+00 0.  1.
</event>
<event>
 5   0  0.3860515E-03  0.8014581E+03  0.7818609E-02  0.9557909E-01
        1   -1    0    0  501    0  0.00000000000E+00  0.00000000000E+00  0.93390707893E+03  0.93390707895E+03  0.50400001928E-02 0. -1.
       -1   -1    0    0    0  501  0.00000000000E+00  0.00000000000E+00 -0.17194833927E+03  0.17194833934E+03  0.50400001928E-02 0.  1.
    10030    2    1    2    0    0  0.00000000000E+00  0.00000000000E+00  0.76195873966E+03  0.11058554183E+04  0.80145809947E+03 0.  0.
        4    1    3    3  502    0 -0.33574467359E+02  0.18706449072E+03 -0.10580379400E+03  0.21752338787E+03  0.12699999809E+01 0.  1.
       -4    1    3    3    0  502  0.33574467359E+02 -0.18706449072E+03  0.86776253366E+03  0.88833203042E+03  0.12699999809E+01 0. -1.
</event>
<event>
 5   0  0.2478000E-03  0.8011616E+03  0.7818609E-02  0.9558337E-01
       -3   -1    0    0    0  501  0.00000000000E+00  0.00000000000E+00  0.95620385126E+03  0.95620385660E+03  0.10100000352E+00 0. -1.
        3   -1    0    0  501    0  0.00000000000E+00  0.00000000000E+00 -0.16781459464E+03  0.16781462504E+03  0.10100000352E+00 0.  1.
    10030    2    1    2    0    0  0.00000000000E+00  0.00000000000E+00  0.78838925662E+03  0.11240184816E+04  0.80116161110E+03 0.  0.
        2    1    3    3  502    0  0.16575150350E+02 -0.17116737440E+03 -0.11339160316E+03  0.20598704168E+03  0.25500000920E-02 0.  1.
       -2    1    3    3    0  502 -0.16575150350E+02  0.17116737440E+03  0.90178085978E+03  0.91803143995E+03  0.25500000920E-02 0. -1.
</event>
<event>
 5   0  0.3714448E-03  0.7828153E+03  0.7818609E-02  0.9585230E-01
       -1   -1    0    0    0  501  0.00000000000E+00  0.00000000000E+00  0.10603710603E+03  0.10603710615E+03  0.50400001928E-02 0.  1.
        1   -1    0    0  501    0  0.00000000000E+00  0.00000000000E+00 -0.14447767779E+04  0.14447767779E+04  0.50400001928E-02 0. -1.
    10030    2    1    2    0    0  0.00000000000E+00  0.00000000000E+00 -0.13387396719E+04  0.15508138840E+04  0.78281530001E+03 0.  0.
        1    1    3    3  502    0 -0.12349938524E+03  0.30696887986E+03 -0.10835891117E+04  0.11329816214E+04  0.50400001928E-02 0. -1.
       -1    1    3    3    0  502  0.12349938524E+03 -0.30696887986E+03 -0.25515056019E+03  0.41783226269E+03  0.50400001928E-02 0.  1.
</event>
<event>
 5   0  0.6536209E-03  0.7990460E+03  0.7818609E-02  0.9561399E-01
        2   -1    0    0  501    0  0.00000000000E+00  0.00000000000E+00  0.99725561607E+03  0.99725561608E+03  0.25500000920E-02 0. -1.
       -2   -1    0    0    0  501  0.00000000000E+00  0.00000000000E+00 -0.16005790342E+03  0.16005790344E+03  0.25500000920E-02 0.  1.
    10030    2    1    2    0    0  0.00000000000E+00  0.00000000000E+00  0.83719771265E+03  0.11573135195E+04  0.79904603897E+03 0.  0.
        3    1    3    3  502    0 -0.32998807915E+03 -0.83703354978E+02  0.11575376671E+03  0.35957937750E+03  0.10100000352E+00 0.  1.
       -3    1    3    3    0  502  0.32998807915E+03  0.83703354978E+02  0.72144394594E+03  0.79773414202E+03  0.10100000352E+00 0. -1.
</event>
<event>
 5   0  0.3671128E-03  0.7995549E+03  0.7818609E-02  0.9560662E-01
        1   -1    0    0  501    0  0.00000000000E+00  0.00000000000E+00  0.11420474044E+04  0.11420474044E+04  0.50400001928E-02 0. -1.
       -1   -1    0    0    0  501  0.00000000000E+00  0.00000000000E+00 -0.13994339575E+03  0.13994339584E+03  0.50400001928E-02 0.  1.
    10030    2    1    2    0    0  0.00000000000E+00  0.00000000000E+00  0.10021040087E+04  0.12819908003E+04  0.79955485602E+03 0.  0.
        2    1    3    3  502    0  0.19598385674E+02 -0.22755805642E+03  0.10271349246E+04  0.10522228467E+04  0.25500000920E-02 0. -1.
       -2    1    3    3    0  502 -0.19598385674E+02  0.22755805642E+03 -0.25030915869E+02  0.22976795363E+03  0.25500000920E-02 0.  1.
</event>
<event>
 5   0  0.6256781E-03  0.8065513E+03  0.7818609E-02  0.9550582E-01
       -2   -1    0    0    0  501  0.00000000000E+00  0.00000000000E+00  0.29988176216E+03  0.29988176217E+03  0.25500000920E-02 0. -1.
        2   -1    0    0  501    0  0.00000000000E+00  0.00000000000E+00 -0.54231793416E+03  0.54231793416E+03  0.25500000920E-02 0.  1.
    10030    2    1    2    0    0  0.00000000000E+00  0.00000000000E+00 -0.24243617200E+03  0.84219969633E+03  0.80655131952E+03 0.  0.
        1    1    3    3  502    0 -0.21291756376E+03  0.32565324401E+03 -0.10477234223E+02  0.38922191197E+03  0.50400001928E-02 0. -1.
       -1    1    3    3    0  502  0.21291756376E+03 -0.32565324401E+03 -0.23195893777E+03  0.45297778437E+03  0.50400001928E-02 0.  1.
</event>
<event>
 5   0  0.3671128E-03  0.7831589E+03  0.7818609E-02  0.9584719E-01
        1   -1    0    0  501    0  0.00000000000E+00  0.00000000000E+00  0.13073103507E+03  0.13073103517E+03  0.50400001928E-02 0. -1.
       -1   -1    0    0    0  501  0.00000000000E+00  0.00000000000E+00 -0.11729001558E+04  0.11729001558E+04  0.50400001928E-02 0.  1.
    10030    2    1    2    0    0  0.00000000000E+00  0.00000000000E+00 -0.10421691207E+04  0.13036311910E+04  0.78315886376E+03 0.  0.
        2    1    3    3  502    0 -0.16110475626E+03  0.18323905470E+03 -0.11268391870E+02  0.24425042542E+03  0.25500000920E-02 0. -1.
       -2    1    3    3    0  502  0.16110475626E+03 -0.18323905470E+03 -0.10309007289E+04  0.10593807656E+04  0.25500000920E-02 0.  1.
</event>
<event>
 5   0  0.3627496E-03  0.7987891E+03  0.7818609E-02  0.9561772E-01
       -1   -1    0    0    0  501  0.00000000000E+00  0.00000000000E+00  0.25017257689E+03  0.25017257694E+03  0.50400001928E-02 0. -1.
        1   -1    0    0  501    0  0.00000000000E+00  0.00000000000E+00 -0.63762379126E+03  0.63762379128E+03  0.50400001928E-02 0.  1.
    10030    2    1    2    0    0  0.00000000000E+00  0.00000000000E+00 -0.38745121437E+03  0.88779636823E+03  0.79878905095E+03 0.  0.
        3    1    3    3  502    0 -0.47759333457E+02  0.26541371955E+03  0.13370370582E+03  0.30100180665E+03  0.10100000352E+00 0. -1.
       -3    1    3    3    0  502  0.47759333457E+02 -0.26541371955E+03 -0.52115492019E+03  0.58679456158E+03  0.10100000352E+00 0.  1.
</event>
<event>
 5   0  0.6337108E-03  0.8032824E+03  0.7818609E-02  0.9555278E-01
        2   -1    0    0  501    0  0.00000000000E+00  0.00000000000E+00  0.46213155787E+03  0.46213155788E+03  0.25500000920E-02 0.  1.
       -2   -1    0    0    0  501  0.00000000000E+00  0.00000000000E+00 -0.34906870864E+03  0.34906870865E+03  0.25500000920E-02 0. -1.
    10030    2    1    2    0    0  0.00000000000E+00  0.00000000000E+00  0.11306284924E+03  0.81120026653E+03  0.80328243136E+03 0.  0.
        4    1    3    3  502    0 -0.27136561469E+03 -0.16055487955E+03  0.30777456894E+03  0.44061770774E+03  0.12699999809E+01 0.  1.
       -4    1    3    3    0  502  0.27136561469E+03  0.16055487955E+03 -0.19471171971E+03  0.37058255879E+03  0.12699999809E+01 0. -1.
</event>
<event>
 5   0  0.3860515E-03  0.7975165E+03  0.7818609E-02  0.9563619E-01
        1   -1    0    0  501    0  0.00000000000E+00  0.00000000000E+00  0.11100966833E+04  0.11100966833E+04  0.50400001928E-02 0.  1.
       -1   -1    0    0    0  501  0.00000000000E+00  0.00000000000E+00 -0.14323809946E+03  0.14323809954E+03  0.50400001928E-02 0. -1.
    10030    2    1    2    0    0  0.00000000000E+00  0.00000000000E+00  0.96685858382E+03  0.12533347828E+04  0.79751649309E+03 0.  0.
        4    1    3    3  502    0  0.24197976535E+02 -0.39130870030E+03  0.36903528150E+03  0.53842055392E+03  0.12699999809E+01 0.  1.
       -4    1    3    3    0  502 -0.24197976535E+02  0.39130870030E+03  0.59782330232E+03  0.71491422891E+03  0.12699999809E+01 0. -1.
</event>
<event>
 5   0  0.6153659E-03  0.8037880E+03  0.7818609E-02  0.9554550E-01
        2   -1    0    0  501    0  0.00000000000E+00  0.00000000000E+00  0.74002838379E+03  0.74002838379E+03  0.25500000920E-02 0.  1.
       -2   -1    0    0    0  501  0.00000000000E+00  0.00000000000E+00 -0.21826023374E+03  0.21826023376E+03  0.25500000920E-02 0. -1.
    10030    2    1    2    0    0  0.00000000000E+00  0.00000000000E+00  0.52176815005E+03  0.95828861755E+03  0.80378795221E+03 0.  0.
        2    1    3    3  502    0 -0.32986795061E+03 -0.22774013716E+03  0.29544461940E+03  0.49796180381E+03  0.25500000920E-02 0. -1.
       -2    1    3    3    0  502  0.32986795061E+03  0.22774013716E+03  0.22632353065E+03  0.46032681374E+03  0.25500000920E-02 0.  1.
</event>
<event>
 5   0  0.3627496E-03  0.8015302E+03  0.7818609E-02  0.9557805E-01
       -1   -1    0    0    0  501  0.00000000000E+00  0.00000000000E+00  0.29851004964E+03  0.29851004969E+03  0.50400001928E-02 0.  1.
        1   -1    0    0  501    0  0.00000000000E+00  0.00000000000E+00 -0.53804772009E+03  0.53804772011E+03  0.50400001928E-02 0. -1.
    10030    2    1    2    0    0  0.00000000000E+00  0.00000000000E+00 -0.23953767044E+03  0.83655776980E+03  0.80153016578E+03 0.  0.
        3    1    3    3  502    0  0.24737832105E+03 -0.31242935254E+03 -0.16410472213E+03  0.43097390185E+03  0.10100000352E+00 0. -1.
       -3    1    3    3    0  502 -0.24737832105E+03  0.31242935254E+03 -0.75432948312E+02  0.40558386795E+03  0.10100000352E+00 0.  1.
</event>
<event>
 5   0  0.6536209E-03  0.8015013E+03  0.7818609E-02  0.9557847E-01
        2   -1    0    0  501    0  0.00000000000E+00  0.00000000000E+00  0.11920875248E+04  0.11920875248E+04  0.25500000920E-02 0. -1.
       -2   -1    0    0    0  501  0.00000000000E+00  0.00000000000E+00 -0.13472254609E+03  0.13472254612E+03  0.25500000920E-02 0.  1.
    10030    2    1    2    0    0  0.00000000000E+00  0.00000000000E+00  0.10573649787E+04  0.13268100709E+04  0.80150125771E+03 0.  0.
        3    1    3    3  502    0  0.38303626233E+03 -0.45023770718E+02  0.70894046556E+03  0.80705669696E+03  0.10100000352E+00 0. -1.
       -3    1    3    3    0  502 -0.38303626233E+03  0.45023770718E+02  0.34842451315E+03  0.51975337398E+03  0.10100000352E+00 0.  1.
</event>
<event>
 5   0  0.3671128E-03  0.7980479E+03  0.7818609E-02  0.9562847E-01
        1   -1    0    0  501    0  0.00000000000E+00  0.00000000000E+00  0.87786038687E+03  0.87786038689E+03  0.50400001928E-02 0. -1.
       -1   -1    0    0    0  501  0.00000000000E+00  0.00000000000E+00 -0.18137290985E+03  0.18137290992E+03  0.50400001928E-02 0.  1.
    10030    2    1    2    0    0  0.00000000000E+00  0.00000000000E+00  0.69648747702E+03  0.10592332968E+04  0.79804785033E+03 0.  0.
        2    1    3    3  502    0  0.24374548823E+03  0.84216393530E+02 -0.55903517820E+02  0.26387396098E+03  0.25500000920E-02 0.  1.
       -2    1    3    3    0  502 -0.24374548823E+03 -0.84216393530E+02  0.75239099484E+03  0.79535933583E+03  0.25500000920E-02 0. -1.
</event>
<event>
 5   0  0.6153659E-03  0.8002163E+03  0.7818609E-02  0.9559704E-01
        2   -1    0    0  501    0  0.00000000000E+00  0.00000000000E+00  0.22112996880E+03  0.22112996882E+03  0.25500000920E-02 0. -1.
       -2   -1    0    0    0  501  0.00000000000E+00  0.00000000000E+00 -0.72394765345E+03  0.72394765345E+03  0.25500000920E-02 0.  1.
    10030    2    1    2    0    0  0.00000000000E+00  0.00000000000E+00 -0.50281768464E+03  0.94507762227E+03  0.80021627584E+03 0.  0.
        2    1    3    3  502    0 -0.16403292957E+03  0.32978239479E+03 -0.43597930532E+03  0.57073740421E+03  0.25500000920E-02 0.  1.
       -2    1    3    3    0  502  0.16403292957E+03 -0.32978239479E+03 -0.66838379326E+02  0.37434021806E+03  0.25500000920E-02 0. -1.
</event>
<event>
 5   0  0.6256781E-03  0.7959688E+03  0.7818609E-02  0.9565870E-01
       -2   -1    0    0    0  501  0.00000000000E+00  0.00000000000E+00  0.25771885065E+03  0.25771885066E+03  0.25500000920E-02 0.  1.
        2   -1    0    0  501    0  0.00000000000E+00  0.00000000000E+00 -0.61459064113E+03  0.61459064113E+03  0.25500000920E-02 0. -1.
    10030    2    1    2    0    0  0.00000000000E+00  0.00000000000E+00 -0.35687179048E+03  0.87230949179E+03  0.79596882767E+03 0.  0.
        1    1    3    3  502    0  0.43489533383E+02  0.17490101838E+03 -0.56730591025E+03  0.59524591689E+03  0.50400001928E-02 0. -1.
       -1    1    3    3    0  502 -0.43489533383E+02 -0.17490101838E+03  0.21043411977E+03  0.27706357490E+03  0.50400001928E-02 0.  1.
</event>
<event>
 5   0  0.3714448E-03  0.8003873E+03  0.7818609E-02  0.9559457E-01
        1   -1    0    0  501    0  0.00000000000E+00  0.00000000000E+00  0.43691426025E+03  0.43691426028E+03  0.50400001928E-02 0.  1.
       -1   -1    0    0    0  501  0.00000000000E+00  0.00000000000E+00 -0.36655927495E+03  0.36655927498E+03  0.50400001928E-02 0. -1.
    10030    2    1    2    0    0  0.00000000000E+00  0.00000000000E+00  0.70354985303E+02  0.80347353526E+03  0.80038734242E+03 0.  0.
        1    1    3    3  502    0  0.30761955393E+03 -0.21463171801E+03 -0.10485378162E+03  0.38947513385E+03  0.50400001928E-02 0. -1.
       -1    1    3    3    0  502 -0.30761955393E+03  0.21463171801E+03  0.17520876692E+03  0.41399840141E+03  0.50400001928E-02 0.  1.
</event>
<event>
 5   0  0.3671128E-03  0.7928065E+03  0.7818609E-02  0.9570488E-01
        1   -1    0    0  501    0  0.00000000000E+00  0.00000000000E+00  0.17237184704E+04  0.17237184704E+04  0.50400001928E-02 0.  1.
       -1   -1    0    0    0  501  0.00000000000E+00  0.00000000000E+00 -0.91160797493E+02  0.91160797632E+02  0.50400001928E-02 0. -1.
    10030    2    1    2    0    0  0.00000000000E+00  0.00000000000E+00  0.16325576729E+04  0.18148792680E+04  0.79280653515E+03 0.  0.
        2    1    3    3  502    0  0.55675880593E+02 -0.18314473431E+03  0.21652812261E+02  0.19264122526E+03  0.25500000920E-02 0. -1.
       -2    1    3    3    0  502 -0.55675880593E+02  0.18314473431E+03  0.16109048606E+04  0.16222380428E+04  0.25500000920E-02 0.  1.
</event>
<event>
 5   0  0.6153659E-03  0.7560705E+03  0.7818609E-02  0.9625875E-01
       -2   -1    0    0    0  501  0.00000000000E+00  0.00000000000E+00  0.51146199735E+03  0.51146199736E+03  0.25500000920E-02 0.  1.
        2   -1    0    0  501    0  0.00000000000E+00  0.00000000000E+00 -0.27941594707E+03  0.27941594708E+03  0.25500000920E-02 0. -1.
    10030    2    1    2    0    0  0.00000000000E+00  0.00000000000E+00  0.23204605028E+03  0.79087794444E+03  0.75607046864E+03 0.  0.
        2    1    3    3  502    0 -0.13927241416E+03  0.62888512812E+02  0.47771434492E+03  0.50156033111E+03  0.25500000920E-02 0.  1.
       -2    1    3    3    0  502  0.13927241416E+03 -0.62888512812E+02 -0.24566829464E+03  0.28931761334E+03  0.25500000920E-02 0. -1.
</event>
<event>
 5   0  0.6337108E-03  0.8002073E+03  0.7818609E-02  0.9559717E-01
        2   -1    0    0  501    0  0.00000000000E+00  0.00000000000E+00  0.10352752597E+04  0.10352752597E+04  0.25500000920E-02 0. -1.
       -2   -1    0    0    0  501  0.00000000000E+00  0.00000000000E+00 -0.15462836989E+03  0.15462836991E+03  0.25500000920E-02 0.  1.
    10030    2    1    2    0    0  0.00000000000E+00  0.00000000000E+00  0.88064688977E+03  0.11899036296E+04  0.80020728764E+03 0.  0.
        4    1    3    3  502    0 -0.16597093450E+03  0.32504150914E+03  0.68413146319E+03  0.77539396798E+03  0.12699999809E+01 0. -1.
       -4    1    3    3    0  502  0.16597093450E+03 -0.32504150914E+03  0.19651542659E+03  0.41450966159E+03  0.12699999809E+01 0.  1.
</event>
<event>
 5   0  0.6536209E-03  0.7991955E+03  0.7818609E-02  0.9561182E-01
        2   -1    0    0  501    0  0.00000000000E+00  0.00000000000E+00  0.15577113880E+04  0.15577113880E+04  0.25500000920E-02 0.  1.
       -2   -1    0    0    0  501  0.00000000000E+00  0.00000000000E+00 -0.10250831977E+03  0.10250831980E+03  0.25500000920E-02 0. -1.
    10030    2    1    2    0    0  0.00000000000E+00  0.00000000000E+00  0.14552030682E+04  0.16602197078E+04  0.79919553825E+03 0.  0.
        3    1    3    3  502    0  0.19091621366E+03 -0.13863109862E+03  0.13975658950E+04  0.14173418865E+04  0.10100000352E+00 0.  1.
       -3    1    3    3    0  502 -0.19091621366E+03  0.13863109862E+03  0.57637173240E+02  0.24287782131E+03  0.10100000352E+00 0. -1.
</event>
<event>
 5   0  0.5813850E-03  0.7992138E+03  0.7818609E-02  0.9561156E-01
        2   -1    0    0  501    0  0.00000000000E+00  0.00000000000E+00  0.11057613037E+04  0.11057613037E+04  0.25500000920E-02 0. -1.
       -2   -1    0    0    0  501  0.00000000000E+00  0.00000000000E+00 -0.14441242872E+03  0.14441242874E+03  0.25500000920E-02 0.  1.
    10030    2    1    2    0    0  0.00000000000E+00  0.00000000000E+00  0.96134887502E+03  0.12501737325E+04  0.79921380237E+03 0.  0.
        5    1    3    3  502    0 -0.18109312003E+03  0.25597757545E+03  0.93243165552E+02  0.32716297953E+03  0.46999998093E+01 0.  1.
       -5    1    3    3    0  502  0.18109312003E+03 -0.25597757545E+03  0.86810570947E+03  0.92301075295E+03  0.46999998093E+01 0. -1.
</event>
<event>
 5   0  0.3860515E-03  0.8013467E+03  0.7818609E-02  0.9558070E-01
       -1   -1    0    0    0  501  0.00000000000E+00  0.00000000000E+00  0.62339947204E+03  0.62339947206E+03  0.50400001928E-02 0.  1.
        1   -1    0    0  501    0  0.00000000000E+00  0.00000000000E+00 -0.25752205882E+03  0.25752205887E+03  0.50400001928E-02 0. -1.
    10030    2    1    2    0    0  0.00000000000E+00  0.00000000000E+00  0.36587741322E+03  0.88092153093E+03  0.80134665542E+03 0.  0.
        4    1    3    3  502    0 -0.15562878604E+03 -0.36170547329E+03  0.26436373622E+03  0.47427941805E+03  0.12699999809E+01 0.  1.
       -4    1    3    3    0  502  0.15562878604E+03  0.36170547329E+03  0.10151367699E+03  0.40664211288E+03  0.12699999809E+01 0. -1.
</event>
<event>
 5   0  0.3627496E-03  0.7999677E+03  0.7818609E-02  0.9560064E-01
        1   -1    0    0  501    0  0.00000000000E+00  0.00000000000E+00  0.38653337979E+03  0.38653337982E+03  0.50400001928E-02 0. -1.
       -1   -1    0    0    0  501  0.00000000000E+00  0.00000000000E+00 -0.41390239522E+03  0.41390239525E+03  0.50400001928E-02 0.  1.
    10030    2    1    2    0    0  0.00000000000E+00  0.00000000000E+00 -0.27369015433E+02  0.80043577507E+03  0.79996772873E+03 0.  0.
        3    1    3    3  502    0 -0.39599176133E+03  0.54686350392E+02 -0.27367653966E+02  0.40068575048E+03  0.10100000352E+00 0.  1.
       -3    1    3    3    0  502  0.39599176133E+03 -0.54686350392E+02 -0.13614670671E-02  0.39975002459E+03  0.10100000352E+00 0. -1.
</event>
<event>
 5   0  0.3860515E-03  0.7988937E+03  0.7818609E-02  0.9561620E-01
       -1   -1    0    0    0  501  0.00000000000E+00  0.00000000000E+00  0.72196348630E+03  0.72196348632E+03  0.50400001928E-02 0.  1.
        1   -1    0    0  501    0  0.00000000000E+00  0.00000000000E+00 -0.22100533662E+03  0.22100533668E+03  0.50400001928E-02 0. -1.
    10030    2    1    2    0    0  0.00000000000E+00  0.00000000000E+00  0.50095814968E+03  0.94296882300E+03  0.79889369344E+03 0.  0.
        4    1    3    3  502    0 -0.11888068176E+03 -0.21053004237E+03 -0.12482676862E+03  0.27210080908E+03  0.12699999809E+01 0. -1.
       -4    1    3    3    0  502  0.11888068176E+03  0.21053004237E+03  0.62578491830E+03  0.67086801392E+03  0.12699999809E+01 0.  1.
</event>
<event>
 5   0  0.6337108E-03  0.7967299E+03  0.7818609E-02  0.9564762E-01
        2   -1    0    0  501    0  0.00000000000E+00  0.00000000000E+00  0.46602971532E+03  0.46602971533E+03  0.25500000920E-02 0.  1.
       -2   -1    0    0    0  501  0.00000000000E+00  0.00000000000E+00 -0.34052475166E+03  0.34052475167E+03  0.25500000920E-02 0. -1.
    10030    2    1    2    0    0  0.00000000000E+00  0.00000000000E+00  0.12550496366E+03  0.80655446701E+03  0.79672994945E+03 0.  0.
        4    1    3    3  502    0 -0.37616095588E+03  0.12819200269E+03  0.90711626838E+02  0.40762785286E+03  0.12699999809E+01 0. -1.
       -4    1    3    3    0  502  0.37616095588E+03 -0.12819200269E+03  0.34793336822E+02  0.39892661414E+03  0.12699999809E+01 0.  1.
</event>
<event>
 5   0  0.6337108E-03  0.8036884E+03  0.7818609E-02  0.9554694E-01
       -2   -1    0    0    0  501  0.00000000000E+00  0.00000000000E+00  0.59170806924E+03  0.59170806924E+03  0.25500000920E-02 0.  1.
        2   -1    0    0  501    0  0.00000000000E+00  0.00000000000E+00 -0.27290275793E+03  0.27290275795E+03  0.25500000920E-02 0. -1.
    10030    2    1    2    0    0  0.00000000000E+00  0.00000000000E+00  0.31880531130E+03  0.86461082719E+03  0.80368840727E+03 0.  0.
        4    1    3    3  502    0  0.22951096536E+03 -0.17665889359E+03 -0.14026898512E+03  0.32180840416E+03  0.12699999809E+01 0. -1.
       -4    1    3    3    0  502 -0.22951096536E+03  0.17665889359E+03  0.45907429643E+03  0.54280242303E+03  0.12699999809E+01 0.  1.
</event>
<event>
 5   0  0.3753450E-03  0.7996914E+03  0.7818609E-02  0.9560464E-01
        1   -1    0    0  501    0  0.00000000000E+00  0.00000000000E+00  0.12011426740E+04  0.12011426740E+04  0.50400001928E-02 0. -1.
       -1   -1    0    0    0  501  0.00000000000E+00  0.00000000000E+00 -0.13310374581E+03  0.13310374591E+03  0.50400001928E-02 0.  1.
    10030    2    1    2    0    0  0.00000000000E+00  0.00000000000E+00  0.10680389282E+04  0.13342464199E+04  0.79969141357E+03 0.  0.
        5    1    3    3  502    0 -0.84603299453E+02  0.78164822227E+02 -0.10477538144E+03  0.15578006376E+03  0.46999998093E+01 0.  1.
       -5    1    3    3    0  502  0.84603299453E+02 -0.78164822227E+02  0.11728143096E+04  0.11784663562E+04  0.46999998093E+01 0. -1.
</event>
<event>
 5   0  0.6153659E-03  0.7990122E+03  0.7818609E-02  0.9561448E-01
        2   -1    0    0  501    0  0.00000000000E+00  0.00000000000E+00  0.38988679230E+03  0.38988679231E+03  0.25500000920E-02 0.  1.
       -2   -1    0    0    0  501  0.00000000000E+00  0.00000000000E+00 -0.40936278264E+03  0.40936278264E+03  0.25500000920E-02 0. -1.
    10030    2    1    2    0    0  0.00000000000E+00  0.00000000000E+00 -0.19475990333E+02  0.79924957496E+03  0.79901224576E+03 0.  0.
        2    1    3    3  502    0  0.28187405967E+03 -0.79795514626E+02  0.26197632431E+03  0.39300369486E+03  0.25500000920E-02 0.  1.
       -2    1    3    3    0  502 -0.28187405967E+03  0.79795514626E+02 -0.28145231464E+03  0.40624588009E+03  0.25500000920E-02 0. -1.
</event>
<event>
 5   0  0.3671128E-03  0.7941911E+03  0.7818609E-02  0.9568463E-01
        1   -1    0    0  501    0  0.00000000000E+00  0.00000000000E+00  0.64775385849E+03  0.64775385851E+03  0.50400001928E-02 0.  1.
       -1   -1    0    0    0  501  0.00000000000E+00  0.00000000000E+00 -0.24343333574E+03  0.24343333579E+03  0.50400001928E-02 0. -1.
    10030    2    1    2    0    0  0.00000000000E+00  0.00000000000E+00  0.40432052275E+03  0.89118719430E+03  0.79419111691E+03 0.  0.
        2    1    3    3  502    0  0.21064124977E+03 -0.29752751954E+03  0.37884712514E+03  0.52575422511E+03  0.25500000920E-02 0.  1.
       -2    1    3    3    0  502 -0.21064124977E+03  0.29752751954E+03  0.25473397608E+02  0.36543296920E+03  0.25500000920E-02 0. -1.
</event>
<event>
 5   0  0.3627496E-03  0.8065180E+03  0.7818609E-02  0.9550630E-01
        1   -1    0    0  501    0  0.00000000000E+00  0.00000000000E+00  0.30572076268E+03  0.30572076272E+03  0.50400001928E-02 0. -1.
       -1   -1    0    0    0  501  0.00000000000E+00  0.00000000000E+00 -0.53191621246E+03  0.53191621248E+03  0.50400001928E-02 0.  1.
    10030    2    1    2    0    0  0.00000000000E+00  0.00000000000E+00 -0.22619544978E+03  0.83763697520E+03  0.80651802257E+03 0.  0.
        3    1    3    3  502    0  0.13107340533E+03  0.79160152176E+02 -0.50054849764E+03  0.52344567623E+03  0.10100000352E+00 0.  1.
       -3    1    3    3    0  502 -0.13107340533E+03 -0.79160152176E+02  0.27435304786E+03  0.31419129897E+03  0.10100000352E+00 0. -1.
</event>
<event>
 5   0  0.5813850E-03  0.7983448E+03  0.7818609E-02  0.9562416E-01
       -2   -1    0    0    0  501  0.00000000000E+00  0.00000000000E+00  0.28944176599E+03  0.28944176600E+03  0.25500000920E-02 0. -1.
        2   -1    0    0  501    0  0.00000000000E+00  0.00000000000E+00 -0.55050315482E+03  0.55050315483E+03  0.25500000920E-02 0.  1.
    10030    2    1    2    0    0  0.00000000000E+00  0.00000000000E+00 -0.26106138883E+03  0.83994492083E+03  0.79834480101E+03 0.  0.
        5    1    3    3  502    0 -0.12922770105E+03 -0.33014151611E+03 -0.32345211378E+03  0.47993393221E+03  0.46999998093E+01 0.  1.
       -5    1    3    3    0  502  0.12922770105E+03  0.33014151611E+03  0.62390724948E+02  0.36001098863E+03  0.46999998093E+01 0. -1.
</event>
<event>
 5   0  0.6256781E-03  0.8013603E+03  0.7818609E-02  0.9558050E-01
        2   -1    0    0  501    0  0.00000000000E+00  0.00000000000E+00  0.11809093751E+04  0.11809093751E+04  0.25500000920E-02 0.  1.
       -2   -1    0    0    0  501  0.00000000000E+00  0.00000000000E+00 -0.13594996627E+03  0.13594996630E+03  0.25500000920E-02 0. -1.
    10030    2    1    2    0    0  0.00000000000E+00  0.00000000000E+00  0.10449594088E+04  0.13168593414E+04  0.80136031778E+03 0.  0.
        1    1    3    3  502    0  0.25478545350E+02  0.12752621636E+03  0.11452643719E+04  0.11526242118E+04  0.50400001928E-02 0.  1.
       -1    1    3    3    0  502 -0.25478545350E+02 -0.12752621636E+03 -0.10030496309E+03  0.16423512955E+03  0.50400001928E-02 0. -1.
</event>
<event>
 5   0  0.3860515E-03  0.8008681E+03  0.7818609E-02  0.9558761E-01
       -1   -1    0    0    0  501  0.00000000000E+00  0.00000000000E+00  0.13659334749E+03  0.13659334758E+03  0.50400001928E-02 0.  1.
        1   -1    0    0  501    0  0.00000000000E+00  0.00000000000E+00 -0.11739036511E+04  0.11739036511E+04  0.50400001928E-02 0. -1.
    10030    2    1    2    0    0  0.00000000000E+00  0.00000000000E+00 -0.10373103036E+04  0.13104969987E+04  0.80086810250E+03 0.  0.
        4    1    3    3  502    0  0.13206035148E+03  0.17796678492E+03 -0.10644045088E+04  0.10872307410E+04  0.12699999809E+01 0. -1.
       -4    1    3    3    0  502 -0.13206035148E+03 -0.17796678492E+03  0.27094205176E+02  0.22326625768E+03  0.12699999809E+01 0.  1.
</event>
<event>
 5   0  0.3671128E-03  0.7932266E+03  0.7818609E-02  0.9569873E-01
       -1   -1    0    0    0  501  0.00000000000E+00  0.00000000000E+00  0.16871634132E+03  0.16871634139E+03  0.50400001928E-02 0.  1.
        1   -1    0    0  501    0  0.00000000000E+00  0.00000000000E+00 -0.93234655426E+03  0.93234655427E+03  0.50400001928E-02 0. -1.
    10030    2    1    2    0    0  0.00000000000E+00  0.00000000000E+00 -0.76363021294E+03  0.11010628957E+04  0.79322657425E+03 0.  0.
        2    1    3    3  502    0  0.15643611862E+03 -0.15096035536E+02  0.12364842566E+03  0.19997270482E+03  0.25500000920E-02 0.  1.
       -2    1    3    3    0  502 -0.15643611862E+03  0.15096035536E+02 -0.88727863860E+03  0.90109019084E+03  0.25500000920E-02 0. -1.
</event>
<event>
 5   0  0.3627496E-03  0.8002431E+03  0.7818609E-02  0.9559665E-01
        1   -1    0    0  501    0  0.00000000000E+00  0.00000000000E+00  0.27692476716E+03  0.27692476721E+03  0.50400001928E-02 0. -1.
       -1   -1    0    0    0  501  0.00000000000E+00  0.00000000000E+00 -0.57812549697E+03  0.57812549699E+03  0.50400001928E-02 0.  1.
    10030    2    1    2    0    0  0.00000000000E+00  0.00000000000E+00 -0.30120072981E+03  0.85505026420E+03  0.80024313473E+03 0.  0.
        3    1    3    3  502    0 -0.16461122665E+03 -0.45595982469E+02  0.23601136246E+03  0.29133695778E+03  0.10100000352E+00 0. -1.
       -3    1    3    3    0  502  0.16461122665E+03  0.45595982469E+02 -0.53721209227E+03  0.56371330642E+03  0.10100000352E+00 0.  1.
</event>
<event>
 5   0  0.6337108E-03  0.7983426E+03  0.7818609E-02  0.9562419E-01
       -2   -1    0    0    0  501  0.00000000000E+00  0.00000000000E+00  0.38059142288E+03  0.38059142289E+03  0.25500000920E-02 0.  1.
        2   -1    0    0  501    0  0.00000000000E+00  0.00000000000E+00 -0.41865820751E+03  0.41865820752E+03  0.25500000920E-02 0. -1.
    10030    2    1    2    0    0  0.00000000000E+00  0.00000000000E+00 -0.38066784635E+02  0.79924963041E+03  0.79834259038E+03 0.  0.
        4    1    3    3  502    0 -0.17541203669E+03 -0.34509545246E+03  0.78421214410E+02  0.39498323217E+03  0.12699999809E+01 0.  1.
       -4    1    3    3    0  502  0.17541203669E+03  0.34509545246E+03 -0.11648799904E+03  0.40426639824E+03  0.12699999809E+01 0. -1.
</event>
<event>
 5   0  0.3753450E-03  0.8019134E+03  0.7818609E-02  0.9557252E-01
       -1   -1    0    0    0  501  0.00000000000E+00  0.00000000000E+00  0.70776827618E+03  0.70776827620E+03  0.50400001928E-02 0. -1.
        1   -1    0    0  501    0  0.00000000000E+00  0.00000000000E+00 -0.22714533174E+03  0.22714533180E+03  0.50400001928E-02 0.  1.
    10030    2    1    2    0    0  0.00000000000E+00  0.00000000000E+00  0.48062294444E+03  0.93491360799E+03  0.80191336171E+03 0.  0.
        5    1    3    3  502    0  0.80163811246E+02 -0.13083233909E+03  0.67215101191E+03  0.68945805557E+03  0.46999998093E+01 0. -1.
       -5    1    3    3    0  502 -0.80163811246E+02  0.13083233909E+03 -0.19152806747E+03  0.24545555242E+03  0.46999998093E+01 0.  1.
</event>
<event>
 5   0  0.6536209E-03  0.7847183E+03  0.7818609E-02  0.9582404E-01
        2   -1    0    0  501    0  0.00000000000E+00  0.00000000000E+00  0.12463466093E+04  0.12463466093E+04  0.25500000920E-02 0.  1.
       -2   -1    0    0    0  501  0.00000000000E+00  0.00000000000E+00 -0.12351757091E+03  0.12351757094E+03  0.25500000920E-02 0. -1.
    10030    2    1    2    0    0  0.00000000000E+00  0.00000000000E+00  0.11228290384E+04  0.13698641803E+04  0.78471830798E+03 0.  0.
        3    1    3    3  502    0  0.32738807655E+03  0.21005063671E+03  0.65113401034E+03  0.75847197198E+03  0.10100000352E+00 0. -1.
       -3    1    3    3    0  502 -0.32738807655E+03 -0.21005063671E+03  0.47169502807E+03  0.61139220829E+03  0.10100000352E+00 0.  1.
</event>
<event>
 5   0  0.6536209E-03  0.7875473E+03  0.7818609E-02  0.9578219E-01
        2   -1    0    0  501    0  0.00000000000E+00  0.00000000000E+00  0.47505216020E+03  0.47505216021E+03  0.25500000920E-02 0. -1.
       -2   -1    0    0    0  501  0.00000000000E+00  0.00000000000E+00 -0.32640138607E+03  0.32640138608E+03  0.25500000920E-02 0.  1.
    10030    2    1    2    0    0  0.00000000000E+00  0.00000000000E+00  0.14865077414E+03  0.80145354629E+03  0.78754729014E+03 0.  0.
        3    1    3    3  502    0  0.34349343647E+03 -0.19036891016E+03  0.45013833730E+02  0.39529016972E+03  0.10100000352E+00 0.  1.
       -3    1    3    3    0  502 -0.34349343647E+03  0.19036891016E+03  0.10363694041E+03  0.40616337657E+03  0.10100000352E+00 0. -1.
</event>
<event>
 5   0  0.3753450E-03  0.7991494E+03  0.7818609E-02  0.9561249E-01
       -1   -1    0    0    0  501  0.00000000000E+00  0.00000000000E+00  0.32355200244E+03  0.32355200247E+03  0.50400001928E-02 0.  1.
        1   -1    0    0  501    0  0.00000000000E+00  0.00000000000E+00 -0.49345994314E+03  0.49345994317E+03  0.50400001928E-02 0. -1.
    10030    2    1    2    0    0  0.00000000000E+00  0.00000000000E+00 -0.16990794071E+03  0.81701194564E+03  0.79914942971E+03 0.  0.
        5    1    3    3  502    0 -0.37550158506E+03 -0.11234989639E+03 -0.56711027835E+01  0.39201810036E+03  0.46999998093E+01 0. -1.
       -5    1    3    3    0  502  0.37550158506E+03  0.11234989639E+03 -0.16423683793E+03  0.42499384529E+03  0.46999998093E+01 0.  1.
</event>
<event>
 5   0  0.2478000E-03  0.7965966E+03  0.7818609E-02  0.9564956E-01
       -3   -1    0    0    0  501  0.00000000000E+00  0.00000000000E+00  0.72212981128E+03  0.72212981834E+03  0.10100000352E+00 0. -1.
        3   -1    0    0  501    0  0.00000000000E+00  0.00000000000E+00 -0.21968561006E+03  0.21968563327E+03  0.10100000352E+00 0.  1.
    10030    2    1    2    0    0  0.00000000000E+00  0.00000000000E+00  0.50244420123E+03  0.94181545162E+03  0.79659661659E+03 0.  0.
        5    1    3    3  502    0  0.21197452359E+03  0.17613203821E+03 -0.88704325728E+02  0.28956215384E+03  0.46999998093E+01 0.  1.
       -5    1    3    3    0  502 -0.21197452359E+03 -0.17613203821E+03  0.59114852695E+03  0.65225329777E+03  0.46999998093E+01 0. -1.
</event>
<event>
 5   0  0.2478000E-03  0.7941753E+03  0.7818609E-02  0.9568487E-01
        3   -1    0    0  501    0  0.00000000000E+00  0.00000000000E+00  0.47718003464E+03  0.47718004532E+03  0.10100000352E+00 0. -1.
       -3   -1    0    0    0  501  0.00000000000E+00  0.00000000000E+00 -0.33043837708E+03  0.33043839251E+03  0.10100000352E+00 0.  1.
    10030    2    1    2    0    0  0.00000000000E+00  0.00000000000E+00  0.14674165756E+03  0.80761843784E+03  0.79417531256E+03 0.  0.
        1    1    3    3  502    0 -0.35020441377E+03 -0.12504957932E+03  0.21500537442E+03  0.42954375768E+03  0.50400001928E-02 0. -1.
       -1    1    3    3    0  502  0.35020441377E+03  0.12504957932E+03 -0.68263716861E+02  0.37807468016E+03  0.50400001928E-02 0.  1.
</event>
<event>
 5   0  0.3753450E-03  0.7985186E+03  0.7818609E-02  0.9562164E-01
        1   -1    0    0  501    0  0.00000000000E+00  0.00000000000E+00  0.72478475394E+03  0.72478475396E+03  0.50400001928E-02 0.  1.
       -1   -1    0    0    0  501  0.00000000000E+00  0.00000000000E+00 -0.21993838849E+03  0.21993838855E+03  0.50400001928E-02 0. -1.
    10030    2    1    2    0    0  0.00000000000E+00  0.00000000000E+00  0.50484636545E+03  0.94472314251E+03  0.79851860547E+03 0.  0.
        5    1    3    3  502    0  0.24789280996E+03  0.29099726640E+03  0.11620973921E+03  0.39957107974E+03  0.46999998093E+01 0. -1.
       -5    1    3    3    0  502 -0.24789280996E+03 -0.29099726640E+03  0.38863662624E+03  0.54515206277E+03  0.46999998093E+01 0.  1.
</event>
<event>
 5   0  0.6536209E-03  0.8013982E+03  0.7818609E-02  0.9557995E-01
        2   -1    0    0  501    0  0.00000000000E+00  0.00000000000E+00  0.17117805491E+04  0.17117805491E+04  0.25500000920E-02 0.  1.
       -2   -1    0    0    0  501  0.00000000000E+00  0.00000000000E+00 -0.93796941708E+02  0.93796941743E+02  0.25500000920E-02 0. -1.
    10030    2    1    2    0    0  0.00000000000E+00  0.00000000000E+00  0.16179836074E+04  0.18055774908E+04  0.80139822912E+03 0.  0.
        3    1    3    3  502    0 -0.20819455594E+03  0.13433439838E+03  0.15184974666E+04  0.15385789775E+04  0.10100000352E+00 0.  1.
       -3    1    3    3    0  502  0.20819455594E+03 -0.13433439838E+03  0.99486140753E+02  0.26699851331E+03  0.10100000352E+00 0. -1.
</event>
<event>
 5   0  0.3753450E-03  0.7997248E+03  0.7818609E-02  0.9560415E-01
        1   -1    0    0  501    0  0.00000000000E+00  0.00000000000E+00  0.12758377010E+04  0.12758377010E+04  0.50400001928E-02 0. -1.
       -1   -1    0    0    0  501  0.00000000000E+00  0.00000000000E+00 -0.12532155023E+03  0.12532155033E+03  0.50400001928E-02 0.  1.
    10030    2    1    2    0    0  0.00000000000E+00  0.00000000000E+00  0.11505161507E+04  0.14011592513E+04  0.79972484918E+03 0.  0.
        5    1    3    3  502    0 -0.18956861644E+03  0.34492514339E+03  0.45188758784E+03  0.59927797968E+03  0.46999998093E+01 0. -1.
       -5    1    3    3    0  502  0.18956861644E+03 -0.34492514339E+03  0.69862856291E+03  0.80188127163E+03  0.46999998093E+01 0.  1.
</event>
<event>
 5   0  0.6153659E-03  0.8011374E+03  0.7818609E-02  0.9558372E-01
        2   -1    0    0  501    0  0.00000000000E+00  0.00000000000E+00  0.38334480688E+03  0.38334480689E+03  0.25500000920E-02 0.  1.
       -2   -1    0    0    0  501  0.00000000000E+00  0.00000000000E+00 -0.41856643778E+03  0.41856643779E+03  0.25500000920E-02 0. -1.
    10030    2    1    2    0    0  0.00000000000E+00  0.00000000000E+00 -0.35221630895E+02  0.80191124468E+03  0.80113736716E+03 0.  0.
        2    1    3    3  502    0 -0.32370781335E+03 -0.19833761213E+03  0.11030430782E+03  0.39533732070E+03  0.25500000920E-02 0.  1.
       -2    1    3    3    0  502  0.32370781335E+03  0.19833761213E+03 -0.14552593872E+03  0.40657392398E+03  0.25500000920E-02 0. -1.
</event>
<event>
 5   0  0.6256781E-03  0.8025311E+03  0.7818609E-02  0.9556361E-01
        2   -1    0    0  501    0  0.00000000000E+00  0.00000000000E+00  0.32001122169E+03  0.32001122170E+03  0.25500000920E-02 0.  1.
       -2   -1    0    0    0  501  0.00000000000E+00  0.00000000000E+00 -0.50315117545E+03  0.50315117546E+03  0.25500000920E-02 0. -1.
    10030    2    1    2    0    0  0.00000000000E+00  0.00000000000E+00 -0.18313995376E+03  0.82316239716E+03  0.80253105201E+03 0.  0.
        1    1    3    3  502    0 -0.72854892593E+02 -0.22835201945E+03 -0.42165280555E+03  0.48501914253E+03  0.50400001928E-02 0. -1.
       -1    1    3    3    0  502  0.72854892593E+02  0.22835201945E+03  0.23851285179E+03  0.33814325464E+03  0.50400001928E-02 0.  1.
</event>
<event>
 5   0  0.3714448E-03  0.8007189E+03  0.7818609E-02  0.9558977E-01
       -1   -1    0    0    0  501  0.00000000000E+00  0.00000000000E+00  0.27656971091E+03  0.27656971096E+03  0.50400001928E-02 0. -1.
        1   -1    0    0  501    0  0.00000000000E+00  0.00000000000E+00 -0.57955622380E+03  0.57955622382E+03  0.50400001928E-02 0.  1.
    10030    2    1    2    0    0  0.00000000000E+00  0.00000000000E+00 -0.30298651289E+03  0.85612593478E+03  0.80071892022E+03 0.  0.
        1    1    3    3  502    0  0.48431479540E+02 -0.34833133463E+03 -0.35606320195E+03  0.50046111807E+03  0.50400001928E-02 0.  1.
       -1    1    3    3    0  502 -0.48431479540E+02  0.34833133463E+03  0.53076689060E+02  0.35566481671E+03  0.50400001928E-02 0. -1.
</event>
<event>
 5   0  0.6337108E-03  0.8009925E+03  0.7818609E-02  0.9558582E-01
       -2   -1    0    0    0  501  0.00000000000E+00  0.00000000000E+00  0.39934597136E+03  0.39934597137E+03  0.25500000920E-02 0.  1.
        2   -1    0    0  501    0  0.00000000000E+00  0.00000000000E+00 -0.40164984688E+03  0.40164984689E+03  0.25500000920E-02 0. -1.
    10030    2    1    2    0    0  0.00000000000E+00  0.00000000000E+00 -0.23038755223E+01  0.80099581826E+03  0.80099250498E+03 0.  0.
        4    1    3    3  502    0 -0.18530245056E+02  0.72165985624E+02  0.39235234038E+03  0.39936608690E+03  0.12699999809E+01 0.  1.
       -4    1    3    3    0  502  0.18530245056E+02 -0.72165985624E+02 -0.39465621590E+03  0.40162973136E+03  0.12699999809E+01 0. -1.
</event>
<event>
 5   0  0.6337108E-03  0.7975158E+03  0.7818609E-02  0.9563620E-01
       -2   -1    0    0    0  501  0.00000000000E+00  0.00000000000E+00  0.16417074868E+03  0.16417074870E+03  0.25500000920E-02 0. -1.
        2   -1    0    0  501    0  0.00000000000E+00  0.00000000000E+00 -0.96855175740E+03  0.96855175741E+03  0.25500000920E-02 0.  1.
    10030    2    1    2    0    0  0.00000000000E+00  0.00000000000E+00 -0.80438100872E+03  0.11327225061E+04  0.79751581091E+03 0.  0.
        4    1    3    3  502    0  0.13848069197E+03  0.92501230039E+02  0.11241179885E+03  0.20092636718E+03  0.12699999809E+01 0. -1.
       -4    1    3    3    0  502 -0.13848069197E+03 -0.92501230039E+02 -0.91679280757E+03  0.93179613893E+03  0.12699999809E+01 0.  1.
</event>
<event>
 5   0  0.5813850E-03  0.8005177E+03  0.7818609E-02  0.9559268E-01
       -2   -1    0    0    0  501  0.00000000000E+00  0.00000000000E+00  0.13001256379E+03  0.13001256382E+03  0.25500000920E-02 0.  1.
        2   -1    0    0  501    0  0.00000000000E+00  0.00000000000E+00 -0.12322434797E+04  0.12322434797E+04  0.25500000920E-02 0. -1.
    10030    2    1    2    0    0  0.00000000000E+00  0.00000000000E+00 -0.11022309159E+04  0.13622560435E+04  0.80051766760E+03 0.  0.
        5    1    3    3  502    0 -0.83572872668E+02  0.39073277188E+03 -0.59023723040E+03  0.71278229651E+03  0.46999998093E+01 0. -1.
       -5    1    3    3    0  502  0.83572872668E+02 -0.39073277188E+03 -0.51199368553E+03  0.64947374704E+03  0.46999998093E+01 0.  1.
</event>
<event>
 5   0  0.3860515E-03  0.8025639E+03  0.7818609E-02  0.9556313E-01
        1   -1    0    0  501    0  0.00000000000E+00  0.00000000000E+00  0.76089673096E+03  0.76089673097E+03  0.50400001928E-02 0.  1.
       -1   -1    0    0    0  501  0.00000000000E+00  0.00000000000E+00 -0.21162821384E+03  0.21162821390E+03  0.50400001928E-02 0. -1.
    10030    2    1    2    0    0  0.00000000000E+00  0.00000000000E+00  0.54926851712E+03  0.97252494487E+03  0.80256393172E+03 0.  0.
        4    1    3    3  502    0  0.21568768653E+03  0.12979058741E+03  0.65331818082E+03  0.70013786713E+03  0.12699999809E+01 0.  1.
       -4    1    3    3    0  502 -0.21568768653E+03 -0.12979058741E+03 -0.10404966370E+03  0.27238707774E+03  0.12699999809E+01 0. -1.
</event>
<event>
 5   0  0.3671128E-03  0.7980148E+03  0.7818609E-02  0.9562895E-01
       -1   -1    0    0    0  501  0.00000000000E+00  0.00000000000E+00  0.10397867892E+03  0.10397867904E+03  0.50400001928E-02 0. -1.
        1   -1    0    0  501    0  0.00000000000E+00  0.00000000000E+00 -0.15311494997E+04  0.15311494997E+04  0.50400001928E-02 0.  1.
    10030    2    1    2    0    0  0.00000000000E+00  0.00000000000E+00 -0.14271708207E+04  0.16351281787E+04  0.79801479262E+03 0.  0.
        2    1    3    3  502    0  0.24651354911E+03  0.31238446636E+03 -0.65370995352E+03  0.76530365742E+03  0.25500000920E-02 0.  1.
       -2    1    3    3    0  502 -0.24651354911E+03 -0.31238446636E+03 -0.77346086722E+03  0.86982452129E+03  0.25500000920E-02 0. -1.
</event>
<event>
 5   0  0.6536209E-03  0.8002303E+03  0.7818609E-02  0.9559684E-01
       -2   -1    0    0    0  501  0.00000000000E+00  0.00000000000E+00  0.36323197835E+03  0.36323197835E+03  0.25500000920E-02 0.  1.
        2   -1    0    0  501    0  0.00000000000E+00  0.00000000000E+00 -0.44074351931E+03  0.44074351931E+03  0.25500000920E-02 0. -1.
    10030    2    1    2    0    0  0.00000000000E+00  0.00000000000E+00 -0.77511540961E+02  0.80397549767E+03  0.80023031801E+03 0.  0.
        3    1    3    3  502    0  0.36752984561E+03 -0.93370456799E+02 -0.16700861201E+03  0.41435264728E+03  0.10100000352E+00 0.  1.
       -3    1    3    3    0  502 -0.36752984561E+03  0.93370456799E+02  0.89497071048E+02  0.38962285039E+03  0.10100000352E+00 0. -1.
</event>
<event>
 5   0  0.6337108E-03  0.8016566E+03  0.7818609E-02  0.9557622E-01
        2   -1    0    0  501    0  0.00000000000E+00  0.00000000000E+00  0.13659150059E+04  0.13659150059E+04  0.25500000920E-02 0. -1.
       -2   -1    0    0    0  501  0.00000000000E+00  0.00000000000E+00 -0.11762322576E+03  0.11762322579E+03  0.25500000920E-02 0.  1.
    10030    2    1    2    0    0  0.00000000000E+00  0.00000000000E+00  0.12482917801E+04  0.14835382317E+04  0.80165660761E+03 0.  0.
        4    1    3    3  502    0 -0.37915816856E+02 -0.37622266616E+03  0.87021608862E+03  0.94881966542E+03  0.12699999809E+01 0. -1.
       -4    1    3    3    0  502  0.37915816856E+02  0.37622266616E+03  0.37807569151E+03  0.53471856626E+03  0.12699999809E+01 0.  1.
</event>
<event>
 5   0  0.6337108E-03  0.7998701E+03  0.7818609E-02  0.9560205E-01
        2   -1    0    0  501    0  0.00000000000E+00  0.00000000000E+00  0.11476785674E+04  0.11476785674E+04  0.25500000920E-02 0. -1.
       -2   -1    0    0    0  501  0.00000000000E+00  0.00000000000E+00 -0.13936658745E+03  0.13936658747E+03  0.25500000920E-02 0.  1.
    10030    2    1    2    0    0  0.00000000000E+00  0.00000000000E+00  0.10083119799E+04  0.12870451548E+04  0.79987010306E+03 0.  0.
        4    1    3    3  502    0 -0.28896548097E+03  0.15343910792E+03  0.87424794173E+03  0.93346434616E+03  0.12699999809E+01 0. -1.
       -4    1    3    3    0  502  0.28896548097E+03 -0.15343910792E+03  0.13406403818E+03  0.35358080868E+03  0.12699999809E+01 0.  1.
</event>
<event>
 5   0  0.3627496E-03  0.8011727E+03  0.7818609E-02  0.9558321E-01
        1   -1    0    0  501    0  0.00000000000E+00  0.00000000000E+00  0.45563797984E+03  0.45563797986E+03  0.50400001928E-02 0.  1.
       -1   -1    0    0    0  501  0.00000000000E+00  0.00000000000E+00 -0.35218625443E+03  0.35218625447E+03  0.50400001928E-02 0. -1.
    10030    2    1    2    0    0  0.00000000000E+00  0.00000000000E+00  0.10345172541E+03  0.80782423433E+03  0.80117272425E+03 0.  0.
        3    1    3    3  502    0 -0.17631644572E+03 -0.17877449955E+03  0.36644154131E+03  0.44421529028E+03  0.10100000352E+00 0.  1.
       -3    1    3    3    0  502  0.17631644572E+03  0.17877449955E+03 -0.26298981590E+03  0.36360894405E+03  0.10100000352E+00 0. -1.
</event>
<event>
 5   0  0.3714448E-03  0.8065940E+03  0.7818609E-02  0.9550521E-01
        1   -1    0    0  501    0  0.00000000000E+00  0.00000000000E+00  0.32513557533E+03  0.32513557537E+03  0.50400001928E-02 0. -1.
       -1   -1    0    0    0  501  0.00000000000E+00  0.00000000000E+00 -0.50024817506E+03  0.50024817509E+03  0.50400001928E-02 0.  1.
    10030    2    1    2    0    0  0.00000000000E+00  0.00000000000E+00 -0.17511259973E+03  0.82538375045E+03  0.80659401989E+03 0.  0.
        1    1    3    3  502    0  0.11361606383E+03 -0.21251263209E+02 -0.48293542246E+03  0.49657511863E+03  0.50400001928E-02 0.  1.
       -1    1    3    3    0  502 -0.11361606383E+03  0.21251263209E+02  0.30782282273E+03  0.32880863183E+03  0.50400001928E-02 0. -1.
</event>
<event>
 5   0  0.3671128E-03  0.7982311E+03  0.7818609E-02  0.9562581E-01
        1   -1    0    0  501    0  0.00000000000E+00  0.00000000000E+00  0.10683855547E+04  0.10683855547E+04  0.50400001928E-02 0.  1.
       -1   -1    0    0    0  501  0.00000000000E+00  0.00000000000E+00 -0.14909712311E+03  0.14909712319E+03  0.50400001928E-02 0. -1.
    10030    2    1    2    0    0  0.00000000000E+00  0.00000000000E+00  0.91928843160E+03  0.12174826779E+04  0.79823107591E+03 0.  0.
        2    1    3    3  502    0 -0.38826336433E+02 -0.20731652780E+03 -0.57147649071E+02  0.21852569849E+03  0.25500000920E-02 0. -1.
       -2    1    3    3    0  502  0.38826336433E+02  0.20731652780E+03  0.97643608067E+03  0.99895697942E+03  0.25500000920E-02 0.  1.
</event>
<event>
 5   0  0.6256781E-03  0.8217484E+03  0.7818609E-02  0.9529060E-01
        2   -1    0    0  501    0  0.00000000000E+00  0.00000000000E+00  0.55283259078E+03  0.55283259079E+03  0.25500000920E-02 0. -1.
       -2   -1    0    0    0  501  0.00000000000E+00  0.00000000000E+00 -0.30536843343E+03  0.30536843344E+03  0.25500000920E-02 0.  1.
    10030    2    1    2    0    0  0.00000000000E+00  0.00000000000E+00  0.24746415736E+03  0.85820102423E+03  0.82174843402E+03 0.  0.
        1    1    3    3  502    0 -0.23398328215E+03 -0.20622917228E+03  0.40306459785E+03  0.50964665984E+03  0.50400001928E-02 0. -1.
       -1    1    3    3    0  502  0.23398328215E+03  0.20622917228E+03 -0.15560044049E+03  0.34855436438E+03  0.50400001928E-02 0.  1.
</event>
<event>
 5   0  0.6337108E-03  0.8005667E+03  0.7818609E-02  0.9559197E-01
       -2   -1    0    0    0  501  0.00000000000E+00  0.00000000000E+00  0.41736548214E+03  0.41736548215E+03  0.25500000920E-02 0. -1.
        2   -1    0    0  501    0  0.00000000000E+00  0.00000000000E+00 -0.38390034963E+03  0.38390034964E+03  0.25500000920E-02 0.  1.
    10030    2    1    2    0    0  0.00000000000E+00  0.00000000000E+00  0.33465132512E+02  0.80126583179E+03  0.80056668560E+03 0.  0.
        4    1    3    3  502    0  0.21256775765E+03 -0.25674205190E+03 -0.20509945795E+03  0.39136802802E+03  0.12699999809E+01 0.  1.
       -4    1    3    3    0  502 -0.21256775765E+03  0.25674205190E+03  0.23856459046E+03  0.40989780376E+03  0.12699999809E+01 0. -1.
</event>
<event>
 5   0  0.3753450E-03  0.8016997E+03  0.7818609E-02  0.9557560E-01
       -1   -1    0    0    0  501  0.00000000000E+00  0.00000000000E+00  0.33956941962E+03  0.33956941966E+03  0.50400001928E-02 0.  1.
        1   -1    0    0  501    0  0.00000000000E+00  0.00000000000E+00 -0.47318929613E+03  0.47318929616E+03  0.50400001928E-02 0. -1.
    10030    2    1    2    0    0  0.00000000000E+00  0.00000000000E+00 -0.13361987651E+03  0.81275871582E+03  0.80169973103E+03 0.  0.
        5    1    3    3  502    0  0.25337905211E+03 -0.30373273189E+03 -0.13254266919E+03  0.41718600842E+03  0.46999998093E+01 0. -1.
       -5    1    3    3    0  502 -0.25337905211E+03  0.30373273189E+03 -0.10772073160E+01  0.39557270740E+03  0.46999998093E+01 0.  1.
</event>
<event>
 5   0  0.6256781E-03  0.8032092E+03  0.7818609E-02  0.9555383E-01
       -2   -1    0    0    0  501  0.00000000000E+00  0.00000000000E+00  0.26303730644E+03  0.26303730645E+03  0.25500000920E-02 0.  1.
        2   -1    0    0  501    0  0.00000000000E+00  0.00000000000E+00 -0.61316876692E+03  0.61316876693E+03  0.25500000920E-02 0. -1.
    10030    2    1    2    0    0  0.00000000000E+00  0.00000000000E+00 -0.35013146048E+03  0.87620607338E+03  0.80320921522E+03 0.  0.
        1    1    3    3  502    0  0.48945376875E+01 -0.54559257927E+02 -0.60907426370E+03  0.61153260571E+03  0.50400001928E-02 0. -1.
       -1    1    3    3    0  502 -0.48945376875E+01  0.54559257927E+02  0.25894280322E+03  0.26467346767E+03  0.50400001928E-02 0.  1.
</event>
<event>
 5   0  0.3714448E-03  0.8011174E+03  0.7818609E-02  0.9558401E-01
       -1   -1    0    0    0  501  0.00000000000E+00  0.00000000000E+00  0.92444311899E+02  0.92444312036E+02  0.50400001928E-02 0.  1.
        1   -1    0    0  501    0  0.00000000000E+00  0.00000000000E+00 -0.17356098362E+04  0.17356098362E+04  0.50400001928E-02 0. -1.
    10030    2    1    2    0    0  0.00000000000E+00  0.00000000000E+00 -0.16431655243E+04  0.18280541482E+04  0.80111736260E+03 0.  0.
        1    1    3    3  502    0  0.29882400321E+03 -0.94416692773E+02 -0.25231433411E+03  0.40233421429E+03  0.50400001928E-02 0.  1.
       -1    1    3    3    0  502 -0.29882400321E+03  0.94416692773E+02 -0.13908511902E+04  0.14257199340E+04  0.50400001928E-02 0. -1.
</event>
<event>
 5   0  0.3753450E-03  0.8004766E+03  0.7818609E-02  0.9559327E-01
        1   -1    0    0  501    0  0.00000000000E+00  0.00000000000E+00  0.90351581582E+03  0.90351581583E+03  0.50400001928E-02 0. -1.
       -1   -1    0    0    0  501  0.00000000000E+00  0.00000000000E+00 -0.17729706538E+03  0.17729706546E+03  0.50400001928E-02 0.  1.
    10030    2    1    2    0    0  0.00000000000E+00  0.00000000000E+00  0.72621875043E+03  0.10808128813E+04  0.80047661482E+03 0.  0.
        5    1    3    3  502    0  0.36742227266E+03  0.14926158151E+03  0.29051786401E+03  0.49163082234E+03  0.46999998093E+01 0.  1.
       -5    1    3    3    0  502 -0.36742227266E+03 -0.14926158151E+03  0.43570088642E+03  0.58918205895E+03  0.46999998093E+01 0. -1.
</event>
<event>
 5   0  0.3753450E-03  0.8016738E+03  0.7818609E-02  0.9557597E-01
        1   -1    0    0  501    0  0.00000000000E+00  0.00000000000E+00  0.39422498124E+03  0.39422498127E+03  0.50400001928E-02 0. -1.
       -1   -1    0    0    0  501  0.00000000000E+00  0.00000000000E+00 -0.40755973238E+03  0.40755973241E+03  0.50400001928E-02 0.  1.
    10030    2    1    2    0    0  0.00000000000E+00  0.00000000000E+00 -0.13334751135E+02  0.80178471368E+03  0.80167381865E+03 0.  0.
        5    1    3    3  502    0 -0.36420471946E+03  0.69525473251E+02 -0.15890297980E+03  0.40342423836E+03  0.46999998093E+01 0.  1.
       -5    1    3    3    0  502  0.36420471946E+03 -0.69525473251E+02  0.14556822867E+03  0.39836047533E+03  0.46999998093E+01 0. -1.
</event>
<event>
 5   0  0.5813850E-03  0.7996962E+03  0.7818609E-02  0.9560457E-01
        2   -1    0    0  501    0  0.00000000000E+00  0.00000000000E+00  0.35335926228E+03  0.35335926229E+03  0.25500000920E-02 0. -1.
       -2   -1    0    0    0  501  0.00000000000E+00  0.00000000000E+00 -0.45245316462E+03  0.45245316463E+03  0.25500000920E-02 0.  1.
    10030    2    1    2    0    0  0.00000000000E+00  0.00000000000E+00 -0.99093902343E+02  0.80581242692E+03  0.79969623351E+03 0.  0.
        5    1    3    3  502    0 -0.34541552440E+03  0.51837090157E+02 -0.24560498141E+03  0.42701623541E+03  0.46999998093E+01 0.  1.
       -5    1    3    3    0  502  0.34541552440E+03 -0.51837090157E+02  0.14651107907E+03  0.37879619151E+03  0.46999998093E+01 0. -1.
</event>
<event>
 5   0  0.5813850E-03  0.7995017E+03  0.7818609E-02  0.9560739E-01
       -2   -1    0    0    0  501  0.00000000000E+00  0.00000000000E+00  0.18969502903E+03  0.18969502905E+03  0.25500000920E-02 0. -1.
        2   -1    0    0  501    0  0.00000000000E+00  0.00000000000E+00 -0.84240863846E+03  0.84240863847E+03  0.25500000920E-02 0.  1.
    10030    2    1    2    0    0  0.00000000000E+00  0.00000000000E+00 -0.65271360943E+03  0.10321036675E+04  0.79950167265E+03 0.  0.
        5    1    3    3  502    0  0.15060902088E+03 -0.34472516011E+03 -0.50080073097E+03  0.62637207419E+03  0.46999998093E+01 0.  1.
       -5    1    3    3    0  502 -0.15060902088E+03  0.34472516011E+03 -0.15191287846E+03  0.40573159333E+03  0.46999998093E+01 0. -1.
</event>
<event>
 5   0  0.6153659E-03  0.8006682E+03  0.7818609E-02  0.9559050E-01
        2   -1    0    0  501    0  0.00000000000E+00  0.00000000000E+00  0.42091005612E+03  0.42091005613E+03  0.25500000920E-02 0. -1.
       -2   -1    0    0    0  501  0.00000000000E+00  0.00000000000E+00 -0.38076402765E+03  0.38076402766E+03  0.25500000920E-02 0.  1.
    10030    2    1    2    0    0  0.00000000000E+00  0.00000000000E+00  0.40146028471E+02  0.80167408379E+03  0.80066824155E+03 0.  0.
        2    1    3    3  502    0  0.36285772895E+02 -0.33981818828E+03 -0.18869395648E+03  0.39038246326E+03  0.25500000920E-02 0.  1.
       -2    1    3    3    0  502 -0.36285772895E+02  0.33981818828E+03  0.22883998495E+03  0.41129162053E+03  0.25500000920E-02 0. -1.
</event>
<event>
 5   0  0.3714448E-03  0.8000678E+03  0.7818609E-02  0.9559919E-01
       -1   -1    0    0    0  501  0.00000000000E+00  0.00000000000E+00  0.62515905143E+03  0.62515905145E+03  0.50400001928E-02 0.  1.
        1   -1    0    0  501    0  0.00000000000E+00  0.00000000000E+00 -0.25597822681E+03  0.25597822686E+03  0.50400001928E-02 0. -1.
    10030    2    1    2    0    0  0.00000000000E+00  0.00000000000E+00  0.36918082462E+03  0.88113727830E+03  0.80006776085E+03 0.  0.
        1    1    3    3  502    0  0.19206331887E+03  0.31571061958E+03  0.15883623348E+02  0.36988349962E+03  0.50400001928E-02 0. -1.
       -1    1    3    3    0  502 -0.19206331887E+03 -0.31571061958E+03  0.35329720127E+03  0.51125377869E+03  0.50400001928E-02 0.  1.
</event>
<event>
 5   0  0.5813850E-03  0.8037225E+03  0.7818609E-02  0.9554645E-01
        2   -1    0    0  501    0  0.00000000000E+00  0.00000000000E+00  0.11314484674E+04  0.11314484674E+04  0.25500000920E-02 0.  1.
       -2   -1    0    0    0  501  0.00000000000E+00  0.00000000000E+00 -0.14273071255E+03  0.14273071257E+03  0.25500000920E-02 0. -1.
    10030    2    1    2    0    0  0.00000000000E+00  0.00000000000E+00  0.98871775481E+03  0.12741791799E+04  0.80372245452E+03 0.  0.
        5    1    3    3  502    0  0.23697728119E+03 -0.19161925467E+03  0.90956911591E+03  0.95927797701E+03  0.46999998093E+01 0. -1.
       -5    1    3    3    0  502 -0.23697728119E+03  0.19161925467E+03  0.79148638896E+02  0.31490120292E+03  0.46999998093E+01 0.  1.
</event>
<event>
 5   0  0.3627496E-03  0.7998691E+03  0.7818609E-02  0.9560207E-01
       -1   -1    0    0    0  501  0.00000000000E+00  0.00000000000E+00  0.29486355410E+03  0.29486355414E+03  0.50400001928E-02 0.  1.
        1   -1    0    0  501    0  0.00000000000E+00  0.00000000000E+00 -0.54244635442E+03  0.54244635444E+03  0.50400001928E-02 0. -1.
    10030    2    1    2    0    0  0.00000000000E+00  0.00000000000E+00 -0.24758280032E+03  0.83730990858E+03  0.79986913930E+03 0.  0.
        3    1    3    3  502    0 -0.36034720320E+03  0.15776440300E+03 -0.48247376530E+02  0.39631746524E+03  0.10100000352E+00 0.  1.
       -3    1    3    3    0  502  0.36034720320E+03 -0.15776440300E+03 -0.19933542379E+03  0.44099244335E+03  0.10100000352E+00 0. -1.
</event>
<event>
 5   0  0.6536209E-03  0.7997942E+03  0.7818609E-02  0.9560315E-01
       -2   -1    0    0    0  501  0.00000000000E+00  0.00000000000E+00  0.17258741953E+03  0.17258741955E+03  0.25500000920E-02 0.  1.
        2   -1    0    0  501    0  0.00000000000E+00  0.00000000000E+00 -0.92658938416E+03  0.92658938416E+03  0.25500000920E-02 0. -1.
    10030    2    1    2    0    0  0.00000000000E+00  0.00000000000E+00 -0.75400196463E+03  0.10991768037E+04  0.79979415049E+03 0.  0.
        3    1    3    3  502    0  0.20552185482E+03  0.17325976264E+03  0.29900041244E+02  0.27046663533E+03  0.10100000352E+00 0.  1.
       -3    1    3    3    0  502 -0.20552185482E+03 -0.17325976264E+03 -0.78390200588E+03  0.82871016838E+03  0.10100000352E+00 0. -1.
</event>
<event>
 5   0  0.5813850E-03  0.7992245E+03  0.7818609E-02  0.9561140E-01
        2   -1    0    0  501    0  0.00000000000E+00  0.00000000000E+00  0.47369717768E+03  0.47369717769E+03  0.25500000920E-02 0. -1.
       -2   -1    0    0    0  501  0.00000000000E+00  0.00000000000E+00 -0.33711398205E+03  0.33711398206E+03  0.25500000920E-02 0.  1.
    10030    2    1    2    0    0  0.00000000000E+00  0.00000000000E+00  0.13658319563E+03  0.81081115975E+03  0.79922447876E+03 0.  0.
        5    1    3    3  502    0 -0.21120589649E+03  0.14704175181E+03  0.37840047961E+03  0.45764420728E+03  0.46999998093E+01 0. -1.
       -5    1    3    3    0  502  0.21120589649E+03 -0.14704175181E+03 -0.24181728398E+03  0.35316695247E+03  0.46999998093E+01 0.  1.
</event>
<event>
 5   0  0.3860515E-03  0.7989408E+03  0.7818609E-02  0.9561552E-01
        1   -1    0    0  501    0  0.00000000000E+00  0.00000000000E+00  0.38699657754E+03  0.38699657757E+03  0.50400001928E-02 0.  1.
       -1   -1    0    0    0  501  0.00000000000E+00  0.00000000000E+00 -0.41234624743E+03  0.41234624747E+03  0.50400001928E-02 0. -1.
    10030    2    1    2    0    0  0.00000000000E+00  0.00000000000E+00 -0.25349669897E+02  0.79934282504E+03  0.79894076512E+03 0.  0.
        4    1    3    3  502    0 -0.27149411857E+03  0.25269277246E+03  0.13576518837E+03  0.39496391347E+03  0.12699999809E+01 0.  1.
       -4    1    3    3    0  502  0.27149411857E+03 -0.25269277246E+03 -0.16111485826E+03  0.40437891157E+03  0.12699999809E+01 0. -1.
</event>
<event>
 5   0  0.6536209E-03  0.8025094E+03  0.7818609E-02  0.9556392E-01
        2   -1    0    0  501    0  0.00000000000E+00  0.00000000000E+00  0.16452050890E+03  0.16452050892E+03  0.25500000920E-02 0.  1.
       -2   -1    0    0    0  501  0.00000000000E+00  0.00000000000E+00 -0.97863377538E+03  0.97863377538E+03  0.25500000920E-02 0. -1.
    10030    2    1    2    0    0  0.00000000000E+00  0.00000000000E+00 -0.81411326648E+03  0.11431542843E+04  0.80250938128E+03 0.  0.
        3    1    3    3  502    0 -0.97776122857E+02 -0.36348692364E+03 -0.20904746707E+03  0.43056215294E+03  0.10100000352E+00 0.  1.
       -3    1    3    3    0  502  0.97776122857E+02  0.36348692364E+03 -0.60506579941E+03  0.71259213136E+03  0.10100000352E+00 0. -1.
</event>
<event>
 5   0  0.6153659E-03  0.8014749E+03  0.7818609E-02  0.9557885E-01
       -2   -1    0    0    0  501  0.00000000000E+00  0.00000000000E+00  0.13823041588E+03  0.13823041590E+03  0.25500000920E-02 0.  1.
        2   -1    0    0  501    0  0.00000000000E+00  0.00000000000E+00 -0.11617595512E+04  0.11617595512E+04  0.25500000920E-02 0. -1.
    10030    2    1    2    0    0  0.00000000000E+00  0.00000000000E+00 -0.10235291353E+04  0.12999899671E+04  0.80147490522E+03 0.  0.
        2    1    3    3  502    0  0.18638299377E+03 -0.24588933954E+03 -0.92653405251E+03  0.97655800551E+03  0.25500000920E-02 0. -1.
       -2    1    3    3    0  502 -0.18638299377E+03  0.24588933954E+03 -0.96995082781E+02  0.32343196156E+03  0.25500000920E-02 0.  1.
</event>
<event>
 5   0  0.6337108E-03  0.8000771E+03  0.7818609E-02  0.9559906E-01
        2   -1    0    0  501    0  0.00000000000E+00  0.00000000000E+00  0.38335315080E+03  0.38335315081E+03  0.25500000920E-02 0.  1.
       -2   -1    0    0    0  501  0.00000000000E+00  0.00000000000E+00 -0.41745015420E+03  0.41745015421E+03  0.25500000920E-02 0. -1.
    10030    2    1    2    0    0  0.00000000000E+00  0.00000000000E+00 -0.34097003401E+02  0.80080330501E+03  0.80007707609E+03 0.  0.
        4    1    3    3  502    0 -0.15063067008E+03 -0.36965650918E+03 -0.43410317962E+02  0.40152409910E+03  0.12699999809E+01 0.  1.
       -4    1    3    3    0  502  0.15063067008E+03  0.36965650918E+03  0.93133145618E+01  0.39927920592E+03  0.12699999809E+01 0. -1.
</event>
<event>
 5   0  0.5813850E-03  0.7971982E+03  0.7818609E-02  0.9564081E-01
       -2   -1    0    0    0  501  0.00000000000E+00  0.00000000000E+00  0.93382075433E+02  0.93382075468E+02  0.25500000920E-02 0. -1.
        2   -1    0    0  501    0  0.00000000000E+00  0.00000000000E+00 -0.17014104513E+04  0.17014104513E+04  0.25500000920E-02 0.  1.
    10030    2    1    2    0    0  0.00000000000E+00  0.00000000000E+00 -0.16080283758E+04  0.17947925267E+04  0.79719819151E+03 0.  0.
        5    1    3    3  502    0  0.16885693383E+03 -0.30931943750E+03 -0.38482298731E+03  0.52182564145E+03  0.46999998093E+01 0. -1.
       -5    1    3    3    0  502 -0.16885693383E+03  0.30931943750E+03 -0.12232053885E+04  0.12729668853E+04  0.46999998093E+01 0.  1.
</event>
<event>
 5   0  0.6256781E-03  0.7984137E+03  0.7818609E-02  0.9562316E-01
        2   -1    0    0  501    0  0.00000000000E+00  0.00000000000E+00  0.18730364724E+04  0.18730364724E+04  0.25500000920E-02 0.  1.
       -2   -1    0    0    0  501  0.00000000000E+00  0.00000000000E+00 -0.85084353607E+02  0.85084353646E+02  0.25500000920E-02 0. -1.
    10030    2    1    2    0    0  0.00000000000E+00  0.00000000000E+00  0.17879521188E+04  0.19581208261E+04  0.79841367117E+03 0.  0.
        1    1    3    3  502    0  0.30834925507E+03  0.60820834781E+02  0.29030047199E+03  0.42784670282E+03  0.50400001928E-02 0. -1.
       -1    1    3    3    0  502 -0.30834925507E+03 -0.60820834781E+02  0.14976516468E+04  0.15302741233E+04  0.50400001928E-02 0.  1.
</event>
<event>
 5   0  0.6256781E-03  0.7997182E+03  0.7818609E-02  0.9560425E-01
        2   -1    0    0  501    0  0.00000000000E+00  0.00000000000E+00  0.54820024462E+03  0.54820024463E+03  0.25500000920E-02 0. -1.
       -2   -1    0    0    0  501  0.00000000000E+00  0.00000000000E+00 -0.29165857485E+03  0.29165857486E+03  0.25500000920E-02 0.  1.
    10030    2    1    2    0    0  0.00000000000E+00  0.00000000000E+00  0.25654166977E+03  0.83985881949E+03  0.79971820558E+03 0.  0.
        1    1    3    3  502    0 -0.17942524205E+03 -0.98321210949E+02 -0.23252346269E+03  0.30972187319E+03  0.50400001928E-02 0.  1.
       -1    1    3    3    0  502  0.17942524205E+03  0.98321210949E+02  0.48906513246E+03  0.53013694629E+03  0.50400001928E-02 0. -1.
</event>
<event>
 5   0  0.3714448E-03  0.8041144E+03  0.7818609E-02  0.9554081E-01
        1   -1    0    0  501    0  0.00000000000E+00  0.00000000000E+00  0.80235008871E+03  0.80235008873E+03  0.50400001928E-02 0.  1.
       -1   -1    0    0    0  501  0.00000000000E+00  0.00000000000E+00 -0.20147067155E+03  0.20147067161E+03  0.50400001928E-02 0. -1.
    10030    2    1    2    0    0  0.00000000000E+00  0.00000000000E+00  0.60087941716E+03  0.10038207603E+04  0.80411444765E+03 0.  0.
        1    1    3    3  502    0 -0.35138535062E+03 -0.15809308053E+03  0.15709649681E+03  0.41610623172E+03  0.50400001928E-02 0.  1.
       -1    1    3    3    0  502  0.35138535062E+03  0.15809308053E+03  0.44378292035E+03  0.58771452863E+03  0.50400001928E-02 0. -1.
</event>
<event>
 5   0  0.3671128E-03  0.7997015E+03  0.7818609E-02  0.9560449E-01
       -1   -1    0    0    0  501  0.00000000000E+00  0.00000000000E+00  0.35406522621E+03  0.35406522625E+03  0.50400001928E-02 0. -1.
        1   -1    0    0  501    0  0.00000000000E+00  0.00000000000E+00 -0.45155699292E+03  0.45155699295E+03  0.50400001928E-02 0.  1.
    10030    2    1    2    0    0  0.00000000000E+00  0.00000000000E+00 -0.97491766708E+02  0.80562221919E+03  0.79970151649E+03 0.  0.
        2    1    3    3  502    0 -0.20574925848E+03  0.33837762668E+03 -0.10436745887E+03  0.40954211271E+03  0.25500000920E-02 0.  1.
       -2    1    3    3    0  502  0.20574925848E+03 -0.33837762668E+03  0.68756921617E+01  0.39608010648E+03  0.25500000920E-02 0. -1.
</event>
<event>
 5   0  0.6256781E-03  0.8009345E+03  0.7818609E-02  0.9558665E-01
       -2   -1    0    0    0  501  0.00000000000E+00  0.00000000000E+00  0.20294789054E+03  0.20294789055E+03  0.25500000920E-02 0. -1.
        2   -1    0    0  501    0  0.00000000000E+00  0.00000000000E+00 -0.79022265667E+03  0.79022265667E+03  0.25500000920E-02 0.  1.
    10030    2    1    2    0    0  0.00000000000E+00  0.00000000000E+00 -0.58727476613E+03  0.99317054722E+03  0.80093450727E+03 0.  0.
        1    1    3    3  502    0  0.20316033441E+03 -0.52694772515E+02 -0.71655903890E+03  0.74666439367E+03  0.50400001928E-02 0.  1.
       -1    1    3    3    0  502 -0.20316033441E+03  0.52694772515E+02  0.12928427277E+03  0.24650615355E+03  0.50400001928E-02 0. -1.
</event>
<event>
 5   0  0.3627496E-03  0.7991739E+03  0.7818609E-02  0.9561214E-01
        1   -1    0    0  501    0  0.00000000000E+00  0.00000000000E+00  0.71651103277E+03  0.71651103279E+03  0.50400001928E-02 0. -1.
       -1   -1    0    0    0  501  0.00000000000E+00  0.00000000000E+00 -0.22284334298E+03  0.22284334304E+03  0.50400001928E-02 0.  1.
    10030    2    1    2    0    0  0.00000000000E+00  0.00000000000E+00  0.49366768979E+03  0.93935437583E+03  0.79917385808E+03 0.  0.
        3    1    3    3  502    0  0.68480257409E+01  0.27678403277E+03 -0.91824915101E+02  0.29169868270E+03  0.10100000352E+00 0.  1.
       -3    1    3    3    0  502 -0.68480257409E+01 -0.27678403277E+03  0.58549260489E+03  0.64765569312E+03  0.10100000352E+00 0. -1.
</event>
<event>
 5   0  0.5813850E-03  0.8011673E+03  0.7818609E-02  0.9558329E-01
        2   -1    0    0  501    0  0.00000000000E+00  0.00000000000E+00  0.42983670357E+03  0.42983670357E+03  0.25500000920E-02 0.  1.
       -2   -1    0    0    0  501  0.00000000000E+00  0.00000000000E+00 -0.37332140931E+03  0.37332140932E+03  0.25500000920E-02 0. -1.
    10030    2    1    2    0    0  0.00000000000E+00  0.00000000000E+00  0.56515294259E+02  0.80315811289E+03  0.80116725833E+03 0.  0.
        5    1    3    3  502    0 -0.18955588592E+03 -0.70731421949E+02 -0.31830472655E+03  0.37719273174E+03  0.46999998093E+01 0. -1.
       -5    1    3    3    0  502  0.18955588592E+03  0.70731421949E+02  0.37482002081E+03  0.42596538115E+03  0.46999998093E+01 0.  1.
</event>
<event>
 5   0  0.3627496E-03  0.8042943E+03  0.7818609E-02  0.9553822E-01
       -1   -1    0    0    0  501  0.00000000000E+00  0.00000000000E+00  0.16743687922E+03  0.16743687929E+03  0.50400001928E-02 0.  1.
        1   -1    0    0  501    0  0.00000000000E+00  0.00000000000E+00 -0.96587036387E+03  0.96587036389E+03  0.50400001928E-02 0. -1.
    10030    2    1    2    0    0  0.00000000000E+00  0.00000000000E+00 -0.79843348466E+03  0.11333072432E+04  0.80429427328E+03 0.  0.
        3    1    3    3  502    0  0.31490139839E+03  0.24307937668E+03 -0.48224238400E+03  0.62514654379E+03  0.10100000352E+00 0.  1.
       -3    1    3    3    0  502 -0.31490139839E+03 -0.24307937668E+03 -0.31619110065E+03  0.50816069939E+03  0.10100000352E+00 0. -1.
</event>
<event>
 5   0  0.6153659E-03  0.8192041E+03  0.7818609E-02  0.9532628E-01
       -2   -1    0    0    0  501  0.00000000000E+00  0.00000000000E+00  0.57308510859E+02  0.57308510916E+02  0.25500000920E-02 0. -1.
        2   -1    0    0  501    0  0.00000000000E+00  0.00000000000E+00 -0.29275556800E+04  0.29275556800E+04  0.25500000920E-02 0.  1.
    10030    2    1    2    0    0  0.00000000000E+00  0.00000000000E+00 -0.28702471692E+04  0.29848641909E+04  0.81920414200E+03 0.  0.
        2    1    3    3  502    0 -0.55628280042E+02 -0.37480879220E+03 -0.20019103002E+04  0.20374545360E+04  0.25500000920E-02 0. -1.
       -2    1    3    3    0  502  0.55628280042E+02  0.37480879220E+03 -0.86833686896E+03  0.94740965493E+03  0.25500000920E-02 0.  1.
</event>
<event>
 5   0  0.3860515E-03  0.7988665E+03  0.7818609E-02  0.9561659E-01
       -1   -1    0    0    0  501  0.00000000000E+00  0.00000000000E+00  0.39014029381E+03  0.39014029384E+03  0.50400001928E-02 0. -1.
        1   -1    0    0  501    0  0.00000000000E+00  0.00000000000E+00 -0.40894750895E+03  0.40894750898E+03  0.50400001928E-02 0.  1.
    10030    2    1    2    0    0  0.00000000000E+00  0.00000000000E+00 -0.18807215141E+02  0.79908780282E+03  0.79886645022E+03 0.  0.
        4    1    3    3  502    0 -0.10477490718E+02 -0.39276859862E+03 -0.81314685029E+02  0.40123639015E+03  0.12699999809E+01 0. -1.
       -4    1    3    3    0  502  0.10477490718E+02  0.39276859862E+03  0.62507469887E+02  0.39785141268E+03  0.12699999809E+01 0.  1.
</event>
<event>
 5   0  0.3753450E-03  0.8008607E+03  0.7818609E-02  0.9558772E-01
        1   -1    0    0  501    0  0.00000000000E+00  0.00000000000E+00  0.57542424766E+03  0.57542424769E+03  0.50400001928E-02 0.  1.
       -1   -1    0    0    0  501  0.00000000000E+00  0.00000000000E+00 -0.27865431814E+03  0.27865431819E+03  0.50400001928E-02 0. -1.
    10030    2    1    2    0    0  0.00000000000E+00  0.00000000000E+00  0.29676992952E+03  0.85407856587E+03  0.80086066554E+03 0.  0.
        5    1    3    3  502    0 -0.25042455801E+03  0.28531742460E+03  0.28413821170E+03  0.47420998027E+03  0.46999998093E+01 0.  1.
       -5    1    3    3    0  502  0.25042455801E+03 -0.28531742460E+03  0.12631717826E+02  0.37986858561E+03  0.46999998093E+01 0. -1.
</event>
<event>
 5   0  0.3714448E-03  0.8004477E+03  0.7818609E-02  0.9559369E-01
        1   -1    0    0  501    0  0.00000000000E+00  0.00000000000E+00  0.90937733733E+03  0.90937733735E+03  0.50400001928E-02 0.  1.
       -1   -1    0    0    0  501  0.00000000000E+00  0.00000000000E+00 -0.17614155492E+03  0.17614155499E+03  0.50400001928E-02 0. -1.
    10030    2    1    2    0    0  0.00000000000E+00  0.00000000000E+00  0.73323578242E+03  0.10855188923E+04  0.80044772035E+03 0.  0.
        1    1    3    3  502    0 -0.37083898891E+03  0.12806541719E+03  0.47388872153E+03  0.61521770715E+03  0.50400001928E-02 0.  1.
       -1    1    3    3    0  502  0.37083898891E+03 -0.12806541719E+03  0.25934706089E+03  0.47030118519E+03  0.50400001928E-02 0. -1.
</event>
<event>
 5   0  0.3671128E-03  0.8020829E+03  0.7818609E-02  0.9557007E-01
       -1   -1    0    0    0  501  0.00000000000E+00  0.00000000000E+00  0.25873443971E+03  0.25873443976E+03  0.50400001928E-02 0.  1.
        1   -1    0    0  501    0  0.00000000000E+00  0.00000000000E+00 -0.62161905086E+03  0.62161905088E+03  0.50400001928E-02 0. -1.
    10030    2    1    2    0    0  0.00000000000E+00  0.00000000000E+00 -0.36288461115E+03  0.88035349064E+03  0.80208293055E+03 0.  0.
        2    1    3    3  502    0 -0.71054459360E+01 -0.34578242204E+03 -0.40427698546E+03  0.53202993500E+03  0.25500000920E-02 0. -1.
       -2    1    3    3    0  502  0.71054459360E+01  0.34578242204E+03  0.41392374319E+02  0.34832355564E+03  0.25500000920E-02 0.  1.
</event>
<event>
 5   0  0.6536209E-03  0.8011704E+03  0.7818609E-02  0.9558325E-01
        2   -1    0    0  501    0  0.00000000000E+00  0.00000000000E+00  0.21723781794E+04  0.21723781794E+04  0.25500000920E-02 0.  1.
       -2   -1    0    0    0  501  0.00000000000E+00  0.00000000000E+00 -0.73867664950E+02  0.73867664994E+02  0.25500000920E-02 0. -1.
    10030    2    1    2    0    0  0.00000000000E+00  0.00000000000E+00  0.20985105145E+04  0.22462458444E+04  0.80117040273E+03 0.  0.
        3    1    3    3  502    0  0.35105875285E+03 -0.10116465235E+03  0.58862804753E+03  0.69279111092E+03  0.10100000352E+00 0.  1.
       -3    1    3    3    0  502 -0.35105875285E+03  0.10116465235E+03  0.15098824670E+04  0.15534547335E+04  0.10100000352E+00 0. -1.
</event>
<event>
 5   0  0.6256781E-03  0.7970793E+03  0.7818609E-02  0.9564254E-01
       -2   -1    0    0    0  501  0.00000000000E+00  0.00000000000E+00  0.19566743255E+03  0.19566743257E+03  0.25500000920E-02 0. -1.
        2   -1    0    0  501    0  0.00000000000E+00  0.00000000000E+00 -0.81175416036E+03  0.81175416036E+03  0.25500000920E-02 0.  1.
    10030    2    1    2    0    0  0.00000000000E+00  0.00000000000E+00 -0.61608672781E+03  0.10074215929E+04  0.79707929951E+03 0.  0.
        1    1    3    3  502    0  0.12023322737E+03 -0.15480536220E+03  0.13053442668E+03  0.23549939640E+03  0.50400001928E-02 0. -1.
       -1    1    3    3    0  502 -0.12023322737E+03  0.15480536220E+03 -0.74662115449E+03  0.77192219653E+03  0.50400001928E-02 0.  1.
</event>
<event>
 5   0  0.2478000E-03  0.8000712E+03  0.7818609E-02  0.9559914E-01
       -4   -1    0    0    0  501  0.00000000000E+00  0.00000000000E+00  0.32708144247E+03  0.32708390805E+03  0.12699999809E+01 0.  1.
        4   -1    0    0  501    0  0.00000000000E+00  0.00000000000E+00 -0.48925675671E+03  0.48925840502E+03  0.12699999809E+01 0. -1.
    10030    2    1    2    0    0  0.00000000000E+00  0.00000000000E+00 -0.16217531424E+03  0.81634231307E+03  0.80007120906E+03 0.  0.
        5    1    3    3  502    0  0.22614565564E+03 -0.57296729866E+02  0.25045379110E+03  0.34230682770E+03  0.46999998093E+01 0.  1.
       -5    1    3    3    0  502 -0.22614565564E+03  0.57296729866E+02 -0.41262910534E+03  0.47403548537E+03  0.46999998093E+01 0. -1.
</event>
<event>
 5   0  0.3671128E-03  0.7980857E+03  0.7818609E-02  0.9562792E-01
        1   -1    0    0  501    0  0.00000000000E+00  0.00000000000E+00  0.80395015868E+03  0.80395015870E+03  0.50400001928E-02 0.  1.
       -1   -1    0    0    0  501  0.00000000000E+00  0.00000000000E+00 -0.19806600657E+03  0.19806600664E+03  0.50400001928E-02 0. -1.
    10030    2    1    2    0    0  0.00000000000E+00  0.00000000000E+00  0.60588415211E+03  0.10020161653E+04  0.79808570330E+03 0.  0.
        2    1    3    3  502    0  0.10630052863E+03 -0.36526225536E+03  0.45422564200E+03  0.59248396724E+03  0.25500000920E-02 0.  1.
       -2    1    3    3    0  502 -0.10630052863E+03  0.36526225536E+03  0.15165851011E+03  0.40953219809E+03  0.25500000920E-02 0. -1.
</event>
<event>
 5   0  0.3627496E-03  0.7968906E+03  0.7818609E-02  0.9564529E-01
       -1   -1    0    0    0  501  0.00000000000E+00  0.00000000000E+00  0.14299227513E+03  0.14299227522E+03  0.50400001928E-02 0.  1.
        1   -1    0    0  501    0  0.00000000000E+00  0.00000000000E+00 -0.11102604718E+04  0.11102604718E+04  0.50400001928E-02 0. -1.
    10030    2    1    2    0    0  0.00000000000E+00  0.00000000000E+00 -0.96726819668E+03  0.12532527470E+04  0.79689063470E+03 0.  0.
        3    1    3    3  502    0  0.14022352653E+03  0.31733086033E+02 -0.10680466556E+04  0.10776795882E+04  0.10100000352E+00 0. -1.
       -3    1    3    3    0  502 -0.14022352653E+03 -0.31733086033E+02  0.10077845887E+03  0.17557315887E+03  0.10100000352E+00 0.  1.
</event>
<event>
 5   0  0.3860515E-03  0.7989290E+03  0.7818609E-02  0.9561569E-01
       -1   -1    0    0    0  501  0.00000000000E+00  0.00000000000E+00  0.10051937966E+03  0.10051937979E+03  0.50400001928E-02 0.  1.
        1   -1    0    0  501    0  0.00000000000E+00  0.00000000000E+00 -0.15874738559E+04  0.15874738559E+04  0.50400001928E-02 0. -1.
    10030    2    1    2    0    0  0.00000000000E+00  0.00000000000E+00 -0.14869544762E+04  0.16879932357E+04  0.79892900144E+03 0.  0.
        4    1    3    3  502    0 -0.14864015695E+03 -0.32696525695E+03 -0.37406529039E+03  0.51858136284E+03  0.12699999809E+01 0.  1.
       -4    1    3    3    0  502  0.14864015695E+03  0.32696525695E+03 -0.11128891858E+04  0.11694118728E+04  0.12699999809E+01 0. -1.
</event>
<event>
 5   0  0.6153659E-03  0.8073154E+03  0.7818609E-02  0.9549488E-01
        2   -1    0    0  501    0  0.00000000000E+00  0.00000000000E+00  0.99491379491E+03  0.99491379491E+03  0.25500000920E-02 0. -1.
       -2   -1    0    0    0  501  0.00000000000E+00  0.00000000000E+00 -0.16377253788E+03  0.16377253789E+03  0.25500000920E-02 0.  1.
    10030    2    1    2    0    0  0.00000000000E+00  0.00000000000E+00  0.83114125704E+03  0.11586863328E+04  0.80731544559E+03 0.  0.
        2    1    3    3  502    0 -0.24219828013E+03  0.24374887839E+03  0.71957614616E+03  0.79741040421E+03  0.25500000920E-02 0. -1.
       -2    1    3    3    0  502  0.24219828013E+03 -0.24374887839E+03  0.11156511087E+03  0.36127592860E+03  0.25500000920E-02 0.  1.
</event>
<event>
 5   0  0.6256781E-03  0.7997839E+03  0.7818609E-02  0.9560330E-01
        2   -1    0    0  501    0  0.00000000000E+00  0.00000000000E+00  0.93167423395E+03  0.93167423396E+03  0.25500000920E-02 0. -1.
       -2   -1    0    0    0  501  0.00000000000E+00  0.00000000000E+00 -0.17164108975E+03  0.17164108977E+03  0.25500000920E-02 0.  1.
    10030    2    1    2    0    0  0.00000000000E+00  0.00000000000E+00  0.76003314420E+03  0.11033153237E+04  0.79978392287E+03 0.  0.
        1    1    3    3  502    0  0.33275156106E+03 -0.19475565674E+03  0.52640282507E+03  0.65249774060E+03  0.50400001928E-02 0. -1.
       -1    1    3    3    0  502 -0.33275156106E+03  0.19475565674E+03  0.23363031913E+03  0.45081758313E+03  0.50400001928E-02 0.  1.
</event>
<event>
 5   0  0.2478000E-03  0.8016280E+03  0.7818609E-02  0.9557664E-01
       -3   -1    0    0    0  501  0.00000000000E+00  0.00000000000E+00  0.19965800085E+03  0.19965802640E+03  0.10100000352E+00 0.  1.
        3   -1    0    0  501    0  0.00000000000E+00  0.00000000000E+00 -0.80463517581E+03  0.80463518215E+03  0.10100000352E+00 0. -1.
    10030    2    1    2    0    0  0.00000000000E+00  0.00000000000E+00 -0.60497717496E+03  0.10042932086E+04  0.80162801007E+03 0.  0.
        4    1    3    3  502    0 -0.16390316088E+03  0.85003939935E+02 -0.74818224593E+03  0.77062844612E+03  0.12699999809E+01 0. -1.
       -4    1    3    3    0  502  0.16390316088E+03 -0.85003939935E+02  0.14320507097E+03  0.23366476243E+03  0.12699999809E+01 0.  1.
</event>
<event>
 5   0  0.3714448E-03  0.8014468E+03  0.7818609E-02  0.9557925E-01
        1   -1    0    0  501    0  0.00000000000E+00  0.00000000000E+00  0.37642550574E+03  0.37642550578E+03  0.50400001928E-02 0.  1.
       -1   -1    0    0    0  501  0.00000000000E+00  0.00000000000E+00 -0.42658972904E+03  0.42658972907E+03  0.50400001928E-02 0. -1.
    10030    2    1    2    0    0  0.00000000000E+00  0.00000000000E+00 -0.50164223293E+02  0.80301523484E+03  0.80144682799E+03 0.  0.
        1    1    3    3  502    0  0.26395443959E+03  0.28512139452E+03  0.73156173137E+02  0.39537068871E+03  0.50400001928E-02 0.  1.
       -1    1    3    3    0  502 -0.26395443959E+03 -0.28512139452E+03 -0.12332039643E+03  0.40764454614E+03  0.50400001928E-02 0. -1.
</event>
<event>
 5   0  0.6153659E-03  0.8008750E+03  0.7818609E-02  0.9558751E-01
       -2   -1    0    0    0  501  0.00000000000E+00  0.00000000000E+00  0.83850832523E+02  0.83850832562E+02  0.25500000920E-02 0. -1.
        2   -1    0    0  501    0  0.00000000000E+00  0.00000000000E+00 -0.19123268025E+04  0.19123268025E+04  0.25500000920E-02 0.  1.
    10030    2    1    2    0    0  0.00000000000E+00  0.00000000000E+00 -0.18284759700E+04  0.19961776351E+04  0.80087500770E+03 0.  0.
        2    1    3    3  502    0  0.29665506913E+03 -0.15070431155E+03 -0.35894159796E+03  0.48944365387E+03  0.25500000920E-02 0. -1.
       -2    1    3    3    0  502 -0.29665506913E+03  0.15070431155E+03 -0.14695343721E+04  0.15067339812E+04  0.25500000920E-02 0.  1.
</event>
<event>
 5   0  0.3714448E-03  0.7997776E+03  0.7818609E-02  0.9560339E-01
        1   -1    0    0  501    0  0.00000000000E+00  0.00000000000E+00  0.32961892222E+03  0.32961892226E+03  0.50400001928E-02 0.  1.
       -1   -1    0    0    0  501  0.00000000000E+00  0.00000000000E+00 -0.48513911602E+03  0.48513911604E+03  0.50400001928E-02 0. -1.
    10030    2    1    2    0    0  0.00000000000E+00  0.00000000000E+00 -0.15552019379E+03  0.81475803830E+03  0.79977755051E+03 0.  0.
        1    1    3    3  502    0 -0.19791068811E+03  0.25575790490E+03 -0.31738993954E+03  0.45311932218E+03  0.50400001928E-02 0. -1.
       -1    1    3    3    0  502  0.19791068811E+03 -0.25575790490E+03  0.16186974575E+03  0.36163871612E+03  0.50400001928E-02 0.  1.
</event>
<event>
 5   0  0.6256781E-03  0.7991416E+03  0.7818609E-02  0.9561260E-01
        2   -1    0    0  501    0  0.00000000000E+00  0.00000000000E+00  0.19908712724E+04  0.19908712724E+04  0.25500000920E-02 0.  1.
       -2   -1    0    0    0  501  0.00000000000E+00  0.00000000000E+00 -0.80194455113E+02  0.80194455154E+02  0.25500000920E-02 0. -1.
    10030    2    1    2    0    0  0.00000000000E+00  0.00000000000E+00  0.19106768173E+04  0.20710657276E+04  0.79914163184E+03 0.  0.
        1    1    3    3  502    0  0.62330941884E+01 -0.21662959065E+03  0.18253239918E+04  0.18381444193E+04  0.50400001928E-02 0.  1.
       -1    1    3    3    0  502 -0.62330941884E+01  0.21662959065E+03  0.85352825481E+02  0.23292130828E+03  0.50400001928E-02 0. -1.
</event>
<event>
 5   0  0.3627496E-03  0.8040656E+03  0.7818609E-02  0.9554151E-01
       -1   -1    0    0    0  501  0.00000000000E+00  0.00000000000E+00  0.12815254073E+03  0.12815254083E+03  0.50400001928E-02 0. -1.
        1   -1    0    0  501    0  0.00000000000E+00  0.00000000000E+00 -0.12612343126E+04  0.12612343126E+04  0.50400001928E-02 0.  1.
    10030    2    1    2    0    0  0.00000000000E+00  0.00000000000E+00 -0.11330817718E+04  0.13893868534E+04  0.80406562341E+03 0.  0.
        3    1    3    3  502    0  0.80972915309E+02 -0.89856361960E+01  0.11373919712E+03  0.13990700423E+03  0.10100000352E+00 0. -1.
       -3    1    3    3    0  502 -0.80972915309E+02  0.89856361960E+01 -0.12468209689E+04  0.12494798492E+04  0.10100000352E+00 0.  1.
</event>
<event>
 5   0  0.5813850E-03  0.8137283E+03  0.7818609E-02  0.9540356E-01
       -2   -1    0    0    0  501  0.00000000000E+00  0.00000000000E+00  0.22328316732E+03  0.22328316734E+03  0.25500000920E-02 0. -1.
        2   -1    0    0  501    0  0.00000000000E+00  0.00000000000E+00 -0.74138340671E+03  0.74138340672E+03  0.25500000920E-02 0.  1.
    10030    2    1    2    0    0  0.00000000000E+00  0.00000000000E+00 -0.51810023939E+03  0.96466657405E+03  0.81372829682E+03 0.  0.
        5    1    3    3  502    0 -0.28447413379E+03  0.17835291717E+03 -0.53140604129E+03  0.62860939110E+03  0.46999998093E+01 0. -1.
       -5    1    3    3    0  502  0.28447413379E+03 -0.17835291717E+03  0.13305801902E+02  0.33605718296E+03  0.46999998093E+01 0.  1.
</event>
<event>
 5   0  0.6256781E-03  0.7961542E+03  0.7818609E-02  0.9565600E-01
        2   -1    0    0  501    0  0.00000000000E+00  0.00000000000E+00  0.17076428435E+04  0.17076428435E+04  0.25500000920E-02 0. -1.
       -2   -1    0    0    0  501  0.00000000000E+00  0.00000000000E+00 -0.92797736735E+02  0.92797736770E+02  0.25500000920E-02 0.  1.
    10030    2    1    2    0    0  0.00000000000E+00  0.00000000000E+00  0.16148451067E+04  0.18004405802E+04  0.79615423395E+03 0.  0.
        1    1    3    3  502    0  0.22659667395E+03 -0.40812885127E+02  0.73056850990E+02  0.24155547549E+03  0.50400001928E-02 0.  1.
       -1    1    3    3    0  502 -0.22659667395E+03  0.40812885127E+02  0.15417882557E+04  0.15588851048E+04  0.50400001928E-02 0. -1.
</event>
<event>
 5   0  0.3671128E-03  0.7990520E+03  0.7818609E-02  0.9561390E-01
        1   -1    0    0  501    0  0.00000000000E+00  0.00000000000E+00  0.77134894709E+03  0.77134894711E+03  0.50400001928E-02 0. -1.
       -1   -1    0    0    0  501  0.00000000000E+00  0.00000000000E+00 -0.20693750541E+03  0.20693750547E+03  0.50400001928E-02 0.  1.
    10030    2    1    2    0    0  0.00000000000E+00  0.00000000000E+00  0.56441144168E+03  0.97828645258E+03  0.79905200569E+03 0.  0.
        2    1    3    3  502    0  0.37662014431E+03 -0.10100648961E+03  0.38876971405E+03  0.55062413189E+03  0.25500000920E-02 0. -1.
       -2    1    3    3    0  502 -0.37662014431E+03  0.10100648961E+03  0.17564172763E+03  0.42766232069E+03  0.25500000920E-02 0.  1.
</event>
<event>
 5   0  0.6153659E-03  0.8017492E+03  0.7818609E-02  0.9557489E-01
       -2   -1    0    0    0  501  0.00000000000E+00  0.00000000000E+00  0.14443479010E+03  0.14443479012E+03  0.25500000920E-02 0.  1.
        2   -1    0    0  501    0  0.00000000000E+00  0.00000000000E+00 -0.11126159262E+04  0.11126159262E+04  0.25500000920E-02 0. -1.
    10030    2    1    2    0    0  0.00000000000E+00  0.00000000000E+00 -0.96818113609E+03  0.12570507163E+04  0.80174920711E+03 0.  0.
        2    1    3    3  502    0  0.36483512070E+02 -0.10308811878E+03  0.12059753032E+03  0.16279426038E+03  0.25500000920E-02 0.  1.
       -2    1    3    3    0  502 -0.36483512070E+02  0.10308811878E+03 -0.10887786664E+04  0.10942564559E+04  0.25500000920E-02 0. -1.
</event>
<event>
 5   0  0.6256781E-03  0.8006058E+03  0.7818609E-02  0.9559141E-01
       -2   -1    0    0    0  501  0.00000000000E+00  0.00000000000E+00  0.15748539571E+03  0.15748539573E+03  0.25500000920E-02 0. -1.
        2   -1    0    0  501    0  0.00000000000E+00  0.00000000000E+00 -0.10175063651E+04  0.10175063651E+04  0.25500000920E-02 0.  1.
    10030    2    1    2    0    0  0.00000000000E+00  0.00000000000E+00 -0.86002096942E+03  0.11749917609E+04  0.80060575209E+03 0.  0.
        1    1    3    3  502    0 -0.32589487682E+03  0.55560070143E+02 -0.98742331086E+02  0.34502817291E+03  0.50400001928E-02 0. -1.
       -1    1    3    3    0  502  0.32589487682E+03 -0.55560070143E+02 -0.76127863833E+03  0.82996358796E+03  0.50400001928E-02 0.  1.
</event>
<event>
 5   0  0.3671128E-03  0.8000001E+03  0.7818609E-02  0.9560017E-01
       -1   -1    0    0    0  501  0.00000000000E+00  0.00000000000E+00  0.13644164462E+03  0.13644164472E+03  0.50400001928E-02 0. -1.
        1   -1    0    0  501    0  0.00000000000E+00  0.00000000000E+00 -0.11726628990E+04  0.11726628990E+04  0.50400001928E-02 0.  1.
    10030    2    1    2    0    0  0.00000000000E+00  0.00000000000E+00 -0.10362212544E+04  0.13091045437E+04  0.80000013649E+03 0.  0.
        2    1    3    3  502    0 -0.31857090851E+03 -0.23534756264E+03 -0.42664654157E+03  0.58215390614E+03  0.25500000920E-02 0.  1.
       -2    1    3    3    0  502  0.31857090851E+03  0.23534756264E+03 -0.60957471278E+03  0.72695063757E+03  0.25500000920E-02 0. -1.
</event>
<event>
 5   0  0.3860515E-03  0.7992630E+03  0.7818609E-02  0.9561085E-01
        1   -1    0    0  501    0  0.00000000000E+00  0.00000000000E+00  0.93333635017E+03  0.93333635019E+03  0.50400001928E-02 0.  1.
       -1   -1    0    0    0  501  0.00000000000E+00  0.00000000000E+00 -0.17111228977E+03  0.17111228985E+03  0.50400001928E-02 0. -1.
    10030    2    1    2    0    0  0.00000000000E+00  0.00000000000E+00  0.76222406040E+03  0.11044486400E+04  0.79926296062E+03 0.  0.
        4    1    3    3  502    0  0.25127862831E+03 -0.61340482653E+02  0.80206159725E+03  0.84273840695E+03  0.12699999809E+01 0.  1.
       -4    1    3    3    0  502 -0.25127862831E+03  0.61340482653E+02 -0.39837536851E+02  0.26171023309E+03  0.12699999809E+01 0. -1.
</event>
<event>
 5   0  0.5813850E-03  0.7998730E+03  0.7818609E-02  0.9560201E-01
       -2   -1    0    0    0  501  0.00000000000E+00  0.00000000000E+00  0.11986182314E+04  0.11986182314E+04  0.25500000920E-02 0. -1.
        2   -1    0    0  501    0  0.00000000000E+00  0.00000000000E+00 -0.13344466413E+03  0.13344466415E+03  0.25500000920E-02 0.  1.
    10030    2    1    2    0    0  0.00000000000E+00  0.00000000000E+00  0.10651735672E+04  0.13320628955E+04  0.79987300821E+03 0.  0.
        5    1    3    3  502    0  0.14315446890E+03 -0.19774464716E+03  0.10600852420E+04  0.10878414212E+04  0.46999998093E+01 0. -1.
       -5    1    3    3    0  502 -0.14315446890E+03  0.19774464716E+03  0.50883252391E+01  0.24422147428E+03  0.46999998093E+01 0.  1.
</event>
<event>
 5   0  0.3627496E-03  0.7996846E+03  0.7818609E-02  0.9560474E-01
       -1   -1    0    0    0  501  0.00000000000E+00  0.00000000000E+00  0.37885863302E+03  0.37885863305E+03  0.50400001928E-02 0. -1.
        1   -1    0    0  501    0  0.00000000000E+00  0.00000000000E+00 -0.42198817738E+03  0.42198817741E+03  0.50400001928E-02 0.  1.
    10030    2    1    2    0    0  0.00000000000E+00  0.00000000000E+00 -0.43129544360E+02  0.80084681046E+03  0.79968459797E+03 0.  0.
        3    1    3    3  502    0  0.23781852174E+03 -0.12393115216E+03 -0.31857171366E+03  0.41641869158E+03  0.10100000352E+00 0.  1.
       -3    1    3    3    0  502 -0.23781852174E+03  0.12393115216E+03  0.27544216930E+03  0.38442811888E+03  0.10100000352E+00 0. -1.
</event>
<event>
 5   0  0.3714448E-03  0.7972687E+03  0.7818609E-02  0.9563979E-01
       -1   -1    0    0    0  501  0.00000000000E+00  0.00000000000E+00  0.24769556295E+03  0.24769556300E+03  0.50400001928E-02 0.  1.
        1   -1    0    0  501    0  0.00000000000E+00  0.00000000000E+00 -0.64155095957E+03  0.64155095959E+03  0.50400001928E-02 0. -1.
    10030    2    1    2    0    0  0.00000000000E+00  0.00000000000E+00 -0.39385539662E+03  0.88924652259E+03  0.79726865265E+03 0.  0.
        1    1    3    3  502    0  0.26189845512E+03  0.29104196785E+03 -0.28049161919E+03  0.48163448413E+03  0.50400001928E-02 0.  1.
       -1    1    3    3    0  502 -0.26189845512E+03 -0.29104196785E+03 -0.11336377742E+03  0.40761203846E+03  0.50400001928E-02 0. -1.
</event>
<event>
 5   0  0.6536209E-03  0.8034101E+03  0.7818609E-02  0.9555094E-01
        2   -1    0    0  501    0  0.00000000000E+00  0.00000000000E+00  0.15204273690E+04  0.15204273690E+04  0.25500000920E-02 0. -1.
       -2   -1    0    0    0  501  0.00000000000E+00  0.00000000000E+00 -0.10613261852E+03  0.10613261855E+03  0.25500000920E-02 0.  1.
    10030    2    1    2    0    0  0.00000000000E+00  0.00000000000E+00  0.14142947504E+04  0.16265599875E+04  0.80341007702E+03 0.  0.
        3    1    3    3  502    0  0.16186157570E+03  0.15957939278E+03  0.13777116777E+04  0.13963360016E+04  0.10100000352E+00 0. -1.
       -3    1    3    3    0  502 -0.16186157570E+03 -0.15957939278E+03  0.36583072764E+02  0.23022398594E+03  0.10100000352E+00 0.  1.
</event>
<event>
 5   0  0.5813850E-03  0.7984860E+03  0.7818609E-02  0.9562211E-01
        2   -1    0    0  501    0  0.00000000000E+00  0.00000000000E+00  0.51450237074E+03  0.51450237074E+03  0.25500000920E-02 0. -1.
       -2   -1    0    0    0  501  0.00000000000E+00  0.00000000000E+00 -0.30980414265E+03  0.30980414266E+03  0.25500000920E-02 0.  1.
    10030    2    1    2    0    0  0.00000000000E+00  0.00000000000E+00  0.20469822809E+03  0.82430651340E+03  0.79848598200E+03 0.  0.
        5    1    3    3  502    0 -0.10653764860E+03 -0.38324535546E+03  0.67407861298E+02  0.40347637206E+03  0.46999998093E+01 0.  1.
       -5    1    3    3    0  502  0.10653764860E+03  0.38324535546E+03  0.13729036679E+03  0.42083014134E+03  0.46999998093E+01 0. -1.
</event>
<event>
 5   0  0.3753450E-03  0.7873875E+03  0.7818609E-02  0.9578455E-01
        1   -1    0    0  501    0  0.00000000000E+00  0.00000000000E+00  0.35406576970E+03  0.35406576974E+03  0.50400001928E-02 0. -1.
       -1   -1    0    0    0  501  0.00000000000E+00  0.00000000000E+00 -0.43775698514E+03  0.43775698517E+03  0.50400001928E-02 0.  1.
    10030    2    1    2    0    0  0.00000000000E+00  0.00000000000E+00 -0.83691215433E+02  0.79182275491E+03  0.78738748761E+03 0.  0.
        5    1    3    3  502    0 -0.40536418831E+02  0.32626864844E+03  0.17588782818E+03  0.37289817686E+03  0.46999998093E+01 0. -1.
       -5    1    3    3    0  502  0.40536418831E+02 -0.32626864844E+03 -0.25957904361E+03  0.41892457804E+03  0.46999998093E+01 0.  1.
</event>
<event>
 5   0  0.3671128E-03  0.7991968E+03  0.7818609E-02  0.9561180E-01
       -1   -1    0    0    0  501  0.00000000000E+00  0.00000000000E+00  0.72816839173E+03  0.72816839175E+03  0.50400001928E-02 0.  1.
        1   -1    0    0  501    0  0.00000000000E+00  0.00000000000E+00 -0.21928842094E+03  0.21928842099E+03  0.50400001928E-02 0. -1.
    10030    2    1    2    0    0  0.00000000000E+00  0.00000000000E+00  0.50887997079E+03  0.94745681274E+03  0.79919683892E+03 0.  0.
        2    1    3    3  502    0 -0.64103140593E+02 -0.38536300986E+03  0.15479330873E+03  0.42020807993E+03  0.25500000920E-02 0.  1.
       -2    1    3    3    0  502  0.64103140593E+02  0.38536300986E+03  0.35408666206E+03  0.52724873282E+03  0.25500000920E-02 0. -1.
</event>
<event>
 5   0  0.6337108E-03  0.8003613E+03  0.7818609E-02  0.9559494E-01
       -2   -1    0    0    0  501  0.00000000000E+00  0.00000000000E+00  0.12507928816E+03  0.12507928819E+03  0.25500000920E-02 0. -1.
        2   -1    0    0  501    0  0.00000000000E+00  0.00000000000E+00 -0.12803442036E+04  0.12803442036E+04  0.25500000920E-02 0.  1.
    10030    2    1    2    0    0  0.00000000000E+00  0.00000000000E+00 -0.11552649154E+04  0.14054234918E+04  0.80036127244E+03 0.  0.
        4    1    3    3  502    0 -0.17013523936E+03 -0.34641984473E+03 -0.39187748065E+03  0.55002025530E+03  0.12699999809E+01 0. -1.
       -4    1    3    3    0  502  0.17013523936E+03  0.34641984473E+03 -0.76338743475E+03  0.85540323646E+03  0.12699999809E+01 0.  1.
</event>
<event>
 5   0  0.5813850E-03  0.8255480E+03  0.7818609E-02  0.9523756E-01
       -2   -1    0    0    0  501  0.00000000000E+00  0.00000000000E+00  0.44014970215E+03  0.44014970216E+03  0.25500000920E-02 0.  1.
        2   -1    0    0  501    0  0.00000000000E+00  0.00000000000E+00 -0.38710098231E+03  0.38710098232E+03  0.25500000920E-02 0. -1.
    10030    2    1    2    0    0  0.00000000000E+00  0.00000000000E+00  0.53048719841E+02  0.82725068448E+03  0.82554801696E+03 0.  0.
        5    1    3    3  502    0  0.34953736234E+03 -0.11544135783E+03  0.21361030132E+03  0.42562251538E+03  0.46999998093E+01 0.  1.
       -5    1    3    3    0  502 -0.34953736234E+03  0.11544135783E+03 -0.16056158148E+03  0.40162816910E+03  0.46999998093E+01 0. -1.
</event>
<event>
 5   0  0.3860515E-03  0.7950864E+03  0.7818609E-02  0.9567157E-01
       -1   -1    0    0    0  501  0.00000000000E+00  0.00000000000E+00  0.28953779362E+03  0.28953779366E+03  0.50400001928E-02 0.  1.
        1   -1    0    0  501    0  0.00000000000E+00  0.00000000000E+00 -0.54583749802E+03  0.54583749804E+03  0.50400001928E-02 0. -1.
    10030    2    1    2    0    0  0.00000000000E+00  0.00000000000E+00 -0.25629970440E+03  0.83537529170E+03  0.79508637236E+03 0.  0.
        4    1    3    3  502    0 -0.18913412052E+03  0.34033975750E+03 -0.43859298513E+02  0.39182664157E+03  0.12699999809E+01 0.  1.
       -4    1    3    3    0  502  0.18913412052E+03 -0.34033975750E+03 -0.21244040588E+03  0.44354865013E+03  0.12699999809E+01 0. -1.
</event>
<event>
 5   0  0.6153659E-03  0.8004177E+03  0.7818609E-02  0.9559413E-01
       -2   -1    0    0    0  501  0.00000000000E+00  0.00000000000E+00  0.12582343120E+03  0.12582343122E+03  0.25500000920E-02 0. -1.
        2   -1    0    0  501    0  0.00000000000E+00  0.00000000000E+00 -0.12729514533E+04  0.12729514533E+04  0.25500000920E-02 0.  1.
    10030    2    1    2    0    0  0.00000000000E+00  0.00000000000E+00 -0.11471280221E+04  0.13987748845E+04  0.80041769001E+03 0.  0.
        2    1    3    3  502    0 -0.34585718581E+03 -0.14252689332E+03 -0.32496831567E+03  0.49551540288E+03  0.25500000920E-02 0. -1.
       -2    1    3    3    0  502  0.34585718581E+03  0.14252689332E+03 -0.82215970644E+03  0.90325948165E+03  0.25500000920E-02 0.  1.
</event>
<event>
 5   0  0.2478000E-03  0.7983674E+03  0.7818609E-02  0.9562383E-01
       -3   -1    0    0    0  501  0.00000000000E+00  0.00000000000E+00  0.35792332395E+03  0.35792333820E+03  0.10100000352E+00 0.  1.
        3   -1    0    0  501    0  0.00000000000E+00  0.00000000000E+00 -0.44520048054E+03  0.44520049199E+03  0.10100000352E+00 0. -1.
    10030    2    1    2    0    0  0.00000000000E+00  0.00000000000E+00 -0.87277156583E+02  0.80312383019E+03  0.79836744959E+03 0.  0.
        3    1    3    3  502    0  0.36143220943E+03  0.12398932185E+03 -0.15983013386E+03  0.41418869593E+03  0.10100000352E+00 0. -1.
       -3    1    3    3    0  502 -0.36143220943E+03 -0.12398932185E+03  0.72552977278E+02  0.38893513426E+03  0.10100000352E+00 0.  1.
</event>
<event>
 5   0  0.3671128E-03  0.8037650E+03  0.7818609E-02  0.9554583E-01
       -1   -1    0    0    0  501  0.00000000000E+00  0.00000000000E+00  0.65090296541E+03  0.65090296543E+03  0.50400001928E-02 0. -1.
        1   -1    0    0  501    0  0.00000000000E+00  0.00000000000E+00 -0.24813152597E+03  0.24813152603E+03  0.50400001928E-02 0.  1.
    10030    2    1    2    0    0  0.00000000000E+00  0.00000000000E+00  0.40277143944E+03  0.89903449145E+03  0.80376500571E+03 0.  0.
        2    1    3    3  502    0 -0.34680320508E+03  0.10833795264E+03  0.39349929514E+03  0.53558497955E+03  0.25500000920E-02 0. -1.
       -2    1    3    3    0  502  0.34680320508E+03 -0.10833795264E+03  0.92721442986E+01  0.36344951191E+03  0.25500000920E-02 0.  1.
</event>
<event>
 5   0  0.6256781E-03  0.7992146E+03  0.7818609E-02  0.9561155E-01
       -2   -1    0    0    0  501  0.00000000000E+00  0.00000000000E+00  0.11104878668E+03  0.11104878671E+03  0.25500000920E-02 0.  1.
        2   -1    0    0  501    0  0.00000000000E+00  0.00000000000E+00 -0.14379805516E+04  0.14379805516E+04  0.25500000920E-02 0. -1.
    10030    2    1    2    0    0  0.00000000000E+00  0.00000000000E+00 -0.13269317649E+04  0.15490293383E+04  0.79921460334E+03 0.  0.
        1    1    3    3  502    0  0.32939961134E+03 -0.87354744366E+02 -0.25898732930E+03  0.42802966262E+03  0.50400001928E-02 0.  1.
       -1    1    3    3    0  502 -0.32939961134E+03  0.87354744366E+02 -0.10679444356E+04  0.11209996757E+04  0.50400001928E-02 0. -1.
</event>
<event>
 5   0  0.3714448E-03  0.8024766E+03  0.7818609E-02  0.9556439E-01
        1   -1    0    0  501    0  0.00000000000E+00  0.00000000000E+00  0.24470432904E+03  0.24470432909E+03  0.50400001928E-02 0. -1.
       -1   -1    0    0    0  501  0.00000000000E+00  0.00000000000E+00 -0.65790484034E+03  0.65790484036E+03  0.50400001928E-02 0.  1.
    10030    2    1    2    0    0  0.00000000000E+00  0.00000000000E+00 -0.41320051130E+03  0.90260916945E+03  0.80247657301E+03 0.  0.
        1    1    3    3  502    0 -0.76506462935E+02  0.27277405782E+03 -0.52619053506E+03  0.59760806948E+03  0.50400001928E-02 0.  1.
       -1    1    3    3    0  502  0.76506462935E+02 -0.27277405782E+03  0.11299002376E+03  0.30500109997E+03  0.50400001928E-02 0. -1.
</event>
<event>
 5   0  0.3627496E-03  0.7986072E+03  0.7818609E-02  0.9562035E-01
       -1   -1    0    0    0  501  0.00000000000E+00  0.00000000000E+00  0.52134212419E+03  0.52134212421E+03  0.50400001928E-02 0.  1.
        1   -1    0    0  501    0  0.00000000000E+00  0.00000000000E+00 -0.30583249738E+03  0.30583249742E+03  0.50400001928E-02 0. -1.
    10030    2    1    2    0    0  0.00000000000E+00  0.00000000000E+00  0.21550962681E+03  0.82717462163E+03  0.79860719720E+03 0.  0.
        3    1    3    3  502    0  0.28787789175E+02  0.16427935690E+02 -0.30440514922E+03  0.30620437448E+03  0.10100000352E+00 0. -1.
       -3    1    3    3    0  502 -0.28787789175E+02 -0.16427935690E+02  0.51991477604E+03  0.52097024715E+03  0.10100000352E+00 0.  1.
</event>
<event>
 5   0  0.6337108E-03  0.7927228E+03  0.7818609E-02  0.9570611E-01
       -2   -1    0    0    0  501  0.00000000000E+00  0.00000000000E+00  0.56963987602E+02  0.56963987659E+02  0.25500000920E-02 0.  1.
        2   -1    0    0  501    0  0.00000000000E+00  0.00000000000E+00 -0.27579240312E+04  0.27579240312E+04  0.25500000920E-02 0. -1.
    10030    2    1    2    0    0  0.00000000000E+00  0.00000000000E+00 -0.27009600436E+04  0.28148880188E+04  0.79272277727E+03 0.  0.
        4    1    3    3  502    0  0.25862497334E+02 -0.91612126324E+02 -0.27167231314E+04  0.27183906702E+04  0.12699999809E+01 0. -1.
       -4    1    3    3    0  502 -0.25862497334E+02  0.91612126324E+02  0.15763087784E+02  0.96497348639E+02  0.12699999809E+01 0.  1.
</event>
<event>
 5   0  0.6256781E-03  0.7991977E+03  0.7818609E-02  0.9561179E-01
        2   -1    0    0  501    0  0.00000000000E+00  0.00000000000E+00  0.92273260935E+03  0.92273260935E+03  0.25500000920E-02 0. -1.
       -2   -1    0    0    0  501  0.00000000000E+00  0.00000000000E+00 -0.17305040480E+03  0.17305040482E+03  0.25500000920E-02 0.  1.
    10030    2    1    2    0    0  0.00000000000E+00  0.00000000000E+00  0.74968220455E+03  0.10957830142E+04  0.79919772669E+03 0.  0.
        1    1    3    3  502    0  0.34190419724E+03 -0.13221167500E+03  0.15675005766E+03  0.39868407003E+03  0.50400001928E-02 0.  1.
       -1    1    3    3    0  502 -0.34190419724E+03  0.13221167500E+03  0.59293214689E+03  0.69709894415E+03  0.50400001928E-02 0. -1.
</event>
<event>
 5   0  0.5813850E-03  0.8040254E+03  0.7818609E-02  0.9554209E-01
        2   -1    0    0  501    0  0.00000000000E+00  0.00000000000E+00  0.26879426518E+04  0.26879426518E+04  0.25500000920E-02 0.  1.
       -2   -1    0    0    0  501  0.00000000000E+00  0.00000000000E+00 -0.60125621804E+02  0.60125621858E+02  0.25500000920E-02 0. -1.
    10030    2    1    2    0    0  0.00000000000E+00  0.00000000000E+00  0.26278170300E+04  0.27480682736E+04  0.80402543091E+03 0.  0.
        5    1    3    3  502    0 -0.32745775908E+03 -0.27070048931E+01  0.21107691309E+04  0.21360253570E+04  0.46999998093E+01 0.  1.
       -5    1    3    3    0  502  0.32745775908E+03  0.27070048931E+01  0.51704789911E+03  0.61204291665E+03  0.46999998093E+01 0. -1.
</event>
<event>
 5   0  0.3860515E-03  0.8003710E+03  0.7818609E-02  0.9559480E-01
        1   -1    0    0  501    0  0.00000000000E+00  0.00000000000E+00  0.83842025293E+03  0.83842025295E+03  0.50400001928E-02 0.  1.
       -1   -1    0    0    0  501  0.00000000000E+00  0.00000000000E+00 -0.19101213740E+03  0.19101213747E+03  0.50400001928E-02 0. -1.
    10030    2    1    2    0    0  0.00000000000E+00  0.00000000000E+00  0.64740811553E+03  0.10294323904E+04  0.80037102546E+03 0.  0.
        4    1    3    3  502    0  0.17193114092E+03  0.64858439531E+02 -0.13353726219E+03  0.22715797959E+03  0.12699999809E+01 0. -1.
       -4    1    3    3    0  502 -0.17193114092E+03 -0.64858439531E+02  0.78094537771E+03  0.80227441083E+03  0.12699999809E+01 0.  1.
</event>
<event>
 5   0  0.3753450E-03  0.7980209E+03  0.7818609E-02  0.9562886E-01
        1   -1    0    0  501    0  0.00000000000E+00  0.00000000000E+00  0.36956989854E+03  0.36956989857E+03  0.50400001928E-02 0.  1.
       -1   -1    0    0    0  501  0.00000000000E+00  0.00000000000E+00 -0.43079624459E+03  0.43079624462E+03  0.50400001928E-02 0. -1.
    10030    2    1    2    0    0  0.00000000000E+00  0.00000000000E+00 -0.61226346048E+02  0.80036614319E+03  0.79802086296E+03 0.  0.
        5    1    3    3  502    0 -0.33774840672E+03 -0.24436479305E+02 -0.24222164480E+03  0.41637067977E+03  0.46999998093E+01 0.  1.
       -5    1    3    3    0  502  0.33774840672E+03  0.24436479305E+02  0.18099529875E+03  0.38399546342E+03  0.46999998093E+01 0. -1.
</event>
<event>
 5   0  0.6153659E-03  0.8039599E+03  0.7818609E-02  0.9554303E-01
        2   -1    0    0  501    0  0.00000000000E+00  0.00000000000E+00  0.84454284107E+03  0.84454284107E+03  0.25500000920E-02 0.  1.
       -2   -1    0    0    0  501  0.00000000000E+00  0.00000000000E+00 -0.19133177247E+03  0.19133177248E+03  0.25500000920E-02 0. -1.
    10030    2    1    2    0    0  0.00000000000E+00  0.00000000000E+00  0.65321106861E+03  0.10358746136E+04  0.80395989630E+03 0.  0.
        2    1    3    3  502    0 -0.25435328171E+03 -0.18274328408E+03  0.19296592760E+01  0.31320029276E+03  0.25500000920E-02 0. -1.
       -2    1    3    3    0  502  0.25435328171E+03  0.18274328408E+03  0.65128140933E+03  0.72267432080E+03  0.25500000920E-02 0.  1.
</event>
<event>
 5   0  0.3860515E-03  0.8010251E+03  0.7818609E-02  0.9558534E-01
        1   -1    0    0  501    0  0.00000000000E+00  0.00000000000E+00  0.60270180134E+03  0.60270180136E+03  0.50400001928E-02 0.  1.
       -1   -1    0    0    0  501  0.00000000000E+00  0.00000000000E+00 -0.26615205440E+03  0.26615205445E+03  0.50400001928E-02 0. -1.
    10030    2    1    2    0    0  0.00000000000E+00  0.00000000000E+00  0.33654974694E+03  0.86885385581E+03  0.80102514979E+03 0.  0.
        4    1    3    3  502    0  0.17844361748E+03 -0.52440146068E+02  0.55301685849E+03  0.58345638416E+03  0.12699999809E+01 0.  1.
       -4    1    3    3    0  502 -0.17844361748E+03  0.52440146068E+02 -0.21646711155E+03  0.28539747165E+03  0.12699999809E+01 0. -1.
</event>
<event>
 5   0  0.5813850E-03  0.8045653E+03  0.7818609E-02  0.9553432E-01
       -2   -1    0    0    0  501  0.00000000000E+00  0.00000000000E+00  0.30800877088E+03  0.30800877089E+03  0.25500000920E-02 0. -1.
        2   -1    0    0  501    0  0.00000000000E+00  0.00000000000E+00 -0.52541144279E+03  0.52541144280E+03  0.25500000920E-02 0.  1.
    10030    2    1    2    0    0  0.00000000000E+00  0.00000000000E+00 -0.21740267191E+03  0.83342021368E+03  0.80456530551E+03 0.  0.
        5    1    3    3  502    0 -0.89185552551E+02  0.35261785767E+03  0.69261862319E+02  0.37028733695E+03  0.46999998093E+01 0. -1.
       -5    1    3    3    0  502  0.89185552551E+02 -0.35261785767E+03 -0.28666453423E+03  0.46313287674E+03  0.46999998093E+01 0.  1.
</event>
<event>
 5   0  0.3753450E-03  0.7978764E+03  0.7818609E-02  0.9563096E-01
        1   -1    0    0  501    0  0.00000000000E+00  0.00000000000E+00  0.14195317818E+04  0.14195317818E+04  0.50400001928E-02 0.  1.
       -1   -1    0    0    0  501  0.00000000000E+00  0.00000000000E+00 -0.11211562347E+03  0.11211562359E+03  0.50400001928E-02 0. -1.
    10030    2    1    2    0    0  0.00000000000E+00  0.00000000000E+00  0.13074161583E+04  0.15316474054E+04  0.79787640859E+03 0.  0.
        5    1    3    3  502    0 -0.18686233885E+03 -0.16746313720E+03  0.58404025700E+02  0.25767141133E+03  0.46999998093E+01 0. -1.
       -5    1    3    3    0  502  0.18686233885E+03  0.16746313720E+03  0.12490121326E+04  0.12739759940E+04  0.46999998093E+01 0.  1.
</event>
<event>
 5   0  0.3860515E-03  0.8006563E+03  0.7818609E-02  0.9559068E-01
       -1   -1    0    0    0  501  0.00000000000E+00  0.00000000000E+00  0.92958797546E+02  0.92958797683E+02  0.50400001928E-02 0. -1.
        1   -1    0    0  501    0  0.00000000000E+00  0.00000000000E+00 -0.17240177910E+04  0.17240177910E+04  0.50400001928E-02 0.  1.
    10030    2    1    2    0    0  0.00000000000E+00  0.00000000000E+00 -0.16310589934E+04  0.18169765887E+04  0.80065628313E+03 0.  0.
        4    1    3    3  502    0  0.14318900052E+03 -0.24484171673E+03 -0.14566403077E+04  0.14839990415E+04  0.12699999809E+01 0.  1.
       -4    1    3    3    0  502 -0.14318900052E+03  0.24484171673E+03 -0.17441868574E+03  0.33297754723E+03  0.12699999809E+01 0. -1.
</event>
<event>
 5   0  0.6153659E-03  0.8001022E+03  0.7818609E-02  0.9559869E-01
       -2   -1    0    0    0  501  0.00000000000E+00  0.00000000000E+00  0.58714259851E+03  0.58714259852E+03  0.25500000920E-02 0.  1.
        2   -1    0    0  501    0  0.00000000000E+00  0.00000000000E+00 -0.27257585939E+03  0.27257585940E+03  0.25500000920E-02 0. -1.
    10030    2    1    2    0    0  0.00000000000E+00  0.00000000000E+00  0.31456673912E+03  0.85971845792E+03  0.80010223942E+03 0.  0.
        2    1    3    3  502    0 -0.27379172276E+03  0.24291098172E+03  0.33078689959E+03  0.49334331397E+03  0.25500000920E-02 0.  1.
       -2    1    3    3    0  502  0.27379172276E+03 -0.24291098172E+03 -0.16220160461E+02  0.36637514395E+03  0.25500000920E-02 0. -1.
</event>
<event>
 5   0  0.3753450E-03  0.7992668E+03  0.7818609E-02  0.9561079E-01
        1   -1    0    0  501    0  0.00000000000E+00  0.00000000000E+00  0.14529373174E+03  0.14529373183E+03  0.50400001928E-02 0.  1.
       -1   -1    0    0    0  501  0.00000000000E+00  0.00000000000E+00 -0.10991999487E+04  0.10991999487E+04  0.50400001928E-02 0. -1.
    10030    2    1    2    0    0  0.00000000000E+00  0.00000000000E+00 -0.95390621699E+03  0.12444936806E+04  0.79926682038E+03 0.  0.
        5    1    3    3  502    0  0.75236527708E+02  0.37809517947E+03 -0.64076326919E+03  0.74780756681E+03  0.46999998093E+01 0.  1.
       -5    1    3    3    0  502 -0.75236527708E+02 -0.37809517947E+03 -0.31314294781E+03  0.49668611376E+03  0.46999998093E+01 0. -1.
</event>
<event>
 5   0  0.6256781E-03  0.7998105E+03  0.7818609E-02  0.9560291E-01
       -2   -1    0    0    0  501  0.00000000000E+00  0.00000000000E+00  0.17187740910E+03  0.17187740912E+03  0.25500000920E-02 0. -1.
        2   -1    0    0  501    0  0.00000000000E+00  0.00000000000E+00 -0.93045509591E+03  0.93045509591E+03  0.25500000920E-02 0.  1.
    10030    2    1    2    0    0  0.00000000000E+00  0.00000000000E+00 -0.75857768681E+03  0.11023325050E+04  0.79981050550E+03 0.  0.
        1    1    3    3  502    0 -0.87160209890E+02 -0.38959489487E+03 -0.41140888877E+03  0.57326988241E+03  0.50400001928E-02 0. -1.
       -1    1    3    3    0  502  0.87160209890E+02  0.38959489487E+03 -0.34716879804E+03  0.52906262262E+03  0.50400001928E-02 0.  1.
</event>
<event>
 5   0  0.3714448E-03  0.8074095E+03  0.7818609E-02  0.9549354E-01
        1   -1    0    0  501    0  0.00000000000E+00  0.00000000000E+00  0.57269052130E+03  0.57269052132E+03  0.50400001928E-02 0.  1.
       -1   -1    0    0    0  501  0.00000000000E+00  0.00000000000E+00 -0.28458220306E+03  0.28458220311E+03  0.50400001928E-02 0. -1.
    10030    2    1    2    0    0  0.00000000000E+00  0.00000000000E+00  0.28810831824E+03  0.85727272442E+03  0.80740951258E+03 0.  0.
        1    1    3    3  502    0 -0.35451271353E+03  0.11633540248E+03  0.30773129832E+03  0.48364423073E+03  0.50400001928E-02 0.  1.
       -1    1    3    3    0  502  0.35451271353E+03 -0.11633540248E+03 -0.19622980087E+02  0.37362849369E+03  0.50400001928E-02 0. -1.
</event>
<event>
 5   0  0.3671128E-03  0.8131147E+03  0.7818609E-02  0.9541226E-01
        1   -1    0    0  501    0  0.00000000000E+00  0.00000000000E+00  0.43524834840E+03  0.43524834843E+03  0.50400001928E-02 0.  1.
       -1   -1    0    0    0  501  0.00000000000E+00  0.00000000000E+00 -0.37975764578E+03  0.37975764581E+03  0.50400001928E-02 0. -1.
    10030    2    1    2    0    0  0.00000000000E+00  0.00000000000E+00  0.55490702618E+02  0.81500599424E+03  0.81311472288E+03 0.  0.
        2    1    3    3  502    0 -0.60377287415E+01  0.40581783736E+03  0.39347431564E+01  0.40588182208E+03  0.25500000920E-02 0.  1.
       -2    1    3    3    0  502  0.60377287415E+01 -0.40581783736E+03  0.51555959462E+02  0.40912417216E+03  0.25500000920E-02 0. -1.
</event>
<event>
 5   0  0.6337108E-03  0.8002791E+03  0.7818609E-02  0.9559613E-01
        2   -1    0    0  501    0  0.00000000000E+00  0.00000000000E+00  0.55523186204E+03  0.55523186205E+03  0.25500000920E-02 0. -1.
       -2   -1    0    0    0  501  0.00000000000E+00  0.00000000000E+00 -0.28836900798E+03  0.28836900799E+03  0.25500000920E-02 0.  1.
    10030    2    1    2    0    0  0.00000000000E+00  0.00000000000E+00  0.26686285407E+03  0.84360087004E+03  0.80027910447E+03 0.  0.
        4    1    3    3  502    0  0.90393391336E+02 -0.12375973436E+03 -0.25620255991E+03  0.29854447181E+03  0.12699999809E+01 0.  1.
       -4    1    3    3    0  502 -0.90393391336E+02  0.12375973436E+03  0.52306541398E+03  0.54505639822E+03  0.12699999809E+01 0. -1.
</event>
<event>
 5   0  0.6153659E-03  0.7959626E+03  0.7818609E-02  0.9565880E-01
       -2   -1    0    0    0  501  0.00000000000E+00  0.00000000000E+00  0.10770144443E+03  0.10770144446E+03  0.25500000920E-02 0.  1.
        2   -1    0    0  501    0  0.00000000000E+00  0.00000000000E+00 -0.14706312137E+04  0.14706312137E+04  0.25500000920E-02 0. -1.
    10030    2    1    2    0    0  0.00000000000E+00  0.00000000000E+00 -0.13629297692E+04  0.15783326581E+04  0.79596257692E+03 0.  0.
        2    1    3    3  502    0  0.15240361265E+03  0.15116319831E+03 -0.16928379606E+02  0.21532241805E+03  0.25500000920E-02 0.  1.
       -2    1    3    3    0  502 -0.15240361265E+03 -0.15116319831E+03 -0.13460013896E+04  0.13630102401E+04  0.25500000920E-02 0. -1.
</event>
<event>
 5   0  0.6337108E-03  0.8004666E+03  0.7818609E-02  0.9559342E-01
       -2   -1    0    0    0  501  0.00000000000E+00  0.00000000000E+00  0.22684478407E+03  0.22684478408E+03  0.25500000920E-02 0.  1.
        2   -1    0    0  501    0  0.00000000000E+00  0.00000000000E+00 -0.70615111347E+03  0.70615111348E+03  0.25500000920E-02 0. -1.
    10030    2    1    2    0    0  0.00000000000E+00  0.00000000000E+00 -0.47930632940E+03  0.93299589756E+03  0.80046660609E+03 0.  0.
        4    1    3    3  502    0 -0.30616174709E+02 -0.10642363864E+03  0.20863009695E+03  0.23620218303E+03  0.12699999809E+01 0.  1.
       -4    1    3    3    0  502  0.30616174709E+02  0.10642363864E+03 -0.68793642635E+03  0.69679371453E+03  0.12699999809E+01 0. -1.
</event>
<event>
 5   0  0.2478000E-03  0.7936523E+03  0.7818609E-02  0.9569251E-01
       -4   -1    0    0    0  501  0.00000000000E+00  0.00000000000E+00  0.34161221536E+03  0.34161457607E+03  0.12699999809E+01 0. -1.
        4   -1    0    0  501    0  0.00000000000E+00  0.00000000000E+00 -0.46095938793E+03  0.46096113743E+03  0.12699999809E+01 0.  1.
    10030    2    1    2    0    0  0.00000000000E+00  0.00000000000E+00 -0.11934717257E+03  0.80257571350E+03  0.79365233465E+03 0.  0.
        5    1    3    3  502    0  0.20579728236E+03  0.27771815660E+03  0.13737368083E+03  0.37198590580E+03  0.46999998093E+01 0. -1.
       -5    1    3    3    0  502 -0.20579728236E+03 -0.27771815660E+03 -0.25672085340E+03  0.43058980770E+03  0.46999998093E+01 0.  1.
</event>
<event>
 5   0  0.6256781E-03  0.8078418E+03  0.7818609E-02  0.9548735E-01
       -2   -1    0    0    0  501  0.00000000000E+00  0.00000000000E+00  0.33860466049E+03  0.33860466050E+03  0.25500000920E-02 0.  1.
        2   -1    0    0  501    0  0.00000000000E+00  0.00000000000E+00 -0.48183647158E+03  0.48183647158E+03  0.25500000920E-02 0. -1.
    10030    2    1    2    0    0  0.00000000000E+00  0.00000000000E+00 -0.14323181109E+03  0.82044113209E+03  0.80784175400E+03 0.  0.
        1    1    3    3  502    0 -0.38929515713E+02  0.68217449692E+02 -0.47400608044E+03  0.48046944955E+03  0.50400001928E-02 0. -1.
       -1    1    3    3    0  502  0.38929515713E+02 -0.68217449692E+02  0.33077426935E+03  0.33997168254E+03  0.50400001928E-02 0.  1.
</event>
<event>
 5   0  0.3860515E-03  0.7979282E+03  0.7818609E-02  0.9563021E-01
       -1   -1    0    0    0  501  0.00000000000E+00  0.00000000000E+00  0.58140228836E+03  0.58140228838E+03  0.50400001928E-02 0. -1.
        1   -1    0    0  501    0  0.00000000000E+00  0.00000000000E+00 -0.27377316623E+03  0.27377316628E+03  0.50400001928E-02 0.  1.
    10030    2    1    2    0    0  0.00000000000E+00  0.00000000000E+00  0.30762912213E+03  0.85517545466E+03  0.79792818065E+03 0.  0.
        4    1    3    3  502    0  0.14433022242E+03  0.34284506430E+03  0.30837184799E+03  0.48318605190E+03  0.12699999809E+01 0. -1.
       -4    1    3    3    0  502 -0.14433022242E+03 -0.34284506430E+03 -0.74272586759E+00  0.37198940276E+03  0.12699999809E+01 0.  1.
</event>
<event>
 5   0  0.3671128E-03  0.8165238E+03  0.7818609E-02  0.9536403E-01
       -1   -1    0    0    0  501  0.00000000000E+00  0.00000000000E+00  0.16967598830E+03  0.16967598838E+03  0.50400001928E-02 0.  1.
        1   -1    0    0  501    0  0.00000000000E+00  0.00000000000E+00 -0.98232978233E+03  0.98232978234E+03  0.50400001928E-02 0. -1.
    10030    2    1    2    0    0  0.00000000000E+00  0.00000000000E+00 -0.81265379402E+03  0.11520057707E+04  0.81652379440E+03 0.  0.
        2    1    3    3  502    0 -0.11641322461E+03 -0.56714015783E+02 -0.95258769796E+03  0.96134896930E+03  0.25500000920E-02 0. -1.
       -2    1    3    3    0  502  0.11641322461E+03  0.56714015783E+02  0.13993390394E+03  0.19065680142E+03  0.25500000920E-02 0.  1.
</event>
<event>
 5   0  0.3714448E-03  0.8000836E+03  0.7818609E-02  0.9559896E-01
        1   -1    0    0  501    0  0.00000000000E+00  0.00000000000E+00  0.78773987808E+03  0.78773987809E+03  0.50400001928E-02 0.  1.
       -1   -1    0    0    0  501  0.00000000000E+00  0.00000000000E+00 -0.20315516283E+03  0.20315516289E+03  0.50400001928E-02 0. -1.
    10030    2    1    2    0    0  0.00000000000E+00  0.00000000000E+00  0.58458471525E+03  0.99089504098E+03  0.80008355372E+03 0.  0.
        1    1    3    3  502    0 -0.10524638386E+02  0.35861827409E+03  0.51145806511E+03  0.62474569780E+03  0.50400001928E-02 0. -1.
       -1    1    3    3    0  502  0.10524638386E+02 -0.35861827409E+03  0.73126650142E+02  0.36614934318E+03  0.50400001928E-02 0.  1.
</event>
<event>
 5   0  0.6256781E-03  0.7965843E+03  0.7818609E-02  0.9564974E-01
       -2   -1    0    0    0  501  0.00000000000E+00  0.00000000000E+00  0.29792958774E+03  0.29792958775E+03  0.25500000920E-02 0.  1.
        2   -1    0    0  501    0  0.00000000000E+00  0.00000000000E+00 -0.53246347845E+03  0.53246347846E+03  0.25500000920E-02 0. -1.
    10030    2    1    2    0    0  0.00000000000E+00  0.00000000000E+00 -0.23453389071E+03  0.83039306621E+03  0.79658426957E+03 0.  0.
        1    1    3    3  502    0 -0.39130618721E+03  0.54576094654E+02 -0.16977895483E+03  0.43002787791E+03  0.50400001928E-02 0. -1.
       -1    1    3    3    0  502  0.39130618721E+03 -0.54576094654E+02 -0.64754935878E+02  0.40036518830E+03  0.50400001928E-02 0.  1.
</event>
<event>
 5   0  0.3714448E-03  0.8032538E+03  0.7818609E-02  0.9555319E-01
       -1   -1    0    0    0  501  0.00000000000E+00  0.00000000000E+00  0.24568386106E+03  0.24568386111E+03  0.50400001928E-02 0.  1.
        1   -1    0    0  501    0  0.00000000000E+00  0.00000000000E+00 -0.65655177367E+03  0.65655177369E+03  0.50400001928E-02 0. -1.
    10030    2    1    2    0    0  0.00000000000E+00  0.00000000000E+00 -0.41086791261E+03  0.90223563480E+03  0.80325381984E+03 0.  0.
        1    1    3    3  502    0  0.53579596087E+02  0.27700703185E+03 -0.52648903885E+03  0.59732267399E+03  0.50400001928E-02 0. -1.
       -1    1    3    3    0  502 -0.53579596087E+02 -0.27700703185E+03  0.11562112623E+03  0.30491296081E+03  0.50400001928E-02 0.  1.
</event>
<event>
 5   0  0.3753450E-03  0.7995506E+03  0.7818609E-02  0.9560668E-01
       -1   -1    0    0    0  501  0.00000000000E+00  0.00000000000E+00  0.41267040318E+03  0.41267040321E+03  0.50400001928E-02 0.  1.
        1   -1    0    0  501    0  0.00000000000E+00  0.00000000000E+00 -0.38728315643E+03  0.38728315646E+03  0.50400001928E-02 0. -1.
    10030    2    1    2    0    0  0.00000000000E+00  0.00000000000E+00  0.25387246752E+02  0.79995355968E+03  0.79955061462E+03 0.  0.
        5    1    3    3  502    0  0.12717214760E+01  0.26194633720E+03  0.31480723165E+03  0.40956462732E+03  0.46999998093E+01 0.  1.
       -5    1    3    3    0  502 -0.12717214760E+01 -0.26194633720E+03 -0.28941998490E+03  0.39038893236E+03  0.46999998093E+01 0. -1.
</event>
<event>
 5   0  0.3627496E-03  0.7995889E+03  0.7818609E-02  0.9560612E-01
       -1   -1    0    0    0  501  0.00000000000E+00  0.00000000000E+00  0.27338548308E+03  0.27338548312E+03  0.50400001928E-02 0. -1.
        1   -1    0    0  501    0  0.00000000000E+00  0.00000000000E+00 -0.58465282884E+03  0.58465282886E+03  0.50400001928E-02 0.  1.
    10030    2    1    2    0    0  0.00000000000E+00  0.00000000000E+00 -0.31126734576E+03  0.85803831198E+03  0.79958888455E+03 0.  0.
        3    1    3    3  502    0  0.23677560349E+03 -0.13368417107E+03  0.15888045490E+03  0.31492404347E+03  0.10100000352E+00 0. -1.
       -3    1    3    3    0  502 -0.23677560349E+03  0.13368417107E+03 -0.47014780066E+03  0.54311426852E+03  0.10100000352E+00 0.  1.
</event>
<event>
 5   0  0.6153659E-03  0.8085684E+03  0.7818609E-02  0.9547697E-01
        2   -1    0    0  501    0  0.00000000000E+00  0.00000000000E+00  0.75373617843E+03  0.75373617844E+03  0.25500000920E-02 0.  1.
       -2   -1    0    0    0  501  0.00000000000E+00  0.00000000000E+00 -0.21684739913E+03  0.21684739914E+03  0.25500000920E-02 0. -1.
    10030    2    1    2    0    0  0.00000000000E+00  0.00000000000E+00  0.53688877930E+03  0.97058357758E+03  0.80856843849E+03 0.  0.
        2    1    3    3  502    0  0.13489893714E+03 -0.15509382061E+03 -0.14944039475E+03  0.25413431099E+03  0.25500000920E-02 0. -1.
       -2    1    3    3    0  502 -0.13489893714E+03  0.15509382061E+03  0.68632917405E+03  0.71644926659E+03  0.25500000920E-02 0.  1.
</event>
<event>
 5   0  0.6153659E-03  0.7976378E+03  0.7818609E-02  0.9563443E-01
       -2   -1    0    0    0  501  0.00000000000E+00  0.00000000000E+00  0.13526511457E+03  0.13526511459E+03  0.25500000920E-02 0. -1.
        2   -1    0    0  501    0  0.00000000000E+00  0.00000000000E+00 -0.11758870435E+04  0.11758870435E+04  0.25500000920E-02 0.  1.
    10030    2    1    2    0    0  0.00000000000E+00  0.00000000000E+00 -0.10406219289E+04  0.13111521581E+04  0.79763775156E+03 0.  0.
        2    1    3    3  502    0 -0.36261464796E+03 -0.49368770687E+02 -0.78089165546E+03  0.86239111545E+03  0.25500000920E-02 0.  1.
       -2    1    3    3    0  502  0.36261464796E+03  0.49368770687E+02 -0.25973027348E+03  0.44876104266E+03  0.25500000920E-02 0. -1.
</event>
<event>
 5   0  0.2478000E-03  0.7958742E+03  0.7818609E-02  0.9566008E-01
        3   -1    0    0  501    0  0.00000000000E+00  0.00000000000E+00  0.52695324865E+03  0.52695325833E+03  0.10100000352E+00 0. -1.
       -3   -1    0    0    0  501  0.00000000000E+00  0.00000000000E+00 -0.30050847372E+03  0.30050849069E+03  0.10100000352E+00 0.  1.
    10030    2    1    2    0    0  0.00000000000E+00  0.00000000000E+00  0.22644477493E+03  0.82746174902E+03  0.79587417975E+03 0.  0.
        3    1    3    3  502    0 -0.23024547797E+03 -0.19737791227E+03  0.38109703463E+03  0.48703796606E+03  0.10100000352E+00 0. -1.
       -3    1    3    3    0  502  0.23024547797E+03  0.19737791227E+03 -0.15465225969E+03  0.34042378296E+03  0.10100000352E+00 0.  1.
</event>
<event>
 5   0  0.6337108E-03  0.8000988E+03  0.7818609E-02  0.9559874E-01
       -2   -1    0    0    0  501  0.00000000000E+00  0.00000000000E+00  0.98955773664E+02  0.98955773697E+02  0.25500000920E-02 0.  1.
        2   -1    0    0  501    0  0.00000000000E+00  0.00000000000E+00 -0.16172831550E+04  0.16172831550E+04  0.25500000920E-02 0. -1.
    10030    2    1    2    0    0  0.00000000000E+00  0.00000000000E+00 -0.15183273814E+04  0.17162389287E+04  0.80009875858E+03 0.  0.
        4    1    3    3  502    0 -0.10370614856E+03  0.80743626763E+02 -0.15696442179E+04  0.15751377979E+04  0.12699999809E+01 0. -1.
       -4    1    3    3    0  502  0.10370614856E+03 -0.80743626763E+02  0.51316836568E+02  0.14110113085E+03  0.12699999809E+01 0.  1.
</event>
<event>
 5   0  0.2478000E-03  0.7997536E+03  0.7818609E-02  0.9560374E-01
        3   -1    0    0  501    0  0.00000000000E+00  0.00000000000E+00  0.59022038669E+03  0.59022039534E+03  0.10100000352E+00 0. -1.
       -3   -1    0    0    0  501  0.00000000000E+00  0.00000000000E+00 -0.27091817212E+03  0.27091819095E+03  0.10100000352E+00 0.  1.
    10030    2    1    2    0    0  0.00000000000E+00  0.00000000000E+00  0.31930221457E+03  0.86113858629E+03  0.79975356239E+03 0.  0.
        3    1    3    3  502    0  0.37386214985E+03  0.75811516507E+02  0.28877704115E+03  0.47844799385E+03  0.10100000352E+00 0. -1.
       -3    1    3    3    0  502 -0.37386214985E+03 -0.75811516507E+02  0.30525173418E+02  0.38269059243E+03  0.10100000352E+00 0.  1.
</event>
<event>
 5   0  0.3753450E-03  0.7996549E+03  0.7818609E-02  0.9560517E-01
        1   -1    0    0  501    0  0.00000000000E+00  0.00000000000E+00  0.54421647964E+03  0.54421647966E+03  0.50400001928E-02 0. -1.
       -1   -1    0    0    0  501  0.00000000000E+00  0.00000000000E+00 -0.29374706872E+03  0.29374706876E+03  0.50400001928E-02 0.  1.
    10030    2    1    2    0    0  0.00000000000E+00  0.00000000000E+00  0.25046941092E+03  0.83796354843E+03  0.79965491475E+03 0.  0.
        5    1    3    3  502    0  0.16907725637E+03 -0.26452767039E+03 -0.13416796839E+03  0.34144566297E+03  0.46999998093E+01 0.  1.
       -5    1    3    3    0  502 -0.16907725637E+03  0.26452767039E+03  0.38463737931E+03  0.49651788546E+03  0.46999998093E+01 0. -1.
</event>
<event>
 5   0  0.3714448E-03  0.7997159E+03  0.7818609E-02  0.9560428E-01
       -1   -1    0    0    0  501  0.00000000000E+00  0.00000000000E+00  0.96182694015E+02  0.96182694147E+02  0.50400001928E-02 0.  1.
        1   -1    0    0  501    0  0.00000000000E+00  0.00000000000E+00 -0.16623195436E+04  0.16623195436E+04  0.50400001928E-02 0. -1.
    10030    2    1    2    0    0  0.00000000000E+00  0.00000000000E+00 -0.15661368496E+04  0.17585022378E+04  0.79971587990E+03 0.  0.
        1    1    3    3  502    0  0.35408436870E+03 -0.11089799494E+03 -0.45534789755E+03  0.58738046721E+03  0.50400001928E-02 0. -1.
       -1    1    3    3    0  502 -0.35408436870E+03  0.11089799494E+03 -0.11107889521E+04  0.11711217706E+04  0.50400001928E-02 0.  1.
</event>
<event>
 5   0  0.3671128E-03  0.7923451E+03  0.7818609E-02  0.9571164E-01
        1   -1    0    0  501    0  0.00000000000E+00  0.00000000000E+00  0.35059062374E+03  0.35059062378E+03  0.50400001928E-02 0.  1.
       -1   -1    0    0    0  501  0.00000000000E+00  0.00000000000E+00 -0.44768075690E+03  0.44768075692E+03  0.50400001928E-02 0. -1.
    10030    2    1    2    0    0  0.00000000000E+00  0.00000000000E+00 -0.97090133151E+02  0.79827138070E+03  0.79234506580E+03 0.  0.
        2    1    3    3  502    0 -0.15170483721E+03  0.27414883630E+03 -0.29280582604E+03  0.42884402042E+03  0.25500000920E-02 0. -1.
       -2    1    3    3    0  502  0.15170483721E+03 -0.27414883630E+03  0.19571569289E+03  0.36942736029E+03  0.25500000920E-02 0.  1.
</event>
<event>
 5   0  0.5813850E-03  0.7997702E+03  0.7818609E-02  0.9560350E-01
       -2   -1    0    0    0  501  0.00000000000E+00  0.00000000000E+00  0.18075341523E+03  0.18075341525E+03  0.25500000920E-02 0. -1.
        2   -1    0    0  501    0  0.00000000000E+00  0.00000000000E+00 -0.88467545805E+03  0.88467545806E+03  0.25500000920E-02 0.  1.
    10030    2    1    2    0    0  0.00000000000E+00  0.00000000000E+00 -0.70392204282E+03  0.10654288733E+04  0.79977024307E+03 0.  0.
        5    1    3    3  502    0 -0.25960136809E+01 -0.29164338986E+03  0.12438654098E+02  0.29195790150E+03  0.46999998093E+01 0. -1.
       -5    1    3    3    0  502  0.25960136809E+01  0.29164338986E+03 -0.71636069692E+03  0.77347097181E+03  0.46999998093E+01 0.  1.
</event>
<event>
 5   0  0.3627496E-03  0.8018650E+03  0.7818609E-02  0.9557322E-01
       -1   -1    0    0    0  501  0.00000000000E+00  0.00000000000E+00  0.21569280073E+03  0.21569280079E+03  0.50400001928E-02 0. -1.
        1   -1    0    0  501    0  0.00000000000E+00  0.00000000000E+00 -0.74525838068E+03  0.74525838070E+03  0.50400001928E-02 0.  1.
    10030    2    1    2    0    0  0.00000000000E+00  0.00000000000E+00 -0.52956557995E+03  0.96095118149E+03  0.80186499470E+03 0.  0.
        3    1    3    3  502    0 -0.17492748888E+03 -0.13527865569E+03 -0.66556836065E+03  0.70134242275E+03  0.10100000352E+00 0.  1.
       -3    1    3    3    0  502  0.17492748888E+03  0.13527865569E+03  0.13600278070E+03  0.25960875873E+03  0.10100000352E+00 0. -1.
</event>
<event>
 5   0  0.3671128E-03  0.8127458E+03  0.7818609E-02  0.9541749E-01
        1   -1    0    0  501    0  0.00000000000E+00  0.00000000000E+00  0.29349279049E+03  0.29349279053E+03  0.50400001928E-02 0.  1.
       -1   -1    0    0    0  501  0.00000000000E+00  0.00000000000E+00 -0.56266782668E+03  0.56266782670E+03  0.50400001928E-02 0. -1.
    10030    2    1    2    0    0  0.00000000000E+00  0.00000000000E+00 -0.26917503619E+03  0.85616061723E+03  0.81274584120E+03 0.  0.
        2    1    3    3  502    0  0.11842948000E+03  0.23251180496E+03  0.19358483865E+03  0.32490363332E+03  0.25500000920E-02 0.  1.
       -2    1    3    3    0  502 -0.11842948000E+03 -0.23251180496E+03 -0.46275987484E+03  0.53125698391E+03  0.25500000920E-02 0. -1.
</event>
<event>
 5   0  0.6536209E-03  0.7993685E+03  0.7818609E-02  0.9560932E-01
        2   -1    0    0  501    0  0.00000000000E+00  0.00000000000E+00  0.22097623950E+04  0.22097623950E+04  0.25500000920E-02 0. -1.
       -2   -1    0    0    0  501  0.00000000000E+00  0.00000000000E+00 -0.72291701751E+02  0.72291701795E+02  0.25500000920E-02 0.  1.
    10030    2    1    2    0    0  0.00000000000E+00  0.00000000000E+00  0.21374706933E+04  0.22820540968E+04  0.79936846086E+03 0.  0.
        3    1    3    3  502    0 -0.23489172534E+03  0.28412705672E+03  0.62789725971E+03  0.72811900534E+03  0.10100000352E+00 0.  1.
       -3    1    3    3    0  502  0.23489172534E+03 -0.28412705672E+03  0.15095734336E+04  0.15539350915E+04  0.10100000352E+00 0. -1.
</event>
<event>
 5   0  0.3627496E-03  0.7980843E+03  0.7818609E-02  0.9562794E-01
        1   -1    0    0  501    0  0.00000000000E+00  0.00000000000E+00  0.50808922850E+03  0.50808922852E+03  0.50400001928E-02 0.  1.
       -1   -1    0    0    0  501  0.00000000000E+00  0.00000000000E+00 -0.31339894729E+03  0.31339894733E+03  0.50400001928E-02 0. -1.
    10030    2    1    2    0    0  0.00000000000E+00  0.00000000000E+00  0.19469028121E+03  0.82148817585E+03  0.79808427967E+03 0.  0.
        3    1    3    3  502    0  0.35995253628E+03 -0.17082942556E+03  0.74650957971E+02  0.40536563340E+03  0.10100000352E+00 0. -1.
       -3    1    3    3    0  502 -0.35995253628E+03  0.17082942556E+03  0.12003932324E+03  0.41612254245E+03  0.10100000352E+00 0.  1.
</event>
<event>
 5   0  0.3627496E-03  0.7955137E+03  0.7818609E-02  0.9566534E-01
        1   -1    0    0  501    0  0.00000000000E+00  0.00000000000E+00  0.22814924658E+03  0.22814924664E+03  0.50400001928E-02 0. -1.
       -1   -1    0    0    0  501  0.00000000000E+00  0.00000000000E+00 -0.69345177673E+03  0.69345177675E+03  0.50400001928E-02 0.  1.
    10030    2    1    2    0    0  0.00000000000E+00  0.00000000000E+00 -0.46530253014E+03  0.92160102338E+03  0.79551367163E+03 0.  0.
        3    1    3    3  502    0  0.60088339236E+02 -0.16830177969E+03  0.17902226622E+03  0.25295272199E+03  0.10100000352E+00 0. -1.
       -3    1    3    3    0  502 -0.60088339236E+02  0.16830177969E+03 -0.64432479636E+03  0.66864830140E+03  0.10100000352E+00 0.  1.
</event>
<event>
 5   0  0.3714448E-03  0.7988121E+03  0.7818609E-02  0.9561738E-01
        1   -1    0    0  501    0  0.00000000000E+00  0.00000000000E+00  0.13396179573E+04  0.13396179573E+04  0.50400001928E-02 0. -1.
       -1   -1    0    0    0  501  0.00000000000E+00  0.00000000000E+00 -0.11908258962E+03  0.11908258973E+03  0.50400001928E-02 0.  1.
    10030    2    1    2    0    0  0.00000000000E+00  0.00000000000E+00  0.12205353677E+04  0.14587005471E+04  0.79881205685E+03 0.  0.
        1    1    3    3  502    0  0.34257651668E+02 -0.39580125046E+03  0.53513225858E+03  0.66648237094E+03  0.50400001928E-02 0.  1.
       -1    1    3    3    0  502 -0.34257651668E+02  0.39580125046E+03  0.68540310912E+03  0.79221817613E+03  0.50400001928E-02 0. -1.
</event>
<event>
 5   0  0.2478000E-03  0.7962906E+03  0.7818609E-02  0.9565402E-01
        4   -1    0    0  501    0  0.00000000000E+00  0.00000000000E+00  0.61685915267E+03  0.61686046002E+03  0.12699999809E+01 0. -1.
       -4   -1    0    0    0  501  0.00000000000E+00  0.00000000000E+00 -0.25697559540E+03  0.25697873362E+03  0.12699999809E+01 0.  1.
    10030    2    1    2    0    0  0.00000000000E+00  0.00000000000E+00  0.35988355727E+03  0.87383919364E+03  0.79629062631E+03 0.  0.
        2    1    3    3  502    0  0.33125841028E+03  0.14040188544E+02 -0.61957895718E+02  0.33729518544E+03  0.25500000920E-02 0.  1.
       -2    1    3    3    0  502 -0.33125841028E+03 -0.14040188544E+02  0.42184145299E+03  0.53654400820E+03  0.25500000920E-02 0. -1.
</event>
<event>
 5   0  0.3860515E-03  0.7901635E+03  0.7818609E-02  0.9574365E-01
       -1   -1    0    0    0  501  0.00000000000E+00  0.00000000000E+00  0.53595588177E+03  0.53595588179E+03  0.50400001928E-02 0. -1.
        1   -1    0    0  501    0  0.00000000000E+00  0.00000000000E+00 -0.29123589585E+03  0.29123589589E+03  0.50400001928E-02 0.  1.
    10030    2    1    2    0    0  0.00000000000E+00  0.00000000000E+00  0.24471998592E+03  0.82719177768E+03  0.79016350558E+03 0.  0.
        4    1    3    3  502    0 -0.37553752151E+03 -0.11092948765E+03  0.17729975286E+03  0.42984950455E+03  0.12699999809E+01 0. -1.
       -4    1    3    3    0  502  0.37553752151E+03  0.11092948765E+03  0.67420233058E+02  0.39734227313E+03  0.12699999809E+01 0.  1.
</event>
<event>
 5   0  0.3671128E-03  0.7986417E+03  0.7818609E-02  0.9561985E-01
        1   -1    0    0  501    0  0.00000000000E+00  0.00000000000E+00  0.19719953220E+03  0.19719953226E+03  0.50400001928E-02 0. -1.
       -1   -1    0    0    0  501  0.00000000000E+00  0.00000000000E+00 -0.80860803520E+03  0.80860803522E+03  0.50400001928E-02 0.  1.
    10030    2    1    2    0    0  0.00000000000E+00  0.00000000000E+00 -0.61140850300E+03  0.10058075675E+04  0.79864166261E+03 0.  0.
        2    1    3    3  502    0  0.23351618558E+03 -0.76283943398E+02  0.90772258840E+02  0.26189435261E+03  0.25500000920E-02 0. -1.
       -2    1    3    3    0  502 -0.23351618558E+03  0.76283943398E+02 -0.70218076184E+03  0.74391321487E+03  0.25500000920E-02 0.  1.
</event>
<event>
 5   0  0.6536209E-03  0.8013087E+03  0.7818609E-02  0.9558125E-01
        2   -1    0    0  501    0  0.00000000000E+00  0.00000000000E+00  0.10730237337E+04  0.10730237337E+04  0.25500000920E-02 0. -1.
       -2   -1    0    0    0  501  0.00000000000E+00  0.00000000000E+00 -0.14959956996E+03  0.14959956999E+03  0.25500000920E-02 0.  1.
    10030    2    1    2    0    0  0.00000000000E+00  0.00000000000E+00  0.92342416377E+03  0.12226233037E+04  0.80130865250E+03 0.  0.
        3    1    3    3  502    0 -0.99121958497E+02 -0.20430855808E+03  0.96535167715E+03  0.99170107409E+03  0.10100000352E+00 0. -1.
       -3    1    3    3    0  502  0.99121958497E+02  0.20430855808E+03 -0.41927513380E+02  0.23092222964E+03  0.10100000352E+00 0.  1.
</event>
<event>
 5   0  0.6337108E-03  0.8012315E+03  0.7818609E-02  0.9558236E-01
       -2   -1    0    0    0  501  0.00000000000E+00  0.00000000000E+00  0.27233847360E+03  0.27233847361E+03  0.25500000920E-02 0. -1.
        2   -1    0    0  501    0  0.00000000000E+00  0.00000000000E+00 -0.58931443509E+03  0.58931443510E+03  0.25500000920E-02 0.  1.
    10030    2    1    2    0    0  0.00000000000E+00  0.00000000000E+00 -0.31697596149E+03  0.86165290871E+03  0.80123153640E+03 0.  0.
        4    1    3    3  502    0 -0.92180434235E+02  0.24060095031E+03 -0.48838731350E+03  0.55218640932E+03  0.12699999809E+01 0.  1.
       -4    1    3    3    0  502  0.92180434235E+02 -0.24060095031E+03  0.17141135201E+03  0.30946649939E+03  0.12699999809E+01 0. -1.
</event>
<event>
 5   0  0.6337108E-03  0.7955537E+03  0.7818609E-02  0.9566475E-01
       -2   -1    0    0    0  501  0.00000000000E+00  0.00000000000E+00  0.45398057673E+03  0.45398057674E+03  0.25500000920E-02 0.  1.
        2   -1    0    0  501    0  0.00000000000E+00  0.00000000000E+00 -0.34853123255E+03  0.34853123256E+03  0.25500000920E-02 0. -1.
    10030    2    1    2    0    0  0.00000000000E+00  0.00000000000E+00  0.10544934418E+03  0.80251180930E+03  0.79555366876E+03 0.  0.
        4    1    3    3  502    0 -0.38400716177E+03  0.35236405023E+00 -0.51928428992E+02  0.38750457944E+03  0.12699999809E+01 0.  1.
       -4    1    3    3    0  502  0.38400716177E+03 -0.35236405023E+00  0.15737777317E+03  0.41500722986E+03  0.12699999809E+01 0. -1.
</event>
<event>
 5   0  0.3753450E-03  0.7981748E+03  0.7818609E-02  0.9562663E-01
        1   -1    0    0  501    0  0.00000000000E+00  0.00000000000E+00  0.78716366594E+03  0.78716366596E+03  0.50400001928E-02 0. -1.
       -1   -1    0    0    0  501  0.00000000000E+00  0.00000000000E+00 -0.20233497444E+03  0.20233497450E+03  0.50400001928E-02 0.  1.
    10030    2    1    2    0    0  0.00000000000E+00  0.00000000000E+00  0.58482869150E+03  0.98949864046E+03  0.79817476850E+03 0.  0.
        5    1    3    3  502    0  0.27525912852E+03  0.93642058124E+02 -0.46439991567E+02  0.29447442282E+03  0.46999998093E+01 0. -1.
       -5    1    3    3    0  502 -0.27525912852E+03 -0.93642058124E+02  0.63126868307E+03  0.69502421764E+03  0.46999998093E+01 0.  1.
</event>
<event>
 5   0  0.3627496E-03  0.8175865E+03  0.7818609E-02  0.9534904E-01
       -1   -1    0    0    0  501  0.00000000000E+00  0.00000000000E+00  0.11528682166E+03  0.11528682177E+03  0.50400001928E-02 0. -1.
        1   -1    0    0  501    0  0.00000000000E+00  0.00000000000E+00 -0.14495320236E+04  0.14495320236E+04  0.50400001928E-02 0.  1.
    10030    2    1    2    0    0  0.00000000000E+00  0.00000000000E+00 -0.13342452019E+04  0.15648188454E+04  0.81758654584E+03 0.  0.
        3    1    3    3  502    0  0.77881604139E+02 -0.25796337994E+03 -0.12554907812E+04  0.12840824590E+04  0.10100000352E+00 0.  1.
       -3    1    3    3    0  502 -0.77881604139E+02  0.25796337994E+03 -0.78754420761E+02  0.28073638639E+03  0.10100000352E+00 0. -1.
</event>
<event>
 5   0  0.6337108E-03  0.8049274E+03  0.7818609E-02  0.9552912E-01
       -2   -1    0    0    0  501  0.00000000000E+00  0.00000000000E+00  0.85419964948E+03  0.85419964948E+03  0.25500000920E-02 0. -1.
        2   -1    0    0  501    0  0.00000000000E+00  0.00000000000E+00 -0.18962432158E+03  0.18962432160E+03  0.25500000920E-02 0.  1.
    10030    2    1    2    0    0  0.00000000000E+00  0.00000000000E+00  0.66457532790E+03  0.10438239711E+04  0.80492739806E+03 0.  0.
        4    1    3    3  502    0  0.24637689218E+03  0.90150013283E+02 -0.63492995915E+02  0.26992882641E+03  0.12699999809E+01 0.  1.
       -4    1    3    3    0  502 -0.24637689218E+03 -0.90150013283E+02  0.72806832382E+03  0.77389514467E+03  0.12699999809E+01 0. -1.
</event>
<event>
 5   0  0.2478000E-03  0.7980677E+03  0.7818609E-02  0.9562818E-01
        3   -1    0    0  501    0  0.00000000000E+00  0.00000000000E+00  0.59728504741E+03  0.59728505595E+03  0.10100000352E+00 0. -1.
       -3   -1    0    0    0  501  0.00000000000E+00  0.00000000000E+00 -0.26658631140E+03  0.26658633053E+03  0.10100000352E+00 0.  1.
    10030    2    1    2    0    0  0.00000000000E+00  0.00000000000E+00  0.33069873602E+03  0.86387138648E+03  0.79806774047E+03 0.  0.
        3    1    3    3  502    0  0.27293536870E+02  0.32509298297E+03  0.41407272261E+03  0.52714951821E+03  0.10100000352E+00 0. -1.
       -3    1    3    3    0  502 -0.27293536870E+02 -0.32509298297E+03 -0.83373986596E+02  0.33672186827E+03  0.10100000352E+00 0.  1.
</event>
<event>
 5   0  0.5813850E-03  0.7973662E+03  0.7818609E-02  0.9563837E-01
        2   -1    0    0  501    0  0.00000000000E+00  0.00000000000E+00  0.99562717757E+03  0.99562717757E+03  0.25500000920E-02 0.  1.
       -2   -1    0    0    0  501  0.00000000000E+00  0.00000000000E+00 -0.15964630707E+03  0.15964630709E+03  0.25500000920E-02 0. -1.
    10030    2    1    2    0    0  0.00000000000E+00  0.00000000000E+00  0.83598087049E+03  0.11552734847E+04  0.79736616967E+03 0.  0.
        5    1    3    3  502    0  0.25505688980E+03 -0.20657533847E+03  0.74582638188E+03  0.81486592113E+03  0.46999998093E+01 0.  1.
       -5    1    3    3    0  502 -0.25505688980E+03  0.20657533847E+03  0.90154488611E+02  0.34040756354E+03  0.46999998093E+01 0. -1.
</event>
<event>
 5   0  0.3753450E-03  0.7968075E+03  0.7818609E-02  0.9564650E-01
       -1   -1    0    0    0  501  0.00000000000E+00  0.00000000000E+00  0.33996582261E+03  0.33996582265E+03  0.50400001928E-02 0.  1.
        1   -1    0    0  501    0  0.00000000000E+00  0.00000000000E+00 -0.46688683121E+03  0.46688683124E+03  0.50400001928E-02 0. -1.
    10030    2    1    2    0    0  0.00000000000E+00  0.00000000000E+00 -0.12692100860E+03  0.80685265388E+03  0.79680754430E+03 0.  0.
        5    1    3    3  502    0 -0.38128899702E+03  0.11507650101E+03 -0.72493463042E+02  0.40484724590E+03  0.46999998093E+01 0. -1.
       -5    1    3    3    0  502  0.38128899702E+03 -0.11507650101E+03 -0.54427545556E+02  0.40200540798E+03  0.46999998093E+01 0.  1.
</event>
<event>
 5   0  0.3627496E-03  0.8040220E+03  0.7818609E-02  0.9554214E-01
       -1   -1    0    0    0  501  0.00000000000E+00  0.00000000000E+00  0.37067607458E+03  0.37067607461E+03  0.50400001928E-02 0. -1.
        1   -1    0    0  501    0  0.00000000000E+00  0.00000000000E+00 -0.43599482809E+03  0.43599482811E+03  0.50400001928E-02 0.  1.
    10030    2    1    2    0    0  0.00000000000E+00  0.00000000000E+00 -0.65318753506E+02  0.80667090273E+03  0.80402201820E+03 0.  0.
        3    1    3    3  502    0  0.17718440184E+03 -0.31237844464E+03 -0.21391512606E+03  0.41801231596E+03  0.10100000352E+00 0.  1.
       -3    1    3    3    0  502 -0.17718440184E+03  0.31237844464E+03  0.14859637255E+03  0.38865858677E+03  0.10100000352E+00 0. -1.
</event>
<event>
 5   0  0.6153659E-03  0.7966888E+03  0.7818609E-02  0.9564822E-01
        2   -1    0    0  501    0  0.00000000000E+00  0.00000000000E+00  0.47111652517E+03  0.47111652518E+03  0.25500000920E-02 0. -1.
       -2   -1    0    0    0  501  0.00000000000E+00  0.00000000000E+00 -0.33681316258E+03  0.33681316259E+03  0.25500000920E-02 0.  1.
    10030    2    1    2    0    0  0.00000000000E+00  0.00000000000E+00  0.13430336258E+03  0.80792968777E+03  0.79668876431E+03 0.  0.
        2    1    3    3  502    0  0.23957861096E+03 -0.20394221845E+03  0.31490988940E+03  0.44515006206E+03  0.25500000920E-02 0. -1.
       -2    1    3    3    0  502 -0.23957861096E+03  0.20394221845E+03 -0.18060652682E+03  0.36277962571E+03  0.25500000920E-02 0.  1.
</event>
<event>
 5   0  0.5813850E-03  0.7958586E+03  0.7818609E-02  0.9566031E-01
       -2   -1    0    0    0  501  0.00000000000E+00  0.00000000000E+00  0.14875534844E+03  0.14875534846E+03  0.25500000920E-02 0. -1.
        2   -1    0    0  501    0  0.00000000000E+00  0.00000000000E+00 -0.10644843641E+04  0.10644843641E+04  0.25500000920E-02 0.  1.
    10030    2    1    2    0    0  0.00000000000E+00  0.00000000000E+00 -0.91572901569E+03  0.12132397126E+04  0.79585863698E+03 0.  0.
        5    1    3    3  502    0  0.18538137149E+03 -0.61375433736E+02 -0.98636973627E+03  0.10055250088E+04  0.46999998093E+01 0.  1.
       -5    1    3    3    0  502 -0.18538137149E+03  0.61375433736E+02  0.70640720575E+02  0.20771470377E+03  0.46999998093E+01 0. -1.
</event>
<event>
 5   0  0.6256781E-03  0.7975023E+03  0.7818609E-02  0.9563640E-01
        2   -1    0    0  501    0  0.00000000000E+00  0.00000000000E+00  0.10657567208E+03  0.10657567211E+03  0.25500000920E-02 0. -1.
       -2   -1    0    0    0  501  0.00000000000E+00  0.00000000000E+00 -0.14919207978E+04  0.14919207978E+04  0.25500000920E-02 0.  1.
    10030    2    1    2    0    0  0.00000000000E+00  0.00000000000E+00 -0.13853451257E+04  0.15984964699E+04  0.79750225516E+03 0.  0.
        1    1    3    3  502    0 -0.88907689698E+02 -0.26010806741E+03 -0.11368227945E+03  0.29746335019E+03  0.50400001928E-02 0. -1.
       -1    1    3    3    0  502  0.88907689698E+02  0.26010806741E+03 -0.12716628462E+04  0.13010331197E+04  0.50400001928E-02 0.  1.
</event>
<event>
 5   0  0.6337108E-03  0.7951078E+03  0.7818609E-02  0.9567125E-01
       -2   -1    0    0    0  501  0.00000000000E+00  0.00000000000E+00  0.23031017107E+03  0.23031017109E+03  0.25500000920E-02 0. -1.
        2   -1    0    0  501    0  0.00000000000E+00  0.00000000000E+00 -0.68624455854E+03  0.68624455854E+03  0.25500000920E-02 0.  1.
    10030    2    1    2    0    0  0.00000000000E+00  0.00000000000E+00 -0.45593438747E+03  0.91655472963E+03  0.79510779567E+03 0.  0.
        4    1    3    3  502    0 -0.31601597354E+03 -0.11554324139E+03  0.16107269960E+02  0.33686405746E+03  0.12699999809E+01 0. -1.
       -4    1    3    3    0  502  0.31601597354E+03  0.11554324139E+03 -0.47204165743E+03  0.57969067217E+03  0.12699999809E+01 0.  1.
</event>
<event>
 5   0  0.5813850E-03  0.7957915E+03  0.7818609E-02  0.9566129E-01
        2   -1    0    0  501    0  0.00000000000E+00  0.00000000000E+00  0.78422469490E+03  0.78422469491E+03  0.25500000920E-02 0.  1.
       -2   -1    0    0    0  501  0.00000000000E+00  0.00000000000E+00 -0.20188222268E+03  0.20188222270E+03  0.25500000920E-02 0. -1.
    10030    2    1    2    0    0  0.00000000000E+00  0.00000000000E+00  0.58234247222E+03  0.98610691760E+03  0.79579149153E+03 0.  0.
        5    1    3    3  502    0  0.72252028039E+01  0.38547665454E+03  0.41292689406E+03  0.56495589615E+03  0.46999998093E+01 0.  1.
       -5    1    3    3    0  502 -0.72252028039E+01 -0.38547665454E+03  0.16941557816E+03  0.42115102146E+03  0.46999998093E+01 0. -1.
</event>
<event>
 5   0  0.6536209E-03  0.8003453E+03  0.7818609E-02  0.9559517E-01
        2   -1    0    0  501    0  0.00000000000E+00  0.00000000000E+00  0.27076720607E+03  0.27076720608E+03  0.25500000920E-02 0. -1.
       -2   -1    0    0    0  501  0.00000000000E+00  0.00000000000E+00 -0.59142378162E+03  0.59142378163E+03  0.25500000920E-02 0.  1.
    10030    2    1    2    0    0  0.00000000000E+00  0.00000000000E+00 -0.32065657555E+03  0.86219098771E+03  0.80034533786E+03 0.  0.
        3    1    3    3  502    0  0.91585197688E+01  0.48222023880E+02 -0.58816861156E+03  0.59021315463E+03  0.10100000352E+00 0.  1.
       -3    1    3    3    0  502 -0.91585197688E+01 -0.48222023880E+02  0.26751203601E+03  0.27197783307E+03  0.10100000352E+00 0. -1.
</event>
<event>
 5   0  0.3671128E-03  0.7988047E+03  0.7818609E-02  0.9561749E-01
       -1   -1    0    0    0  501  0.00000000000E+00  0.00000000000E+00  0.34926806251E+03  0.34926806255E+03  0.50400001928E-02 0.  1.
        1   -1    0    0  501    0  0.00000000000E+00  0.00000000000E+00 -0.45673295017E+03  0.45673295020E+03  0.50400001928E-02 0. -1.
    10030    2    1    2    0    0  0.00000000000E+00  0.00000000000E+00 -0.10746488766E+03  0.80600101275E+03  0.79880468856E+03 0.  0.
        2    1    3    3  502    0 -0.75636087114E+01 -0.26980677206E+03 -0.35078117544E+03  0.44260629851E+03  0.25500000920E-02 0. -1.
       -2    1    3    3    0  502  0.75636087114E+01  0.26980677206E+03  0.24331628778E+03  0.36339471424E+03  0.25500000920E-02 0.  1.
</event>
<event>
 5   0  0.5813850E-03  0.8071757E+03  0.7818609E-02  0.9549688E-01
        2   -1    0    0  501    0  0.00000000000E+00  0.00000000000E+00  0.48591637282E+03  0.48591637283E+03  0.25500000920E-02 0.  1.
       -2   -1    0    0    0  501  0.00000000000E+00  0.00000000000E+00 -0.33520820885E+03  0.33520820886E+03  0.25500000920E-02 0. -1.
    10030    2    1    2    0    0  0.00000000000E+00  0.00000000000E+00  0.15070816397E+03  0.82112458169E+03  0.80717571071E+03 0.  0.
        5    1    3    3  502    0  0.39743900616E+03  0.57649433013E+02  0.11578823783E+03  0.41798352451E+03  0.46999998093E+01 0.  1.
       -5    1    3    3    0  502 -0.39743900616E+03 -0.57649433013E+02  0.34919926139E+02  0.40314105718E+03  0.46999998093E+01 0. -1.
</event>
<event>
 5   0  0.3753450E-03  0.8162468E+03  0.7818609E-02  0.9536794E-01
        1   -1    0    0  501    0  0.00000000000E+00  0.00000000000E+00  0.23977124302E+03  0.23977124307E+03  0.50400001928E-02 0.  1.
       -1   -1    0    0    0  501  0.00000000000E+00  0.00000000000E+00 -0.69468172644E+03  0.69468172646E+03  0.50400001928E-02 0. -1.
    10030    2    1    2    0    0  0.00000000000E+00  0.00000000000E+00 -0.45491048342E+03  0.93445296953E+03  0.81624677907E+03 0.  0.
        5    1    3    3  502    0  0.15227610901E+03 -0.24093774404E+03 -0.56181934859E+03  0.63000165105E+03  0.46999998093E+01 0. -1.
       -5    1    3    3    0  502 -0.15227610901E+03  0.24093774404E+03  0.10690886517E+03  0.30445131848E+03  0.46999998093E+01 0.  1.
</event>
<event>
 5   0  0.3627496E-03  0.8016192E+03  0.7818609E-02  0.9557676E-01
       -1   -1    0    0    0  501  0.00000000000E+00  0.00000000000E+00  0.45367739958E+03  0.45367739961E+03  0.50400001928E-02 0. -1.
        1   -1    0    0  501    0  0.00000000000E+00  0.00000000000E+00 -0.35410253385E+03  0.35410253388E+03  0.50400001928E-02 0.  1.
    10030    2    1    2    0    0  0.00000000000E+00  0.00000000000E+00  0.99574865736E+02  0.80777993350E+03  0.80161915339E+03 0.  0.
        3    1    3    3  502    0 -0.10544519857E+03  0.18135846848E+03  0.39393630637E+03  0.44631312738E+03  0.10100000352E+00 0. -1.
       -3    1    3    3    0  502  0.10544519857E+03 -0.18135846848E+03 -0.29436144064E+03  0.36146680612E+03  0.10100000352E+00 0.  1.
</event>
<event>
 5   0  0.3753450E-03  0.7936223E+03  0.7818609E-02  0.9569295E-01
        1   -1    0    0  501    0  0.00000000000E+00  0.00000000000E+00  0.40322532554E+03  0.40322532557E+03  0.50400001928E-02 0.  1.
       -1   -1    0    0    0  501  0.00000000000E+00  0.00000000000E+00 -0.39049902864E+03  0.39049902867E+03  0.50400001928E-02 0. -1.
    10030    2    1    2    0    0  0.00000000000E+00  0.00000000000E+00  0.12726296897E+02  0.79372435424E+03  0.79362232320E+03 0.  0.
        5    1    3    3  502    0 -0.11538753419E+03  0.20659514137E+03 -0.31217610733E+03  0.39175483082E+03  0.46999998093E+01 0. -1.
       -5    1    3    3    0  502  0.11538753419E+03 -0.20659514137E+03  0.32490240423E+03  0.40196952342E+03  0.46999998093E+01 0.  1.
</event>
<event>
 5   0  0.3860515E-03  0.8026338E+03  0.7818609E-02  0.9556213E-01
       -1   -1    0    0    0  501  0.00000000000E+00  0.00000000000E+00  0.25395554539E+03  0.25395554544E+03  0.50400001928E-02 0.  1.
        1   -1    0    0  501    0  0.00000000000E+00  0.00000000000E+00 -0.63418677798E+03  0.63418677800E+03  0.50400001928E-02 0. -1.
    10030    2    1    2    0    0  0.00000000000E+00  0.00000000000E+00 -0.38023123260E+03  0.88814232344E+03  0.80263378726E+03 0.  0.
        4    1    3    3  502    0 -0.34893394357E+03 -0.16939390259E+02 -0.40867180201E+03  0.53763937223E+03  0.12699999809E+01 0.  1.
       -4    1    3    3    0  502  0.34893394357E+03  0.16939390259E+02  0.28440569409E+02  0.35050295121E+03  0.12699999809E+01 0. -1.
</event>
<event>
 5   0  0.6536209E-03  0.8003554E+03  0.7818609E-02  0.9559503E-01
        2   -1    0    0  501    0  0.00000000000E+00  0.00000000000E+00  0.23031303166E+03  0.23031303167E+03  0.25500000920E-02 0.  1.
       -2   -1    0    0    0  501  0.00000000000E+00  0.00000000000E+00 -0.69532398323E+03  0.69532398324E+03  0.25500000920E-02 0. -1.
    10030    2    1    2    0    0  0.00000000000E+00  0.00000000000E+00 -0.46501095157E+03  0.92563701491E+03  0.80035535751E+03 0.  0.
        3    1    3    3  502    0 -0.16528655542E+03 -0.18027997388E+03  0.13380993515E+03  0.27879315511E+03  0.10100000352E+00 0.  1.
       -3    1    3    3    0  502  0.16528655542E+03  0.18027997388E+03 -0.59882088673E+03  0.64684385980E+03  0.10100000352E+00 0. -1.
</event>
<event>
 5   0  0.5813850E-03  0.8045208E+03  0.7818609E-02  0.9553496E-01
       -2   -1    0    0    0  501  0.00000000000E+00  0.00000000000E+00  0.17040322751E+03  0.17040322753E+03  0.25500000920E-02 0.  1.
        2   -1    0    0  501    0  0.00000000000E+00  0.00000000000E+00 -0.94959133459E+03  0.94959133459E+03  0.25500000920E-02 0. -1.
    10030    2    1    2    0    0  0.00000000000E+00  0.00000000000E+00 -0.77918810708E+03  0.11199945621E+04  0.80452079710E+03 0.  0.
        5    1    3    3  502    0  0.32864138759E+03 -0.21851989781E+03 -0.28144428781E+03  0.48475672714E+03  0.46999998093E+01 0. -1.
       -5    1    3    3    0  502 -0.32864138759E+03  0.21851989781E+03 -0.49774381927E+03  0.63523783498E+03  0.46999998093E+01 0.  1.
</event>
<event>
 5   0  0.3860515E-03  0.7973673E+03  0.7818609E-02  0.9563836E-01
        1   -1    0    0  501    0  0.00000000000E+00  0.00000000000E+00  0.68956423731E+03  0.68956423733E+03  0.50400001928E-02 0. -1.
       -1   -1    0    0    0  501  0.00000000000E+00  0.00000000000E+00 -0.23050591161E+03  0.23050591166E+03  0.50400001928E-02 0.  1.
    10030    2    1    2    0    0  0.00000000000E+00  0.00000000000E+00  0.45905832570E+03  0.92007014899E+03  0.79736725081E+03 0.  0.
        4    1    3    3  502    0 -0.20703079193E+03  0.99741329784E+02  0.60544950251E+03  0.64759616634E+03  0.12699999809E+01 0. -1.
       -4    1    3    3    0  502  0.20703079193E+03 -0.99741329784E+02 -0.14639117681E+03  0.27247398265E+03  0.12699999809E+01 0.  1.
</event>
<event>
 5   0  0.6153659E-03  0.8070437E+03  0.7818609E-02  0.9549877E-01
        2   -1    0    0  501    0  0.00000000000E+00  0.00000000000E+00  0.83491287819E+03  0.83491287820E+03  0.25500000920E-02 0.  1.
       -2   -1    0    0    0  501  0.00000000000E+00  0.00000000000E+00 -0.19502621406E+03  0.19502621408E+03  0.25500000920E-02 0. -1.
    10030    2    1    2    0    0  0.00000000000E+00  0.00000000000E+00  0.63988666413E+03  0.10299390923E+04  0.80704373541E+03 0.  0.
        2    1    3    3  502    0  0.36965199863E+03  0.15600533064E+03  0.26505785768E+03  0.48086997328E+03  0.25500000920E-02 0.  1.
       -2    1    3    3    0  502 -0.36965199863E+03 -0.15600533064E+03  0.37482880645E+03  0.54906911899E+03  0.25500000920E-02 0. -1.
</event>
<event>
 5   0  0.6153659E-03  0.7854246E+03  0.7818609E-02  0.9581357E-01
       -2   -1    0    0    0  501  0.00000000000E+00  0.00000000000E+00  0.12686922155E+03  0.12686922158E+03  0.25500000920E-02 0. -1.
        2   -1    0    0  501    0  0.00000000000E+00  0.00000000000E+00 -0.12156056206E+04  0.12156056206E+04  0.25500000920E-02 0.  1.
    10030    2    1    2    0    0  0.00000000000E+00  0.00000000000E+00 -0.10887363990E+04  0.13424748421E+04  0.78542457006E+03 0.  0.
        2    1    3    3  502    0 -0.16971771181E+03  0.23850296680E+03 -0.99183253493E+03  0.10341274313E+04  0.25500000920E-02 0.  1.
       -2    1    3    3    0  502  0.16971771181E+03 -0.23850296680E+03 -0.96903864069E+02  0.30834741080E+03  0.25500000920E-02 0. -1.
</event>
<event>
 5   0  0.3860515E-03  0.7976876E+03  0.7818609E-02  0.9563370E-01
       -1   -1    0    0    0  501  0.00000000000E+00  0.00000000000E+00  0.12409290960E+03  0.12409290970E+03  0.50400001928E-02 0.  1.
        1   -1    0    0  501    0  0.00000000000E+00  0.00000000000E+00 -0.12819136046E+04  0.12819136046E+04  0.50400001928E-02 0. -1.
    10030    2    1    2    0    0  0.00000000000E+00  0.00000000000E+00 -0.11578206950E+04  0.14060065143E+04  0.79768763091E+03 0.  0.
        4    1    3    3  502    0  0.17542870358E+03  0.35453365640E+03 -0.48894103499E+03  0.62891517088E+03  0.12699999809E+01 0.  1.
       -4    1    3    3    0  502 -0.17542870358E+03 -0.35453365640E+03 -0.66887965997E+03  0.77709134340E+03  0.12699999809E+01 0. -1.
</event>
<event>
 5   0  0.5813850E-03  0.8001112E+03  0.7818609E-02  0.9559856E-01
       -2   -1    0    0    0  501  0.00000000000E+00  0.00000000000E+00  0.19402499017E+03  0.19402499019E+03  0.25500000920E-02 0.  1.
        2   -1    0    0  501    0  0.00000000000E+00  0.00000000000E+00 -0.82486523381E+03  0.82486523381E+03  0.25500000920E-02 0. -1.
    10030    2    1    2    0    0  0.00000000000E+00  0.00000000000E+00 -0.63084024363E+03  0.10188902240E+04  0.80011116451E+03 0.  0.
        5    1    3    3  502    0 -0.17039820606E+03 -0.34459094391E+03 -0.45632861093E+03  0.59668782324E+03  0.46999998093E+01 0.  1.
       -5    1    3    3    0  502  0.17039820606E+03  0.34459094391E+03 -0.17451163271E+03  0.42220240076E+03  0.46999998093E+01 0. -1.
</event>
<event>
 5   0  0.2478000E-03  0.7914545E+03  0.7818609E-02  0.9572469E-01
       -3   -1    0    0    0  501  0.00000000000E+00  0.00000000000E+00  0.70076307011E+03  0.70076307739E+03  0.10100000352E+00 0. -1.
        3   -1    0    0  501    0  0.00000000000E+00  0.00000000000E+00 -0.22347073539E+03  0.22347075822E+03  0.10100000352E+00 0.  1.
    10030    2    1    2    0    0  0.00000000000E+00  0.00000000000E+00  0.47729233472E+03  0.92423383561E+03  0.79145449023E+03 0.  0.
        5    1    3    3  502    0 -0.48136127530E+02  0.36095702323E+02  0.69535770229E+03  0.69797164028E+03  0.46999998093E+01 0. -1.
       -5    1    3    3    0  502  0.48136127530E+02 -0.36095702323E+02 -0.21806536757E+03  0.22626219533E+03  0.46999998093E+01 0.  1.
</event>
<event>
 5   0  0.3627496E-03  0.7987760E+03  0.7818609E-02  0.9561790E-01
        1   -1    0    0  501    0  0.00000000000E+00  0.00000000000E+00  0.43330655622E+03  0.43330655625E+03  0.50400001928E-02 0.  1.
       -1   -1    0    0    0  501  0.00000000000E+00  0.00000000000E+00 -0.36812452862E+03  0.36812452865E+03  0.50400001928E-02 0. -1.
    10030    2    1    2    0    0  0.00000000000E+00  0.00000000000E+00  0.65182027603E+02  0.80143108490E+03  0.79877599308E+03 0.  0.
        3    1    3    3  502    0 -0.19342900451E+03  0.22078106210E+03 -0.23914442686E+03  0.37861474386E+03  0.10100000352E+00 0. -1.
       -3    1    3    3    0  502  0.19342900451E+03 -0.22078106210E+03  0.30432645446E+03  0.42281634105E+03  0.10100000352E+00 0.  1.
</event>
<event>
 5   0  0.6337108E-03  0.8071331E+03  0.7818609E-02  0.9549749E-01
        2   -1    0    0  501    0  0.00000000000E+00  0.00000000000E+00  0.56319985279E+03  0.56319985280E+03  0.25500000920E-02 0. -1.
       -2   -1    0    0    0  501  0.00000000000E+00  0.00000000000E+00 -0.28917972142E+03  0.28917972143E+03  0.25500000920E-02 0.  1.
    10030    2    1    2    0    0  0.00000000000E+00  0.00000000000E+00  0.27402013138E+03  0.85237957423E+03  0.80713314029E+03 0.  0.
        4    1    3    3  502    0 -0.18557965196E+02 -0.13575247975E+03 -0.26386277038E+03  0.29731853007E+03  0.12699999809E+01 0.  1.
       -4    1    3    3    0  502  0.18557965196E+02  0.13575247975E+03  0.53788290176E+03  0.55506104415E+03  0.12699999809E+01 0. -1.
</event>
<event>
 5   0  0.2478000E-03  0.7968920E+03  0.7818609E-02  0.9564527E-01
        3   -1    0    0  501    0  0.00000000000E+00  0.00000000000E+00  0.37145373104E+03  0.37145374477E+03  0.10100000352E+00 0.  1.
       -3   -1    0    0    0  501  0.00000000000E+00  0.00000000000E+00 -0.42739971018E+03  0.42739972211E+03  0.10100000352E+00 0. -1.
    10030    2    1    2    0    0  0.00000000000E+00  0.00000000000E+00 -0.55945979140E+02  0.79885346688E+03  0.79689203093E+03 0.  0.
        2    1    3    3  502    0 -0.18738575051E+03  0.54908656362E+02 -0.37614738441E+03  0.42381037605E+03  0.25500000920E-02 0. -1.
       -2    1    3    3    0  502  0.18738575051E+03 -0.54908656362E+02  0.32020140527E+03  0.37504309083E+03  0.25500000920E-02 0.  1.
</event>
<event>
 5   0  0.5813850E-03  0.8048120E+03  0.7818609E-02  0.9553078E-01
        2   -1    0    0  501    0  0.00000000000E+00  0.00000000000E+00  0.43650269026E+03  0.43650269027E+03  0.25500000920E-02 0.  1.
       -2   -1    0    0    0  501  0.00000000000E+00  0.00000000000E+00 -0.37097275546E+03  0.37097275547E+03  0.25500000920E-02 0. -1.
    10030    2    1    2    0    0  0.00000000000E+00  0.00000000000E+00  0.65529934807E+02  0.80747544574E+03  0.80481204210E+03 0.  0.
        5    1    3    3  502    0  0.24072804236E+03 -0.32133500094E+03  0.61755172631E+01  0.40157988025E+03  0.46999998093E+01 0. -1.
       -5    1    3    3    0  502 -0.24072804236E+03  0.32133500094E+03  0.59354417544E+02  0.40589556549E+03  0.46999998093E+01 0.  1.
</event>
<event>
 5   0  0.3714448E-03  0.8097734E+03  0.7818609E-02  0.9545977E-01
       -1   -1    0    0    0  501  0.00000000000E+00  0.00000000000E+00  0.19406567548E+03  0.19406567554E+03  0.50400001928E-02 0.  1.
        1   -1    0    0  501    0  0.00000000000E+00  0.00000000000E+00 -0.84473079521E+03  0.84473079522E+03  0.50400001928E-02 0. -1.
    10030    2    1    2    0    0  0.00000000000E+00  0.00000000000E+00 -0.65066511973E+03  0.10387964708E+04  0.80977343105E+03 0.  0.
        1    1    3    3  502    0 -0.44686276012E+02 -0.64804755802E+02 -0.83481985963E+03  0.83852293809E+03  0.50400001928E-02 0. -1.
       -1    1    3    3    0  502  0.44686276012E+02  0.64804755802E+02  0.18415473990E+03  0.20027353268E+03  0.50400001928E-02 0.  1.
</event>
<event>
 5   0  0.3714448E-03  0.8086839E+03  0.7818609E-02  0.9547532E-01
       -1   -1    0    0    0  501  0.00000000000E+00  0.00000000000E+00  0.64841438055E+03  0.64841438057E+03  0.50400001928E-02 0.  1.
        1   -1    0    0  501    0  0.00000000000E+00  0.00000000000E+00 -0.25214188662E+03  0.25214188667E+03  0.50400001928E-02 0. -1.
    10030    2    1    2    0    0  0.00000000000E+00  0.00000000000E+00  0.39627249394E+03  0.90055626724E+03  0.80868393147E+03 0.  0.
        1    1    3    3  502    0 -0.17180593495E+03 -0.36482274023E+03  0.16511043871E+03  0.43574576082E+03  0.50400001928E-02 0.  1.
       -1    1    3    3    0  502  0.17180593495E+03  0.36482274023E+03  0.23116205523E+03  0.46481050642E+03  0.50400001928E-02 0. -1.
</event>
<event>
 5   0  0.3627496E-03  0.7993446E+03  0.7818609E-02  0.9560966E-01
        1   -1    0    0  501    0  0.00000000000E+00  0.00000000000E+00  0.13343531325E+04  0.13343531325E+04  0.50400001928E-02 0.  1.
       -1   -1    0    0    0  501  0.00000000000E+00  0.00000000000E+00 -0.11971189350E+03  0.11971189360E+03  0.50400001928E-02 0. -1.
    10030    2    1    2    0    0  0.00000000000E+00  0.00000000000E+00  0.12146412390E+04  0.14540650261E+04  0.79934458194E+03 0.  0.
        3    1    3    3  502    0 -0.28120167064E+03  0.27509330629E+03  0.73578395593E+03  0.83434330269E+03  0.10100000352E+00 0. -1.
       -3    1    3    3    0  502  0.28120167064E+03 -0.27509330629E+03  0.47885728309E+03  0.61972172344E+03  0.10100000352E+00 0.  1.
</event>
<event>
 5   0  0.6337108E-03  0.7995280E+03  0.7818609E-02  0.9560701E-01
        2   -1    0    0  501    0  0.00000000000E+00  0.00000000000E+00  0.21705061745E+03  0.21705061747E+03  0.25500000920E-02 0.  1.
       -2   -1    0    0    0  501  0.00000000000E+00  0.00000000000E+00 -0.73628559517E+03  0.73628559517E+03  0.25500000920E-02 0. -1.
    10030    2    1    2    0    0  0.00000000000E+00  0.00000000000E+00 -0.51923497771E+03  0.95333621264E+03  0.79952796840E+03 0.  0.
        4    1    3    3  502    0  0.26775419722E+03  0.24211445329E+03 -0.54827810402E+02  0.36512931998E+03  0.12699999809E+01 0.  1.
       -4    1    3    3    0  502 -0.26775419722E+03 -0.24211445329E+03 -0.46440716731E+03  0.58820689266E+03  0.12699999809E+01 0. -1.
</event>
<event>
 5   0  0.6256781E-03  0.7966539E+03  0.7818609E-02  0.9564873E-01
        2   -1    0    0  501    0  0.00000000000E+00  0.00000000000E+00  0.54045324878E+03  0.54045324878E+03  0.25500000920E-02 0.  1.
       -2   -1    0    0    0  501  0.00000000000E+00  0.00000000000E+00 -0.29357645226E+03  0.29357645227E+03  0.25500000920E-02 0. -1.
    10030    2    1    2    0    0  0.00000000000E+00  0.00000000000E+00  0.24687679652E+03  0.83402970105E+03  0.79665387062E+03 0.  0.
        1    1    3    3  502    0  0.11080874015E+03 -0.21275878499E+03  0.45635023614E+03  0.51555835318E+03  0.50400001928E-02 0.  1.
       -1    1    3    3    0  502 -0.11080874015E+03  0.21275878499E+03 -0.20947343962E+03  0.31847134787E+03  0.50400001928E-02 0. -1.
</event>
<event>
 5   0  0.5813850E-03  0.7972210E+03  0.7818609E-02  0.9564048E-01
       -2   -1    0    0    0  501  0.00000000000E+00  0.00000000000E+00  0.15294543385E+03  0.15294543388E+03  0.25500000920E-02 0. -1.
        2   -1    0    0  501    0  0.00000000000E+00  0.00000000000E+00 -0.10388694666E+04  0.10388694666E+04  0.25500000920E-02 0.  1.
    10030    2    1    2    0    0  0.00000000000E+00  0.00000000000E+00 -0.88592403275E+03  0.11918149005E+04  0.79722102657E+03 0.  0.
        5    1    3    3  502    0 -0.50558724093E+02 -0.38995085797E+03 -0.54042612540E+03  0.66835644923E+03  0.46999998093E+01 0. -1.
       -5    1    3    3    0  502  0.50558724093E+02  0.38995085797E+03 -0.34549790736E+03  0.52345845126E+03  0.46999998093E+01 0.  1.
</event>
<event>
 5   0  0.3671128E-03  0.7954737E+03  0.7818609E-02  0.9566592E-01
        1   -1    0    0  501    0  0.00000000000E+00  0.00000000000E+00  0.12932894741E+04  0.12932894741E+04  0.50400001928E-02 0. -1.
       -1   -1    0    0    0  501  0.00000000000E+00  0.00000000000E+00 -0.12231957442E+03  0.12231957453E+03  0.50400001928E-02 0.  1.
    10030    2    1    2    0    0  0.00000000000E+00  0.00000000000E+00  0.11709698997E+04  0.14156090487E+04  0.79547374102E+03 0.  0.
        2    1    3    3  502    0  0.30653670761E+03  0.23586166704E+03  0.42046176357E+03  0.57129989823E+03  0.25500000920E-02 0.  1.
       -2    1    3    3    0  502 -0.30653670761E+03 -0.23586166704E+03  0.75050813614E+03  0.84430915044E+03  0.25500000920E-02 0. -1.
</event>
<event>
 5   0  0.2478000E-03  0.8019027E+03  0.7818609E-02  0.9557267E-01
       -3   -1    0    0    0  501  0.00000000000E+00  0.00000000000E+00  0.48578141492E+03  0.48578142542E+03  0.10100000352E+00 0. -1.
        3   -1    0    0  501    0  0.00000000000E+00  0.00000000000E+00 -0.33093477566E+03  0.33093479107E+03  0.10100000352E+00 0.  1.
    10030    2    1    2    0    0  0.00000000000E+00  0.00000000000E+00  0.15484663926E+03  0.81671621649E+03  0.80190267277E+03 0.  0.
        3    1    3    3  502    0 -0.44999563907E+02 -0.27627241247E+03 -0.21495215743E+03  0.35292470419E+03  0.10100000352E+00 0.  1.
       -3    1    3    3    0  502  0.44999563907E+02  0.27627241247E+03  0.36979879669E+03  0.46379151230E+03  0.10100000352E+00 0. -1.
</event>
<event>
 5   0  0.3753450E-03  0.7991001E+03  0.7818609E-02  0.9561321E-01
        1   -1    0    0  501    0  0.00000000000E+00  0.00000000000E+00  0.73669609159E+03  0.73669609160E+03  0.50400001928E-02 0.  1.
       -1   -1    0    0    0  501  0.00000000000E+00  0.00000000000E+00 -0.21669754541E+03  0.21669754547E+03  0.50400001928E-02 0. -1.
    10030    2    1    2    0    0  0.00000000000E+00  0.00000000000E+00  0.51999854618E+03  0.95339363707E+03  0.79910008083E+03 0.  0.
        5    1    3    3  502    0 -0.38977231724E+02 -0.56298342314E+02  0.72961000982E+03  0.73283121138E+03  0.46999998093E+01 0.  1.
       -5    1    3    3    0  502  0.38977231724E+02  0.56298342314E+02 -0.20961146364E+03  0.22056242569E+03  0.46999998093E+01 0. -1.
</event>
<event>
 5   0  0.6337108E-03  0.7971784E+03  0.7818609E-02  0.9564110E-01
        2   -1    0    0  501    0  0.00000000000E+00  0.00000000000E+00  0.24613708257E+04  0.24613708257E+04  0.25500000920E-02 0.  1.
       -2   -1    0    0    0  501  0.00000000000E+00  0.00000000000E+00 -0.64546693526E+02  0.64546693576E+02  0.25500000920E-02 0. -1.
    10030    2    1    2    0    0  0.00000000000E+00  0.00000000000E+00  0.23968241322E+04  0.25259175193E+04  0.79717839511E+03 0.  0.
        4    1    3    3  502    0  0.18944753445E+03  0.20712303679E+03  0.30174852026E+03  0.41212146639E+03  0.12699999809E+01 0. -1.
       -4    1    3    3    0  502 -0.18944753445E+03 -0.20712303679E+03  0.20950756119E+04  0.21137960529E+04  0.12699999809E+01 0.  1.
</event>
<event>
 5   0  0.3627496E-03  0.7947670E+03  0.7818609E-02  0.9567623E-01
        1   -1    0    0  501    0  0.00000000000E+00  0.00000000000E+00  0.16594858625E+03  0.16594858633E+03  0.50400001928E-02 0. -1.
       -1   -1    0    0    0  501  0.00000000000E+00  0.00000000000E+00 -0.95158186369E+03  0.95158186370E+03  0.50400001928E-02 0.  1.
    10030    2    1    2    0    0  0.00000000000E+00  0.00000000000E+00 -0.78563327744E+03  0.11175304500E+04  0.79476704772E+03 0.  0.
        3    1    3    3  502    0 -0.85988025795E+02  0.20576441765E+02 -0.93757579885E+03  0.94173548267E+03  0.10100000352E+00 0.  1.
       -3    1    3    3    0  502  0.85988025795E+02 -0.20576441765E+02  0.15194252141E+03  0.17579496736E+03  0.10100000352E+00 0. -1.
</event>
<event>
 5   0  0.6337108E-03  0.8019998E+03  0.7818609E-02  0.9557127E-01
        2   -1    0    0  501    0  0.00000000000E+00  0.00000000000E+00  0.70686383797E+03  0.70686383797E+03  0.25500000920E-02 0.  1.
       -2   -1    0    0    0  501  0.00000000000E+00  0.00000000000E+00 -0.22748499266E+03  0.22748499267E+03  0.25500000920E-02 0. -1.
    10030    2    1    2    0    0  0.00000000000E+00  0.00000000000E+00  0.47937884531E+03  0.93434883065E+03  0.80199978803E+03 0.  0.
        4    1    3    3  502    0 -0.28928651140E+03  0.23664790014E+03  0.70418290719E+02  0.38032783607E+03  0.12699999809E+01 0.  1.
       -4    1    3    3    0  502  0.28928651140E+03 -0.23664790014E+03  0.40896055459E+03  0.55402099458E+03  0.12699999809E+01 0. -1.
</event>
<event>
 5   0  0.3714448E-03  0.7997753E+03  0.7818609E-02  0.9560342E-01
       -1   -1    0    0    0  501  0.00000000000E+00  0.00000000000E+00  0.80617046704E+03  0.80617046705E+03  0.50400001928E-02 0.  1.
        1   -1    0    0  501    0  0.00000000000E+00  0.00000000000E+00 -0.19835769405E+03  0.19835769411E+03  0.50400001928E-02 0. -1.
    10030    2    1    2    0    0  0.00000000000E+00  0.00000000000E+00  0.60781277299E+03  0.10045281612E+04  0.79977525566E+03 0.  0.
        1    1    3    3  502    0 -0.14997272271E+03  0.34777894885E+03  0.14272462363E+03  0.40473736303E+03  0.50400001928E-02 0. -1.
       -1    1    3    3    0  502  0.14997272271E+03 -0.34777894885E+03  0.46508814936E+03  0.59979079813E+03  0.50400001928E-02 0.  1.
</event>
<event>
 5   0  0.3714448E-03  0.7984069E+03  0.7818609E-02  0.9562326E-01
        1   -1    0    0  501    0  0.00000000000E+00  0.00000000000E+00  0.63334616888E+03  0.63334616890E+03  0.50400001928E-02 0.  1.
       -1   -1    0    0    0  501  0.00000000000E+00  0.00000000000E+00 -0.25162131134E+03  0.25162131140E+03  0.50400001928E-02 0. -1.
    10030    2    1    2    0    0  0.00000000000E+00  0.00000000000E+00  0.38172485753E+03  0.88496748029E+03  0.79840689771E+03 0.  0.
        1    1    3    3  502    0  0.85608992063E+01 -0.31549054166E+03 -0.80090061379E+02  0.32561017925E+03  0.50400001928E-02 0. -1.
       -1    1    3    3    0  502 -0.85608992063E+01  0.31549054166E+03  0.46181491891E+03  0.55935730104E+03  0.50400001928E-02 0.  1.
</event>
<event>
 5   0  0.6337108E-03  0.8000834E+03  0.7818609E-02  0.9559896E-01
        2   -1    0    0  501    0  0.00000000000E+00  0.00000000000E+00  0.81068326413E+03  0.81068326414E+03  0.25500000920E-02 0. -1.
       -2   -1    0    0    0  501  0.00000000000E+00  0.00000000000E+00 -0.19740551880E+03  0.19740551881E+03  0.25500000920E-02 0.  1.
    10030    2    1    2    0    0  0.00000000000E+00  0.00000000000E+00  0.61327774534E+03  0.10080887830E+04  0.80008337152E+03 0.  0.
        4    1    3    3  502    0  0.98303640106E+02 -0.26023827611E+03 -0.55578814300E+02  0.28368677006E+03  0.12699999809E+01 0.  1.
       -4    1    3    3    0  502 -0.98303640106E+02  0.26023827611E+03  0.66885655964E+03  0.72440201289E+03  0.12699999809E+01 0. -1.
</event>
<event>
 5   0  0.6256781E-03  0.8021397E+03  0.7818609E-02  0.9556925E-01
       -2   -1    0    0    0  501  0.00000000000E+00  0.00000000000E+00  0.17568432285E+03  0.17568432287E+03  0.25500000920E-02 0.  1.
        2   -1    0    0  501    0  0.00000000000E+00  0.00000000000E+00 -0.91560268728E+03  0.91560268729E+03  0.25500000920E-02 0. -1.
    10030    2    1    2    0    0  0.00000000000E+00  0.00000000000E+00 -0.73991836443E+03  0.10912870102E+04  0.80213973379E+03 0.  0.
        1    1    3    3  502    0 -0.17320351872E+03  0.12807306910E+03  0.90303846478E+02  0.23357430218E+03  0.50400001928E-02 0.  1.
       -1    1    3    3    0  502  0.17320351872E+03 -0.12807306910E+03 -0.83022221091E+03  0.85771270798E+03  0.50400001928E-02 0. -1.
</event>
<event>
 5   0  0.6153659E-03  0.7996755E+03  0.7818609E-02  0.9560487E-01
        2   -1    0    0  501    0  0.00000000000E+00  0.00000000000E+00  0.99860501802E+03  0.99860501803E+03  0.25500000920E-02 0.  1.
       -2   -1    0    0    0  501  0.00000000000E+00  0.00000000000E+00 -0.16009353897E+03  0.16009353899E+03  0.25500000920E-02 0. -1.
    10030    2    1    2    0    0  0.00000000000E+00  0.00000000000E+00  0.83851147906E+03  0.11586985570E+04  0.79967546262E+03 0.  0.
        2    1    3    3  502    0 -0.22946449678E+03 -0.27931426623E+03  0.66685344190E+03  0.75852747319E+03  0.25500000920E-02 0.  1.
       -2    1    3    3    0  502  0.22946449678E+03  0.27931426623E+03  0.17165803716E+03  0.40017108383E+03  0.25500000920E-02 0. -1.
</event>
<event>
 5   0  0.6337108E-03  0.7979130E+03  0.7818609E-02  0.9563043E-01
       -2   -1    0    0    0  501  0.00000000000E+00  0.00000000000E+00  0.89533545092E+02  0.89533545128E+02  0.25500000920E-02 0. -1.
        2   -1    0    0  501    0  0.00000000000E+00  0.00000000000E+00 -0.17777279210E+04  0.17777279210E+04  0.25500000920E-02 0.  1.
    10030    2    1    2    0    0  0.00000000000E+00  0.00000000000E+00 -0.16881943759E+04  0.18672614661E+04  0.79791298526E+03 0.  0.
        4    1    3    3  502    0 -0.62889142321E+02  0.18138235379E+03 -0.25668761609E+02  0.19368815325E+03  0.12699999809E+01 0. -1.
       -4    1    3    3    0  502  0.62889142321E+02 -0.18138235379E+03 -0.16625256143E+04  0.16735733129E+04  0.12699999809E+01 0.  1.
</event>
<event>
 5   0  0.3714448E-03  0.8025076E+03  0.7818609E-02  0.9556395E-01
       -1   -1    0    0    0  501  0.00000000000E+00  0.00000000000E+00  0.15631252248E+03  0.15631252256E+03  0.50400001928E-02 0.  1.
        1   -1    0    0  501    0  0.00000000000E+00  0.00000000000E+00 -0.10300172402E+04  0.10300172402E+04  0.50400001928E-02 0. -1.
    10030    2    1    2    0    0  0.00000000000E+00  0.00000000000E+00 -0.87370471772E+03  0.11863297628E+04  0.80250755279E+03 0.  0.
        1    1    3    3  502    0 -0.32256471286E+03 -0.15701769225E+03 -0.70253996496E+03  0.78883772226E+03  0.50400001928E-02 0. -1.
       -1    1    3    3    0  502  0.32256471286E+03  0.15701769225E+03 -0.17116475276E+03  0.39749204052E+03  0.50400001928E-02 0.  1.
</event>
<event>
 5   0  0.3627496E-03  0.8038583E+03  0.7818609E-02  0.9554449E-01
        1   -1    0    0  501    0  0.00000000000E+00  0.00000000000E+00  0.42341344126E+03  0.42341344129E+03  0.50400001928E-02 0.  1.
       -1   -1    0    0    0  501  0.00000000000E+00  0.00000000000E+00 -0.38153503087E+03  0.38153503091E+03  0.50400001928E-02 0. -1.
    10030    2    1    2    0    0  0.00000000000E+00  0.00000000000E+00  0.41878410384E+02  0.80494847220E+03  0.80385834675E+03 0.  0.
        3    1    3    3  502    0  0.41329187083E+02  0.16411234305E+03  0.38599646648E+03  0.42146677827E+03  0.10100000352E+00 0.  1.
       -3    1    3    3    0  502 -0.41329187083E+02 -0.16411234305E+03 -0.34411805609E+03  0.38348169393E+03  0.10100000352E+00 0. -1.
</event>
<event>
 5   0  0.6153659E-03  0.8004110E+03  0.7818609E-02  0.9559422E-01
       -2   -1    0    0    0  501  0.00000000000E+00  0.00000000000E+00  0.11864639636E+03  0.11864639639E+03  0.25500000920E-02 0. -1.
        2   -1    0    0  501    0  0.00000000000E+00  0.00000000000E+00 -0.13499309411E+04  0.13499309411E+04  0.25500000920E-02 0.  1.
    10030    2    1    2    0    0  0.00000000000E+00  0.00000000000E+00 -0.12312845448E+04  0.14685773375E+04  0.80041099823E+03 0.  0.
        2    1    3    3  502    0  0.39539107105E+03 -0.50575187642E+02 -0.68109254342E+03  0.78916348204E+03  0.25500000920E-02 0.  1.
       -2    1    3    3    0  502 -0.39539107105E+03  0.50575187642E+02 -0.55019200135E+03  0.67941385549E+03  0.25500000920E-02 0. -1.
</event>
<event>
 5   0  0.2478000E-03  0.8008088E+03  0.7818609E-02  0.9558847E-01
       -3   -1    0    0    0  501  0.00000000000E+00  0.00000000000E+00  0.95636318348E+03  0.95636318882E+03  0.10100000352E+00 0.  1.
        3   -1    0    0  501    0  0.00000000000E+00  0.00000000000E+00 -0.16763889417E+03  0.16763892460E+03  0.10100000352E+00 0. -1.
    10030    2    1    2    0    0  0.00000000000E+00  0.00000000000E+00  0.78872428931E+03  0.11240021134E+04  0.80080880765E+03 0.  0.
        1    1    3    3  502    0 -0.60471517210E+02  0.15607343995E+03  0.90490391405E+03  0.92025366978E+03  0.50400001928E-02 0.  1.
       -1    1    3    3    0  502  0.60471517210E+02 -0.15607343995E+03 -0.11617962474E+03  0.20374844363E+03  0.50400001928E-02 0. -1.
</event>
<event>
 5   0  0.3671128E-03  0.8068455E+03  0.7818609E-02  0.9550161E-01
       -1   -1    0    0    0  501  0.00000000000E+00  0.00000000000E+00  0.40637248264E+03  0.40637248267E+03  0.50400001928E-02 0. -1.
        1   -1    0    0  501    0  0.00000000000E+00  0.00000000000E+00 -0.40049445285E+03  0.40049445288E+03  0.50400001928E-02 0.  1.
    10030    2    1    2    0    0  0.00000000000E+00  0.00000000000E+00  0.58780297930E+01  0.80686693555E+03  0.80684552453E+03 0.  0.
        2    1    3    3  502    0  0.17996226747E+03 -0.35672683093E+03  0.58703165738E+02  0.40383970990E+03  0.25500000920E-02 0. -1.
       -2    1    3    3    0  502 -0.17996226747E+03  0.35672683093E+03 -0.52825135945E+02  0.40302722565E+03  0.25500000920E-02 0.  1.
</event>
<event>
 5   0  0.3671128E-03  0.8058047E+03  0.7818609E-02  0.9551653E-01
        1   -1    0    0  501    0  0.00000000000E+00  0.00000000000E+00  0.68236027464E+03  0.68236027466E+03  0.50400001928E-02 0.  1.
       -1   -1    0    0    0  501  0.00000000000E+00  0.00000000000E+00 -0.23789532226E+03  0.23789532231E+03  0.50400001928E-02 0. -1.
    10030    2    1    2    0    0  0.00000000000E+00  0.00000000000E+00  0.44446495238E+03  0.92025559697E+03  0.80580473432E+03 0.  0.
        2    1    3    3  502    0 -0.27369758070E+03  0.26765141647E+03  0.78759897196E+02  0.39083342722E+03  0.25500000920E-02 0. -1.
       -2    1    3    3    0  502  0.27369758070E+03 -0.26765141647E+03  0.36570505518E+03  0.52942216974E+03  0.25500000920E-02 0.  1.
</event>
<event>
 5   0  0.3860515E-03  0.7875232E+03  0.7818609E-02  0.9578254E-01
       -1   -1    0    0    0  501  0.00000000000E+00  0.00000000000E+00  0.14132805663E+03  0.14132805672E+03  0.50400001928E-02 0.  1.
        1   -1    0    0  501    0  0.00000000000E+00  0.00000000000E+00 -0.10970801487E+04  0.10970801487E+04  0.50400001928E-02 0. -1.
    10030    2    1    2    0    0  0.00000000000E+00  0.00000000000E+00 -0.95575209206E+03  0.12384082054E+04  0.78752321982E+03 0.  0.
        4    1    3    3  502    0  0.96459113707E+02  0.32050898676E+03 -0.80402544478E+03  0.87091268217E+03  0.12699999809E+01 0. -1.
       -4    1    3    3    0  502 -0.96459113707E+02 -0.32050898676E+03 -0.15172664728E+03  0.36749552324E+03  0.12699999809E+01 0.  1.
</event>
<event>
 5   0  0.6153659E-03  0.8002913E+03  0.7818609E-02  0.9559596E-01
       -2   -1    0    0    0  501  0.00000000000E+00  0.00000000000E+00  0.82890950458E+02  0.82890950498E+02  0.25500000920E-02 0. -1.
        2   -1    0    0  501    0  0.00000000000E+00  0.00000000000E+00 -0.19316527546E+04  0.19316527546E+04  0.25500000920E-02 0.  1.
    10030    2    1    2    0    0  0.00000000000E+00  0.00000000000E+00 -0.18487618041E+04  0.20145437051E+04  0.80029127904E+03 0.  0.
        2    1    3    3  502    0 -0.32195571154E+02  0.26879807267E+02  0.77342603769E+02  0.87982709693E+02  0.25500000920E-02 0. -1.
       -2    1    3    3    0  502  0.32195571154E+02 -0.26879807267E+02 -0.19261044079E+04  0.19265609954E+04  0.25500000920E-02 0.  1.
</event>
<event>
 5   0  0.3714448E-03  0.8029639E+03  0.7818609E-02  0.9555737E-01
        1   -1    0    0  501    0  0.00000000000E+00  0.00000000000E+00  0.14442800234E+03  0.14442800243E+03  0.50400001928E-02 0.  1.
       -1   -1    0    0    0  501  0.00000000000E+00  0.00000000000E+00 -0.11160422485E+04  0.11160422485E+04  0.50400001928E-02 0. -1.
    10030    2    1    2    0    0  0.00000000000E+00  0.00000000000E+00 -0.97161424618E+03  0.12604702510E+04  0.80296389096E+03 0.  0.
        1    1    3    3  502    0  0.31128871559E+03  0.25055809028E+03 -0.54676061399E+03  0.67722019321E+03  0.50400001928E-02 0. -1.
       -1    1    3    3    0  502 -0.31128871559E+03 -0.25055809028E+03 -0.42485363219E+03  0.58325005775E+03  0.50400001928E-02 0.  1.
</event>
<event>
 5   0  0.6153659E-03  0.8010150E+03  0.7818609E-02  0.9558549E-01
        2   -1    0    0  501    0  0.00000000000E+00  0.00000000000E+00  0.20993980868E+03  0.20993980870E+03  0.25500000920E-02 0.  1.
       -2   -1    0    0    0  501  0.00000000000E+00  0.00000000000E+00 -0.76405839050E+03  0.76405839051E+03  0.25500000920E-02 0. -1.
    10030    2    1    2    0    0  0.00000000000E+00  0.00000000000E+00 -0.55411858182E+03  0.97399819920E+03  0.80101503689E+03 0.  0.
        2    1    3    3  502    0  0.34257213231E+03  0.20259883468E+03 -0.22262145257E+03  0.45602879821E+03  0.25500000920E-02 0. -1.
       -2    1    3    3    0  502 -0.34257213231E+03 -0.20259883468E+03 -0.33149712925E+03  0.51796940099E+03  0.25500000920E-02 0.  1.
</event>
<event>
 5   0  0.6153659E-03  0.8030516E+03  0.7818609E-02  0.9555611E-01
        2   -1    0    0  501    0  0.00000000000E+00  0.00000000000E+00  0.11321343481E+04  0.11321343481E+04  0.25500000920E-02 0. -1.
       -2   -1    0    0    0  501  0.00000000000E+00  0.00000000000E+00 -0.14240621902E+03  0.14240621904E+03  0.25500000920E-02 0.  1.
    10030    2    1    2    0    0  0.00000000000E+00  0.00000000000E+00  0.98972812904E+03  0.12745405671E+04  0.80305160965E+03 0.  0.
        2    1    3    3  502    0 -0.28948457108E+03  0.26706902872E+03  0.37094869766E+03  0.54104539486E+03  0.25500000920E-02 0. -1.
       -2    1    3    3    0  502  0.28948457108E+03 -0.26706902872E+03  0.61877943137E+03  0.73349517223E+03  0.25500000920E-02 0.  1.
</event>
<event>
 5   0  0.6153659E-03  0.8025169E+03  0.7818609E-02  0.9556381E-01
       -2   -1    0    0    0  501  0.00000000000E+00  0.00000000000E+00  0.51745890844E+03  0.51745890845E+03  0.25500000920E-02 0. -1.
        2   -1    0    0  501    0  0.00000000000E+00  0.00000000000E+00 -0.31115190559E+03  0.31115190560E+03  0.25500000920E-02 0.  1.
    10030    2    1    2    0    0  0.00000000000E+00  0.00000000000E+00  0.20630700285E+03  0.82861081405E+03  0.80251685448E+03 0.  0.
        2    1    3    3  502    0 -0.23999297470E+03  0.25150938955E+03 -0.10374853246E+03  0.36279106788E+03  0.25500000920E-02 0.  1.
       -2    1    3    3    0  502  0.23999297470E+03 -0.25150938955E+03  0.31005553531E+03  0.46581974617E+03  0.25500000920E-02 0. -1.
</event>
<event>
 5   0  0.6256781E-03  0.7977714E+03  0.7818609E-02  0.9563249E-01
       -2   -1    0    0    0  501  0.00000000000E+00  0.00000000000E+00  0.12702719938E+03  0.12702719941E+03  0.25500000920E-02 0.  1.
        2   -1    0    0  501    0  0.00000000000E+00  0.00000000000E+00 -0.12525647616E+04  0.12525647616E+04  0.25500000920E-02 0. -1.
    10030    2    1    2    0    0  0.00000000000E+00  0.00000000000E+00 -0.11255375622E+04  0.13795919610E+04  0.79777138009E+03 0.  0.
        1    1    3    3  502    0 -0.13379532862E+03  0.21520709675E+03 -0.10954811064E+04  0.11244083506E+04  0.50400001928E-02 0. -1.
       -1    1    3    3    0  502  0.13379532862E+03 -0.21520709675E+03 -0.30056455834E+02  0.25518361040E+03  0.50400001928E-02 0.  1.
</event>
<event>
 5   0  0.3671128E-03  0.7992788E+03  0.7818609E-02  0.9561062E-01
       -1   -1    0    0    0  501  0.00000000000E+00  0.00000000000E+00  0.23408423801E+03  0.23408423807E+03  0.50400001928E-02 0.  1.
        1   -1    0    0  501    0  0.00000000000E+00  0.00000000000E+00 -0.68228280726E+03  0.68228280728E+03  0.50400001928E-02 0. -1.
    10030    2    1    2    0    0  0.00000000000E+00  0.00000000000E+00 -0.44819856925E+03  0.91636704535E+03  0.79927880262E+03 0.  0.
        2    1    3    3  502    0  0.15700438433E+03 -0.31319490409E+03 -0.36558228412E+01  0.35036379621E+03  0.25500000920E-02 0.  1.
       -2    1    3    3    0  502 -0.15700438433E+03  0.31319490409E+03 -0.44454274641E+03  0.56600324914E+03  0.25500000920E-02 0. -1.
</event>
<event>
 5   0  0.6337108E-03  0.7931138E+03  0.7818609E-02  0.9570038E-01
       -2   -1    0    0    0  501  0.00000000000E+00  0.00000000000E+00  0.15518582985E+03  0.15518582987E+03  0.25500000920E-02 0.  1.
        2   -1    0    0  501    0  0.00000000000E+00  0.00000000000E+00 -0.10133488073E+04  0.10133488073E+04  0.25500000920E-02 0. -1.
    10030    2    1    2    0    0  0.00000000000E+00  0.00000000000E+00 -0.85816297748E+03  0.11685346372E+04  0.79311380169E+03 0.  0.
        4    1    3    3  502    0 -0.20403184795E+02  0.38404312004E+03 -0.28661257085E+03  0.47963922554E+03  0.12699999809E+01 0. -1.
       -4    1    3    3    0  502  0.20403184795E+02 -0.38404312004E+03 -0.57155040662E+03  0.68889541166E+03  0.12699999809E+01 0.  1.
</event>
<event>
 5   0  0.5813850E-03  0.7999606E+03  0.7818609E-02  0.9560074E-01
       -2   -1    0    0    0  501  0.00000000000E+00  0.00000000000E+00  0.25530779213E+03  0.25530779215E+03  0.25500000920E-02 0. -1.
        2   -1    0    0  501    0  0.00000000000E+00  0.00000000000E+00 -0.62663278158E+03  0.62663278159E+03  0.25500000920E-02 0.  1.
    10030    2    1    2    0    0  0.00000000000E+00  0.00000000000E+00 -0.37132498945E+03  0.88194057374E+03  0.79996057891E+03 0.  0.
        5    1    3    3  502    0  0.94453552218E+02 -0.23491744730E+03 -0.52699441372E+03  0.58468186449E+03  0.46999998093E+01 0.  1.
       -5    1    3    3    0  502 -0.94453552218E+02  0.23491744730E+03  0.15566942427E+03  0.29725870925E+03  0.46999998093E+01 0. -1.
</event>
<event>
 5   0  0.3627496E-03  0.8047444E+03  0.7818609E-02  0.9553175E-01
        1   -1    0    0  501    0  0.00000000000E+00  0.00000000000E+00  0.41931025183E+03  0.41931025187E+03  0.50400001928E-02 0. -1.
       -1   -1    0    0    0  501  0.00000000000E+00  0.00000000000E+00 -0.38611839639E+03  0.38611839642E+03  0.50400001928E-02 0.  1.
    10030    2    1    2    0    0  0.00000000000E+00  0.00000000000E+00  0.33191855446E+02  0.80542864829E+03  0.80474443658E+03 0.  0.
        3    1    3    3  502    0 -0.21714560158E+03  0.26473371757E+03  0.22812187130E+03  0.41143134527E+03  0.10100000352E+00 0. -1.
       -3    1    3    3    0  502  0.21714560158E+03 -0.26473371757E+03 -0.19493001585E+03  0.39399730302E+03  0.10100000352E+00 0.  1.
</event>
<event>
 5   0  0.5813850E-03  0.8012268E+03  0.7818609E-02  0.9558243E-01
       -2   -1    0    0    0  501  0.00000000000E+00  0.00000000000E+00  0.29082654655E+03  0.29082654656E+03  0.25500000920E-02 0.  1.
        2   -1    0    0  501    0  0.00000000000E+00  0.00000000000E+00 -0.55184468374E+03  0.55184468374E+03  0.25500000920E-02 0. -1.
    10030    2    1    2    0    0  0.00000000000E+00  0.00000000000E+00 -0.26101813719E+03  0.84267123030E+03  0.80122676842E+03 0.  0.
        5    1    3    3  502    0  0.19944953350E+03  0.33188693948E+03 -0.22534440761E+02  0.38789038146E+03  0.46999998093E+01 0.  1.
       -5    1    3    3    0  502 -0.19944953350E+03 -0.33188693948E+03 -0.23848369643E+03  0.45478084884E+03  0.46999998093E+01 0. -1.
</event>
<event>
 5   0  0.3627496E-03  0.7986513E+03  0.7818609E-02  0.9561971E-01
        1   -1    0    0  501    0  0.00000000000E+00  0.00000000000E+00  0.65855775267E+03  0.65855775269E+03  0.50400001928E-02 0.  1.
       -1   -1    0    0    0  501  0.00000000000E+00  0.00000000000E+00 -0.24213667541E+03  0.24213667546E+03  0.50400001928E-02 0. -1.
    10030    2    1    2    0    0  0.00000000000E+00  0.00000000000E+00  0.41642107726E+03  0.90069442815E+03  0.79865132525E+03 0.  0.
        3    1    3    3  502    0 -0.84947333777E+02  0.70954575280E+02  0.64091310057E+03  0.65040004148E+03  0.10100000352E+00 0.  1.
       -3    1    3    3    0  502  0.84947333777E+02 -0.70954575280E+02 -0.22449202331E+03  0.25029438667E+03  0.10100000352E+00 0. -1.
</event>
<event>
 5   0  0.5813850E-03  0.8044844E+03  0.7818609E-02  0.9553549E-01
        2   -1    0    0  501    0  0.00000000000E+00  0.00000000000E+00  0.38248301056E+03  0.38248301057E+03  0.25500000920E-02 0.  1.
       -2   -1    0    0    0  501  0.00000000000E+00  0.00000000000E+00 -0.42302220019E+03  0.42302220020E+03  0.25500000920E-02 0. -1.
    10030    2    1    2    0    0  0.00000000000E+00  0.00000000000E+00 -0.40539189628E+02  0.80550521077E+03  0.80448444279E+03 0.  0.
        5    1    3    3  502    0  0.18784065441E+03 -0.84608203961E+02 -0.36615553061E+03  0.42016023398E+03  0.46999998093E+01 0. -1.
       -5    1    3    3    0  502 -0.18784065441E+03  0.84608203961E+02  0.32561634098E+03  0.38534497679E+03  0.46999998093E+01 0.  1.
</event>
<event>
 5   0  0.6153659E-03  0.8047281E+03  0.7818609E-02  0.9553199E-01
        2   -1    0    0  501    0  0.00000000000E+00  0.00000000000E+00  0.16853446365E+04  0.16853446365E+04  0.25500000920E-02 0.  1.
       -2   -1    0    0    0  501  0.00000000000E+00  0.00000000000E+00 -0.96061548090E+02  0.96061548124E+02  0.25500000920E-02 0. -1.
    10030    2    1    2    0    0  0.00000000000E+00  0.00000000000E+00  0.15892830884E+04  0.17814061846E+04  0.80472806556E+03 0.  0.
        2    1    3    3  502    0  0.27963258780E+03  0.25658546491E+02  0.15671875098E+03  0.32157971342E+03  0.25500000920E-02 0. -1.
       -2    1    3    3    0  502 -0.27963258780E+03 -0.25658546491E+02  0.14325643374E+04  0.14598264712E+04  0.25500000920E-02 0.  1.
</event>
<event>
 5   0  0.3714448E-03  0.7965591E+03  0.7818609E-02  0.9565011E-01
       -1   -1    0    0    0  501  0.00000000000E+00  0.00000000000E+00  0.39779055549E+03  0.39779055553E+03  0.50400001928E-02 0.  1.
        1   -1    0    0  501    0  0.00000000000E+00  0.00000000000E+00 -0.39876919055E+03  0.39876919058E+03  0.50400001928E-02 0. -1.
    10030    2    1    2    0    0  0.00000000000E+00  0.00000000000E+00 -0.97863505530E+00  0.79655974611E+03  0.79655914494E+03 0.  0.
        1    1    3    3  502    0 -0.30547351303E+02 -0.34264219357E+03 -0.20121267231E+03  0.39852647717E+03  0.50400001928E-02 0. -1.
       -1    1    3    3    0  502  0.30547351303E+02  0.34264219357E+03  0.20023403725E+03  0.39803326894E+03  0.50400001928E-02 0.  1.
</event>
<event>
 5   0  0.3714448E-03  0.8012236E+03  0.7818609E-02  0.9558248E-01
       -1   -1    0    0    0  501  0.00000000000E+00  0.00000000000E+00  0.31327832210E+03  0.31327832214E+03  0.50400001928E-02 0. -1.
        1   -1    0    0  501    0  0.00000000000E+00  0.00000000000E+00 -0.51229152978E+03  0.51229152980E+03  0.50400001928E-02 0.  1.
    10030    2    1    2    0    0  0.00000000000E+00  0.00000000000E+00 -0.19901320768E+03  0.82556985194E+03  0.80122364144E+03 0.  0.
        1    1    3    3  502    0  0.34094344281E+03  0.53377287990E+02  0.11014159654E+03  0.36224679071E+03  0.50400001928E-02 0. -1.
       -1    1    3    3    0  502 -0.34094344281E+03 -0.53377287990E+02 -0.30915480422E+03  0.46332306123E+03  0.50400001928E-02 0.  1.
</event>
<event>
 5   0  0.6337108E-03  0.7997156E+03  0.7818609E-02  0.9560429E-01
       -2   -1    0    0    0  501  0.00000000000E+00  0.00000000000E+00  0.29339337635E+03  0.29339337636E+03  0.25500000920E-02 0.  1.
        2   -1    0    0  501    0  0.00000000000E+00  0.00000000000E+00 -0.54495521334E+03  0.54495521335E+03  0.25500000920E-02 0. -1.
    10030    2    1    2    0    0  0.00000000000E+00  0.00000000000E+00 -0.25156183699E+03  0.83834858971E+03  0.79971557446E+03 0.  0.
        4    1    3    3  502    0 -0.34210623890E+03 -0.17472545727E+03 -0.24213358369E+03  0.45408804142E+03  0.12699999809E+01 0.  1.
       -4    1    3    3    0  502  0.34210623890E+03  0.17472545727E+03 -0.94282533014E+01  0.38426054829E+03  0.12699999809E+01 0. -1.
</event>
<event>
 5   0  0.6337108E-03  0.8088056E+03  0.7818609E-02  0.9547358E-01
       -2   -1    0    0    0  501  0.00000000000E+00  0.00000000000E+00  0.12010078450E+03  0.12010078453E+03  0.25500000920E-02 0. -1.
        2   -1    0    0  501    0  0.00000000000E+00  0.00000000000E+00 -0.13617032212E+04  0.13617032212E+04  0.25500000920E-02 0.  1.
    10030    2    1    2    0    0  0.00000000000E+00  0.00000000000E+00 -0.12416024367E+04  0.14818040057E+04  0.80880560124E+03 0.  0.
        4    1    3    3  502    0 -0.14799513031E+03 -0.68980483611E+01  0.68585173897E+02  0.16326567504E+03  0.12699999809E+01 0. -1.
       -4    1    3    3    0  502  0.14799513031E+03  0.68980483611E+01 -0.13101876106E+04  0.13185383307E+04  0.12699999809E+01 0.  1.
</event>
<event>
 5   0  0.6256781E-03  0.8002250E+03  0.7818609E-02  0.9559691E-01
       -2   -1    0    0    0  501  0.00000000000E+00  0.00000000000E+00  0.29121586206E+03  0.29121586207E+03  0.25500000920E-02 0. -1.
        2   -1    0    0  501    0  0.00000000000E+00  0.00000000000E+00 -0.54972972224E+03  0.54972972225E+03  0.25500000920E-02 0.  1.
    10030    2    1    2    0    0  0.00000000000E+00  0.00000000000E+00 -0.25851386018E+03  0.84094558431E+03  0.80022500577E+03 0.  0.
        1    1    3    3  502    0 -0.23988072440E+03 -0.22964274954E+03  0.10528495664E+03  0.34837261154E+03  0.50400001928E-02 0. -1.
       -1    1    3    3    0  502  0.23988072440E+03  0.22964274954E+03 -0.36379881683E+03  0.49257297277E+03  0.50400001928E-02 0.  1.
</event>
<event>
 5   0  0.5813850E-03  0.7992494E+03  0.7818609E-02  0.9561104E-01
       -2   -1    0    0    0  501  0.00000000000E+00  0.00000000000E+00  0.31644068730E+03  0.31644068731E+03  0.25500000920E-02 0. -1.
        2   -1    0    0  501    0  0.00000000000E+00  0.00000000000E+00 -0.50467564597E+03  0.50467564598E+03  0.25500000920E-02 0.  1.
    10030    2    1    2    0    0  0.00000000000E+00  0.00000000000E+00 -0.18823495867E+03  0.82111633329E+03  0.79924941860E+03 0.  0.
        5    1    3    3  502    0 -0.88984209730E+02 -0.20998658946E+03  0.24298361367E+03  0.33328018820E+03  0.46999998093E+01 0. -1.
       -5    1    3    3    0  502  0.88984209730E+02  0.20998658946E+03 -0.43121857234E+03  0.48783614510E+03  0.46999998093E+01 0.  1.
</event>
<event>
 5   0  0.3627496E-03  0.7989502E+03  0.7818609E-02  0.9561538E-01
        1   -1    0    0  501    0  0.00000000000E+00  0.00000000000E+00  0.15605694115E+03  0.15605694124E+03  0.50400001928E-02 0. -1.
       -1   -1    0    0    0  501  0.00000000000E+00  0.00000000000E+00 -0.10225777745E+04  0.10225777745E+04  0.50400001928E-02 0.  1.
    10030    2    1    2    0    0  0.00000000000E+00  0.00000000000E+00 -0.86652083334E+03  0.11786347157E+04  0.79895021030E+03 0.  0.
        3    1    3    3  502    0 -0.32751894743E+03  0.59027272291E+02 -0.75924091749E+03  0.82897506645E+03  0.10100000352E+00 0.  1.
       -3    1    3    3    0  502  0.32751894743E+03 -0.59027272291E+02 -0.10727991585E+03  0.34965964930E+03  0.10100000352E+00 0. -1.
</event>
<event>
 5   0  0.3714448E-03  0.8002110E+03  0.7818609E-02  0.9559712E-01
       -1   -1    0    0    0  501  0.00000000000E+00  0.00000000000E+00  0.39089753000E+03  0.39089753003E+03  0.50400001928E-02 0.  1.
        1   -1    0    0  501    0  0.00000000000E+00  0.00000000000E+00 -0.40953041550E+03  0.40953041553E+03  0.50400001928E-02 0. -1.
    10030    2    1    2    0    0  0.00000000000E+00  0.00000000000E+00 -0.18632885500E+02  0.80042794555E+03  0.80021104191E+03 0.  0.
        1    1    3    3  502    0  0.28640814702E+03 -0.87152998821E+02 -0.27482982887E+03  0.40639476713E+03  0.50400001928E-02 0. -1.
       -1    1    3    3    0  502 -0.28640814702E+03  0.87152998821E+02  0.25619694337E+03  0.39403317843E+03  0.50400001928E-02 0.  1.
</event>
<event>
 5   0  0.6153659E-03  0.7984638E+03  0.7818609E-02  0.9562243E-01
        2   -1    0    0  501    0  0.00000000000E+00  0.00000000000E+00  0.27047551301E+03  0.27047551302E+03  0.25500000920E-02 0.  1.
       -2   -1    0    0    0  501  0.00000000000E+00  0.00000000000E+00 -0.58928110807E+03  0.58928110807E+03  0.25500000920E-02 0. -1.
    10030    2    1    2    0    0  0.00000000000E+00  0.00000000000E+00 -0.31880559506E+03  0.85975662110E+03  0.79846380011E+03 0.  0.
        2    1    3    3  502    0  0.31528390094E+03  0.21678320937E+03 -0.28211231885E+03  0.47538012002E+03  0.25500000920E-02 0.  1.
       -2    1    3    3    0  502 -0.31528390094E+03 -0.21678320937E+03 -0.36693276208E+02  0.38437650108E+03  0.25500000920E-02 0. -1.
</event>
<event>
 5   0  0.3753450E-03  0.7992241E+03  0.7818609E-02  0.9561141E-01
        1   -1    0    0  501    0  0.00000000000E+00  0.00000000000E+00  0.11494268779E+04  0.11494268779E+04  0.50400001928E-02 0. -1.
       -1   -1    0    0    0  501  0.00000000000E+00  0.00000000000E+00 -0.13892993667E+03  0.13892993676E+03  0.50400001928E-02 0.  1.
    10030    2    1    2    0    0  0.00000000000E+00  0.00000000000E+00  0.10104969412E+04  0.12883568147E+04  0.79922413231E+03 0.  0.
        5    1    3    3  502    0 -0.25612212910E+03 -0.30548161853E+03  0.54939955547E+03  0.67880742912E+03  0.46999998093E+01 0. -1.
       -5    1    3    3    0  502  0.25612212910E+03  0.30548161853E+03  0.46109738575E+03  0.60954938554E+03  0.46999998093E+01 0.  1.
</event>
<event>
 5   0  0.3714448E-03  0.7982949E+03  0.7818609E-02  0.9562488E-01
       -1   -1    0    0    0  501  0.00000000000E+00  0.00000000000E+00  0.28543910081E+03  0.28543910085E+03  0.50400001928E-02 0. -1.
        1   -1    0    0  501    0  0.00000000000E+00  0.00000000000E+00 -0.55815301176E+03  0.55815301178E+03  0.50400001928E-02 0.  1.
    10030    2    1    2    0    0  0.00000000000E+00  0.00000000000E+00 -0.27271391095E+03  0.84359211263E+03  0.79829491748E+03 0.  0.
        1    1    3    3  502    0  0.16591086186E+03  0.35531484313E+03 -0.57676523967E+02  0.39636048399E+03  0.50400001928E-02 0.  1.
       -1    1    3    3    0  502 -0.16591086186E+03 -0.35531484313E+03 -0.21503738698E+03  0.44723162864E+03  0.50400001928E-02 0. -1.
</event>
<event>
 5   0  0.3671128E-03  0.7969755E+03  0.7818609E-02  0.9564405E-01
        1   -1    0    0  501    0  0.00000000000E+00  0.00000000000E+00  0.55703725128E+03  0.55703725130E+03  0.50400001928E-02 0. -1.
       -1   -1    0    0    0  501  0.00000000000E+00  0.00000000000E+00 -0.28506622179E+03  0.28506622183E+03  0.50400001928E-02 0.  1.
    10030    2    1    2    0    0  0.00000000000E+00  0.00000000000E+00  0.27197102949E+03  0.84210347314E+03  0.79697554454E+03 0.  0.
        2    1    3    3  502    0 -0.29290284711E+03 -0.25340637052E+03  0.36946315524E+02  0.38906541442E+03  0.25500000920E-02 0. -1.
       -2    1    3    3    0  502  0.29290284711E+03  0.25340637052E+03  0.23502471397E+03  0.45303805872E+03  0.25500000920E-02 0.  1.
</event>
<event>
 5   0  0.6153659E-03  0.8024495E+03  0.7818609E-02  0.9556478E-01
       -2   -1    0    0    0  501  0.00000000000E+00  0.00000000000E+00  0.15158567986E+03  0.15158567989E+03  0.25500000920E-02 0. -1.
        2   -1    0    0  501    0  0.00000000000E+00  0.00000000000E+00 -0.10619823505E+04  0.10619823505E+04  0.25500000920E-02 0.  1.
    10030    2    1    2    0    0  0.00000000000E+00  0.00000000000E+00 -0.91039667064E+03  0.12135680304E+04  0.80244954139E+03 0.  0.
        2    1    3    3  502    0  0.13664965104E+03 -0.12204673578E+03  0.84626543767E+02  0.20181720630E+03  0.25500000920E-02 0. -1.
       -2    1    3    3    0  502 -0.13664965104E+03  0.12204673578E+03 -0.99502321441E+03  0.10117508241E+04  0.25500000920E-02 0.  1.
</event>
<event>
 5   0  0.6536209E-03  0.7957812E+03  0.7818609E-02  0.9566144E-01
       -2   -1    0    0    0  501  0.00000000000E+00  0.00000000000E+00  0.87891141993E+03  0.87891141994E+03  0.25500000920E-02 0. -1.
        2   -1    0    0  501    0  0.00000000000E+00  0.00000000000E+00 -0.18012844737E+03  0.18012844739E+03  0.25500000920E-02 0.  1.
    10030    2    1    2    0    0  0.00000000000E+00  0.00000000000E+00  0.69878297256E+03  0.10590398673E+04  0.79578124999E+03 0.  0.
        3    1    3    3  502    0  0.33447034164E+03 -0.44166289585E+02  0.68668191736E+02  0.34429115778E+03  0.10100000352E+00 0. -1.
       -3    1    3    3    0  502 -0.33447034164E+03  0.44166289585E+02  0.63011478083E+03  0.71474870954E+03  0.10100000352E+00 0.  1.
</event>
<event>
 5   0  0.3753450E-03  0.8061777E+03  0.7818609E-02  0.9551118E-01
        1   -1    0    0  501    0  0.00000000000E+00  0.00000000000E+00  0.85733463950E+03  0.85733463952E+03  0.50400001928E-02 0. -1.
       -1   -1    0    0    0  501  0.00000000000E+00  0.00000000000E+00 -0.18951830066E+03  0.18951830073E+03  0.50400001928E-02 0.  1.
    10030    2    1    2    0    0  0.00000000000E+00  0.00000000000E+00  0.66781633884E+03  0.10468529402E+04  0.80617765788E+03 0.  0.
        5    1    3    3  502    0  0.29289657011E+03 -0.21206581221E+03  0.10271646290E+03  0.37594290955E+03  0.46999998093E+01 0.  1.
       -5    1    3    3    0  502 -0.29289657011E+03  0.21206581221E+03  0.56509987595E+03  0.67091003069E+03  0.46999998093E+01 0. -1.
</event>
<event>
 5   0  0.3714448E-03  0.7989599E+03  0.7818609E-02  0.9561524E-01
       -1   -1    0    0    0  501  0.00000000000E+00  0.00000000000E+00  0.17913125905E+03  0.17913125912E+03  0.50400001928E-02 0.  1.
        1   -1    0    0  501    0  0.00000000000E+00  0.00000000000E+00 -0.89087868725E+03  0.89087868727E+03  0.50400001928E-02 0. -1.
    10030    2    1    2    0    0  0.00000000000E+00  0.00000000000E+00 -0.71174742821E+03  0.10700099464E+04  0.79895987622E+03 0.  0.
        1    1    3    3  502    0  0.14182156309E+02 -0.36737740904E+03 -0.14660305371E+03  0.39580266499E+03  0.50400001928E-02 0.  1.
       -1    1    3    3    0  502 -0.14182156309E+02  0.36737740904E+03 -0.56514437449E+03  0.67420728139E+03  0.50400001928E-02 0. -1.
</event>
<event>
 5   0  0.3627496E-03  0.7991500E+03  0.7818609E-02  0.9561248E-01
        1   -1    0    0  501    0  0.00000000000E+00  0.00000000000E+00  0.36078106435E+03  0.36078106438E+03  0.50400001928E-02 0. -1.
       -1   -1    0    0    0  501  0.00000000000E+00  0.00000000000E+00 -0.44254036143E+03  0.44254036146E+03  0.50400001928E-02 0.  1.
    10030    2    1    2    0    0  0.00000000000E+00  0.00000000000E+00 -0.81759297084E+02  0.80332142584E+03  0.79915000504E+03 0.  0.
        3    1    3    3  502    0  0.23708269645E+03 -0.13722648430E+02  0.28214435334E+03  0.36878443888E+03  0.10100000352E+00 0. -1.
       -3    1    3    3    0  502 -0.23708269645E+03  0.13722648430E+02 -0.36390365043E+03  0.43453698696E+03  0.10100000352E+00 0.  1.
</event>
<event>
 5   0  0.5813850E-03  0.8053824E+03  0.7818609E-02  0.9552259E-01
        2   -1    0    0  501    0  0.00000000000E+00  0.00000000000E+00  0.25598614611E+03  0.25598614612E+03  0.25500000920E-02 0.  1.
       -2   -1    0    0    0  501  0.00000000000E+00  0.00000000000E+00 -0.63347254144E+03  0.63347254145E+03  0.25500000920E-02 0. -1.
    10030    2    1    2    0    0  0.00000000000E+00  0.00000000000E+00 -0.37748639533E+03  0.88945868757E+03  0.80538238014E+03 0.  0.
        5    1    3    3  502    0 -0.79188020534E+02 -0.22595841502E+02  0.24655691221E+03  0.25998791435E+03  0.46999998093E+01 0.  1.
       -5    1    3    3    0  502  0.79188020534E+02  0.22595841502E+02 -0.62404330754E+03  0.62947077322E+03  0.46999998093E+01 0. -1.
</event>
<event>
 5   0  0.3753450E-03  0.8003319E+03  0.7818609E-02  0.9559537E-01
        1   -1    0    0  501    0  0.00000000000E+00  0.00000000000E+00  0.72063512274E+03  0.72063512275E+03  0.50400001928E-02 0.  1.
       -1   -1    0    0    0  501  0.00000000000E+00  0.00000000000E+00 -0.22221063177E+03  0.22221063183E+03  0.50400001928E-02 0. -1.
    10030    2    1    2    0    0  0.00000000000E+00  0.00000000000E+00  0.49842449096E+03  0.94284575458E+03  0.80033189599E+03 0.  0.
        5    1    3    3  502    0  0.13484759770E+02  0.30116076112E+03  0.55918319496E+03  0.63528543059E+03  0.46999998093E+01 0.  1.
       -5    1    3    3    0  502 -0.13484759770E+02 -0.30116076112E+03 -0.60758704001E+02  0.30756032400E+03  0.46999998093E+01 0. -1.
</event>
<event>
 5   0  0.6153659E-03  0.7990904E+03  0.7818609E-02  0.9561335E-01
        2   -1    0    0  501    0  0.00000000000E+00  0.00000000000E+00  0.13420583919E+04  0.13420583919E+04  0.25500000920E-02 0. -1.
       -2   -1    0    0    0  501  0.00000000000E+00  0.00000000000E+00 -0.11894889923E+03  0.11894889925E+03  0.25500000920E-02 0.  1.
    10030    2    1    2    0    0  0.00000000000E+00  0.00000000000E+00  0.12231094927E+04  0.14610072911E+04  0.79909040398E+03 0.  0.
        2    1    3    3  502    0 -0.22010366777E+03  0.33123692141E+03  0.54138739207E+03  0.67176173676E+03  0.25500000920E-02 0. -1.
       -2    1    3    3    0  502  0.22010366777E+03 -0.33123692141E+03  0.68172210059E+03  0.78924555438E+03  0.25500000920E-02 0.  1.
</event>
<event>
 5   0  0.6153659E-03  0.8011464E+03  0.7818609E-02  0.9558359E-01
        2   -1    0    0  501    0  0.00000000000E+00  0.00000000000E+00  0.20822394510E+04  0.20822394510E+04  0.25500000920E-02 0.  1.
       -2   -1    0    0    0  501  0.00000000000E+00  0.00000000000E+00 -0.77060719559E+02  0.77060719601E+02  0.25500000920E-02 0. -1.
    10030    2    1    2    0    0  0.00000000000E+00  0.00000000000E+00  0.20051787315E+04  0.21593001706E+04  0.80114635476E+03 0.  0.
        2    1    3    3  502    0 -0.29784606692E+03  0.18383089628E+03  0.47751232893E+03  0.59205075989E+03  0.25500000920E-02 0. -1.
       -2    1    3    3    0  502  0.29784606692E+03 -0.18383089628E+03  0.15276664025E+04  0.15672494107E+04  0.25500000920E-02 0.  1.
</event>
<event>
 5   0  0.5813850E-03  0.7987713E+03  0.7818609E-02  0.9561797E-01
       -2   -1    0    0    0  501  0.00000000000E+00  0.00000000000E+00  0.87332645144E+02  0.87332645181E+02  0.25500000920E-02 0.  1.
        2   -1    0    0  501    0  0.00000000000E+00  0.00000000000E+00 -0.18264520120E+04  0.18264520120E+04  0.25500000920E-02 0. -1.
    10030    2    1    2    0    0  0.00000000000E+00  0.00000000000E+00 -0.17391193669E+04  0.19137846572E+04  0.79877127008E+03 0.  0.
        5    1    3    3  502    0  0.30916135666E+03 -0.20837398688E+03 -0.12124875222E+04  0.12685221892E+04  0.46999998093E+01 0. -1.
       -5    1    3    3    0  502 -0.30916135666E+03  0.20837398688E+03 -0.52663184466E+03  0.64526246805E+03  0.46999998093E+01 0.  1.
</event>
<event>
 5   0  0.6256781E-03  0.7970105E+03  0.7818609E-02  0.9564354E-01
       -2   -1    0    0    0  501  0.00000000000E+00  0.00000000000E+00  0.14153464628E+03  0.14153464630E+03  0.25500000920E-02 0.  1.
        2   -1    0    0  501    0  0.00000000000E+00  0.00000000000E+00 -0.11220322402E+04  0.11220322402E+04  0.25500000920E-02 0. -1.
    10030    2    1    2    0    0  0.00000000000E+00  0.00000000000E+00 -0.98049759395E+03  0.12635668865E+04  0.79701050496E+03 0.  0.
        1    1    3    3  502    0  0.49773632120E+02  0.71594644417E+02  0.12622514353E+03  0.15341445320E+03  0.50400001928E-02 0.  1.
       -1    1    3    3    0  502 -0.49773632120E+02 -0.71594644417E+02 -0.11067227375E+04  0.11101524333E+04  0.50400001928E-02 0. -1.
</event>
<event>
 5   0  0.6153659E-03  0.8116992E+03  0.7818609E-02  0.9543236E-01
       -2   -1    0    0    0  501  0.00000000000E+00  0.00000000000E+00  0.83635641575E+02  0.83635641613E+02  0.25500000920E-02 0. -1.
        2   -1    0    0  501    0  0.00000000000E+00  0.00000000000E+00 -0.19694222390E+04  0.19694222390E+04  0.25500000920E-02 0.  1.
    10030    2    1    2    0    0  0.00000000000E+00  0.00000000000E+00 -0.18857865974E+04  0.20530578806E+04  0.81169918696E+03 0.  0.
        2    1    3    3  502    0 -0.23577980476E+03  0.13037181628E+03 -0.17105989754E+04  0.17316863982E+04  0.25500000920E-02 0.  1.
       -2    1    3    3    0  502  0.23577980476E+03 -0.13037181628E+03 -0.17518762194E+03  0.32137148240E+03  0.25500000920E-02 0. -1.
</event>
<event>
 5   0  0.6256781E-03  0.7990851E+03  0.7818609E-02  0.9561342E-01
        2   -1    0    0  501    0  0.00000000000E+00  0.00000000000E+00  0.11335538335E+04  0.11335538336E+04  0.25500000920E-02 0.  1.
       -2   -1    0    0    0  501  0.00000000000E+00  0.00000000000E+00 -0.14082633815E+03  0.14082633818E+03  0.25500000920E-02 0. -1.
    10030    2    1    2    0    0  0.00000000000E+00  0.00000000000E+00  0.99272749540E+03  0.12743801717E+04  0.79908506555E+03 0.  0.
        1    1    3    3  502    0  0.29532924911E+03  0.91064439477E+02  0.92523138258E+02  0.32260289623E+03  0.50400001928E-02 0. -1.
       -1    1    3    3    0  502 -0.29532924911E+03 -0.91064439477E+02  0.90020435714E+03  0.95177727550E+03  0.50400001928E-02 0.  1.
</event>
<event>
 5   0  0.3671128E-03  0.7961721E+03  0.7818609E-02  0.9565574E-01
        1   -1    0    0  501    0  0.00000000000E+00  0.00000000000E+00  0.13905232804E+04  0.13905232804E+04  0.50400001928E-02 0.  1.
       -1   -1    0    0    0  501  0.00000000000E+00  0.00000000000E+00 -0.11396610374E+03  0.11396610385E+03  0.50400001928E-02 0. -1.
    10030    2    1    2    0    0  0.00000000000E+00  0.00000000000E+00  0.12765571767E+04  0.15044893843E+04  0.79617214348E+03 0.  0.
        2    1    3    3  502    0 -0.26190482726E+03 -0.15413274580E+03  0.11241858928E+04  0.11645363728E+04  0.25500000920E-02 0.  1.
       -2    1    3    3    0  502  0.26190482726E+03  0.15413274580E+03  0.15237128383E+03  0.33995301148E+03  0.25500000920E-02 0. -1.
</event>
<event>
 5   0  0.3860515E-03  0.8002758E+03  0.7818609E-02  0.9559618E-01
       -1   -1    0    0    0  501  0.00000000000E+00  0.00000000000E+00  0.99900658007E+03  0.99900658008E+03  0.50400001928E-02 0.  1.
        1   -1    0    0  501    0  0.00000000000E+00  0.00000000000E+00 -0.16026953550E+03  0.16026953558E+03  0.50400001928E-02 0. -1.
    10030    2    1    2    0    0  0.00000000000E+00  0.00000000000E+00  0.83873704457E+03  0.11592761157E+04  0.80027575398E+03 0.  0.
        4    1    3    3  502    0 -0.75326868942E+02  0.28904606498E+03  0.80505139426E+03  0.85867987350E+03  0.12699999809E+01 0.  1.
       -4    1    3    3    0  502  0.75326868942E+02 -0.28904606498E+03  0.33685650314E+02  0.30059624216E+03  0.12699999809E+01 0. -1.
</event>
<event>
 5   0  0.3860515E-03  0.7986183E+03  0.7818609E-02  0.9562019E-01
       -1   -1    0    0    0  501  0.00000000000E+00  0.00000000000E+00  0.71138271585E+03  0.71138271587E+03  0.50400001928E-02 0.  1.
        1   -1    0    0  501    0  0.00000000000E+00  0.00000000000E+00 -0.22413787971E+03  0.22413787977E+03  0.50400001928E-02 0. -1.
    10030    2    1    2    0    0  0.00000000000E+00  0.00000000000E+00  0.48724483614E+03  0.93552059564E+03  0.79861834096E+03 0.  0.
        4    1    3    3  502    0  0.26331539163E+03 -0.15018922355E+03 -0.60845053928E+02  0.30918527104E+03  0.12699999809E+01 0.  1.
       -4    1    3    3    0  502 -0.26331539163E+03  0.15018922355E+03  0.54808989007E+03  0.62633532460E+03  0.12699999809E+01 0. -1.
</event>
<event>
 5   0  0.6337108E-03  0.8133080E+03  0.7818609E-02  0.9540952E-01
       -2   -1    0    0    0  501  0.00000000000E+00  0.00000000000E+00  0.72114018606E+03  0.72114018607E+03  0.25500000920E-02 0.  1.
        2   -1    0    0  501    0  0.00000000000E+00  0.00000000000E+00 -0.22931393428E+03  0.22931393429E+03  0.25500000920E-02 0. -1.
    10030    2    1    2    0    0  0.00000000000E+00  0.00000000000E+00  0.49182625179E+03  0.95045412036E+03  0.81330804309E+03 0.  0.
        4    1    3    3  502    0 -0.18596139543E+03  0.13542777376E+03  0.63778435575E+03  0.67800650427E+03  0.12699999809E+01 0.  1.
       -4    1    3    3    0  502  0.18596139543E+03 -0.13542777376E+03 -0.14595810396E+03  0.27244761608E+03  0.12699999809E+01 0. -1.
</event>
<event>
 5   0  0.3753450E-03  0.8017318E+03  0.7818609E-02  0.9557514E-01
       -1   -1    0    0    0  501  0.00000000000E+00  0.00000000000E+00  0.17862320188E+03  0.17862320195E+03  0.50400001928E-02 0. -1.
        1   -1    0    0  501    0  0.00000000000E+00  0.00000000000E+00 -0.89962270265E+03  0.89962270267E+03  0.50400001928E-02 0.  1.
    10030    2    1    2    0    0  0.00000000000E+00  0.00000000000E+00 -0.72099950078E+03  0.10782459046E+04  0.80173184463E+03 0.  0.
        5    1    3    3  502    0 -0.30765155651E+03  0.12499889404E+03 -0.58579765354E+02  0.33723564854E+03  0.46999998093E+01 0. -1.
       -5    1    3    3    0  502  0.30765155651E+03 -0.12499889404E+03 -0.66241973542E+03  0.74101025608E+03  0.46999998093E+01 0.  1.
</event>
<event>
 5   0  0.3671128E-03  0.7991881E+03  0.7818609E-02  0.9561193E-01
        1   -1    0    0  501    0  0.00000000000E+00  0.00000000000E+00  0.81532648190E+03  0.81532648191E+03  0.50400001928E-02 0. -1.
       -1   -1    0    0    0  501  0.00000000000E+00  0.00000000000E+00 -0.19584227617E+03  0.19584227624E+03  0.50400001928E-02 0.  1.
    10030    2    1    2    0    0  0.00000000000E+00  0.00000000000E+00  0.61948420572E+03  0.10111687582E+04  0.79918807318E+03 0.  0.
        2    1    3    3  502    0  0.89666018010E+02  0.46144476888E+02  0.79896197032E+03  0.80530089877E+03  0.25500000920E-02 0. -1.
       -2    1    3    3    0  502 -0.89666018010E+02 -0.46144476888E+02 -0.17947776460E+03  0.20586785938E+03  0.25500000920E-02 0.  1.
</event>
<event>
 5   0  0.3860515E-03  0.7989193E+03  0.7818609E-02  0.9561583E-01
        1   -1    0    0  501    0  0.00000000000E+00  0.00000000000E+00  0.11218481585E+03  0.11218481596E+03  0.50400001928E-02 0. -1.
       -1   -1    0    0    0  501  0.00000000000E+00  0.00000000000E+00 -0.14223674600E+04  0.14223674600E+04  0.50400001928E-02 0.  1.
    10030    2    1    2    0    0  0.00000000000E+00  0.00000000000E+00 -0.13101826441E+04  0.15345522759E+04  0.79891934926E+03 0.  0.
        4    1    3    3  502    0 -0.52922966813E+02 -0.36847174781E+03 -0.37678191259E+03  0.52965884483E+03  0.12699999809E+01 0. -1.
       -4    1    3    3    0  502  0.52922966813E+02  0.36847174781E+03 -0.93340073154E+03  0.10048934311E+04  0.12699999809E+01 0.  1.
</event>
<event>
 5   0  0.3860515E-03  0.8028689E+03  0.7818609E-02  0.9555874E-01
       -1   -1    0    0    0  501  0.00000000000E+00  0.00000000000E+00  0.65766534401E+03  0.65766534403E+03  0.50400001928E-02 0.  1.
        1   -1    0    0  501    0  0.00000000000E+00  0.00000000000E+00 -0.24503288009E+03  0.24503288014E+03  0.50400001928E-02 0. -1.
    10030    2    1    2    0    0  0.00000000000E+00  0.00000000000E+00  0.41263246392E+03  0.90269822417E+03  0.80286893927E+03 0.  0.
        4    1    3    3  502    0 -0.19814780043E+03 -0.15015809197E+03  0.56068519267E+03  0.61333473860E+03  0.12699999809E+01 0.  1.
       -4    1    3    3    0  502  0.19814780043E+03  0.15015809197E+03 -0.14805272874E+03  0.28936348558E+03  0.12699999809E+01 0. -1.
</event>
<event>
 5   0  0.6536209E-03  0.8012647E+03  0.7818609E-02  0.9558188E-01
       -2   -1    0    0    0  501  0.00000000000E+00  0.00000000000E+00  0.43320625145E+03  0.43320625145E+03  0.25500000920E-02 0.  1.
        2   -1    0    0  501    0  0.00000000000E+00  0.00000000000E+00 -0.37050776511E+03  0.37050776512E+03  0.25500000920E-02 0. -1.
    10030    2    1    2    0    0  0.00000000000E+00  0.00000000000E+00  0.62698486338E+02  0.80371401657E+03  0.80126470048E+03 0.  0.
        3    1    3    3  502    0 -0.16627359421E+03  0.32139329387E+03 -0.14112319618E+03  0.38840227108E+03  0.10100000352E+00 0. -1.
       -3    1    3    3    0  502  0.16627359421E+03 -0.32139329387E+03  0.20382168252E+03  0.41531174549E+03  0.10100000352E+00 0.  1.
</event>
<event>
 5   0  0.3671128E-03  0.8002927E+03  0.7818609E-02  0.9559594E-01
       -1   -1    0    0    0  501  0.00000000000E+00  0.00000000000E+00  0.10921147245E+04  0.10921147245E+04  0.50400001928E-02 0.  1.
        1   -1    0    0  501    0  0.00000000000E+00  0.00000000000E+00 -0.14661197508E+03  0.14661197517E+03  0.50400001928E-02 0. -1.
    10030    2    1    2    0    0  0.00000000000E+00  0.00000000000E+00  0.94550274940E+03  0.12387266997E+04  0.80029268855E+03 0.  0.
        2    1    3    3  502    0 -0.30128718932E+03 -0.12914426845E+03  0.11753971200E+03  0.34823526017E+03  0.25500000920E-02 0. -1.
       -2    1    3    3    0  502  0.30128718932E+03  0.12914426845E+03  0.82796303740E+03  0.89049143950E+03  0.25500000920E-02 0.  1.
</event>
<event>
 5   0  0.6536209E-03  0.8123752E+03  0.7818609E-02  0.9542275E-01
        2   -1    0    0  501    0  0.00000000000E+00  0.00000000000E+00  0.28924569967E+03  0.28924569968E+03  0.25500000920E-02 0. -1.
       -2   -1    0    0    0  501  0.00000000000E+00  0.00000000000E+00 -0.57040909335E+03  0.57040909335E+03  0.25500000920E-02 0.  1.
    10030    2    1    2    0    0  0.00000000000E+00  0.00000000000E+00 -0.28116339368E+03  0.85965479303E+03  0.81237522688E+03 0.  0.
        3    1    3    3  502    0  0.33460339635E+03  0.13408365617E+02  0.10268710773E+03  0.35026257210E+03  0.10100000352E+00 0. -1.
       -3    1    3    3    0  502 -0.33460339635E+03 -0.13408365617E+02 -0.38385050140E+03  0.50939222093E+03  0.10100000352E+00 0.  1.
</event>
<event>
 5   0  0.3753450E-03  0.7977380E+03  0.7818609E-02  0.9563297E-01
        1   -1    0    0  501    0  0.00000000000E+00  0.00000000000E+00  0.71916547950E+03  0.71916547951E+03  0.50400001928E-02 0.  1.
       -1   -1    0    0    0  501  0.00000000000E+00  0.00000000000E+00 -0.22122374914E+03  0.22122374920E+03  0.50400001928E-02 0. -1.
    10030    2    1    2    0    0  0.00000000000E+00  0.00000000000E+00  0.49794173035E+03  0.94038922872E+03  0.79773801129E+03 0.  0.
        5    1    3    3  502    0 -0.75147061959E+02 -0.66431346391E+02 -0.20608128581E+03  0.22924177425E+03  0.46999998093E+01 0. -1.
       -5    1    3    3    0  502  0.75147061959E+02  0.66431346391E+02  0.70402301616E+03  0.71114745446E+03  0.46999998093E+01 0.  1.
</event>
<event>
 5   0  0.6536209E-03  0.7991039E+03  0.7818609E-02  0.9561315E-01
        2   -1    0    0  501    0  0.00000000000E+00  0.00000000000E+00  0.12146662281E+04  0.12146662281E+04  0.25500000920E-02 0. -1.
       -2   -1    0    0    0  501  0.00000000000E+00  0.00000000000E+00 -0.13142848595E+03  0.13142848597E+03  0.25500000920E-02 0.  1.
    10030    2    1    2    0    0  0.00000000000E+00  0.00000000000E+00  0.10832377421E+04  0.13460947140E+04  0.79910385633E+03 0.  0.
        3    1    3    3  502    0 -0.11935783426E+03  0.12185164875E+03  0.11502537900E+04  0.11628318488E+04  0.10100000352E+00 0. -1.
       -3    1    3    3    0  502  0.11935783426E+03 -0.12185164875E+03 -0.67016047900E+02  0.18326286525E+03  0.10100000352E+00 0.  1.
</event>
<event>
 5   0  0.3714448E-03  0.8054128E+03  0.7818609E-02  0.9552215E-01
       -1   -1    0    0    0  501  0.00000000000E+00  0.00000000000E+00  0.37660596299E+03  0.37660596302E+03  0.50400001928E-02 0. -1.
        1   -1    0    0  501    0  0.00000000000E+00  0.00000000000E+00 -0.43061571107E+03  0.43061571110E+03  0.50400001928E-02 0.  1.
    10030    2    1    2    0    0  0.00000000000E+00  0.00000000000E+00 -0.54009748083E+02  0.80722167412E+03  0.80541279992E+03 0.  0.
        1    1    3    3  502    0 -0.37770597637E+02 -0.36111920773E+03  0.14756652318E+03  0.39193057934E+03  0.50400001928E-02 0. -1.
       -1    1    3    3    0  502  0.37770597637E+02  0.36111920773E+03 -0.20157627126E+03  0.41529109477E+03  0.50400001928E-02 0.  1.
</event>
<event>
 5   0  0.3753450E-03  0.8028442E+03  0.7818609E-02  0.9555909E-01
       -1   -1    0    0    0  501  0.00000000000E+00  0.00000000000E+00  0.27118505578E+03  0.27118505582E+03  0.50400001928E-02 0.  1.
        1   -1    0    0  501    0  0.00000000000E+00  0.00000000000E+00 -0.59420570612E+03  0.59420570614E+03  0.50400001928E-02 0. -1.
    10030    2    1    2    0    0  0.00000000000E+00  0.00000000000E+00 -0.32302065034E+03  0.86539076197E+03  0.80284421300E+03 0.  0.
        5    1    3    3  502    0  0.11411093783E+03  0.14896731352E+03 -0.54398488201E+03  0.57545999730E+03  0.46999998093E+01 0. -1.
       -5    1    3    3    0  502 -0.11411093783E+03 -0.14896731352E+03  0.22096423167E+03  0.28993076467E+03  0.46999998093E+01 0.  1.
</event>
<event>
 5   0  0.5813850E-03  0.8055214E+03  0.7818609E-02  0.9552059E-01
        2   -1    0    0  501    0  0.00000000000E+00  0.00000000000E+00  0.50095481969E+03  0.50095481970E+03  0.25500000920E-02 0. -1.
       -2   -1    0    0    0  501  0.00000000000E+00  0.00000000000E+00 -0.32381401990E+03  0.32381401991E+03  0.25500000920E-02 0.  1.
    10030    2    1    2    0    0  0.00000000000E+00  0.00000000000E+00  0.17714079979E+03  0.82476883961E+03  0.80552143103E+03 0.  0.
        5    1    3    3  502    0  0.13743472318E+03  0.26000541387E+03  0.37028648791E+03  0.47289035886E+03  0.46999998093E+01 0. -1.
       -5    1    3    3    0  502 -0.13743472318E+03 -0.26000541387E+03 -0.19314568812E+03  0.35187848075E+03  0.46999998093E+01 0.  1.
</event>
<event>
 5   0  0.3714448E-03  0.7989654E+03  0.7818609E-02  0.9561516E-01
       -1   -1    0    0    0  501  0.00000000000E+00  0.00000000000E+00  0.37628583094E+03  0.37628583098E+03  0.50400001928E-02 0. -1.
        1   -1    0    0  501    0  0.00000000000E+00  0.00000000000E+00 -0.42410960024E+03  0.42410960027E+03  0.50400001928E-02 0.  1.
    10030    2    1    2    0    0  0.00000000000E+00  0.00000000000E+00 -0.47823769295E+02  0.80039543124E+03  0.79896541443E+03 0.  0.
        1    1    3    3  502    0 -0.25007274381E+03  0.17768106669E+03 -0.28025949926E+03  0.41551453116E+03  0.50400001928E-02 0.  1.
       -1    1    3    3    0  502  0.25007274381E+03 -0.17768106669E+03  0.23243572997E+03  0.38488090008E+03  0.50400001928E-02 0. -1.
</event>
<event>
 5   0  0.3671128E-03  0.8042113E+03  0.7818609E-02  0.9553941E-01
        1   -1    0    0  501    0  0.00000000000E+00  0.00000000000E+00  0.71420928549E+03  0.71420928551E+03  0.50400001928E-02 0.  1.
       -1   -1    0    0    0  501  0.00000000000E+00  0.00000000000E+00 -0.22638875238E+03  0.22638875244E+03  0.50400001928E-02 0. -1.
    10030    2    1    2    0    0  0.00000000000E+00  0.00000000000E+00  0.48782053311E+03  0.94059803795E+03  0.80421128845E+03 0.  0.
        2    1    3    3  502    0  0.39198951306E+03 -0.22228001248E+02  0.14235714601E+03  0.41763072135E+03  0.25500000920E-02 0. -1.
       -2    1    3    3    0  502 -0.39198951306E+03  0.22228001248E+02  0.34546338710E+03  0.52296731659E+03  0.25500000920E-02 0.  1.
</event>
<event>
 5   0  0.6153659E-03  0.8057144E+03  0.7818609E-02  0.9551782E-01
        2   -1    0    0  501    0  0.00000000000E+00  0.00000000000E+00  0.36371943777E+03  0.36371943778E+03  0.25500000920E-02 0. -1.
       -2   -1    0    0    0  501  0.00000000000E+00  0.00000000000E+00 -0.44620640415E+03  0.44620640416E+03  0.25500000920E-02 0.  1.
    10030    2    1    2    0    0  0.00000000000E+00  0.00000000000E+00 -0.82486966381E+02  0.80992584194E+03  0.80571444682E+03 0.  0.
        2    1    3    3  502    0 -0.96031751088E+02  0.12001232294E+03 -0.41557260985E+03  0.44308650277E+03  0.25500000920E-02 0.  1.
       -2    1    3    3    0  502  0.96031751088E+02 -0.12001232294E+03  0.33308564347E+03  0.36683933917E+03  0.25500000920E-02 0. -1.
</event>
<event>
 5   0  0.6153659E-03  0.7761492E+03  0.7818609E-02  0.9595197E-01
       -2   -1    0    0    0  501  0.00000000000E+00  0.00000000000E+00  0.37835481798E+03  0.37835481798E+03  0.25500000920E-02 0. -1.
        2   -1    0    0  501    0  0.00000000000E+00  0.00000000000E+00 -0.39804408019E+03  0.39804408019E+03  0.25500000920E-02 0.  1.
    10030    2    1    2    0    0  0.00000000000E+00  0.00000000000E+00 -0.19689262210E+02  0.77639889818E+03  0.77614920089E+03 0.  0.
        2    1    3    3  502    0  0.55826700378E+02 -0.88702645248E+02  0.36392931594E+03  0.37872064474E+03  0.25500000920E-02 0. -1.
       -2    1    3    3    0  502 -0.55826700378E+02  0.88702645248E+02 -0.38361857815E+03  0.39767825344E+03  0.25500000920E-02 0.  1.
</event>
<event>
 5   0  0.6337108E-03  0.7969860E+03  0.7818609E-02  0.9564390E-01
        2   -1    0    0  501    0  0.00000000000E+00  0.00000000000E+00  0.92337190380E+03  0.92337190380E+03  0.25500000920E-02 0. -1.
       -2   -1    0    0    0  501  0.00000000000E+00  0.00000000000E+00 -0.17197477035E+03  0.17197477037E+03  0.25500000920E-02 0.  1.
    10030    2    1    2    0    0  0.00000000000E+00  0.00000000000E+00  0.75139713345E+03  0.10953466742E+04  0.79698600016E+03 0.  0.
        4    1    3    3  502    0  0.32427465784E+02 -0.28540251376E+03  0.75530332069E+03  0.80807849529E+03  0.12699999809E+01 0. -1.
       -4    1    3    3    0  502 -0.32427465784E+02  0.28540251376E+03 -0.39061872402E+01  0.28726817888E+03  0.12699999809E+01 0.  1.
</event>
<event>
 5   0  0.6256781E-03  0.8019559E+03  0.7818609E-02  0.9557190E-01
        2   -1    0    0  501    0  0.00000000000E+00  0.00000000000E+00  0.55282372057E+03  0.55282372057E+03  0.25500000920E-02 0. -1.
       -2   -1    0    0    0  501  0.00000000000E+00  0.00000000000E+00 -0.29084008869E+03  0.29084008870E+03  0.25500000920E-02 0.  1.
    10030    2    1    2    0    0  0.00000000000E+00  0.00000000000E+00  0.26198363188E+03  0.84366380927E+03  0.80195585895E+03 0.  0.
        1    1    3    3  502    0  0.28458892319E+03  0.28224214013E+03  0.11891345469E+03  0.41808120097E+03  0.50400001928E-02 0.  1.
       -1    1    3    3    0  502 -0.28458892319E+03 -0.28224214013E+03  0.14307017718E+03  0.42558260831E+03  0.50400001928E-02 0. -1.
</event>
<event>
 5   0  0.5813850E-03  0.7966365E+03  0.7818609E-02  0.9564898E-01
       -2   -1    0    0    0  501  0.00000000000E+00  0.00000000000E+00  0.19955199182E+03  0.19955199184E+03  0.25500000920E-02 0. -1.
        2   -1    0    0  501    0  0.00000000000E+00  0.00000000000E+00 -0.79506813889E+03  0.79506813889E+03  0.25500000920E-02 0.  1.
    10030    2    1    2    0    0  0.00000000000E+00  0.00000000000E+00 -0.59551614706E+03  0.99462013073E+03  0.79663650622E+03 0.  0.
        5    1    3    3  502    0 -0.26375077472E+03 -0.16641373717E+03  0.11556985285E+02  0.31211160983E+03  0.46999998093E+01 0. -1.
       -5    1    3    3    0  502  0.26375077472E+03  0.16641373717E+03 -0.60707313235E+03  0.68250852090E+03  0.46999998093E+01 0.  1.
</event>
<event>
 5   0  0.6153659E-03  0.8046721E+03  0.7818609E-02  0.9553279E-01
        2   -1    0    0  501    0  0.00000000000E+00  0.00000000000E+00  0.89617795396E+03  0.89617795397E+03  0.25500000920E-02 0. -1.
       -2   -1    0    0    0  501  0.00000000000E+00  0.00000000000E+00 -0.18062741461E+03  0.18062741463E+03  0.25500000920E-02 0.  1.
    10030    2    1    2    0    0  0.00000000000E+00  0.00000000000E+00  0.71555053935E+03  0.10768053686E+04  0.80467212421E+03 0.  0.
        2    1    3    3  502    0  0.39605034472E+03 -0.68516943740E+02  0.38185750132E+03  0.55440562628E+03  0.25500000920E-02 0.  1.
       -2    1    3    3    0  502 -0.39605034472E+03  0.68516943740E+02  0.33369303803E+03  0.52239974231E+03  0.25500000920E-02 0. -1.
</event>
<event>
 5   0  0.6256781E-03  0.8038372E+03  0.7818609E-02  0.9554479E-01
        2   -1    0    0  501    0  0.00000000000E+00  0.00000000000E+00  0.12437115151E+04  0.12437115151E+04  0.25500000920E-02 0. -1.
       -2   -1    0    0    0  501  0.00000000000E+00  0.00000000000E+00 -0.12988428028E+03  0.12988428031E+03  0.25500000920E-02 0.  1.
    10030    2    1    2    0    0  0.00000000000E+00  0.00000000000E+00  0.11138272349E+04  0.13735957954E+04  0.80383723487E+03 0.  0.
        1    1    3    3  502    0  0.35399818045E+03 -0.18960010272E+03  0.52854219565E+03  0.66379195786E+03  0.50400001928E-02 0. -1.
       -1    1    3    3    0  502 -0.35399818045E+03  0.18960010272E+03  0.58528503921E+03  0.70980383759E+03  0.50400001928E-02 0.  1.
</event>
<event>
 5   0  0.3753450E-03  0.7997447E+03  0.7818609E-02  0.9560387E-01
       -1   -1    0    0    0  501  0.00000000000E+00  0.00000000000E+00  0.40121370882E+03  0.40121370886E+03  0.50400001928E-02 0. -1.
        1   -1    0    0  501    0  0.00000000000E+00  0.00000000000E+00 -0.39853547802E+03  0.39853547805E+03  0.50400001928E-02 0.  1.
    10030    2    1    2    0    0  0.00000000000E+00  0.00000000000E+00  0.26782308039E+01  0.79974918691E+03  0.79974470241E+03 0.  0.
        5    1    3    3  502    0 -0.37892828292E+03 -0.30829221731E+02 -0.12251117639E+03  0.39945983884E+03  0.46999998093E+01 0.  1.
       -5    1    3    3    0  502  0.37892828292E+03  0.30829221731E+02  0.12518940720E+03  0.40028934807E+03  0.46999998093E+01 0. -1.
</event>
<event>
 5   0  0.3753450E-03  0.8002929E+03  0.7818609E-02  0.9559593E-01
        1   -1    0    0  501    0  0.00000000000E+00  0.00000000000E+00  0.48429507853E+03  0.48429507855E+03  0.50400001928E-02 0. -1.
       -1   -1    0    0    0  501  0.00000000000E+00  0.00000000000E+00 -0.33061901986E+03  0.33061901990E+03  0.50400001928E-02 0.  1.
    10030    2    1    2    0    0  0.00000000000E+00  0.00000000000E+00  0.15367605867E+03  0.81491409846E+03  0.80029285693E+03 0.  0.
        5    1    3    3  502    0  0.31795531127E+03 -0.32188727983E+02 -0.16831639882E+03  0.36122596014E+03  0.46999998093E+01 0.  1.
       -5    1    3    3    0  502 -0.31795531127E+03  0.32188727983E+02  0.32199245748E+03  0.45368813831E+03  0.46999998093E+01 0. -1.
</event>
<event>
 5   0  0.3627496E-03  0.7977616E+03  0.7818609E-02  0.9563263E-01
        1   -1    0    0  501    0  0.00000000000E+00  0.00000000000E+00  0.41358414812E+03  0.41358414815E+03  0.50400001928E-02 0.  1.
       -1   -1    0    0    0  501  0.00000000000E+00  0.00000000000E+00 -0.38470014883E+03  0.38470014886E+03  0.50400001928E-02 0. -1.
    10030    2    1    2    0    0  0.00000000000E+00  0.00000000000E+00  0.28883999283E+02  0.79828429701E+03  0.79776157681E+03 0.  0.
        3    1    3    3  502    0 -0.69235558723E+00 -0.42577632200E+02 -0.38241910110E+03  0.38478268310E+03  0.10100000352E+00 0. -1.
       -3    1    3    3    0  502  0.69235558723E+00  0.42577632200E+02  0.41130310039E+03  0.41350161391E+03  0.10100000352E+00 0.  1.
</event>
<event>
 5   0  0.5813850E-03  0.7974934E+03  0.7818609E-02  0.9563652E-01
        2   -1    0    0  501    0  0.00000000000E+00  0.00000000000E+00  0.86544423358E+03  0.86544423358E+03  0.25500000920E-02 0.  1.
       -2   -1    0    0    0  501  0.00000000000E+00  0.00000000000E+00 -0.18371946226E+03  0.18371946227E+03  0.25500000920E-02 0. -1.
    10030    2    1    2    0    0  0.00000000000E+00  0.00000000000E+00  0.68172477132E+03  0.10491636959E+04  0.79749344628E+03 0.  0.
        5    1    3    3  502    0 -0.49909281949E+02  0.32794865344E+03  0.63188625183E+03  0.71368310962E+03  0.46999998093E+01 0.  1.
       -5    1    3    3    0  502  0.49909281949E+02 -0.32794865344E+03  0.49838519495E+02  0.33548058623E+03  0.46999998093E+01 0. -1.
</event>
<event>
 5   0  0.3860515E-03  0.7999580E+03  0.7818609E-02  0.9560078E-01
        1   -1    0    0  501    0  0.00000000000E+00  0.00000000000E+00  0.35748427075E+03  0.35748427079E+03  0.50400001928E-02 0. -1.
       -1   -1    0    0    0  501  0.00000000000E+00  0.00000000000E+00 -0.44752510118E+03  0.44752510121E+03  0.50400001928E-02 0.  1.
    10030    2    1    2    0    0  0.00000000000E+00  0.00000000000E+00 -0.90040830432E+02  0.80500937200E+03  0.79995796006E+03 0.  0.
        4    1    3    3  502    0 -0.37113224617E+03 -0.11175016865E+03  0.54367237203E+02  0.39138811137E+03  0.12699999809E+01 0. -1.
       -4    1    3    3    0  502  0.37113224617E+03  0.11175016865E+03 -0.14440806764E+03  0.41362126063E+03  0.12699999809E+01 0.  1.
</event>
<event>
 5   0  0.6256781E-03  0.7999023E+03  0.7818609E-02  0.9560159E-01
        2   -1    0    0  501    0  0.00000000000E+00  0.00000000000E+00  0.12123313601E+04  0.12123313601E+04  0.25500000920E-02 0. -1.
       -2   -1    0    0    0  501  0.00000000000E+00  0.00000000000E+00 -0.13194486907E+03  0.13194486910E+03  0.25500000920E-02 0.  1.
    10030    2    1    2    0    0  0.00000000000E+00  0.00000000000E+00  0.10803864910E+04  0.13442762292E+04  0.79990225052E+03 0.  0.
        1    1    3    3  502    0 -0.35782502028E+03  0.41468100775E+02  0.83225415650E+03  0.90686566235E+03  0.50400001928E-02 0. -1.
       -1    1    3    3    0  502  0.35782502028E+03 -0.41468100775E+02  0.24813233450E+03  0.43741056682E+03  0.50400001928E-02 0.  1.
</event>
<event>
 5   0  0.2478000E-03  0.7962307E+03  0.7818609E-02  0.9565489E-01
       -3   -1    0    0    0  501  0.00000000000E+00  0.00000000000E+00  0.13583261710E+03  0.13583265465E+03  0.10100000352E+00 0. -1.
        3   -1    0    0  501    0  0.00000000000E+00  0.00000000000E+00 -0.11668463393E+04  0.11668463436E+04  0.10100000352E+00 0.  1.
    10030    2    1    2    0    0  0.00000000000E+00  0.00000000000E+00 -0.10310137222E+04  0.13026789983E+04  0.79623066838E+03 0.  0.
        4    1    3    3  502    0  0.19907762085E+03  0.22019490752E+03 -0.81484232007E+02  0.30782948102E+03  0.12699999809E+01 0. -1.
       -4    1    3    3    0  502 -0.19907762085E+03 -0.22019490752E+03 -0.94952949016E+03  0.99484951726E+03  0.12699999809E+01 0.  1.
</event>
<event>
 5   0  0.6153659E-03  0.8340861E+03  0.7818609E-02  0.9511949E-01
       -2   -1    0    0    0  501  0.00000000000E+00  0.00000000000E+00  0.13937069889E+03  0.13937069891E+03  0.25500000920E-02 0. -1.
        2   -1    0    0  501    0  0.00000000000E+00  0.00000000000E+00 -0.12479302181E+04  0.12479302181E+04  0.25500000920E-02 0.  1.
    10030    2    1    2    0    0  0.00000000000E+00  0.00000000000E+00 -0.11085595192E+04  0.13873009170E+04  0.83408610269E+03 0.  0.
        2    1    3    3  502    0  0.33039171937E+03  0.18556378056E+03 -0.26460378798E+03  0.46217720574E+03  0.25500000920E-02 0. -1.
       -2    1    3    3    0  502 -0.33039171937E+03 -0.18556378056E+03 -0.84395573122E+03  0.92512371126E+03  0.25500000920E-02 0.  1.
</event>
<event>
 5   0  0.3753450E-03  0.7987744E+03  0.7818609E-02  0.9561793E-01
        1   -1    0    0  501    0  0.00000000000E+00  0.00000000000E+00  0.78731806260E+03  0.78731806262E+03  0.50400001928E-02 0. -1.
       -1   -1    0    0    0  501  0.00000000000E+00  0.00000000000E+00 -0.20259938480E+03  0.20259938486E+03  0.50400001928E-02 0.  1.
    10030    2    1    2    0    0  0.00000000000E+00  0.00000000000E+00  0.58471867781E+03  0.98991744748E+03  0.79877444917E+03 0.  0.
        5    1    3    3  502    0  0.30736364241E+03  0.21975542875E+03  0.13209584356E+03  0.40029521484E+03  0.46999998093E+01 0.  1.
       -5    1    3    3    0  502 -0.30736364241E+03 -0.21975542875E+03  0.45262283424E+03  0.58962223263E+03  0.46999998093E+01 0. -1.
</event>
<event>
 5   0  0.6337108E-03  0.7971224E+03  0.7818609E-02  0.9564192E-01
       -2   -1    0    0    0  501  0.00000000000E+00  0.00000000000E+00  0.99917821391E+03  0.99917821391E+03  0.25500000920E-02 0.  1.
        2   -1    0    0  501    0  0.00000000000E+00  0.00000000000E+00 -0.15898167405E+03  0.15898167407E+03  0.25500000920E-02 0. -1.
    10030    2    1    2    0    0  0.00000000000E+00  0.00000000000E+00  0.84019653986E+03  0.11581598880E+04  0.79712238742E+03 0.  0.
        4    1    3    3  502    0  0.27746673503E+03  0.23205920231E+03  0.17693317825E+03  0.40267384431E+03  0.12699999809E+01 0. -1.
       -4    1    3    3    0  502 -0.27746673503E+03 -0.23205920231E+03  0.66326336160E+03  0.75548604366E+03  0.12699999809E+01 0.  1.
</event>
<event>
 5   0  0.5813850E-03  0.7789923E+03  0.7818609E-02  0.9590933E-01
        2   -1    0    0  501    0  0.00000000000E+00  0.00000000000E+00  0.66052207034E+03  0.66052207035E+03  0.25500000920E-02 0.  1.
       -2   -1    0    0    0  501  0.00000000000E+00  0.00000000000E+00 -0.22967776595E+03  0.22967776596E+03  0.25500000920E-02 0. -1.
    10030    2    1    2    0    0  0.00000000000E+00  0.00000000000E+00  0.43084430439E+03  0.89019983631E+03  0.77899225538E+03 0.  0.
        5    1    3    3  502    0 -0.30945620327E+03  0.97121265055E+02  0.46181700347E+03  0.56435158949E+03  0.46999998093E+01 0.  1.
       -5    1    3    3    0  502  0.30945620327E+03 -0.97121265055E+02 -0.30972699081E+02  0.32584824682E+03  0.46999998093E+01 0. -1.
</event>
<event>
 5   0  0.3860515E-03  0.7977947E+03  0.7818609E-02  0.9563215E-01
       -1   -1    0    0    0  501  0.00000000000E+00  0.00000000000E+00  0.37389834004E+03  0.37389834008E+03  0.50400001928E-02 0. -1.
        1   -1    0    0  501    0  0.00000000000E+00  0.00000000000E+00 -0.42556783645E+03  0.42556783648E+03  0.50400001928E-02 0.  1.
    10030    2    1    2    0    0  0.00000000000E+00  0.00000000000E+00 -0.51669496403E+02  0.79946617656E+03  0.79779472961E+03 0.  0.
        4    1    3    3  502    0 -0.23911363162E+03  0.69171293062E+02  0.28651926703E+03  0.37954564929E+03  0.12699999809E+01 0. -1.
       -4    1    3    3    0  502  0.23911363162E+03 -0.69171293062E+02 -0.33818876343E+03  0.41992052727E+03  0.12699999809E+01 0.  1.
</event>
<event>
 5   0  0.6256781E-03  0.8012870E+03  0.7818609E-02  0.9558156E-01
       -2   -1    0    0    0  501  0.00000000000E+00  0.00000000000E+00  0.34008888008E+03  0.34008888009E+03  0.25500000920E-02 0. -1.
        2   -1    0    0  501    0  0.00000000000E+00  0.00000000000E+00 -0.47198021698E+03  0.47198021698E+03  0.25500000920E-02 0.  1.
    10030    2    1    2    0    0  0.00000000000E+00  0.00000000000E+00 -0.13189133690E+03  0.81206909707E+03  0.80128702328E+03 0.  0.
        1    1    3    3  502    0 -0.32854416532E+03  0.17489176696E+03 -0.21622045893E+03  0.43044126847E+03  0.50400001928E-02 0.  1.
       -1    1    3    3    0  502  0.32854416532E+03 -0.17489176696E+03  0.84329122034E+02  0.38162782860E+03  0.50400001928E-02 0. -1.
</event>
<event>
 5   0  0.3753450E-03  0.8191996E+03  0.7818609E-02  0.9532635E-01
       -1   -1    0    0    0  501  0.00000000000E+00  0.00000000000E+00  0.66722806932E+03  0.66722806934E+03  0.50400001928E-02 0.  1.
        1   -1    0    0  501    0  0.00000000000E+00  0.00000000000E+00 -0.25144625293E+03  0.25144625298E+03  0.50400001928E-02 0. -1.
    10030    2    1    2    0    0  0.00000000000E+00  0.00000000000E+00  0.41578181639E+03  0.91867432231E+03  0.81919960427E+03 0.  0.
        5    1    3    3  502    0  0.16454817157E+03  0.81125624363E+02 -0.20276113774E+03  0.27348059652E+03  0.46999998093E+01 0. -1.
       -5    1    3    3    0  502 -0.16454817157E+03 -0.81125624363E+02  0.61854295413E+03  0.64519372579E+03  0.46999998093E+01 0.  1.
</event>
<event>
 5   0  0.3714448E-03  0.7976059E+03  0.7818609E-02  0.9563489E-01
       -1   -1    0    0    0  501  0.00000000000E+00  0.00000000000E+00  0.35796348575E+03  0.35796348579E+03  0.50400001928E-02 0.  1.
        1   -1    0    0  501    0  0.00000000000E+00  0.00000000000E+00 -0.44430170019E+03  0.44430170022E+03  0.50400001928E-02 0. -1.
    10030    2    1    2    0    0  0.00000000000E+00  0.00000000000E+00 -0.86338214440E+02  0.80226518601E+03  0.79760588100E+03 0.  0.
        1    1    3    3  502    0  0.13658045776E+02  0.39482333301E+03  0.11663366741E+02  0.39523162911E+03  0.50400001928E-02 0.  1.
       -1    1    3    3    0  502 -0.13658045776E+02 -0.39482333301E+03 -0.98001581181E+02  0.40703355690E+03  0.50400001928E-02 0. -1.
</event>
<event>
 5   0  0.3627496E-03  0.7971749E+03  0.7818609E-02  0.9564115E-01
        1   -1    0    0  501    0  0.00000000000E+00  0.00000000000E+00  0.10284070336E+04  0.10284070337E+04  0.50400001928E-02 0. -1.
       -1   -1    0    0    0  501  0.00000000000E+00  0.00000000000E+00 -0.15448354693E+03  0.15448354702E+03  0.50400001928E-02 0.  1.
    10030    2    1    2    0    0  0.00000000000E+00  0.00000000000E+00  0.87392348672E+03  0.11828905807E+04  0.79717492762E+03 0.  0.
        3    1    3    3  502    0 -0.19013723945E+03  0.26982798275E+03  0.10545204420E+03  0.34652482440E+03  0.10100000352E+00 0.  1.
       -3    1    3    3    0  502  0.19013723945E+03 -0.26982798275E+03  0.76847144251E+03  0.83636575627E+03  0.10100000352E+00 0. -1.
</event>
<event>
 5   0  0.3860515E-03  0.7939746E+03  0.7818609E-02  0.9568780E-01
       -1   -1    0    0    0  501  0.00000000000E+00  0.00000000000E+00  0.13365778493E+03  0.13365778503E+03  0.50400001928E-02 0.  1.
        1   -1    0    0  501    0  0.00000000000E+00  0.00000000000E+00 -0.11791227504E+04  0.11791227504E+04  0.50400001928E-02 0. -1.
    10030    2    1    2    0    0  0.00000000000E+00  0.00000000000E+00 -0.10454649654E+04  0.13127805354E+04  0.79397464706E+03 0.  0.
        4    1    3    3  502    0  0.11487366282E+03 -0.24535172461E+03 -0.42942049253E+02  0.27429739276E+03  0.12699999809E+01 0.  1.
       -4    1    3    3    0  502 -0.11487366282E+03  0.24535172461E+03 -0.10025229162E+04  0.10384831426E+04  0.12699999809E+01 0. -1.
</event>
<event>
 5   0  0.6536209E-03  0.7994850E+03  0.7818609E-02  0.9560763E-01
        2   -1    0    0  501    0  0.00000000000E+00  0.00000000000E+00  0.61968886724E+03  0.61968886725E+03  0.25500000920E-02 0.  1.
       -2   -1    0    0    0  501  0.00000000000E+00  0.00000000000E+00 -0.25786178834E+03  0.25786178836E+03  0.25500000920E-02 0. -1.
    10030    2    1    2    0    0  0.00000000000E+00  0.00000000000E+00  0.36182707890E+03  0.87755065560E+03  0.79948503309E+03 0.  0.
        3    1    3    3  502    0 -0.39917896423E+03  0.80679875661E+01  0.15937251603E+03  0.42989364612E+03  0.10100000352E+00 0. -1.
       -3    1    3    3    0  502  0.39917896423E+03 -0.80679875661E+01  0.20245456286E+03  0.44765700948E+03  0.10100000352E+00 0.  1.
</event>
<event>
 5   0  0.3753450E-03  0.7980835E+03  0.7818609E-02  0.9562795E-01
        1   -1    0    0  501    0  0.00000000000E+00  0.00000000000E+00  0.59171422339E+03  0.59171422341E+03  0.50400001928E-02 0. -1.
       -1   -1    0    0    0  501  0.00000000000E+00  0.00000000000E+00 -0.26910680272E+03  0.26910680276E+03  0.50400001928E-02 0.  1.
    10030    2    1    2    0    0  0.00000000000E+00  0.00000000000E+00  0.32260742067E+03  0.86082102617E+03  0.79808351144E+03 0.  0.
        5    1    3    3  502    0 -0.29898692385E+02  0.37166422130E+02  0.58859805345E+03  0.59054638536E+03  0.46999998093E+01 0. -1.
       -5    1    3    3    0  502  0.29898692385E+02 -0.37166422130E+02 -0.26599063278E+03  0.27027464081E+03  0.46999998093E+01 0.  1.
</event>
<event>
 5   0  0.6536209E-03  0.7988516E+03  0.7818609E-02  0.9561681E-01
       -2   -1    0    0    0  501  0.00000000000E+00  0.00000000000E+00  0.11695790881E+03  0.11695790884E+03  0.25500000920E-02 0.  1.
        2   -1    0    0  501    0  0.00000000000E+00  0.00000000000E+00 -0.13640889090E+04  0.13640889090E+04  0.25500000920E-02 0. -1.
    10030    2    1    2    0    0  0.00000000000E+00  0.00000000000E+00 -0.12471310002E+04  0.14810468178E+04  0.79885164142E+03 0.  0.
        3    1    3    3  502    0 -0.73050069823E+02 -0.84965257959E+02 -0.13343533630E+04  0.13390497807E+04  0.10100000352E+00 0. -1.
       -3    1    3    3    0  502  0.73050069823E+02  0.84965257959E+02  0.87222362827E+02  0.14199703708E+03  0.10100000352E+00 0.  1.
</event>
<event>
 5   0  0.5813850E-03  0.8003426E+03  0.7818609E-02  0.9559521E-01
        2   -1    0    0  501    0  0.00000000000E+00  0.00000000000E+00  0.43014386321E+03  0.43014386322E+03  0.25500000920E-02 0. -1.
       -2   -1    0    0    0  501  0.00000000000E+00  0.00000000000E+00 -0.37228725788E+03  0.37228725789E+03  0.25500000920E-02 0.  1.
    10030    2    1    2    0    0  0.00000000000E+00  0.00000000000E+00  0.57856605335E+02  0.80243112111E+03  0.80034262497E+03 0.  0.
        5    1    3    3  502    0 -0.23576351028E+03  0.60053864857E+02  0.34744282426E+03  0.42418098211E+03  0.46999998093E+01 0. -1.
       -5    1    3    3    0  502  0.23576351028E+03 -0.60053864857E+02 -0.28958621892E+03  0.37825013899E+03  0.46999998093E+01 0.  1.
</event>
<event>
 5   0  0.3671128E-03  0.7925940E+03  0.7818609E-02  0.9570799E-01
       -1   -1    0    0    0  501  0.00000000000E+00  0.00000000000E+00  0.10085875162E+04  0.10085875162E+04  0.50400001928E-02 0.  1.
        1   -1    0    0  501    0  0.00000000000E+00  0.00000000000E+00 -0.15571410293E+03  0.15571410301E+03  0.50400001928E-02 0. -1.
    10030    2    1    2    0    0  0.00000000000E+00  0.00000000000E+00  0.85287341324E+03  0.11643016192E+04  0.79259397012E+03 0.  0.
        2    1    3    3  502    0 -0.19252161572E+03 -0.32522903849E+03  0.25130911899E+03  0.45386647077E+03  0.25500000920E-02 0. -1.
       -2    1    3    3    0  502  0.19252161572E+03  0.32522903849E+03  0.60156429426E+03  0.71043514843E+03  0.25500000920E-02 0.  1.
</event>
<event>
 5   0  0.3860515E-03  0.8022595E+03  0.7818609E-02  0.9556752E-01
       -1   -1    0    0    0  501  0.00000000000E+00  0.00000000000E+00  0.11163037842E+04  0.11163037842E+04  0.50400001928E-02 0.  1.
        1   -1    0    0  501    0  0.00000000000E+00  0.00000000000E+00 -0.14414094802E+03  0.14414094811E+03  0.50400001928E-02 0. -1.
    10030    2    1    2    0    0  0.00000000000E+00  0.00000000000E+00  0.97216283621E+03  0.12604447323E+04  0.80225952359E+03 0.  0.
        4    1    3    3  502    0  0.21521617834E+03 -0.14009468605E+03  0.19348311550E+01  0.25680708898E+03  0.12699999809E+01 0. -1.
       -4    1    3    3    0  502 -0.21521617834E+03  0.14009468605E+03  0.97022800506E+03  0.10036376434E+04  0.12699999809E+01 0.  1.
</event>
<event>
 5   0  0.6153659E-03  0.7697555E+03  0.7818609E-02  0.9604857E-01
       -2   -1    0    0    0  501  0.00000000000E+00  0.00000000000E+00  0.48064766328E+02  0.48064766396E+02  0.25500000920E-02 0. -1.
        2   -1    0    0  501    0  0.00000000000E+00  0.00000000000E+00 -0.30819015002E+04  0.30819015002E+04  0.25500000920E-02 0.  1.
    10030    2    1    2    0    0  0.00000000000E+00  0.00000000000E+00 -0.30338367339E+04  0.31299662666E+04  0.76975548211E+03 0.  0.
        2    1    3    3  502    0  0.40929918409E+02 -0.82718463662E+02  0.24050122693E+01  0.92322188785E+02  0.25500000920E-02 0. -1.
       -2    1    3    3    0  502 -0.40929918409E+02  0.82718463662E+02 -0.30362417461E+04  0.30376440778E+04  0.25500000920E-02 0.  1.
</event>
<event>
 5   0  0.6536209E-03  0.7952761E+03  0.7818609E-02  0.9566880E-01
        2   -1    0    0  501    0  0.00000000000E+00  0.00000000000E+00  0.83560913356E+03  0.83560913356E+03  0.25500000920E-02 0. -1.
       -2   -1    0    0    0  501  0.00000000000E+00  0.00000000000E+00 -0.18922244384E+03  0.18922244386E+03  0.25500000920E-02 0.  1.
    10030    2    1    2    0    0  0.00000000000E+00  0.00000000000E+00  0.64638668972E+03  0.10248315774E+04  0.79527605863E+03 0.  0.
        3    1    3    3  502    0  0.49933140383E+01 -0.22763904345E+03 -0.96897334854E+02  0.24745417958E+03  0.10100000352E+00 0.  1.
       -3    1    3    3    0  502 -0.49933140383E+01  0.22763904345E+03  0.74328402457E+03  0.77737739784E+03  0.10100000352E+00 0. -1.
</event>
<event>
 5   0  0.3714448E-03  0.7989784E+03  0.7818609E-02  0.9561497E-01
        1   -1    0    0  501    0  0.00000000000E+00  0.00000000000E+00  0.10735009964E+04  0.10735009964E+04  0.50400001928E-02 0. -1.
       -1   -1    0    0    0  501  0.00000000000E+00  0.00000000000E+00 -0.14866461821E+03  0.14866461830E+03  0.50400001928E-02 0.  1.
    10030    2    1    2    0    0  0.00000000000E+00  0.00000000000E+00  0.92483637814E+03  0.12221656147E+04  0.79897838728E+03 0.  0.
        1    1    3    3  502    0  0.12582756804E+03  0.22579639953E+03 -0.35009694562E+01  0.25851276126E+03  0.50400001928E-02 0.  1.
       -1    1    3    3    0  502 -0.12582756804E+03 -0.22579639953E+03  0.92833734760E+03  0.96365285341E+03  0.50400001928E-02 0. -1.
</event>
<event>
 5   0  0.5813850E-03  0.8146580E+03  0.7818609E-02  0.9539039E-01
       -2   -1    0    0    0  501  0.00000000000E+00  0.00000000000E+00  0.27723987088E+03  0.27723987089E+03  0.25500000920E-02 0.  1.
        2   -1    0    0  501    0  0.00000000000E+00  0.00000000000E+00 -0.59845974025E+03  0.59845974025E+03  0.25500000920E-02 0. -1.
    10030    2    1    2    0    0  0.00000000000E+00  0.00000000000E+00 -0.32121986936E+03  0.87569961115E+03  0.81465796779E+03 0.  0.
        5    1    3    3  502    0 -0.32889733814E+03 -0.13508666581E+02  0.97236128037E+02  0.34326796777E+03  0.46999998093E+01 0. -1.
       -5    1    3    3    0  502  0.32889733814E+03  0.13508666581E+02 -0.41845599740E+03  0.53243164337E+03  0.46999998093E+01 0.  1.
</event>
<event>
 5   0  0.3860515E-03  0.8030542E+03  0.7818609E-02  0.9555607E-01
       -1   -1    0    0    0  501  0.00000000000E+00  0.00000000000E+00  0.84562112732E+02  0.84562112882E+02  0.50400001928E-02 0.  1.
        1   -1    0    0  501    0  0.00000000000E+00  0.00000000000E+00 -0.19065749770E+04  0.19065749770E+04  0.50400001928E-02 0. -1.
    10030    2    1    2    0    0  0.00000000000E+00  0.00000000000E+00 -0.18220128642E+04  0.19911370899E+04  0.80305419068E+03 0.  0.
        4    1    3    3  502    0 -0.88820040527E+02 -0.11918822097E+03  0.13825677245E+02  0.14929030065E+03  0.12699999809E+01 0.  1.
       -4    1    3    3    0  502  0.88820040527E+02  0.11918822097E+03 -0.18358385415E+04  0.18418467892E+04  0.12699999809E+01 0. -1.
</event>
<event>
 5   0  0.3753450E-03  0.7997670E+03  0.7818609E-02  0.9560354E-01
        1   -1    0    0  501    0  0.00000000000E+00  0.00000000000E+00  0.66817846851E+03  0.66817846853E+03  0.50400001928E-02 0. -1.
       -1   -1    0    0    0  501  0.00000000000E+00  0.00000000000E+00 -0.23931751358E+03  0.23931751364E+03  0.50400001928E-02 0.  1.
    10030    2    1    2    0    0  0.00000000000E+00  0.00000000000E+00  0.42886095492E+03  0.90749598217E+03  0.79976699043E+03 0.  0.
        5    1    3    3  502    0  0.22255849238E+03  0.21326870645E+03  0.50343157323E+03  0.59032301548E+03  0.46999998093E+01 0. -1.
       -5    1    3    3    0  502 -0.22255849238E+03 -0.21326870645E+03 -0.74570618310E+02  0.31717296668E+03  0.46999998093E+01 0.  1.
</event>
<event>
 5   0  0.6153659E-03  0.8002236E+03  0.7818609E-02  0.9559693E-01
        2   -1    0    0  501    0  0.00000000000E+00  0.00000000000E+00  0.45045433071E+03  0.45045433072E+03  0.25500000920E-02 0.  1.
       -2   -1    0    0    0  501  0.00000000000E+00  0.00000000000E+00 -0.35539553987E+03  0.35539553988E+03  0.25500000920E-02 0. -1.
    10030    2    1    2    0    0  0.00000000000E+00  0.00000000000E+00  0.95058790848E+02  0.80584987060E+03  0.80022361889E+03 0.  0.
        2    1    3    3  502    0 -0.13587413469E+03 -0.35680688985E+03  0.16802232163E+03  0.41713839154E+03  0.25500000920E-02 0. -1.
       -2    1    3    3    0  502  0.13587413469E+03  0.35680688985E+03 -0.72963530779E+02  0.38871147906E+03  0.25500000920E-02 0.  1.
</event>
<event>
 5   0  0.3714448E-03  0.7997024E+03  0.7818609E-02  0.9560448E-01
       -1   -1    0    0    0  501  0.00000000000E+00  0.00000000000E+00  0.35408995244E+03  0.35408995247E+03  0.50400001928E-02 0.  1.
        1   -1    0    0  501    0  0.00000000000E+00  0.00000000000E+00 -0.45152646692E+03  0.45152646694E+03  0.50400001928E-02 0. -1.
    10030    2    1    2    0    0  0.00000000000E+00  0.00000000000E+00 -0.97436514480E+02  0.80561641942E+03  0.79970240770E+03 0.  0.
        1    1    3    3  502    0 -0.26867108778E+03 -0.29137683175E+03 -0.10199007425E+03  0.40925125139E+03  0.50400001928E-02 0. -1.
       -1    1    3    3    0  502  0.26867108778E+03  0.29137683175E+03  0.45535597686E+01  0.39636516803E+03  0.50400001928E-02 0.  1.
</event>
<event>
 5   0  0.3671128E-03  0.8000932E+03  0.7818609E-02  0.9559882E-01
       -1   -1    0    0    0  501  0.00000000000E+00  0.00000000000E+00  0.11532661586E+03  0.11532661597E+03  0.50400001928E-02 0.  1.
        1   -1    0    0  501    0  0.00000000000E+00  0.00000000000E+00 -0.13876873286E+04  0.13876873286E+04  0.50400001928E-02 0. -1.
    10030    2    1    2    0    0  0.00000000000E+00  0.00000000000E+00 -0.12723607127E+04  0.15030139446E+04  0.80009320349E+03 0.  0.
        2    1    3    3  502    0 -0.30820239361E+03  0.10264690061E+03 -0.19757976646E+03  0.38021423665E+03  0.25500000920E-02 0.  1.
       -2    1    3    3    0  502  0.30820239361E+03 -0.10264690061E+03 -0.10747809463E+04  0.11227997079E+04  0.25500000920E-02 0. -1.
</event>
<event>
 5   0  0.5813850E-03  0.8064938E+03  0.7818609E-02  0.9550665E-01
        2   -1    0    0  501    0  0.00000000000E+00  0.00000000000E+00  0.99773162982E+03  0.99773162982E+03  0.25500000920E-02 0.  1.
       -2   -1    0    0    0  501  0.00000000000E+00  0.00000000000E+00 -0.16297776559E+03  0.16297776561E+03  0.25500000920E-02 0. -1.
    10030    2    1    2    0    0  0.00000000000E+00  0.00000000000E+00  0.83475386423E+03  0.11607093954E+04  0.80649382315E+03 0.  0.
        5    1    3    3  502    0  0.12577048327E+03 -0.13724684407E+03 -0.97389800355E+02  0.21014702920E+03  0.46999998093E+01 0. -1.
       -5    1    3    3    0  502 -0.12577048327E+03  0.13724684407E+03  0.93214366458E+03  0.95056236623E+03  0.46999998093E+01 0.  1.
</event>
<event>
 5   0  0.6337108E-03  0.8034913E+03  0.7818609E-02  0.9554977E-01
        2   -1    0    0  501    0  0.00000000000E+00  0.00000000000E+00  0.92398521196E+03  0.92398521196E+03  0.25500000920E-02 0. -1.
       -2   -1    0    0    0  501  0.00000000000E+00  0.00000000000E+00 -0.17467766700E+03  0.17467766702E+03  0.25500000920E-02 0.  1.
    10030    2    1    2    0    0  0.00000000000E+00  0.00000000000E+00  0.74930754496E+03  0.10986628790E+04  0.80349133457E+03 0.  0.
        4    1    3    3  502    0  0.98791631792E+02  0.13053368546E+03  0.87630790492E+03  0.89146844402E+03  0.12699999809E+01 0. -1.
       -4    1    3    3    0  502 -0.98791631792E+02 -0.13053368546E+03 -0.12700035996E+03  0.20719443497E+03  0.12699999809E+01 0.  1.
</event>
<event>
 5   0  0.3671128E-03  0.8007910E+03  0.7818609E-02  0.9558873E-01
       -1   -1    0    0    0  501  0.00000000000E+00  0.00000000000E+00  0.50752553367E+03  0.50752553370E+03  0.50400001928E-02 0. -1.
        1   -1    0    0  501    0  0.00000000000E+00  0.00000000000E+00 -0.31587880294E+03  0.31587880298E+03  0.50400001928E-02 0.  1.
    10030    2    1    2    0    0  0.00000000000E+00  0.00000000000E+00  0.19164673073E+03  0.82340433668E+03  0.80079100411E+03 0.  0.
        2    1    3    3  502    0 -0.38798627700E+03  0.19201542667E+02 -0.39449803593E+01  0.38848116204E+03  0.25500000920E-02 0.  1.
       -2    1    3    3    0  502  0.38798627700E+03 -0.19201542667E+02  0.19559171109E+03  0.43492317464E+03  0.25500000920E-02 0. -1.
</event>
<event>
 5   0  0.3627496E-03  0.7988967E+03  0.7818609E-02  0.9561615E-01
       -1   -1    0    0    0  501  0.00000000000E+00  0.00000000000E+00  0.21435100615E+03  0.21435100621E+03  0.50400001928E-02 0.  1.
        1   -1    0    0  501    0  0.00000000000E+00  0.00000000000E+00 -0.74438173989E+03  0.74438173991E+03  0.50400001928E-02 0. -1.
    10030    2    1    2    0    0  0.00000000000E+00  0.00000000000E+00 -0.53003073374E+03  0.95873274611E+03  0.79889667652E+03 0.  0.
        3    1    3    3  502    0 -0.12530947893E+03  0.21801279583E+03  0.10744561520E+03  0.27345313142E+03  0.10100000352E+00 0.  1.
       -3    1    3    3    0  502  0.12530947893E+03 -0.21801279583E+03 -0.63747634894E+03  0.68527961469E+03  0.10100000352E+00 0. -1.
</event>
<event>
 5   0  0.3671128E-03  0.7999724E+03  0.7818609E-02  0.9560057E-01
       -1   -1    0    0    0  501  0.00000000000E+00  0.00000000000E+00  0.14987541212E+03  0.14987541220E+03  0.50400001928E-02 0.  1.
        1   -1    0    0  501    0  0.00000000000E+00  0.00000000000E+00 -0.10674797809E+04  0.10674797809E+04  0.50400001928E-02 0. -1.
    10030    2    1    2    0    0  0.00000000000E+00  0.00000000000E+00 -0.91760436880E+03  0.12173551931E+04  0.79997242990E+03 0.  0.
        2    1    3    3  502    0  0.15625660379E+03 -0.18688620565E+03  0.23969064898E+02  0.24477968904E+03  0.25500000920E-02 0.  1.
       -2    1    3    3    0  502 -0.15625660379E+03  0.18688620565E+03 -0.94157343370E+03  0.97257550408E+03  0.25500000920E-02 0. -1.
</event>
<event>
 5   0  0.6536209E-03  0.7996418E+03  0.7818609E-02  0.9560536E-01
       -2   -1    0    0    0  501  0.00000000000E+00  0.00000000000E+00  0.19397759258E+03  0.19397759260E+03  0.25500000920E-02 0. -1.
        2   -1    0    0  501    0  0.00000000000E+00  0.00000000000E+00 -0.82409910109E+03  0.82409910109E+03  0.25500000920E-02 0.  1.
    10030    2    1    2    0    0  0.00000000000E+00  0.00000000000E+00 -0.63012150850E+03  0.10180766937E+04  0.79964181904E+03 0.  0.
        3    1    3    3  502    0 -0.12728065264E+03 -0.20446483849E+03 -0.72137926798E+03  0.76052238178E+03  0.10100000352E+00 0.  1.
       -3    1    3    3    0  502  0.12728065264E+03  0.20446483849E+03  0.91257759482E+02  0.25755431191E+03  0.10100000352E+00 0. -1.
</event>
<event>
 5   0  0.3753450E-03  0.7915511E+03  0.7818609E-02  0.9572328E-01
        1   -1    0    0  501    0  0.00000000000E+00  0.00000000000E+00  0.38544520947E+03  0.38544520950E+03  0.50400001928E-02 0. -1.
       -1   -1    0    0    0  501  0.00000000000E+00  0.00000000000E+00 -0.40638280278E+03  0.40638280281E+03  0.50400001928E-02 0.  1.
    10030    2    1    2    0    0  0.00000000000E+00  0.00000000000E+00 -0.20937593312E+02  0.79182801232E+03  0.79155114697E+03 0.  0.
        5    1    3    3  502    0  0.11453172484E+03  0.36080076905E+03 -0.12592798569E+03  0.39896698926E+03  0.46999998093E+01 0.  1.
       -5    1    3    3    0  502 -0.11453172484E+03 -0.36080076905E+03  0.10499039238E+03  0.39286102305E+03  0.46999998093E+01 0. -1.
</event>
<event>
 5   0  0.3860515E-03  0.8059256E+03  0.7818609E-02  0.9551479E-01
        1   -1    0    0  501    0  0.00000000000E+00  0.00000000000E+00  0.66213160289E+03  0.66213160290E+03  0.50400001928E-02 0. -1.
       -1   -1    0    0    0  501  0.00000000000E+00  0.00000000000E+00 -0.24523680379E+03  0.24523680384E+03  0.50400001928E-02 0.  1.
    10030    2    1    2    0    0  0.00000000000E+00  0.00000000000E+00  0.41689479909E+03  0.90736840675E+03  0.80592564921E+03 0.  0.
        4    1    3    3  502    0  0.32867093815E+03 -0.19957519624E+03  0.34412575576E+03  0.51602227976E+03  0.12699999809E+01 0. -1.
       -4    1    3    3    0  502 -0.32867093815E+03  0.19957519624E+03  0.72769043337E+02  0.39134612698E+03  0.12699999809E+01 0.  1.
</event>
<event>
 5   0  0.3714448E-03  0.7989952E+03  0.7818609E-02  0.9561473E-01
        1   -1    0    0  501    0  0.00000000000E+00  0.00000000000E+00  0.53451714414E+03  0.53451714416E+03  0.50400001928E-02 0.  1.
       -1   -1    0    0    0  501  0.00000000000E+00  0.00000000000E+00 -0.29858411191E+03  0.29858411195E+03  0.50400001928E-02 0. -1.
    10030    2    1    2    0    0  0.00000000000E+00  0.00000000000E+00  0.23593303223E+03  0.83310125611E+03  0.79899518599E+03 0.  0.
        1    1    3    3  502    0  0.25044698928E+03  0.25223698534E+03 -0.72166206631E+02  0.36270532477E+03  0.50400001928E-02 0. -1.
       -1    1    3    3    0  502 -0.25044698928E+03 -0.25223698534E+03  0.30809923886E+03  0.47039593134E+03  0.50400001928E-02 0.  1.
</event>
<event>
 5   0  0.6256781E-03  0.8001672E+03  0.7818609E-02  0.9559775E-01
        2   -1    0    0  501    0  0.00000000000E+00  0.00000000000E+00  0.24954465917E+03  0.24954465918E+03  0.25500000920E-02 0.  1.
       -2   -1    0    0    0  501  0.00000000000E+00  0.00000000000E+00 -0.64143585574E+03  0.64143585575E+03  0.25500000920E-02 0. -1.
    10030    2    1    2    0    0  0.00000000000E+00  0.00000000000E+00 -0.39189119658E+03  0.89098051493E+03  0.80016721254E+03 0.  0.
        1    1    3    3  502    0 -0.29289147693E+03  0.11632326225E+03  0.78503577175E+02  0.32477581537E+03  0.50400001928E-02 0. -1.
       -1    1    3    3    0  502  0.29289147693E+03 -0.11632326225E+03 -0.47039477375E+03  0.56620469955E+03  0.50400001928E-02 0.  1.
</event>
<event>
 5   0  0.3714448E-03  0.8024044E+03  0.7818609E-02  0.9556543E-01
       -1   -1    0    0    0  501  0.00000000000E+00  0.00000000000E+00  0.30757247142E+03  0.30757247146E+03  0.50400001928E-02 0. -1.
        1   -1    0    0  501    0  0.00000000000E+00  0.00000000000E+00 -0.52333430234E+03  0.52333430237E+03  0.50400001928E-02 0.  1.
    10030    2    1    2    0    0  0.00000000000E+00  0.00000000000E+00 -0.21576183093E+03  0.83090677383E+03  0.80240444858E+03 0.  0.
        1    1    3    3  502    0 -0.31545295463E+03  0.23903780776E+03 -0.39870076376E+02  0.39779299031E+03  0.50400001928E-02 0. -1.
       -1    1    3    3    0  502  0.31545295463E+03 -0.23903780776E+03 -0.17589175455E+03  0.43311378351E+03  0.50400001928E-02 0.  1.
</event>
<event>
 5   0  0.6536209E-03  0.8000248E+03  0.7818609E-02  0.9559981E-01
       -2   -1    0    0    0  501  0.00000000000E+00  0.00000000000E+00  0.56049410318E+03  0.56049410318E+03  0.25500000920E-02 0. -1.
        2   -1    0    0  501    0  0.00000000000E+00  0.00000000000E+00 -0.28548012234E+03  0.28548012235E+03  0.25500000920E-02 0.  1.
    10030    2    1    2    0    0  0.00000000000E+00  0.00000000000E+00  0.27501398084E+03  0.84597422553E+03  0.80002481249E+03 0.  0.
        3    1    3    3  502    0 -0.39993158885E+02 -0.20517955661E+03 -0.22312610961E+03  0.30575050973E+03  0.10100000352E+00 0.  1.
       -3    1    3    3    0  502  0.39993158885E+02  0.20517955661E+03  0.49814009045E+03  0.54022371581E+03  0.10100000352E+00 0. -1.
</event>
<event>
 5   0  0.6536209E-03  0.7992600E+03  0.7818609E-02  0.9561089E-01
        2   -1    0    0  501    0  0.00000000000E+00  0.00000000000E+00  0.30130355916E+03  0.30130355917E+03  0.25500000920E-02 0. -1.
       -2   -1    0    0    0  501  0.00000000000E+00  0.00000000000E+00 -0.53004391170E+03  0.53004391171E+03  0.25500000920E-02 0.  1.
    10030    2    1    2    0    0  0.00000000000E+00  0.00000000000E+00 -0.22874035254E+03  0.83134747088E+03  0.79925995049E+03 0.  0.
        3    1    3    3  502    0 -0.26419586710E+03  0.16228628749E+03  0.14787841167E+03  0.34351758346E+03  0.10100000352E+00 0. -1.
       -3    1    3    3    0  502  0.26419586710E+03 -0.16228628749E+03 -0.37661876422E+03  0.48782988742E+03  0.10100000352E+00 0.  1.
</event>
<event>
 5   0  0.6337108E-03  0.7996297E+03  0.7818609E-02  0.9560553E-01
        2   -1    0    0  501    0  0.00000000000E+00  0.00000000000E+00  0.31632069543E+03  0.31632069544E+03  0.25500000920E-02 0.  1.
       -2   -1    0    0    0  501  0.00000000000E+00  0.00000000000E+00 -0.50534761756E+03  0.50534761757E+03  0.25500000920E-02 0. -1.
    10030    2    1    2    0    0  0.00000000000E+00  0.00000000000E+00 -0.18902692214E+03  0.82166831301E+03  0.79962968886E+03 0.  0.
        4    1    3    3  502    0 -0.70886981888E+02 -0.38465903013E+03 -0.17963846359E+03  0.43041738366E+03  0.12699999809E+01 0. -1.
       -4    1    3    3    0  502  0.70886981888E+02  0.38465903013E+03 -0.93884585515E+01  0.39125092934E+03  0.12699999809E+01 0.  1.
</event>
<event>
 5   0  0.3627496E-03  0.8026972E+03  0.7818609E-02  0.9556121E-01
        1   -1    0    0  501    0  0.00000000000E+00  0.00000000000E+00  0.17819926526E+04  0.17819926526E+04  0.50400001928E-02 0.  1.
       -1   -1    0    0    0  501  0.00000000000E+00  0.00000000000E+00 -0.90393574778E+02  0.90393574918E+02  0.50400001928E-02 0. -1.
    10030    2    1    2    0    0  0.00000000000E+00  0.00000000000E+00  0.16915990778E+04  0.18723862275E+04  0.80269716889E+03 0.  0.
        3    1    3    3  502    0  0.21408058144E+02 -0.49945673813E+02 -0.81772870619E+02  0.98181912063E+02  0.10100000352E+00 0. -1.
       -3    1    3    3    0  502 -0.21408058144E+02  0.49945673813E+02  0.17733719485E+04  0.17742043155E+04  0.10100000352E+00 0.  1.
</event>
<event>
 5   0  0.6337108E-03  0.7938527E+03  0.7818609E-02  0.9568958E-01
       -2   -1    0    0    0  501  0.00000000000E+00  0.00000000000E+00  0.13003764401E+03  0.13003764403E+03  0.25500000920E-02 0.  1.
        2   -1    0    0  501    0  0.00000000000E+00  0.00000000000E+00 -0.12115762452E+04  0.12115762452E+04  0.25500000920E-02 0. -1.
    10030    2    1    2    0    0  0.00000000000E+00  0.00000000000E+00 -0.10815386012E+04  0.13416138892E+04  0.79385268276E+03 0.  0.
        4    1    3    3  502    0  0.33838513079E+02  0.19494050356E+03 -0.11222927917E+04  0.11396006178E+04  0.12699999809E+01 0. -1.
       -4    1    3    3    0  502 -0.33838513079E+02 -0.19494050356E+03  0.40754190500E+02  0.20201327144E+03  0.12699999809E+01 0.  1.
</event>
<event>
 5   0  0.3753450E-03  0.8038974E+03  0.7818609E-02  0.9554393E-01
        1   -1    0    0  501    0  0.00000000000E+00  0.00000000000E+00  0.13293438610E+03  0.13293438619E+03  0.50400001928E-02 0.  1.
       -1   -1    0    0    0  501  0.00000000000E+00  0.00000000000E+00 -0.12153571057E+04  0.12153571057E+04  0.50400001928E-02 0. -1.
    10030    2    1    2    0    0  0.00000000000E+00  0.00000000000E+00 -0.10824227196E+04  0.13482914919E+04  0.80389738351E+03 0.  0.
        5    1    3    3  502    0  0.27072243034E+03  0.15722202896E+03 -0.96395483539E+03  0.10135286949E+04  0.46999998093E+01 0. -1.
       -5    1    3    3    0  502 -0.27072243034E+03 -0.15722202896E+03 -0.11846788421E+03  0.33476279702E+03  0.46999998093E+01 0.  1.
</event>
<event>
 5   0  0.6256781E-03  0.8047362E+03  0.7818609E-02  0.9553187E-01
        2   -1    0    0  501    0  0.00000000000E+00  0.00000000000E+00  0.24977659092E+03  0.24977659094E+03  0.25500000920E-02 0. -1.
       -2   -1    0    0    0  501  0.00000000000E+00  0.00000000000E+00 -0.64817955165E+03  0.64817955166E+03  0.25500000920E-02 0.  1.
    10030    2    1    2    0    0  0.00000000000E+00  0.00000000000E+00 -0.39840296073E+03  0.89795614260E+03  0.80473617721E+03 0.  0.
        1    1    3    3  502    0  0.10277994634E+02  0.36025620415E+03 -0.39883976018E+03  0.53755308959E+03  0.50400001928E-02 0.  1.
       -1    1    3    3    0  502 -0.10277994634E+02 -0.36025620415E+03  0.43679945004E+00  0.36040305301E+03  0.50400001928E-02 0. -1.
</event>
<event>
 5   0  0.3671128E-03  0.7908782E+03  0.7818609E-02  0.9573315E-01
        1   -1    0    0  501    0  0.00000000000E+00  0.00000000000E+00  0.21558935955E+04  0.21558935955E+04  0.50400001928E-02 0.  1.
       -1   -1    0    0    0  501  0.00000000000E+00  0.00000000000E+00 -0.72532376941E+02  0.72532377116E+02  0.50400001928E-02 0. -1.
    10030    2    1    2    0    0  0.00000000000E+00  0.00000000000E+00  0.20833612185E+04  0.22284259726E+04  0.79087821341E+03 0.  0.
        2    1    3    3  502    0 -0.61054631599E+02  0.33433551445E+03  0.47209368751E+03  0.58170469660E+03  0.25500000920E-02 0. -1.
       -2    1    3    3    0  502  0.61054631599E+02 -0.33433551445E+03  0.16112675310E+04  0.16467212760E+04  0.25500000920E-02 0.  1.
</event>
<event>
 5   0  0.5813850E-03  0.7930769E+03  0.7818609E-02  0.9570092E-01
       -2   -1    0    0    0  501  0.00000000000E+00  0.00000000000E+00  0.34310393239E+03  0.34310393240E+03  0.25500000920E-02 0.  1.
        2   -1    0    0  501    0  0.00000000000E+00  0.00000000000E+00 -0.45829483206E+03  0.45829483207E+03  0.25500000920E-02 0. -1.
    10030    2    1    2    0    0  0.00000000000E+00  0.00000000000E+00 -0.11519089968E+03  0.80139876447E+03  0.79307694225E+03 0.  0.
        5    1    3    3  502    0 -0.35685419981E+02 -0.71283577488E+02  0.33489477776E+03  0.34428389417E+03  0.46999998093E+01 0.  1.
       -5    1    3    3    0  502  0.35685419981E+02  0.71283577488E+02 -0.45008567743E+03  0.45711487030E+03  0.46999998093E+01 0. -1.
</event>
<event>
 5   0  0.3627496E-03  0.7977075E+03  0.7818609E-02  0.9563341E-01
        1   -1    0    0  501    0  0.00000000000E+00  0.00000000000E+00  0.34464246665E+03  0.34464246669E+03  0.50400001928E-02 0.  1.
       -1   -1    0    0    0  501  0.00000000000E+00  0.00000000000E+00 -0.46159229402E+03  0.46159229405E+03  0.50400001928E-02 0. -1.
    10030    2    1    2    0    0  0.00000000000E+00  0.00000000000E+00 -0.11694982737E+03  0.80623476074E+03  0.79770748229E+03 0.  0.
        3    1    3    3  502    0 -0.17791681166E+03  0.33860652094E+03 -0.17271204654E+03  0.41968825230E+03  0.10100000352E+00 0. -1.
       -3    1    3    3    0  502  0.17791681166E+03 -0.33860652094E+03  0.55762219167E+02  0.38654650844E+03  0.10100000352E+00 0.  1.
</event>
<event>
 5   0  0.3714448E-03  0.7986749E+03  0.7818609E-02  0.9561937E-01
        1   -1    0    0  501    0  0.00000000000E+00  0.00000000000E+00  0.27292040824E+03  0.27292040829E+03  0.50400001928E-02 0.  1.
       -1   -1    0    0    0  501  0.00000000000E+00  0.00000000000E+00 -0.58431097805E+03  0.58431097808E+03  0.50400001928E-02 0. -1.
    10030    2    1    2    0    0  0.00000000000E+00  0.00000000000E+00 -0.31139056981E+03  0.85723138637E+03  0.79867487929E+03 0.  0.
        1    1    3    3  502    0 -0.20353993306E+03  0.33961107292E+03 -0.99860040255E+02  0.40833345793E+03  0.50400001928E-02 0. -1.
       -1    1    3    3    0  502  0.20353993306E+03 -0.33961107292E+03 -0.21153052955E+03  0.44889792844E+03  0.50400001928E-02 0.  1.
</event>
<event>
 5   0  0.2478000E-03  0.8112226E+03  0.7818609E-02  0.9543913E-01
       -3   -1    0    0    0  501  0.00000000000E+00  0.00000000000E+00  0.70413083806E+03  0.70413084530E+03  0.10100000352E+00 0.  1.
        3   -1    0    0  501    0  0.00000000000E+00  0.00000000000E+00 -0.23365047047E+03  0.23365049230E+03  0.10100000352E+00 0. -1.
    10030    2    1    2    0    0  0.00000000000E+00  0.00000000000E+00  0.47048036759E+03  0.93778133760E+03  0.81122257172E+03 0.  0.
        5    1    3    3  502    0  0.21321598366E+03 -0.34493730004E+03  0.22661813449E+03  0.46456502831E+03  0.46999998093E+01 0.  1.
       -5    1    3    3    0  502 -0.21321598366E+03  0.34493730004E+03  0.24386223310E+03  0.47321630929E+03  0.46999998093E+01 0. -1.
</event>
<event>
 5   0  0.3753450E-03  0.7986854E+03  0.7818609E-02  0.9561922E-01
        1   -1    0    0  501    0  0.00000000000E+00  0.00000000000E+00  0.80940176988E+03  0.80940176990E+03  0.50400001928E-02 0. -1.
       -1   -1    0    0    0  501  0.00000000000E+00  0.00000000000E+00 -0.19702771755E+03  0.19702771762E+03  0.50400001928E-02 0.  1.
    10030    2    1    2    0    0  0.00000000000E+00  0.00000000000E+00  0.61237405233E+03  0.10064294875E+04  0.79868537821E+03 0.  0.
        5    1    3    3  502    0  0.14868767948E+03  0.35700187663E+03  0.18084509896E+03  0.42694894984E+03  0.46999998093E+01 0.  1.
       -5    1    3    3    0  502 -0.14868767948E+03 -0.35700187663E+03  0.43152895336E+03  0.57948053767E+03  0.46999998093E+01 0. -1.
</event>
<event>
 5   0  0.3714448E-03  0.8050466E+03  0.7818609E-02  0.9552741E-01
        1   -1    0    0  501    0  0.00000000000E+00  0.00000000000E+00  0.66465478953E+03  0.66465478955E+03  0.50400001928E-02 0.  1.
       -1   -1    0    0    0  501  0.00000000000E+00  0.00000000000E+00 -0.24377316471E+03  0.24377316476E+03  0.50400001928E-02 0. -1.
    10030    2    1    2    0    0  0.00000000000E+00  0.00000000000E+00  0.42088162482E+03  0.90842795431E+03  0.80504658626E+03 0.  0.
        1    1    3    3  502    0  0.12938450472E+03  0.87738161875E+02 -0.20811911911E+03  0.26029195700E+03  0.50400001928E-02 0. -1.
       -1    1    3    3    0  502 -0.12938450472E+03 -0.87738161875E+02  0.62900074393E+03  0.64813599731E+03  0.50400001928E-02 0.  1.
</event>
<event>
 5   0  0.3671128E-03  0.7992594E+03  0.7818609E-02  0.9561090E-01
        1   -1    0    0  501    0  0.00000000000E+00  0.00000000000E+00  0.61845948018E+03  0.61845948020E+03  0.50400001928E-02 0.  1.
       -1   -1    0    0    0  501  0.00000000000E+00  0.00000000000E+00 -0.25822852706E+03  0.25822852710E+03  0.50400001928E-02 0. -1.
    10030    2    1    2    0    0  0.00000000000E+00  0.00000000000E+00  0.36023095313E+03  0.87668800731E+03  0.79925935876E+03 0.  0.
        2    1    3    3  502    0  0.29351188064E+02 -0.98811516074E+02  0.60362686584E+03  0.61236476149E+03  0.25500000920E-02 0.  1.
       -2    1    3    3    0  502 -0.29351188064E+02  0.98811516074E+02 -0.24339591271E+03  0.26432324582E+03  0.25500000920E-02 0. -1.
</event>
<event>
 5   0  0.3627496E-03  0.7964860E+03  0.7818609E-02  0.9565117E-01
       -1   -1    0    0    0  501  0.00000000000E+00  0.00000000000E+00  0.43565713072E+03  0.43565713075E+03  0.50400001928E-02 0.  1.
        1   -1    0    0  501    0  0.00000000000E+00  0.00000000000E+00 -0.36404197827E+03  0.36404197831E+03  0.50400001928E-02 0. -1.
    10030    2    1    2    0    0  0.00000000000E+00  0.00000000000E+00  0.71615152453E+02  0.79969910906E+03  0.79648599170E+03 0.  0.
        3    1    3    3  502    0  0.55116947260E+02  0.29214020305E+03  0.30185520462E+03  0.42367481737E+03  0.10100000352E+00 0.  1.
       -3    1    3    3    0  502 -0.55116947260E+02 -0.29214020305E+03 -0.23024005217E+03  0.37602429169E+03  0.10100000352E+00 0. -1.
</event>
<event>
 5   0  0.5813850E-03  0.8053732E+03  0.7818609E-02  0.9552272E-01
       -2   -1    0    0    0  501  0.00000000000E+00  0.00000000000E+00  0.11518257356E+03  0.11518257359E+03  0.25500000920E-02 0.  1.
        2   -1    0    0  501    0  0.00000000000E+00  0.00000000000E+00 -0.14078215262E+04  0.14078215262E+04  0.25500000920E-02 0. -1.
    10030    2    1    2    0    0  0.00000000000E+00  0.00000000000E+00 -0.12926389527E+04  0.15230040998E+04  0.80537322163E+03 0.  0.
        5    1    3    3  502    0  0.13420987055E+03  0.37744963759E+03 -0.56941382009E+03  0.69622891837E+03  0.46999998093E+01 0. -1.
       -5    1    3    3    0  502 -0.13420987055E+03 -0.37744963759E+03 -0.72322513256E+03  0.82677518144E+03  0.46999998093E+01 0.  1.
</event>
<event>
 5   0  0.3753450E-03  0.8014823E+03  0.7818609E-02  0.9557874E-01
        1   -1    0    0  501    0  0.00000000000E+00  0.00000000000E+00  0.25741109866E+03  0.25741109871E+03  0.50400001928E-02 0. -1.
       -1   -1    0    0    0  501  0.00000000000E+00  0.00000000000E+00 -0.62387940479E+03  0.62387940481E+03  0.50400001928E-02 0.  1.
    10030    2    1    2    0    0  0.00000000000E+00  0.00000000000E+00 -0.36646830613E+03  0.88129050351E+03  0.80148233430E+03 0.  0.
        5    1    3    3  502    0  0.30589658348E+03 -0.31718314833E+02 -0.46570447647E+03  0.55810529534E+03  0.46999998093E+01 0.  1.
       -5    1    3    3    0  502 -0.30589658348E+03  0.31718314833E+02  0.99236170341E+02  0.32318520818E+03  0.46999998093E+01 0. -1.
</event>
<event>
 5   0  0.6256781E-03  0.7961505E+03  0.7818609E-02  0.9565606E-01
       -2   -1    0    0    0  501  0.00000000000E+00  0.00000000000E+00  0.14323130513E+03  0.14323130516E+03  0.25500000920E-02 0. -1.
        2   -1    0    0  501    0  0.00000000000E+00  0.00000000000E+00 -0.11063495551E+04  0.11063495551E+04  0.25500000920E-02 0.  1.
    10030    2    1    2    0    0  0.00000000000E+00  0.00000000000E+00 -0.96311824996E+03  0.12495808603E+04  0.79615046499E+03 0.  0.
        1    1    3    3  502    0  0.14720127562E+03  0.36227937042E+03 -0.59847933903E+03  0.71490704084E+03  0.50400001928E-02 0. -1.
       -1    1    3    3    0  502 -0.14720127562E+03 -0.36227937042E+03 -0.36463891093E+03  0.53467381941E+03  0.50400001928E-02 0.  1.
</event>
<event>
 5   0  0.3714448E-03  0.7914545E+03  0.7818609E-02  0.9572469E-01
        1   -1    0    0  501    0  0.00000000000E+00  0.00000000000E+00  0.31894675245E+03  0.31894675249E+03  0.50400001928E-02 0.  1.
       -1   -1    0    0    0  501  0.00000000000E+00  0.00000000000E+00 -0.49099126760E+03  0.49099126762E+03  0.50400001928E-02 0. -1.
    10030    2    1    2    0    0  0.00000000000E+00  0.00000000000E+00 -0.17204451514E+03  0.80993802012E+03  0.79145453517E+03 0.  0.
        1    1    3    3  502    0 -0.31569604678E+02  0.34668262824E+03 -0.27860479136E+03  0.44587679291E+03  0.50400001928E-02 0. -1.
       -1    1    3    3    0  502  0.31569604678E+02 -0.34668262824E+03  0.10656027622E+03  0.36406122721E+03  0.50400001928E-02 0.  1.
</event>
<event>
 5   0  0.6337108E-03  0.7998761E+03  0.7818609E-02  0.9560196E-01
        2   -1    0    0  501    0  0.00000000000E+00  0.00000000000E+00  0.14973106948E+04  0.14973106948E+04  0.25500000920E-02 0. -1.
       -2   -1    0    0    0  501  0.00000000000E+00  0.00000000000E+00 -0.10682516303E+03  0.10682516307E+03  0.25500000920E-02 0.  1.
    10030    2    1    2    0    0  0.00000000000E+00  0.00000000000E+00  0.13904855318E+04  0.16041358579E+04  0.79987613820E+03 0.  0.
        4    1    3    3  502    0 -0.19760126231E+03 -0.34316354796E+03  0.80764571954E+03  0.89950025053E+03  0.12699999809E+01 0.  1.
       -4    1    3    3    0  502  0.19760126231E+03  0.34316354796E+03  0.58283981224E+03  0.70463560735E+03  0.12699999809E+01 0. -1.
</event>
<event>
 5   0  0.6536209E-03  0.8022657E+03  0.7818609E-02  0.9556743E-01
       -2   -1    0    0    0  501  0.00000000000E+00  0.00000000000E+00  0.12666386595E+03  0.12666386597E+03  0.25500000920E-02 0.  1.
        2   -1    0    0  501    0  0.00000000000E+00  0.00000000000E+00 -0.12703509834E+04  0.12703509834E+04  0.25500000920E-02 0. -1.
    10030    2    1    2    0    0  0.00000000000E+00  0.00000000000E+00 -0.11436871175E+04  0.13970148494E+04  0.80226570833E+03 0.  0.
        3    1    3    3  502    0 -0.36486014988E+03  0.72816567223E+02 -0.83294176449E+03  0.91225937905E+03  0.10100000352E+00 0. -1.
       -3    1    3    3    0  502  0.36486014988E+03 -0.72816567223E+02 -0.31074535300E+03  0.48475547036E+03  0.10100000352E+00 0.  1.
</event>
<event>
 5   0  0.3627496E-03  0.7976101E+03  0.7818609E-02  0.9563483E-01
        1   -1    0    0  501    0  0.00000000000E+00  0.00000000000E+00  0.60383971442E+03  0.60383971444E+03  0.50400001928E-02 0.  1.
       -1   -1    0    0    0  501  0.00000000000E+00  0.00000000000E+00 -0.26339017826E+03  0.26339017831E+03  0.50400001928E-02 0. -1.
    10030    2    1    2    0    0  0.00000000000E+00  0.00000000000E+00  0.34044953616E+03  0.86722989275E+03  0.79761005524E+03 0.  0.
        3    1    3    3  502    0  0.81835594308E+02  0.33670155091E+03 -0.44443075086E+02  0.34934251960E+03  0.10100000352E+00 0. -1.
       -3    1    3    3    0  502 -0.81835594308E+02 -0.33670155091E+03  0.38489261124E+03  0.51788737315E+03  0.10100000352E+00 0.  1.
</event>
<event>
 5   0  0.3753450E-03  0.7978989E+03  0.7818609E-02  0.9563063E-01
        1   -1    0    0  501    0  0.00000000000E+00  0.00000000000E+00  0.33486381320E+03  0.33486381323E+03  0.50400001928E-02 0. -1.
       -1   -1    0    0    0  501  0.00000000000E+00  0.00000000000E+00 -0.47529970854E+03  0.47529970857E+03  0.50400001928E-02 0.  1.
    10030    2    1    2    0    0  0.00000000000E+00  0.00000000000E+00 -0.14043589535E+03  0.81016352181E+03  0.79789892302E+03 0.  0.
        5    1    3    3  502    0  0.28126675742E+02  0.37943024933E+03  0.51542615361E+02  0.38397546171E+03  0.46999998093E+01 0. -1.
       -5    1    3    3    0  502 -0.28126675742E+02 -0.37943024933E+03 -0.19197851071E+03  0.42618806010E+03  0.46999998093E+01 0.  1.
</event>
<event>
 5   0  0.3753450E-03  0.8011140E+03  0.7818609E-02  0.9558406E-01
        1   -1    0    0  501    0  0.00000000000E+00  0.00000000000E+00  0.12007842458E+04  0.12007842458E+04  0.50400001928E-02 0.  1.
       -1   -1    0    0    0  501  0.00000000000E+00  0.00000000000E+00 -0.13361760610E+03  0.13361760619E+03  0.50400001928E-02 0. -1.
    10030    2    1    2    0    0  0.00000000000E+00  0.00000000000E+00  0.10671666397E+04  0.13344018520E+04  0.80111401543E+03 0.  0.
        5    1    3    3  502    0 -0.67488441498E+02 -0.89141145739E+02 -0.10705092327E+03  0.15486388789E+03  0.46999998093E+01 0. -1.
       -5    1    3    3    0  502  0.67488441498E+02  0.89141145739E+02  0.11742175629E+04  0.11795379641E+04  0.46999998093E+01 0.  1.
</event>
<event>
 5   0  0.3671128E-03  0.7990301E+03  0.7818609E-02  0.9561422E-01
        1   -1    0    0  501    0  0.00000000000E+00  0.00000000000E+00  0.69666394215E+03  0.69666394216E+03  0.50400001928E-02 0. -1.
       -1   -1    0    0    0  501  0.00000000000E+00  0.00000000000E+00 -0.22910945351E+03  0.22910945356E+03  0.50400001928E-02 0.  1.
    10030    2    1    2    0    0  0.00000000000E+00  0.00000000000E+00  0.46755448864E+03  0.92577339573E+03  0.79903014986E+03 0.  0.
        2    1    3    3  502    0 -0.21002967424E+03  0.11911755921E+03 -0.13500455874E+03  0.27663638202E+03  0.25500000920E-02 0.  1.
       -2    1    3    3    0  502  0.21002967424E+03 -0.11911755921E+03  0.60255904738E+03  0.64913701370E+03  0.25500000920E-02 0. -1.
</event>
<event>
 5   0  0.5813850E-03  0.7996357E+03  0.7818609E-02  0.9560545E-01
        2   -1    0    0  501    0  0.00000000000E+00  0.00000000000E+00  0.40389562220E+03  0.40389562220E+03  0.25500000920E-02 0.  1.
       -2   -1    0    0    0  501  0.00000000000E+00  0.00000000000E+00 -0.39578125617E+03  0.39578125618E+03  0.25500000920E-02 0. -1.
    10030    2    1    2    0    0  0.00000000000E+00  0.00000000000E+00  0.81143660277E+01  0.79967687838E+03  0.79963570886E+03 0.  0.
        5    1    3    3  502    0 -0.32701750652E+03  0.14955691336E+03 -0.17066445282E+03  0.39806552898E+03  0.46999998093E+01 0. -1.
       -5    1    3    3    0  502  0.32701750652E+03 -0.14955691336E+03  0.17877881885E+03  0.40161134941E+03  0.46999998093E+01 0.  1.
</event>
<event>
 5   0  0.6153659E-03  0.8001333E+03  0.7818609E-02  0.9559824E-01
        2   -1    0    0  501    0  0.00000000000E+00  0.00000000000E+00  0.28366264458E+03  0.28366264459E+03  0.25500000920E-02 0. -1.
       -2   -1    0    0    0  501  0.00000000000E+00  0.00000000000E+00 -0.56423830127E+03  0.56423830128E+03  0.25500000920E-02 0.  1.
    10030    2    1    2    0    0  0.00000000000E+00  0.00000000000E+00 -0.28057565669E+03  0.84790094587E+03  0.80013331070E+03 0.  0.
        2    1    3    3  502    0 -0.20948868871E+03 -0.17733559154E+03 -0.44873124219E+03  0.52601630246E+03  0.25500000920E-02 0.  1.
       -2    1    3    3    0  502  0.20948868871E+03  0.17733559154E+03  0.16815558551E+03  0.32188464341E+03  0.25500000920E-02 0. -1.
</event>
<event>
 5   0  0.6536209E-03  0.7982167E+03  0.7818609E-02  0.9562602E-01
       -2   -1    0    0    0  501  0.00000000000E+00  0.00000000000E+00  0.40544635796E+03  0.40544635797E+03  0.25500000920E-02 0. -1.
        2   -1    0    0  501    0  0.00000000000E+00  0.00000000000E+00 -0.39286941079E+03  0.39286941080E+03  0.25500000920E-02 0.  1.
    10030    2    1    2    0    0  0.00000000000E+00  0.00000000000E+00  0.12576947166E+02  0.79831576877E+03  0.79821669180E+03 0.  0.
        3    1    3    3  502    0  0.68385252329E+02  0.31447582237E+03  0.24235987817E+03  0.40287703625E+03  0.10100000352E+00 0. -1.
       -3    1    3    3    0  502 -0.68385252329E+02 -0.31447582237E+03 -0.22978293101E+03  0.39543873252E+03  0.10100000352E+00 0.  1.
</event>
<event>
 5   0  0.6153659E-03  0.7946924E+03  0.7818609E-02  0.9567732E-01
       -2   -1    0    0    0  501  0.00000000000E+00  0.00000000000E+00  0.33599672165E+03  0.33599672166E+03  0.25500000920E-02 0. -1.
        2   -1    0    0  501    0  0.00000000000E+00  0.00000000000E+00 -0.46989742859E+03  0.46989742860E+03  0.25500000920E-02 0.  1.
    10030    2    1    2    0    0  0.00000000000E+00  0.00000000000E+00 -0.13390070694E+03  0.80589415026E+03  0.79469238206E+03 0.  0.
        2    1    3    3  502    0 -0.17809754058E+03  0.10031912224E+03  0.27858903536E+03  0.34553510803E+03  0.25500000920E-02 0. -1.
       -2    1    3    3    0  502  0.17809754058E+03 -0.10031912224E+03 -0.41248974230E+03  0.46035904223E+03  0.25500000920E-02 0.  1.
</event>
<event>
 5   0  0.6536209E-03  0.8000190E+03  0.7818609E-02  0.9559990E-01
        2   -1    0    0  501    0  0.00000000000E+00  0.00000000000E+00  0.35057065523E+03  0.35057065524E+03  0.25500000920E-02 0.  1.
       -2   -1    0    0    0  501  0.00000000000E+00  0.00000000000E+00 -0.45642043094E+03  0.45642043095E+03  0.25500000920E-02 0. -1.
    10030    2    1    2    0    0  0.00000000000E+00  0.00000000000E+00 -0.10584977572E+03  0.80699108619E+03  0.80001902363E+03 0.  0.
        3    1    3    3  502    0  0.28313504446E+03  0.16749865918E+03  0.17662445513E+03  0.37338647883E+03  0.10100000352E+00 0.  1.
       -3    1    3    3    0  502 -0.28313504446E+03 -0.16749865918E+03 -0.28247423085E+03  0.43360460735E+03  0.10100000352E+00 0. -1.
</event>
<event>
 5   0  0.5813850E-03  0.7993343E+03  0.7818609E-02  0.9560981E-01
       -2   -1    0    0    0  501  0.00000000000E+00  0.00000000000E+00  0.27462567012E+03  0.27462567013E+03  0.25500000920E-02 0. -1.
        2   -1    0    0  501    0  0.00000000000E+00  0.00000000000E+00 -0.58164202784E+03  0.58164202784E+03  0.25500000920E-02 0.  1.
    10030    2    1    2    0    0  0.00000000000E+00  0.00000000000E+00 -0.30701635772E+03  0.85626769798E+03  0.79933430221E+03 0.  0.
        5    1    3    3  502    0 -0.12551871461E+03  0.12493586786E+03  0.23026565755E+03  0.29053103421E+03  0.46999998093E+01 0. -1.
       -5    1    3    3    0  502  0.12551871461E+03 -0.12493586786E+03 -0.53728201527E+03  0.56573666376E+03  0.46999998093E+01 0.  1.
</event>
<event>
 5   0  0.6337108E-03  0.7950131E+03  0.7818609E-02  0.9567264E-01
       -2   -1    0    0    0  501  0.00000000000E+00  0.00000000000E+00  0.27276480550E+03  0.27276480551E+03  0.25500000920E-02 0. -1.
        2   -1    0    0  501    0  0.00000000000E+00  0.00000000000E+00 -0.57929559698E+03  0.57929559699E+03  0.25500000920E-02 0.  1.
    10030    2    1    2    0    0  0.00000000000E+00  0.00000000000E+00 -0.30653079148E+03  0.85206040250E+03  0.79501308378E+03 0.  0.
        4    1    3    3  502    0 -0.13698697397E+03 -0.32004199016E+03  0.52382107022E+02  0.35204801453E+03  0.12699999809E+01 0. -1.
       -4    1    3    3    0  502  0.13698697397E+03  0.32004199016E+03 -0.35891289850E+03  0.50001238796E+03  0.12699999809E+01 0.  1.
</event>
<event>
 5   0  0.6337108E-03  0.8007199E+03  0.7818609E-02  0.9558976E-01
        2   -1    0    0  501    0  0.00000000000E+00  0.00000000000E+00  0.56228480490E+03  0.56228480491E+03  0.25500000920E-02 0. -1.
       -2   -1    0    0    0  501  0.00000000000E+00  0.00000000000E+00 -0.28506566134E+03  0.28506566135E+03  0.25500000920E-02 0.  1.
    10030    2    1    2    0    0  0.00000000000E+00  0.00000000000E+00  0.27721914356E+03  0.84735046626E+03  0.80071990054E+03 0.  0.
        4    1    3    3  502    0  0.56289119564E+02 -0.53435036186E+02  0.55424535209E+03  0.55965461786E+03  0.12699999809E+01 0. -1.
       -4    1    3    3    0  502 -0.56289119564E+02  0.53435036186E+02 -0.27702620853E+03  0.28769584840E+03  0.12699999809E+01 0.  1.
</event>
<event>
 5   0  0.3714448E-03  0.8012174E+03  0.7818609E-02  0.9558257E-01
        1   -1    0    0  501    0  0.00000000000E+00  0.00000000000E+00  0.97273377454E+03  0.97273377456E+03  0.50400001928E-02 0.  1.
       -1   -1    0    0    0  501  0.00000000000E+00  0.00000000000E+00 -0.16498587597E+03  0.16498587604E+03  0.50400001928E-02 0. -1.
    10030    2    1    2    0    0  0.00000000000E+00  0.00000000000E+00  0.80774789858E+03  0.11377196506E+04  0.80121740852E+03 0.  0.
        1    1    3    3  502    0 -0.33268513231E+03  0.22187545890E+03  0.43804872522E+03  0.59312292336E+03  0.50400001928E-02 0. -1.
       -1    1    3    3    0  502  0.33268513231E+03 -0.22187545890E+03  0.36969917336E+03  0.54459672725E+03  0.50400001928E-02 0.  1.
</event>
<event>
 5   0  0.6153659E-03  0.8011312E+03  0.7818609E-02  0.9558381E-01
        2   -1    0    0  501    0  0.00000000000E+00  0.00000000000E+00  0.57199998112E+03  0.57199998112E+03  0.25500000920E-02 0. -1.
       -2   -1    0    0    0  501  0.00000000000E+00  0.00000000000E+00 -0.28051189009E+03  0.28051189010E+03  0.25500000920E-02 0.  1.
    10030    2    1    2    0    0  0.00000000000E+00  0.00000000000E+00  0.29148809103E+03  0.85251187122E+03  0.80113118986E+03 0.  0.
        2    1    3    3  502    0 -0.12935609336E+03 -0.68789298048E+02  0.54246503767E+03  0.56190148915E+03  0.25500000920E-02 0. -1.
       -2    1    3    3    0  502  0.12935609336E+03  0.68789298048E+02 -0.25097694664E+03  0.29061038207E+03  0.25500000920E-02 0.  1.
</event>
<event>
 5   0  0.3753450E-03  0.8033308E+03  0.7818609E-02  0.9555208E-01
       -1   -1    0    0    0  501  0.00000000000E+00  0.00000000000E+00  0.37190815460E+03  0.37190815463E+03  0.50400001928E-02 0.  1.
        1   -1    0    0  501    0  0.00000000000E+00  0.00000000000E+00 -0.43380364550E+03  0.43380364553E+03  0.50400001928E-02 0. -1.
    10030    2    1    2    0    0  0.00000000000E+00  0.00000000000E+00 -0.61895490906E+02  0.80571180017E+03  0.80333084911E+03 0.  0.
        5    1    3    3  502    0 -0.35689808313E+03  0.18356122147E+03 -0.15343371025E+02  0.40165715828E+03  0.46999998093E+01 0.  1.
       -5    1    3    3    0  502  0.35689808313E+03 -0.18356122147E+03 -0.46552119881E+02  0.40405464189E+03  0.46999998093E+01 0. -1.
</event>
<event>
 5   0  0.3860515E-03  0.7976896E+03  0.7818609E-02  0.9563367E-01
        1   -1    0    0  501    0  0.00000000000E+00  0.00000000000E+00  0.31488341891E+03  0.31488341895E+03  0.50400001928E-02 0.  1.
       -1   -1    0    0    0  501  0.00000000000E+00  0.00000000000E+00 -0.50519388611E+03  0.50519388614E+03  0.50400001928E-02 0. -1.
    10030    2    1    2    0    0  0.00000000000E+00  0.00000000000E+00 -0.19031046720E+03  0.82007730509E+03  0.79768960905E+03 0.  0.
        4    1    3    3  502    0  0.26429487466E+03  0.54020411763E+02 -0.39717842693E+03  0.48012738036E+03  0.12699999809E+01 0. -1.
       -4    1    3    3    0  502 -0.26429487466E+03 -0.54020411763E+02  0.20686795973E+03  0.33994992472E+03  0.12699999809E+01 0.  1.
</event>
<event>
 5   0  0.3753450E-03  0.7990790E+03  0.7818609E-02  0.9561351E-01
       -1   -1    0    0    0  501  0.00000000000E+00  0.00000000000E+00  0.26742142777E+03  0.26742142781E+03  0.50400001928E-02 0. -1.
        1   -1    0    0  501    0  0.00000000000E+00  0.00000000000E+00 -0.59692972009E+03  0.59692972011E+03  0.50400001928E-02 0.  1.
    10030    2    1    2    0    0  0.00000000000E+00  0.00000000000E+00 -0.32950829232E+03  0.86435114792E+03  0.79907896494E+03 0.  0.
        5    1    3    3  502    0 -0.21689689413E+03  0.42552003430E+02  0.19522864430E+03  0.29494278977E+03  0.46999998093E+01 0. -1.
       -5    1    3    3    0  502  0.21689689413E+03 -0.42552003430E+02 -0.52473693663E+03  0.56940835816E+03  0.46999998093E+01 0.  1.
</event>
<event>
 5   0  0.6256781E-03  0.7920389E+03  0.7818609E-02  0.9571612E-01
       -2   -1    0    0    0  501  0.00000000000E+00  0.00000000000E+00  0.10956445276E+03  0.10956445279E+03  0.25500000920E-02 0. -1.
        2   -1    0    0  501    0  0.00000000000E+00  0.00000000000E+00 -0.14314077005E+04  0.14314077005E+04  0.25500000920E-02 0.  1.
    10030    2    1    2    0    0  0.00000000000E+00  0.00000000000E+00 -0.13218432478E+04  0.15409721533E+04  0.79203889150E+03 0.  0.
        1    1    3    3  502    0 -0.29884212613E+03  0.22142741713E+03 -0.39633265070E+03  0.54352211311E+03  0.50400001928E-02 0. -1.
       -1    1    3    3    0  502  0.29884212613E+03 -0.22142741713E+03 -0.92551059708E+03  0.99745004022E+03  0.50400001928E-02 0.  1.
</event>
<event>
 5   0  0.6536209E-03  0.7963289E+03  0.7818609E-02  0.9565346E-01
        2   -1    0    0  501    0  0.00000000000E+00  0.00000000000E+00  0.89738642169E+03  0.89738642169E+03  0.25500000920E-02 0.  1.
       -2   -1    0    0    0  501  0.00000000000E+00  0.00000000000E+00 -0.17666292503E+03  0.17666292505E+03  0.25500000920E-02 0. -1.
    10030    2    1    2    0    0  0.00000000000E+00  0.00000000000E+00  0.72072349665E+03  0.10740493467E+04  0.79632885205E+03 0.  0.
        3    1    3    3  502    0  0.15820470431E+03 -0.26730885715E+03  0.24384252834E+02  0.31157239217E+03  0.10100000352E+00 0. -1.
       -3    1    3    3    0  502 -0.15820470431E+03  0.26730885715E+03  0.69633924382E+03  0.76247695457E+03  0.10100000352E+00 0.  1.
</event>
<event>
 5   0  0.5813850E-03  0.8010548E+03  0.7818609E-02  0.9558492E-01
       -2   -1    0    0    0  501  0.00000000000E+00  0.00000000000E+00  0.20274449157E+03  0.20274449158E+03  0.25500000920E-02 0.  1.
        2   -1    0    0  501    0  0.00000000000E+00  0.00000000000E+00 -0.79125300800E+03  0.79125300801E+03  0.25500000920E-02 0. -1.
    10030    2    1    2    0    0  0.00000000000E+00  0.00000000000E+00 -0.58850851643E+03  0.99399749959E+03  0.80105477670E+03 0.  0.
        5    1    3    3  502    0 -0.34425303782E+03  0.20463866316E+03 -0.28978676074E+03  0.49435371265E+03  0.46999998093E+01 0. -1.
       -5    1    3    3    0  502  0.34425303782E+03 -0.20463866316E+03 -0.29872175569E+03  0.49964378694E+03  0.46999998093E+01 0.  1.
</event>
<event>
 5   0  0.3753450E-03  0.7982466E+03  0.7818609E-02  0.9562559E-01
        1   -1    0    0  501    0  0.00000000000E+00  0.00000000000E+00  0.18871614787E+04  0.18871614787E+04  0.50400001928E-02 0. -1.
       -1   -1    0    0    0  501  0.00000000000E+00  0.00000000000E+00 -0.84412177801E+02  0.84412177951E+02  0.50400001928E-02 0.  1.
    10030    2    1    2    0    0  0.00000000000E+00  0.00000000000E+00  0.18027493009E+04  0.19715736567E+04  0.79824660460E+03 0.  0.
        5    1    3    3  502    0  0.26663289324E+03  0.22395167478E+03  0.41971714069E+03  0.54537328554E+03  0.46999998093E+01 0.  1.
       -5    1    3    3    0  502 -0.26663289324E+03 -0.22395167478E+03  0.13830321602E+04  0.14262003712E+04  0.46999998093E+01 0. -1.
</event>
<event>
 5   0  0.6536209E-03  0.8030562E+03  0.7818609E-02  0.9555604E-01
       -2   -1    0    0    0  501  0.00000000000E+00  0.00000000000E+00  0.22433039476E+03  0.22433039477E+03  0.25500000920E-02 0. -1.
        2   -1    0    0  501    0  0.00000000000E+00  0.00000000000E+00 -0.71869351331E+03  0.71869351331E+03  0.25500000920E-02 0.  1.
    10030    2    1    2    0    0  0.00000000000E+00  0.00000000000E+00 -0.49436311855E+03  0.94302390809E+03  0.80305616133E+03 0.  0.
        3    1    3    3  502    0 -0.32866006137E+03  0.22890948761E+03 -0.28055712868E+03  0.48900848879E+03  0.10100000352E+00 0.  1.
       -3    1    3    3    0  502  0.32866006137E+03 -0.22890948761E+03 -0.21380598988E+03  0.45401541930E+03  0.10100000352E+00 0. -1.
</event>
<event>
 5   0  0.6337108E-03  0.8005996E+03  0.7818609E-02  0.9559150E-01
        2   -1    0    0  501    0  0.00000000000E+00  0.00000000000E+00  0.16907248058E+04  0.16907248059E+04  0.25500000920E-02 0. -1.
       -2   -1    0    0    0  501  0.00000000000E+00  0.00000000000E+00 -0.94775880795E+02  0.94775880829E+02  0.25500000920E-02 0.  1.
    10030    2    1    2    0    0  0.00000000000E+00  0.00000000000E+00  0.15959489251E+04  0.17855006867E+04  0.80059960702E+03 0.  0.
        4    1    3    3  502    0 -0.23543604685E+03 -0.32314987864E+03  0.84158300224E+03  0.93172932699E+03  0.12699999809E+01 0. -1.
       -4    1    3    3    0  502  0.23543604685E+03  0.32314987864E+03  0.75436592282E+03  0.85377135969E+03  0.12699999809E+01 0.  1.
</event>
<event>
 5   0  0.5813850E-03  0.8069031E+03  0.7818609E-02  0.9550079E-01
       -2   -1    0    0    0  501  0.00000000000E+00  0.00000000000E+00  0.23603159198E+03  0.23603159200E+03  0.25500000920E-02 0. -1.
        2   -1    0    0  501    0  0.00000000000E+00  0.00000000000E+00 -0.68962438593E+03  0.68962438593E+03  0.25500000920E-02 0.  1.
    10030    2    1    2    0    0  0.00000000000E+00  0.00000000000E+00 -0.45359279394E+03  0.92565597793E+03  0.80690307147E+03 0.  0.
        5    1    3    3  502    0  0.18006444611E+03  0.11755512540E+02  0.18712366786E+03  0.25999760364E+03  0.46999998093E+01 0. -1.
       -5    1    3    3    0  502 -0.18006444611E+03 -0.11755512540E+02 -0.64071646181E+03  0.66565837428E+03  0.46999998093E+01 0.  1.
</event>
<event>
 5   0  0.3753450E-03  0.8012351E+03  0.7818609E-02  0.9558231E-01
       -1   -1    0    0    0  501  0.00000000000E+00  0.00000000000E+00  0.11102077788E+03  0.11102077800E+03  0.50400001928E-02 0.  1.
        1   -1    0    0  501    0  0.00000000000E+00  0.00000000000E+00 -0.14456249300E+04  0.14456249300E+04  0.50400001928E-02 0. -1.
    10030    2    1    2    0    0  0.00000000000E+00  0.00000000000E+00 -0.13346041521E+04  0.15566457080E+04  0.80123505752E+03 0.  0.
        5    1    3    3  502    0 -0.47703456303E+01  0.35082935405E+03 -0.10428640702E+04  0.11003142964E+04  0.46999998093E+01 0. -1.
       -5    1    3    3    0  502  0.47703456303E+01 -0.35082935405E+03 -0.29174008193E+03  0.45633141165E+03  0.46999998093E+01 0.  1.
</event>
<event>
 5   0  0.6536209E-03  0.7998664E+03  0.7818609E-02  0.9560210E-01
        2   -1    0    0  501    0  0.00000000000E+00  0.00000000000E+00  0.65694766041E+03  0.65694766042E+03  0.25500000920E-02 0. -1.
       -2   -1    0    0    0  501  0.00000000000E+00  0.00000000000E+00 -0.24346929555E+03  0.24346929557E+03  0.25500000920E-02 0.  1.
    10030    2    1    2    0    0  0.00000000000E+00  0.00000000000E+00  0.41347836486E+03  0.90041695599E+03  0.79986644911E+03 0.  0.
        3    1    3    3  502    0 -0.24280662011E+03 -0.88463730719E+02  0.55033999389E+03  0.60799260316E+03  0.10100000352E+00 0. -1.
       -3    1    3    3    0  502  0.24280662011E+03  0.88463730719E+02 -0.13686162903E+03  0.29242435282E+03  0.10100000352E+00 0.  1.
</event>
<event>
 5   0  0.6256781E-03  0.8000309E+03  0.7818609E-02  0.9559972E-01
        2   -1    0    0  501    0  0.00000000000E+00  0.00000000000E+00  0.52370374122E+03  0.52370374123E+03  0.25500000920E-02 0.  1.
       -2   -1    0    0    0  501  0.00000000000E+00  0.00000000000E+00 -0.30553983795E+03  0.30553983797E+03  0.25500000920E-02 0. -1.
    10030    2    1    2    0    0  0.00000000000E+00  0.00000000000E+00  0.21816390326E+03  0.82924357919E+03  0.80003088999E+03 0.  0.
        1    1    3    3  502    0 -0.29412495550E+03  0.97246393084E+02  0.37139590136E+03  0.48363340040E+03  0.50400001928E-02 0.  1.
       -1    1    3    3    0  502  0.29412495550E+03 -0.97246393084E+02 -0.15323199809E+03  0.34561017879E+03  0.50400001928E-02 0. -1.
</event>
<event>
 5   0  0.6337108E-03  0.7992189E+03  0.7818609E-02  0.9561148E-01
        2   -1    0    0  501    0  0.00000000000E+00  0.00000000000E+00  0.59122052036E+03  0.59122052036E+03  0.25500000920E-02 0.  1.
       -2   -1    0    0    0  501  0.00000000000E+00  0.00000000000E+00 -0.27009841831E+03  0.27009841832E+03  0.25500000920E-02 0. -1.
    10030    2    1    2    0    0  0.00000000000E+00  0.00000000000E+00  0.32112210205E+03  0.86131893869E+03  0.79921893728E+03 0.  0.
        4    1    3    3  502    0  0.14937386989E+03 -0.66484178369E+02  0.55352072077E+03  0.57716505456E+03  0.12699999809E+01 0.  1.
       -4    1    3    3    0  502 -0.14937386989E+03  0.66484178369E+02 -0.23239861873E+03  0.28415388413E+03  0.12699999809E+01 0. -1.
</event>
<event>
 5   0  0.6256781E-03  0.7486103E+03  0.7818609E-02  0.9637533E-01
        2   -1    0    0  501    0  0.00000000000E+00  0.00000000000E+00  0.24111389536E+03  0.24111389537E+03  0.25500000920E-02 0. -1.
       -2   -1    0    0    0  501  0.00000000000E+00  0.00000000000E+00 -0.58107118203E+03  0.58107118203E+03  0.25500000920E-02 0.  1.
    10030    2    1    2    0    0  0.00000000000E+00  0.00000000000E+00 -0.33995728667E+03  0.82218507741E+03  0.74861027561E+03 0.  0.
        1    1    3    3  502    0  0.21677249513E+03 -0.11009875820E+03 -0.48254025084E+03  0.54033058853E+03  0.50400001928E-02 0.  1.
       -1    1    3    3    0  502 -0.21677249513E+03  0.11009875820E+03  0.14258296417E+03  0.28185448887E+03  0.50400001928E-02 0. -1.
</event>
<event>
 5   0  0.6536209E-03  0.7999090E+03  0.7818609E-02  0.9560149E-01
       -2   -1    0    0    0  501  0.00000000000E+00  0.00000000000E+00  0.41520522344E+03  0.41520522345E+03  0.25500000920E-02 0.  1.
        2   -1    0    0  501    0  0.00000000000E+00  0.00000000000E+00 -0.38526394185E+03  0.38526394186E+03  0.25500000920E-02 0. -1.
    10030    2    1    2    0    0  0.00000000000E+00  0.00000000000E+00  0.29941281595E+02  0.80046916531E+03  0.79990899749E+03 0.  0.
        3    1    3    3  502    0 -0.15215938451E+03 -0.34251564325E+03  0.15468985691E+03  0.40546073323E+03  0.10100000352E+00 0.  1.
       -3    1    3    3    0  502  0.15215938451E+03  0.34251564325E+03 -0.12474857532E+03  0.39500843207E+03  0.10100000352E+00 0. -1.
</event>
<event>
 5   0  0.6153659E-03  0.7986210E+03  0.7818609E-02  0.9562015E-01
        2   -1    0    0  501    0  0.00000000000E+00  0.00000000000E+00  0.42013782776E+03  0.42013782776E+03  0.25500000920E-02 0.  1.
       -2   -1    0    0    0  501  0.00000000000E+00  0.00000000000E+00 -0.37951563186E+03  0.37951563187E+03  0.25500000920E-02 0. -1.
    10030    2    1    2    0    0  0.00000000000E+00  0.00000000000E+00  0.40622195898E+02  0.79965345963E+03  0.79862099440E+03 0.  0.
        2    1    3    3  502    0 -0.26862059263E+03 -0.15278382518E+03  0.27351932791E+03  0.41268964461E+03  0.25500000920E-02 0.  1.
       -2    1    3    3    0  502  0.26862059263E+03  0.15278382518E+03 -0.23289713202E+03  0.38696381501E+03  0.25500000920E-02 0. -1.
</event>
<event>
 5   0  0.6256781E-03  0.8000985E+03  0.7818609E-02  0.9559874E-01
        2   -1    0    0  501    0  0.00000000000E+00  0.00000000000E+00  0.56616755527E+03  0.56616755527E+03  0.25500000920E-02 0. -1.
       -2   -1    0    0    0  501  0.00000000000E+00  0.00000000000E+00 -0.28267147315E+03  0.28267147316E+03  0.25500000920E-02 0.  1.
    10030    2    1    2    0    0  0.00000000000E+00  0.00000000000E+00  0.28349608212E+03  0.84883902843E+03  0.80009853619E+03 0.  0.
        1    1    3    3  502    0  0.39698482620E+03 -0.49325231603E+02  0.13848045192E+03  0.42332820163E+03  0.50400001928E-02 0. -1.
       -1    1    3    3    0  502 -0.39698482620E+03  0.49325231603E+02  0.14501563020E+03  0.42551082681E+03  0.50400001928E-02 0.  1.
</event>
<event>
 5   0  0.6153659E-03  0.7981509E+03  0.7818609E-02  0.9562697E-01
        2   -1    0    0  501    0  0.00000000000E+00  0.00000000000E+00  0.46893456771E+03  0.46893456771E+03  0.25500000920E-02 0.  1.
       -2   -1    0    0    0  501  0.00000000000E+00  0.00000000000E+00 -0.33962354742E+03  0.33962354743E+03  0.25500000920E-02 0. -1.
    10030    2    1    2    0    0  0.00000000000E+00  0.00000000000E+00  0.12931102028E+03  0.80855811515E+03  0.79815091656E+03 0.  0.
        2    1    3    3  502    0  0.14343782549E+03  0.33618842026E+03 -0.97633731631E+02  0.37832447615E+03  0.25500000920E-02 0. -1.
       -2    1    3    3    0  502 -0.14343782549E+03 -0.33618842026E+03  0.22694475192E+03  0.43023363900E+03  0.25500000920E-02 0.  1.
</event>
<event>
 5   0  0.3714448E-03  0.8004904E+03  0.7818609E-02  0.9559308E-01
        1   -1    0    0  501    0  0.00000000000E+00  0.00000000000E+00  0.37123808845E+03  0.37123808849E+03  0.50400001928E-02 0.  1.
       -1   -1    0    0    0  501  0.00000000000E+00  0.00000000000E+00 -0.43151878027E+03  0.43151878030E+03  0.50400001928E-02 0. -1.
    10030    2    1    2    0    0  0.00000000000E+00  0.00000000000E+00 -0.60280691819E+02  0.80275686879E+03  0.80049036758E+03 0.  0.
        1    1    3    3  502    0  0.28558029700E+03  0.21266858039E+03  0.15316718183E+03  0.38761348885E+03  0.50400001928E-02 0.  1.
       -1    1    3    3    0  502 -0.28558029700E+03 -0.21266858039E+03 -0.21344787365E+03  0.41514337994E+03  0.50400001928E-02 0. -1.
</event>
<event>
 5   0  0.3671128E-03  0.7994926E+03  0.7818609E-02  0.9560752E-01
       -1   -1    0    0    0  501  0.00000000000E+00  0.00000000000E+00  0.31166984672E+03  0.31166984676E+03  0.50400001928E-02 0.  1.
        1   -1    0    0  501    0  0.00000000000E+00  0.00000000000E+00 -0.51271273855E+03  0.51271273857E+03  0.50400001928E-02 0. -1.
    10030    2    1    2    0    0  0.00000000000E+00  0.00000000000E+00 -0.20104289183E+03  0.82438258533E+03  0.79949259073E+03 0.  0.
        2    1    3    3  502    0  0.23619593966E+03 -0.32237846948E+03 -0.91258390732E+02  0.40993230341E+03  0.25500000920E-02 0. -1.
       -2    1    3    3    0  502 -0.23619593966E+03  0.32237846948E+03 -0.10978450110E+03  0.41445028192E+03  0.25500000920E-02 0.  1.
</event>
<event>
 5   0  0.3860515E-03  0.7927245E+03  0.7818609E-02  0.9570608E-01
       -1   -1    0    0    0  501  0.00000000000E+00  0.00000000000E+00  0.13256790553E+03  0.13256790562E+03  0.50400001928E-02 0. -1.
        1   -1    0    0  501    0  0.00000000000E+00  0.00000000000E+00 -0.11850760050E+04  0.11850760050E+04  0.50400001928E-02 0.  1.
    10030    2    1    2    0    0  0.00000000000E+00  0.00000000000E+00 -0.10525080995E+04  0.13176439106E+04  0.79272452704E+03 0.  0.
        4    1    3    3  502    0  0.25431617309E+03  0.16353675705E+03 -0.95223855711E+03  0.99909002065E+03  0.12699999809E+01 0.  1.
       -4    1    3    3    0  502 -0.25431617309E+03 -0.16353675705E+03 -0.10026954237E+03  0.31855388999E+03  0.12699999809E+01 0. -1.
</event>
<event>
 5   0  0.3753450E-03  0.8029612E+03  0.7818609E-02  0.9555741E-01
       -1   -1    0    0    0  501  0.00000000000E+00  0.00000000000E+00  0.52388794790E+03  0.52388794792E+03  0.50400001928E-02 0. -1.
        1   -1    0    0  501    0  0.00000000000E+00  0.00000000000E+00 -0.30767395343E+03  0.30767395347E+03  0.50400001928E-02 0.  1.
    10030    2    1    2    0    0  0.00000000000E+00  0.00000000000E+00  0.21621399447E+03  0.83156190139E+03  0.80296120980E+03 0.  0.
        5    1    3    3  502    0  0.31132948389E+03 -0.16134370622E+03  0.31053474802E+03  0.46841408903E+03  0.46999998093E+01 0. -1.
       -5    1    3    3    0  502 -0.31132948389E+03  0.16134370622E+03 -0.94320753550E+02  0.36314781236E+03  0.46999998093E+01 0.  1.
</event>
<event>
 5   0  0.6536209E-03  0.8259417E+03  0.7818609E-02  0.9523208E-01
        2   -1    0    0  501    0  0.00000000000E+00  0.00000000000E+00  0.14956066607E+04  0.14956066607E+04  0.25500000920E-02 0.  1.
       -2   -1    0    0    0  501  0.00000000000E+00  0.00000000000E+00 -0.11403059431E+03  0.11403059434E+03  0.25500000920E-02 0. -1.
    10030    2    1    2    0    0  0.00000000000E+00  0.00000000000E+00  0.13815760663E+04  0.16096372550E+04  0.82594168413E+03 0.  0.
        3    1    3    3  502    0  0.47912524541E+02 -0.31207023396E+02  0.14878547820E+04  0.14889531056E+04  0.10100000352E+00 0.  1.
       -3    1    3    3    0  502 -0.47912524541E+02  0.31207023396E+02 -0.10627871562E+03  0.12068414938E+03  0.10100000352E+00 0. -1.
</event>
<event>
 5   0  0.2478000E-03  0.7984173E+03  0.7818609E-02  0.9562311E-01
       -3   -1    0    0    0  501  0.00000000000E+00  0.00000000000E+00  0.79657518890E+03  0.79657519531E+03  0.10100000352E+00 0. -1.
        3   -1    0    0  501    0  0.00000000000E+00  0.00000000000E+00 -0.20006590248E+03  0.20006592798E+03  0.10100000352E+00 0.  1.
    10030    2    1    2    0    0  0.00000000000E+00  0.00000000000E+00  0.59650928642E+03  0.99664112328E+03  0.79841730933E+03 0.  0.
        2    1    3    3  502    0  0.24718154069E+03 -0.30792022830E+03  0.37161612087E+03  0.54222884685E+03  0.25500000920E-02 0. -1.
       -2    1    3    3    0  502 -0.24718154069E+03  0.30792022830E+03  0.22489316554E+03  0.45441227643E+03  0.25500000920E-02 0.  1.
</event>
<event>
 5   0  0.6536209E-03  0.8011874E+03  0.7818609E-02  0.9558300E-01
       -2   -1    0    0    0  501  0.00000000000E+00  0.00000000000E+00  0.89864955930E+02  0.89864955966E+02  0.25500000920E-02 0.  1.
        2   -1    0    0  501    0  0.00000000000E+00  0.00000000000E+00 -0.17857386261E+04  0.17857386261E+04  0.25500000920E-02 0. -1.
    10030    2    1    2    0    0  0.00000000000E+00  0.00000000000E+00 -0.16958736702E+04  0.18756035821E+04  0.80118742620E+03 0.  0.
        3    1    3    3  502    0  0.32484553885E+03 -0.23210620452E+03 -0.92477820674E+03  0.10072798301E+04  0.10100000352E+00 0.  1.
       -3    1    3    3    0  502 -0.32484553885E+03  0.23210620452E+03 -0.77109546345E+03  0.86832375198E+03  0.10100000352E+00 0. -1.
</event>
<event>
 5   0  0.3627496E-03  0.7993822E+03  0.7818609E-02  0.9560912E-01
        1   -1    0    0  501    0  0.00000000000E+00  0.00000000000E+00  0.72127340038E+03  0.72127340039E+03  0.50400001928E-02 0. -1.
       -1   -1    0    0    0  501  0.00000000000E+00  0.00000000000E+00 -0.22148741929E+03  0.22148741935E+03  0.50400001928E-02 0.  1.
    10030    2    1    2    0    0  0.00000000000E+00  0.00000000000E+00  0.49978598108E+03  0.94276081974E+03  0.79938222169E+03 0.  0.
        3    1    3    3  502    0 -0.45801975013E+02  0.18185846426E+03  0.66616367367E+03  0.69205807000E+03  0.10100000352E+00 0. -1.
       -3    1    3    3    0  502  0.45801975013E+02 -0.18185846426E+03 -0.16637769259E+03  0.25070274974E+03  0.10100000352E+00 0.  1.
</event>
<event>
 5   0  0.3671128E-03  0.7862284E+03  0.7818609E-02  0.9580168E-01
       -1   -1    0    0    0  501  0.00000000000E+00  0.00000000000E+00  0.12980116538E+03  0.12980116547E+03  0.50400001928E-02 0. -1.
        1   -1    0    0  501    0  0.00000000000E+00  0.00000000000E+00 -0.11905807338E+04  0.11905807338E+04  0.50400001928E-02 0.  1.
    10030    2    1    2    0    0  0.00000000000E+00  0.00000000000E+00 -0.10607795684E+04  0.13203818992E+04  0.78622838104E+03 0.  0.
        2    1    3    3  502    0  0.25570447115E+02  0.45202460742E+02 -0.11847943366E+04  0.11859320091E+04  0.25500000920E-02 0.  1.
       -2    1    3    3    0  502 -0.25570447115E+02 -0.45202460742E+02  0.12401476819E+03  0.13444989014E+03  0.25500000920E-02 0. -1.
</event>
<event>
 5   0  0.3753450E-03  0.7686452E+03  0.7818609E-02  0.9606545E-01
        1   -1    0    0  501    0  0.00000000000E+00  0.00000000000E+00  0.34519487474E+03  0.34519487478E+03  0.50400001928E-02 0.  1.
       -1   -1    0    0    0  501  0.00000000000E+00  0.00000000000E+00 -0.42788547347E+03  0.42788547350E+03  0.50400001928E-02 0. -1.
    10030    2    1    2    0    0  0.00000000000E+00  0.00000000000E+00 -0.82690598727E+02  0.77308034828E+03  0.76864523012E+03 0.  0.
        5    1    3    3  502    0 -0.41280422995E+02  0.32979496037E+03 -0.23536507551E+03  0.40729301243E+03  0.46999998093E+01 0. -1.
       -5    1    3    3    0  502  0.41280422995E+02 -0.32979496037E+03  0.15267447678E+03  0.36578733585E+03  0.46999998093E+01 0.  1.
</event>
<event>
 5   0  0.6337108E-03  0.8111997E+03  0.7818609E-02  0.9543946E-01
       -2   -1    0    0    0  501  0.00000000000E+00  0.00000000000E+00  0.13272186822E+03  0.13272186825E+03  0.25500000920E-02 0. -1.
        2   -1    0    0  501    0  0.00000000000E+00  0.00000000000E+00 -0.12395186494E+04  0.12395186494E+04  0.25500000920E-02 0.  1.
    10030    2    1    2    0    0  0.00000000000E+00  0.00000000000E+00 -0.11067967812E+04  0.13722405177E+04  0.81119968163E+03 0.  0.
        4    1    3    3  502    0  0.11628033893E+03 -0.23192110581E+03 -0.26000898889E+02  0.26074158891E+03  0.12699999809E+01 0.  1.
       -4    1    3    3    0  502 -0.11628033893E+03  0.23192110581E+03 -0.10807958823E+04  0.11114989288E+04  0.12699999809E+01 0. -1.
</event>
<event>
 5   0  0.6337108E-03  0.8016398E+03  0.7818609E-02  0.9557647E-01
        2   -1    0    0  501    0  0.00000000000E+00  0.00000000000E+00  0.16971326140E+04  0.16971326140E+04  0.25500000920E-02 0.  1.
       -2   -1    0    0    0  501  0.00000000000E+00  0.00000000000E+00 -0.94663539732E+02  0.94663539766E+02  0.25500000920E-02 0. -1.
    10030    2    1    2    0    0  0.00000000000E+00  0.00000000000E+00  0.16024690743E+04  0.17917961538E+04  0.80163977115E+03 0.  0.
        4    1    3    3  502    0 -0.13899670689E+03  0.18466551018E+03  0.15331731375E+04  0.15504976355E+04  0.12699999809E+01 0.  1.
       -4    1    3    3    0  502  0.13899670689E+03 -0.18466551018E+03  0.69295936777E+02  0.24129851830E+03  0.12699999809E+01 0. -1.
</event>
<event>
 5   0  0.6536209E-03  0.7985724E+03  0.7818609E-02  0.9562086E-01
       -2   -1    0    0    0  501  0.00000000000E+00  0.00000000000E+00  0.27616019562E+03  0.27616019563E+03  0.25500000920E-02 0.  1.
        2   -1    0    0  501    0  0.00000000000E+00  0.00000000000E+00 -0.57730792732E+03  0.57730792733E+03  0.25500000920E-02 0. -1.
    10030    2    1    2    0    0  0.00000000000E+00  0.00000000000E+00 -0.30114773171E+03  0.85346812296E+03  0.79857240160E+03 0.  0.
        3    1    3    3  502    0 -0.20218496036E+03  0.13822654751E+03 -0.48759921675E+03  0.54565405066E+03  0.10100000352E+00 0. -1.
       -3    1    3    3    0  502  0.20218496036E+03 -0.13822654751E+03  0.18645148504E+03  0.30781407230E+03  0.10100000352E+00 0.  1.
</event>
<event>
 5   0  0.3860515E-03  0.8001281E+03  0.7818609E-02  0.9559832E-01
        1   -1    0    0  501    0  0.00000000000E+00  0.00000000000E+00  0.21349628215E+04  0.21349628215E+04  0.50400001928E-02 0.  1.
       -1   -1    0    0    0  501  0.00000000000E+00  0.00000000000E+00 -0.74966768477E+02  0.74966768646E+02  0.50400001928E-02 0. -1.
    10030    2    1    2    0    0  0.00000000000E+00  0.00000000000E+00  0.20599960531E+04  0.22099295902E+04  0.80012814909E+03 0.  0.
        4    1    3    3  502    0 -0.10308070410E+03 -0.13584604188E+03  0.20295481781E+04  0.20367000758E+04  0.12699999809E+01 0.  1.
       -4    1    3    3    0  502  0.10308070410E+03  0.13584604188E+03  0.30447874920E+02  0.17322951434E+03  0.12699999809E+01 0. -1.
</event>
<event>
 5   0  0.6337108E-03  0.7906880E+03  0.7818609E-02  0.9573594E-01
       -2   -1    0    0    0  501  0.00000000000E+00  0.00000000000E+00  0.22342600717E+03  0.22342600718E+03  0.25500000920E-02 0.  1.
        2   -1    0    0  501    0  0.00000000000E+00  0.00000000000E+00 -0.69954652521E+03  0.69954652521E+03  0.25500000920E-02 0. -1.
    10030    2    1    2    0    0  0.00000000000E+00  0.00000000000E+00 -0.47612051804E+03  0.92297253240E+03  0.79068802183E+03 0.  0.
        4    1    3    3  502    0  0.23737869372E+03  0.29727212995E+03 -0.11246848393E+03  0.39669904998E+03  0.12699999809E+01 0.  1.
       -4    1    3    3    0  502 -0.23737869372E+03 -0.29727212995E+03 -0.36365203411E+03  0.52627348241E+03  0.12699999809E+01 0. -1.
</event>
<event>
 5   0  0.3860515E-03  0.7978195E+03  0.7818609E-02  0.9563179E-01
        1   -1    0    0  501    0  0.00000000000E+00  0.00000000000E+00  0.25036781038E+04  0.25036781038E+04  0.50400001928E-02 0. -1.
       -1   -1    0    0    0  501  0.00000000000E+00  0.00000000000E+00 -0.63558093873E+02  0.63558094073E+02  0.50400001928E-02 0.  1.
    10030    2    1    2    0    0  0.00000000000E+00  0.00000000000E+00  0.24401200099E+04  0.25672361979E+04  0.79781954905E+03 0.  0.
        4    1    3    3  502    0  0.14120060419E+03 -0.37211413313E+03  0.11336656039E+04  0.12015014994E+04  0.12699999809E+01 0. -1.
       -4    1    3    3    0  502 -0.14120060419E+03  0.37211413313E+03  0.13064544060E+04  0.13657346985E+04  0.12699999809E+01 0.  1.
</event>
<event>
 5   0  0.6256781E-03  0.7999739E+03  0.7818609E-02  0.9560055E-01
        2   -1    0    0  501    0  0.00000000000E+00  0.00000000000E+00  0.20959681270E+03  0.20959681272E+03  0.25500000920E-02 0. -1.
       -2   -1    0    0    0  501  0.00000000000E+00  0.00000000000E+00 -0.76332050061E+03  0.76332050061E+03  0.25500000920E-02 0.  1.
    10030    2    1    2    0    0  0.00000000000E+00  0.00000000000E+00 -0.55372368790E+03  0.97291731333E+03  0.79997385959E+03 0.  0.
        1    1    3    3  502    0  0.33134644707E+03 -0.84595430671E+02 -0.52918077378E+03  0.63006281134E+03  0.50400001928E-02 0.  1.
       -1    1    3    3    0  502 -0.33134644707E+03  0.84595430671E+02 -0.24542914122E+02  0.34285450199E+03  0.50400001928E-02 0. -1.
</event>
<event>
 5   0  0.5813850E-03  0.7983407E+03  0.7818609E-02  0.9562422E-01
       -2   -1    0    0    0  501  0.00000000000E+00  0.00000000000E+00  0.19307905376E+03  0.19307905378E+03  0.25500000920E-02 0.  1.
        2   -1    0    0  501    0  0.00000000000E+00  0.00000000000E+00 -0.82524215291E+03  0.82524215291E+03  0.25500000920E-02 0. -1.
    10030    2    1    2    0    0  0.00000000000E+00  0.00000000000E+00 -0.63216309915E+03  0.10183212067E+04  0.79834071428E+03 0.  0.
        5    1    3    3  502    0  0.57159325893E+02  0.33627556909E+02  0.18596719430E+03  0.19749402136E+03  0.46999998093E+01 0.  1.
       -5    1    3    3    0  502 -0.57159325893E+02 -0.33627556909E+02 -0.81813029345E+03  0.82082718533E+03  0.46999998093E+01 0. -1.
</event>
<event>
 5   0  0.3860515E-03  0.8010752E+03  0.7818609E-02  0.9558462E-01
       -1   -1    0    0    0  501  0.00000000000E+00  0.00000000000E+00  0.19950422454E+03  0.19950422461E+03  0.50400001928E-02 0.  1.
        1   -1    0    0  501    0  0.00000000000E+00  0.00000000000E+00 -0.80414525549E+03  0.80414525551E+03  0.50400001928E-02 0. -1.
    10030    2    1    2    0    0  0.00000000000E+00  0.00000000000E+00 -0.60464103095E+03  0.10036494801E+04  0.80107521659E+03 0.  0.
        4    1    3    3  502    0  0.24908856789E+03 -0.28697347974E+03 -0.14369473619E+03  0.40626184024E+03  0.12699999809E+01 0.  1.
       -4    1    3    3    0  502 -0.24908856789E+03  0.28697347974E+03 -0.46094629476E+03  0.59738763988E+03  0.12699999809E+01 0. -1.
</event>
<event>
 5   0  0.3714448E-03  0.8015995E+03  0.7818609E-02  0.9557705E-01
       -1   -1    0    0    0  501  0.00000000000E+00  0.00000000000E+00  0.14380222460E+03  0.14380222469E+03  0.50400001928E-02 0.  1.
        1   -1    0    0  501    0  0.00000000000E+00  0.00000000000E+00 -0.11170929000E+04  0.11170929000E+04  0.50400001928E-02 0. -1.
    10030    2    1    2    0    0  0.00000000000E+00  0.00000000000E+00 -0.97329067536E+03  0.12608951247E+04  0.80159951139E+03 0.  0.
        1    1    3    3  502    0 -0.42288623174E+02 -0.31348987757E+03 -0.87378938138E+03  0.92928580858E+03  0.50400001928E-02 0. -1.
       -1    1    3    3    0  502  0.42288623174E+02  0.31348987757E+03 -0.99501293985E+02  0.33160931609E+03  0.50400001928E-02 0.  1.
</event>
<event>
 5   0  0.3860515E-03  0.8012312E+03  0.7818609E-02  0.9558237E-01
       -1   -1    0    0    0  501  0.00000000000E+00  0.00000000000E+00  0.53555143774E+03  0.53555143777E+03  0.50400001928E-02 0. -1.
        1   -1    0    0  501    0  0.00000000000E+00  0.00000000000E+00 -0.29967774218E+03  0.29967774223E+03  0.50400001928E-02 0.  1.
    10030    2    1    2    0    0  0.00000000000E+00  0.00000000000E+00  0.23587369556E+03  0.83522917999E+03  0.80123116693E+03 0.  0.
        4    1    3    3  502    0  0.64175155905E+02  0.34445736994E+03 -0.84525662900E+02  0.36043797099E+03  0.12699999809E+01 0. -1.
       -4    1    3    3    0  502 -0.64175155905E+02 -0.34445736994E+03  0.32039935846E+03  0.47479120900E+03  0.12699999809E+01 0.  1.
</event>
<event>
 5   0  0.6337108E-03  0.8008703E+03  0.7818609E-02  0.9558758E-01
       -2   -1    0    0    0  501  0.00000000000E+00  0.00000000000E+00  0.19044113478E+03  0.19044113480E+03  0.25500000920E-02 0. -1.
        2   -1    0    0  501    0  0.00000000000E+00  0.00000000000E+00 -0.84198364804E+03  0.84198364805E+03  0.25500000920E-02 0.  1.
    10030    2    1    2    0    0  0.00000000000E+00  0.00000000000E+00 -0.65154251326E+03  0.10324247828E+04  0.80087033011E+03 0.  0.
        4    1    3    3  502    0  0.29717445210E+03 -0.10221827137E+03 -0.64568682606E+03  0.71810467220E+03  0.12699999809E+01 0.  1.
       -4    1    3    3    0  502 -0.29717445210E+03  0.10221827137E+03 -0.58556872032E+01  0.31432011065E+03  0.12699999809E+01 0. -1.
</event>
<event>
 5   0  0.3714448E-03  0.7933506E+03  0.7818609E-02  0.9569692E-01
       -1   -1    0    0    0  501  0.00000000000E+00  0.00000000000E+00  0.27017418815E+03  0.27017418819E+03  0.50400001928E-02 0.  1.
        1   -1    0    0  501    0  0.00000000000E+00  0.00000000000E+00 -0.58240677365E+03  0.58240677367E+03  0.50400001928E-02 0. -1.
    10030    2    1    2    0    0  0.00000000000E+00  0.00000000000E+00 -0.31223258551E+03  0.85258096187E+03  0.79335055876E+03 0.  0.
        1    1    3    3  502    0  0.12756557462E+03 -0.26261855880E+03  0.13246463554E+03  0.32060624284E+03  0.50400001928E-02 0.  1.
       -1    1    3    3    0  502 -0.12756557462E+03  0.26261855880E+03 -0.44469722105E+03  0.53197471903E+03  0.50400001928E-02 0. -1.
</event>
<event>
 5   0  0.6256781E-03  0.8114166E+03  0.7818609E-02  0.9543638E-01
        2   -1    0    0  501    0  0.00000000000E+00  0.00000000000E+00  0.17234574557E+03  0.17234574559E+03  0.25500000920E-02 0. -1.
       -2   -1    0    0    0  501  0.00000000000E+00  0.00000000000E+00 -0.95505233573E+03  0.95505233573E+03  0.25500000920E-02 0.  1.
    10030    2    1    2    0    0  0.00000000000E+00  0.00000000000E+00 -0.78270659016E+03  0.11273980813E+04  0.81141655609E+03 0.  0.
        1    1    3    3  502    0 -0.26805554634E+03  0.30447926007E+03 -0.38280965088E+03  0.55776753632E+03  0.50400001928E-02 0. -1.
       -1    1    3    3    0  502  0.26805554634E+03 -0.30447926007E+03 -0.39989693927E+03  0.56963054500E+03  0.50400001928E-02 0.  1.
</event>
<event>
 5   0  0.3753450E-03  0.8081415E+03  0.7818609E-02  0.9548307E-01
       -1   -1    0    0    0  501  0.00000000000E+00  0.00000000000E+00  0.15909652524E+03  0.15909652532E+03  0.50400001928E-02 0. -1.
        1   -1    0    0  501    0  0.00000000000E+00  0.00000000000E+00 -0.10262522246E+04  0.10262522246E+04  0.50400001928E-02 0.  1.
    10030    2    1    2    0    0  0.00000000000E+00  0.00000000000E+00 -0.86715569936E+03  0.11853487499E+04  0.80814148020E+03 0.  0.
        5    1    3    3  502    0 -0.21265955398E+03 -0.31475706479E+03 -0.63551693338E+03  0.74040526628E+03  0.46999998093E+01 0.  1.
       -5    1    3    3    0  502  0.21265955398E+03  0.31475706479E+03 -0.23163876598E+03  0.44494348364E+03  0.46999998093E+01 0. -1.
</event>
<event>
 5   0  0.3753450E-03  0.8011673E+03  0.7818609E-02  0.9558329E-01
       -1   -1    0    0    0  501  0.00000000000E+00  0.00000000000E+00  0.31265475757E+03  0.31265475761E+03  0.50400001928E-02 0. -1.
        1   -1    0    0  501    0  0.00000000000E+00  0.00000000000E+00 -0.51324110536E+03  0.51324110539E+03  0.50400001928E-02 0.  1.
    10030    2    1    2    0    0  0.00000000000E+00  0.00000000000E+00 -0.20058634779E+03  0.82589586299E+03  0.80116733183E+03 0.  0.
        5    1    3    3  502    0 -0.20883314353E+03  0.88773876108E+01 -0.45253423153E+03  0.49849715200E+03  0.46999998093E+01 0.  1.
       -5    1    3    3    0  502  0.20883314353E+03 -0.88773876108E+01  0.25194788373E+03  0.32739871100E+03  0.46999998093E+01 0. -1.
</event>
<event>
 5   0  0.6536209E-03  0.8000880E+03  0.7818609E-02  0.9559890E-01
        2   -1    0    0  501    0  0.00000000000E+00  0.00000000000E+00  0.70981514456E+03  0.70981514457E+03  0.25500000920E-02 0. -1.
       -2   -1    0    0    0  501  0.00000000000E+00  0.00000000000E+00 -0.22546040741E+03  0.22546040742E+03  0.25500000920E-02 0.  1.
    10030    2    1    2    0    0  0.00000000000E+00  0.00000000000E+00  0.48435473716E+03  0.93527555199E+03  0.80008802437E+03 0.  0.
        3    1    3    3  502    0 -0.39808232396E+03  0.17286269172E+02  0.20057056396E+03  0.44609070051E+03  0.10100000352E+00 0.  1.
       -3    1    3    3    0  502  0.39808232396E+03 -0.17286269172E+02  0.28378417320E+03  0.48918485148E+03  0.10100000352E+00 0. -1.
</event>
<event>
 5   0  0.3714448E-03  0.7905884E+03  0.7818609E-02  0.9573741E-01
       -1   -1    0    0    0  501  0.00000000000E+00  0.00000000000E+00  0.21240290265E+03  0.21240290271E+03  0.50400001928E-02 0. -1.
        1   -1    0    0  501    0  0.00000000000E+00  0.00000000000E+00 -0.73566555567E+03  0.73566555568E+03  0.50400001928E-02 0.  1.
    10030    2    1    2    0    0  0.00000000000E+00  0.00000000000E+00 -0.52326265302E+03  0.94806845839E+03  0.79058838706E+03 0.  0.
        1    1    3    3  502    0  0.73129340730E+02 -0.13277668624E+03 -0.69942721523E+03  0.71566471082E+03  0.50400001928E-02 0.  1.
       -1    1    3    3    0  502 -0.73129340730E+02  0.13277668624E+03  0.17616456221E+03  0.23240374758E+03  0.50400001928E-02 0. -1.
</event>
<event>
 5   0  0.3753450E-03  0.7946729E+03  0.7818609E-02  0.9567760E-01
       -1   -1    0    0    0  501  0.00000000000E+00  0.00000000000E+00  0.13223053649E+03  0.13223053659E+03  0.50400001928E-02 0.  1.
        1   -1    0    0  501    0  0.00000000000E+00  0.00000000000E+00 -0.11939469426E+04  0.11939469426E+04  0.50400001928E-02 0. -1.
    10030    2    1    2    0    0  0.00000000000E+00  0.00000000000E+00 -0.10617164061E+04  0.13261774792E+04  0.79467287567E+03 0.  0.
        5    1    3    3  502    0 -0.19541315177E+03 -0.15678103826E+03 -0.10454645198E+04  0.10750742979E+04  0.46999998093E+01 0. -1.
       -5    1    3    3    0  502  0.19541315177E+03  0.15678103826E+03 -0.16251886285E+02  0.25110318127E+03  0.46999998093E+01 0.  1.
</event>
<event>
 5   0  0.2478000E-03  0.7906050E+03  0.7818609E-02  0.9573716E-01
       -3   -1    0    0    0  501  0.00000000000E+00  0.00000000000E+00  0.74460496749E+03  0.74460497434E+03  0.10100000352E+00 0. -1.
        3   -1    0    0  501    0  0.00000000000E+00  0.00000000000E+00 -0.20986166166E+03  0.20986168596E+03  0.10100000352E+00 0.  1.
    10030    2    1    2    0    0  0.00000000000E+00  0.00000000000E+00  0.53474330584E+03  0.95446666030E+03  0.79060495982E+03 0.  0.
        4    1    3    3  502    0  0.70602922469E+02 -0.35269746886E+03  0.69431767977E+02  0.36633681293E+03  0.12699999809E+01 0.  1.
       -4    1    3    3    0  502 -0.70602922469E+02  0.35269746886E+03  0.46531153786E+03  0.58812984737E+03  0.12699999809E+01 0. -1.
</event>
<event>
 5   0  0.5813850E-03  0.8000919E+03  0.7818609E-02  0.9559884E-01
        2   -1    0    0  501    0  0.00000000000E+00  0.00000000000E+00  0.40076753159E+03  0.40076753159E+03  0.25500000920E-02 0. -1.
       -2   -1    0    0    0  501  0.00000000000E+00  0.00000000000E+00 -0.39932567965E+03  0.39932567965E+03  0.25500000920E-02 0.  1.
    10030    2    1    2    0    0  0.00000000000E+00  0.00000000000E+00  0.14418519411E+01  0.80009321125E+03  0.80009191206E+03 0.  0.
        5    1    3    3  502    0 -0.21614585033E+03  0.18523788264E+03  0.28175976966E+03  0.40055306712E+03  0.46999998093E+01 0. -1.
       -5    1    3    3    0  502  0.21614585033E+03 -0.18523788264E+03 -0.28031791772E+03  0.39954014413E+03  0.46999998093E+01 0.  1.
</event>
<event>
 5   0  0.3714448E-03  0.7997748E+03  0.7818609E-02  0.9560343E-01
        1   -1    0    0  501    0  0.00000000000E+00  0.00000000000E+00  0.27914501648E+03  0.27914501652E+03  0.50400001928E-02 0. -1.
       -1   -1    0    0    0  501  0.00000000000E+00  0.00000000000E+00 -0.57285616089E+03  0.57285616091E+03  0.50400001928E-02 0.  1.
    10030    2    1    2    0    0  0.00000000000E+00  0.00000000000E+00 -0.29371114441E+03  0.85200117744E+03  0.79977482456E+03 0.  0.
        1    1    3    3  502    0  0.25259054544E+03  0.30158475701E+03 -0.22333940836E+03  0.45236693144E+03  0.50400001928E-02 0.  1.
       -1    1    3    3    0  502 -0.25259054544E+03 -0.30158475701E+03 -0.70371736054E+02  0.39963424599E+03  0.50400001928E-02 0. -1.
</event>
<event>
 5   0  0.3753450E-03  0.8016424E+03  0.7818609E-02  0.9557643E-01
        1   -1    0    0  501    0  0.00000000000E+00  0.00000000000E+00  0.12227537501E+03  0.12227537511E+03  0.50400001928E-02 0. -1.
       -1   -1    0    0    0  501  0.00000000000E+00  0.00000000000E+00 -0.13139002286E+04  0.13139002287E+04  0.50400001928E-02 0.  1.
    10030    2    1    2    0    0  0.00000000000E+00  0.00000000000E+00 -0.11916248536E+04  0.14361756038E+04  0.80164242218E+03 0.  0.
        5    1    3    3  502    0 -0.12077047493E+03 -0.35508198991E+03 -0.84896443168E+03  0.92813330046E+03  0.46999998093E+01 0.  1.
       -5    1    3    3    0  502  0.12077047493E+03  0.35508198991E+03 -0.34266042196E+03  0.50804230330E+03  0.46999998093E+01 0. -1.
</event>
<event>
 5   0  0.3627496E-03  0.8044310E+03  0.7818609E-02  0.9553625E-01
        1   -1    0    0  501    0  0.00000000000E+00  0.00000000000E+00  0.62939691623E+03  0.62939691625E+03  0.50400001928E-02 0. -1.
       -1   -1    0    0    0  501  0.00000000000E+00  0.00000000000E+00 -0.25703545466E+03  0.25703545471E+03  0.50400001928E-02 0.  1.
    10030    2    1    2    0    0  0.00000000000E+00  0.00000000000E+00  0.37236146157E+03  0.88643237096E+03  0.80443103509E+03 0.  0.
        3    1    3    3  502    0  0.13345874262E+02  0.17151507274E+03  0.58680991951E+03  0.61150750149E+03  0.10100000352E+00 0. -1.
       -3    1    3    3    0  502 -0.13345874262E+02 -0.17151507274E+03 -0.21444845794E+03  0.27492486947E+03  0.10100000352E+00 0.  1.
</event>
<event>
 5   0  0.6337108E-03  0.7985101E+03  0.7818609E-02  0.9562176E-01
       -2   -1    0    0    0  501  0.00000000000E+00  0.00000000000E+00  0.10622671795E+03  0.10622671798E+03  0.25500000920E-02 0.  1.
        2   -1    0    0  501    0  0.00000000000E+00  0.00000000000E+00 -0.15006074970E+04  0.15006074970E+04  0.25500000920E-02 0. -1.
    10030    2    1    2    0    0  0.00000000000E+00  0.00000000000E+00 -0.13943807791E+04  0.16068342150E+04  0.79851013609E+03 0.  0.
        4    1    3    3  502    0  0.21538453726E+02  0.54561261081E+02  0.97504204046E+02  0.11379595294E+03  0.12699999809E+01 0.  1.
       -4    1    3    3    0  502 -0.21538453726E+02 -0.54561261081E+02 -0.14918849831E+04  0.14930382621E+04  0.12699999809E+01 0. -1.
</event>
<event>
 5   0  0.3671128E-03  0.8007812E+03  0.7818609E-02  0.9558887E-01
       -1   -1    0    0    0  501  0.00000000000E+00  0.00000000000E+00  0.21985601657E+03  0.21985601662E+03  0.50400001928E-02 0. -1.
        1   -1    0    0  501    0  0.00000000000E+00  0.00000000000E+00 -0.72917092346E+03  0.72917092348E+03  0.50400001928E-02 0.  1.
    10030    2    1    2    0    0  0.00000000000E+00  0.00000000000E+00 -0.50931490689E+03  0.94902694010E+03  0.80078115528E+03 0.  0.
        2    1    3    3  502    0  0.11045935215E+03 -0.21754904336E+03 -0.63089312969E+03  0.67642811580E+03  0.25500000920E-02 0.  1.
       -2    1    3    3    0  502 -0.11045935215E+03  0.21754904336E+03  0.12157822280E+03  0.27259882430E+03  0.25500000920E-02 0. -1.
</event>
<event>
 5   0  0.3753450E-03  0.7979145E+03  0.7818609E-02  0.9563041E-01
       -1   -1    0    0    0  501  0.00000000000E+00  0.00000000000E+00  0.19923189869E+03  0.19923189876E+03  0.50400001928E-02 0. -1.
        1   -1    0    0  501    0  0.00000000000E+00  0.00000000000E+00 -0.79890267346E+03  0.79890267348E+03  0.50400001928E-02 0.  1.
    10030    2    1    2    0    0  0.00000000000E+00  0.00000000000E+00 -0.59967077477E+03  0.99813457223E+03  0.79791452310E+03 0.  0.
        5    1    3    3  502    0  0.34141217109E+03 -0.10121522969E+03 -0.74883627093E+02  0.36391817884E+03  0.46999998093E+01 0. -1.
       -5    1    3    3    0  502 -0.34141217109E+03  0.10121522969E+03 -0.52478714767E+03  0.63421639339E+03  0.46999998093E+01 0.  1.
</event>
<event>
 5   0  0.6256781E-03  0.7983733E+03  0.7818609E-02  0.9562375E-01
       -2   -1    0    0    0  501  0.00000000000E+00  0.00000000000E+00  0.60655707761E+03  0.60655707762E+03  0.25500000920E-02 0. -1.
        2   -1    0    0  501    0  0.00000000000E+00  0.00000000000E+00 -0.26271226047E+03  0.26271226048E+03  0.25500000920E-02 0.  1.
    10030    2    1    2    0    0  0.00000000000E+00  0.00000000000E+00  0.34384481714E+03  0.86926933810E+03  0.79837329858E+03 0.  0.
        1    1    3    3  502    0  0.24331410964E+03 -0.30064705428E+03  0.27948562552E+03  0.47718195910E+03  0.50400001928E-02 0. -1.
       -1    1    3    3    0  502 -0.24331410964E+03  0.30064705428E+03  0.64359191622E+02  0.39208737900E+03  0.50400001928E-02 0.  1.
</event>
<event>
 5   0  0.6337108E-03  0.8017052E+03  0.7818609E-02  0.9557552E-01
        2   -1    0    0  501    0  0.00000000000E+00  0.00000000000E+00  0.16032053992E+03  0.16032053994E+03  0.25500000920E-02 0.  1.
       -2   -1    0    0    0  501  0.00000000000E+00  0.00000000000E+00 -0.10022596415E+04  0.10022596415E+04  0.25500000920E-02 0. -1.
    10030    2    1    2    0    0  0.00000000000E+00  0.00000000000E+00 -0.84193910160E+03  0.11625801815E+04  0.80170519989E+03 0.  0.
        4    1    3    3  502    0  0.13422993477E+03  0.14259274828E+03 -0.92816595997E+03  0.94860109077E+03  0.12699999809E+01 0. -1.
       -4    1    3    3    0  502 -0.13422993477E+03 -0.14259274828E+03  0.86226858376E+02  0.21397909070E+03  0.12699999809E+01 0.  1.
</event>
<event>
 5   0  0.6337108E-03  0.7971533E+03  0.7818609E-02  0.9564147E-01
        2   -1    0    0  501    0  0.00000000000E+00  0.00000000000E+00  0.37373045675E+03  0.37373045676E+03  0.25500000920E-02 0.  1.
       -2   -1    0    0    0  501  0.00000000000E+00  0.00000000000E+00 -0.42507464052E+03  0.42507464053E+03  0.25500000920E-02 0. -1.
    10030    2    1    2    0    0  0.00000000000E+00  0.00000000000E+00 -0.51344183771E+02  0.79880509729E+03  0.79715328403E+03 0.  0.
        4    1    3    3  502    0 -0.33039607404E+03 -0.23731976713E+01  0.19771253220E+03  0.38504422616E+03  0.12699999809E+01 0.  1.
       -4    1    3    3    0  502  0.33039607404E+03  0.23731976713E+01 -0.24905671597E+03  0.41376087113E+03  0.12699999809E+01 0. -1.
</event>
<event>
 5   0  0.6153659E-03  0.7992877E+03  0.7818609E-02  0.9561049E-01
        2   -1    0    0  501    0  0.00000000000E+00  0.00000000000E+00  0.27212202536E+03  0.27212202537E+03  0.25500000920E-02 0. -1.
       -2   -1    0    0    0  501  0.00000000000E+00  0.00000000000E+00 -0.58692499598E+03  0.58692499598E+03  0.25500000920E-02 0.  1.
    10030    2    1    2    0    0  0.00000000000E+00  0.00000000000E+00 -0.31480297062E+03  0.85904702135E+03  0.79928772953E+03 0.  0.
        2    1    3    3  502    0 -0.80352653426E+02  0.87379473756E+02 -0.56753902219E+03  0.57982088877E+03  0.25500000920E-02 0.  1.
       -2    1    3    3    0  502  0.80352653426E+02 -0.87379473756E+02  0.25273605157E+03  0.27922613258E+03  0.25500000920E-02 0. -1.
</event>
<event>
 5   0  0.6536209E-03  0.8009448E+03  0.7818609E-02  0.9558651E-01
        2   -1    0    0  501    0  0.00000000000E+00  0.00000000000E+00  0.63430230745E+03  0.63430230745E+03  0.25500000920E-02 0. -1.
       -2   -1    0    0    0  501  0.00000000000E+00  0.00000000000E+00 -0.25284181058E+03  0.25284181059E+03  0.25500000920E-02 0.  1.
    10030    2    1    2    0    0  0.00000000000E+00  0.00000000000E+00  0.38146049687E+03  0.88714411804E+03  0.80094480179E+03 0.  0.
        3    1    3    3  502    0 -0.18871259713E+03 -0.83631093178E+02 -0.18938189845E+03  0.28012875205E+03  0.10100000352E+00 0.  1.
       -3    1    3    3    0  502  0.18871259713E+03  0.83631093178E+02  0.57084239532E+03  0.60701536600E+03  0.10100000352E+00 0. -1.
</event>
<event>
 5   0  0.3627496E-03  0.7964444E+03  0.7818609E-02  0.9565178E-01
       -1   -1    0    0    0  501  0.00000000000E+00  0.00000000000E+00  0.19147903885E+03  0.19147903892E+03  0.50400001928E-02 0.  1.
        1   -1    0    0  501    0  0.00000000000E+00  0.00000000000E+00 -0.82818952481E+03  0.82818952482E+03  0.50400001928E-02 0. -1.
    10030    2    1    2    0    0  0.00000000000E+00  0.00000000000E+00 -0.63671048596E+03  0.10196685637E+04  0.79644443432E+03 0.  0.
        3    1    3    3  502    0  0.36457613014E+03  0.73439547374E+02 -0.50063973787E+03  0.62365798248E+03  0.10100000352E+00 0.  1.
       -3    1    3    3    0  502 -0.36457613014E+03 -0.73439547374E+02 -0.13607074809E+03  0.39601058126E+03  0.10100000352E+00 0. -1.
</event>
<event>
 5   0  0.3860515E-03  0.8152089E+03  0.7818609E-02  0.9538260E-01
        1   -1    0    0  501    0  0.00000000000E+00  0.00000000000E+00  0.39782693486E+03  0.39782693489E+03  0.50400001928E-02 0. -1.
       -1   -1    0    0    0  501  0.00000000000E+00  0.00000000000E+00 -0.41762225295E+03  0.41762225298E+03  0.50400001928E-02 0.  1.
    10030    2    1    2    0    0  0.00000000000E+00  0.00000000000E+00 -0.19795318085E+02  0.81544918787E+03  0.81520888328E+03 0.  0.
        4    1    3    3  502    0 -0.24320504371E+03  0.29105829324E+03 -0.15919360510E+03  0.41134880595E+03  0.12699999809E+01 0. -1.
       -4    1    3    3    0  502  0.24320504371E+03 -0.29105829324E+03  0.13939828702E+03  0.40410038193E+03  0.12699999809E+01 0.  1.
</event>
<event>
 5   0  0.6536209E-03  0.8011661E+03  0.7818609E-02  0.9558331E-01
        2   -1    0    0  501    0  0.00000000000E+00  0.00000000000E+00  0.67827622579E+03  0.67827622579E+03  0.25500000920E-02 0.  1.
       -2   -1    0    0    0  501  0.00000000000E+00  0.00000000000E+00 -0.23658030814E+03  0.23658030815E+03  0.25500000920E-02 0. -1.
    10030    2    1    2    0    0  0.00000000000E+00  0.00000000000E+00  0.44169591765E+03  0.91485653394E+03  0.80116614634E+03 0.  0.
        3    1    3    3  502    0 -0.28191058450E+03 -0.24742071072E+03  0.60264112725E+02  0.37989782736E+03  0.10100000352E+00 0. -1.
       -3    1    3    3    0  502  0.28191058450E+03  0.24742071072E+03  0.38143180492E+03  0.53495870659E+03  0.10100000352E+00 0.  1.
</event>
<event>
 5   0  0.6153659E-03  0.7995719E+03  0.7818609E-02  0.9560637E-01
        2   -1    0    0  501    0  0.00000000000E+00  0.00000000000E+00  0.10928855155E+04  0.10928855155E+04  0.25500000920E-02 0. -1.
       -2   -1    0    0    0  501  0.00000000000E+00  0.00000000000E+00 -0.14624477563E+03  0.14624477565E+03  0.25500000920E-02 0.  1.
    10030    2    1    2    0    0  0.00000000000E+00  0.00000000000E+00  0.94664073990E+03  0.12391302912E+04  0.79957187800E+03 0.  0.
        2    1    3    3  502    0  0.58886529531E+02  0.28083765068E+03  0.41914369408E+02  0.28999004081E+03  0.25500000920E-02 0.  1.
       -2    1    3    3    0  502 -0.58886529531E+02 -0.28083765068E+03  0.90472637049E+03  0.94914025037E+03  0.25500000920E-02 0. -1.
</event>
<event>
 5   0  0.3714448E-03  0.7908909E+03  0.7818609E-02  0.9573296E-01
        1   -1    0    0  501    0  0.00000000000E+00  0.00000000000E+00  0.42036075129E+03  0.42036075132E+03  0.50400001928E-02 0. -1.
       -1   -1    0    0    0  501  0.00000000000E+00  0.00000000000E+00 -0.37200693751E+03  0.37200693754E+03  0.50400001928E-02 0.  1.
    10030    2    1    2    0    0  0.00000000000E+00  0.00000000000E+00  0.48353813781E+02  0.79236768886E+03  0.79089092993E+03 0.  0.
        1    1    3    3  502    0  0.36565744159E+03 -0.69661541985E+02  0.15791406150E+03  0.40434508265E+03  0.50400001928E-02 0. -1.
       -1    1    3    3    0  502 -0.36565744159E+03  0.69661541985E+02 -0.10956024772E+03  0.38802260621E+03  0.50400001928E-02 0.  1.
</event>
<event>
 5   0  0.6256781E-03  0.7995405E+03  0.7818609E-02  0.9560682E-01
        2   -1    0    0  501    0  0.00000000000E+00  0.00000000000E+00  0.36732155141E+03  0.36732155142E+03  0.25500000920E-02 0. -1.
       -2   -1    0    0    0  501  0.00000000000E+00  0.00000000000E+00 -0.43508545268E+03  0.43508545269E+03  0.25500000920E-02 0.  1.
    10030    2    1    2    0    0  0.00000000000E+00  0.00000000000E+00 -0.67763901272E+02  0.80240700411E+03  0.79954052676E+03 0.  0.
        1    1    3    3  502    0  0.22253435668E+03 -0.23351546885E+03 -0.27087524241E+03  0.42121777155E+03  0.50400001928E-02 0.  1.
       -1    1    3    3    0  502 -0.22253435668E+03  0.23351546885E+03  0.20311134113E+03  0.38118923256E+03  0.50400001928E-02 0. -1.
</event>
<event>
 5   0  0.3671128E-03  0.7840774E+03  0.7818609E-02  0.9583355E-01
       -1   -1    0    0    0  501  0.00000000000E+00  0.00000000000E+00  0.63141795218E+03  0.63141795220E+03  0.50400001928E-02 0. -1.
        1   -1    0    0  501    0  0.00000000000E+00  0.00000000000E+00 -0.24341144530E+03  0.24341144535E+03  0.50400001928E-02 0.  1.
    10030    2    1    2    0    0  0.00000000000E+00  0.00000000000E+00  0.38800650688E+03  0.87482939755E+03  0.78407743586E+03 0.  0.
        2    1    3    3  502    0 -0.45930988392E+02  0.13045177038E+02 -0.24015511891E+03  0.24485569931E+03  0.25500000920E-02 0.  1.
       -2    1    3    3    0  502  0.45930988392E+02 -0.13045177038E+02  0.62816162580E+03  0.62997369823E+03  0.25500000920E-02 0. -1.
</event>
<event>
 5   0  0.5813850E-03  0.8005772E+03  0.7818609E-02  0.9559182E-01
       -2   -1    0    0    0  501  0.00000000000E+00  0.00000000000E+00  0.33674736782E+03  0.33674736783E+03  0.25500000920E-02 0. -1.
        2   -1    0    0  501    0  0.00000000000E+00  0.00000000000E+00 -0.47581951849E+03  0.47581951850E+03  0.25500000920E-02 0.  1.
    10030    2    1    2    0    0  0.00000000000E+00  0.00000000000E+00 -0.13907215067E+03  0.81256688633E+03  0.80057721781E+03 0.  0.
        5    1    3    3  502    0 -0.38205989188E+03  0.66675688320E+02  0.30907979468E+02  0.38909227902E+03  0.46999998093E+01 0.  1.
       -5    1    3    3    0  502  0.38205989188E+03 -0.66675688320E+02 -0.16998013013E+03  0.42347460731E+03  0.46999998093E+01 0. -1.
</event>
<event>
 5   0  0.2478000E-03  0.7992403E+03  0.7818609E-02  0.9561117E-01
       -4   -1    0    0    0  501  0.00000000000E+00  0.00000000000E+00  0.51902422158E+03  0.51902577536E+03  0.12699999809E+01 0.  1.
        4   -1    0    0  501    0  0.00000000000E+00  0.00000000000E+00 -0.30768221721E+03  0.30768483825E+03  0.12699999809E+01 0. -1.
    10030    2    1    2    0    0  0.00000000000E+00  0.00000000000E+00  0.21134200437E+03  0.82671061361E+03  0.79924026165E+03 0.  0.
        5    1    3    3  502    0 -0.29407623832E+03 -0.94170751470E+02  0.36801233118E+03  0.48042078460E+03  0.46999998093E+01 0.  1.
       -5    1    3    3    0  502  0.29407623832E+03  0.94170751470E+02 -0.15667032681E+03  0.34628982901E+03  0.46999998093E+01 0. -1.
</event>
<event>
 5   0  0.3714448E-03  0.7928291E+03  0.7818609E-02  0.9570455E-01
       -1   -1    0    0    0  501  0.00000000000E+00  0.00000000000E+00  0.83351329338E+02  0.83351329490E+02  0.50400001928E-02 0. -1.
        1   -1    0    0  501    0  0.00000000000E+00  0.00000000000E+00 -0.18853266783E+04  0.18853266783E+04  0.50400001928E-02 0.  1.
    10030    2    1    2    0    0  0.00000000000E+00  0.00000000000E+00 -0.18019753489E+04  0.19686780078E+04  0.79282907370E+03 0.  0.
        1    1    3    3  502    0  0.34147722122E+03 -0.16661455874E+02 -0.13992212866E+04  0.14403834578E+04  0.50400001928E-02 0.  1.
       -1    1    3    3    0  502 -0.34147722122E+03  0.16661455874E+02 -0.40275406232E+03  0.52829454991E+03  0.50400001928E-02 0. -1.
</event>
<event>
 5   0  0.3753450E-03  0.7990138E+03  0.7818609E-02  0.9561446E-01
        1   -1    0    0  501    0  0.00000000000E+00  0.00000000000E+00  0.10431008250E+04  0.10431008250E+04  0.50400001928E-02 0. -1.
       -1   -1    0    0    0  501  0.00000000000E+00  0.00000000000E+00 -0.15301086840E+03  0.15301086849E+03  0.50400001928E-02 0.  1.
    10030    2    1    2    0    0  0.00000000000E+00  0.00000000000E+00  0.89008995660E+03  0.11961116935E+04  0.79901379994E+03 0.  0.
        5    1    3    3  502    0 -0.29966281693E+03 -0.24047796662E+03  0.60873203798E+03  0.71986404296E+03  0.46999998093E+01 0. -1.
       -5    1    3    3    0  502  0.29966281693E+03  0.24047796662E+03  0.28135791861E+03  0.47624765054E+03  0.46999998093E+01 0.  1.
</event>
<event>
 5   0  0.6256781E-03  0.8007718E+03  0.7818609E-02  0.9558901E-01
       -2   -1    0    0    0  501  0.00000000000E+00  0.00000000000E+00  0.28908178063E+03  0.28908178064E+03  0.25500000920E-02 0. -1.
        2   -1    0    0  501    0  0.00000000000E+00  0.00000000000E+00 -0.55454506903E+03  0.55454506903E+03  0.25500000920E-02 0.  1.
    10030    2    1    2    0    0  0.00000000000E+00  0.00000000000E+00 -0.26546328840E+03  0.84362684967E+03  0.80077181769E+03 0.  0.
        1    1    3    3  502    0  0.16252003286E+03  0.26881026925E+03  0.12882328082E+03  0.33951017605E+03  0.50400001928E-02 0. -1.
       -1    1    3    3    0  502 -0.16252003286E+03 -0.26881026925E+03 -0.39428656922E+03  0.50411667362E+03  0.50400001928E-02 0.  1.
</event>
<event>
 5   0  0.3627496E-03  0.7983140E+03  0.7818609E-02  0.9562461E-01
       -1   -1    0    0    0  501  0.00000000000E+00  0.00000000000E+00  0.16527377101E+03  0.16527377109E+03  0.50400001928E-02 0. -1.
        1   -1    0    0  501    0  0.00000000000E+00  0.00000000000E+00 -0.96401452548E+03  0.96401452549E+03  0.50400001928E-02 0.  1.
    10030    2    1    2    0    0  0.00000000000E+00  0.00000000000E+00 -0.79874075447E+03  0.11292882966E+04  0.79831401338E+03 0.  0.
        3    1    3    3  502    0 -0.20564820047E+03  0.14357963625E+03  0.39882549586E+02  0.25396244263E+03  0.10100000352E+00 0. -1.
       -3    1    3    3    0  502  0.20564820047E+03 -0.14357963625E+03 -0.83862330405E+03  0.87532585396E+03  0.10100000352E+00 0.  1.
</event>
<event>
 5   0  0.6153659E-03  0.8033290E+03  0.7818609E-02  0.9555211E-01
       -2   -1    0    0    0  501  0.00000000000E+00  0.00000000000E+00  0.20306449492E+03  0.20306449493E+03  0.25500000920E-02 0. -1.
        2   -1    0    0  501    0  0.00000000000E+00  0.00000000000E+00 -0.79449813988E+03  0.79449813988E+03  0.25500000920E-02 0.  1.
    10030    2    1    2    0    0  0.00000000000E+00  0.00000000000E+00 -0.59143364496E+03  0.99756263481E+03  0.80332898241E+03 0.  0.
        2    1    3    3  502    0  0.23967311211E+03 -0.20228536453E+03  0.15899193934E+02  0.31403081655E+03  0.25500000920E-02 0. -1.
       -2    1    3    3    0  502 -0.23967311211E+03  0.20228536453E+03 -0.60733283889E+03  0.68353181826E+03  0.25500000920E-02 0.  1.
</event>
<event>
 5   0  0.3860515E-03  0.8003850E+03  0.7818609E-02  0.9559460E-01
       -1   -1    0    0    0  501  0.00000000000E+00  0.00000000000E+00  0.14649344298E+03  0.14649344307E+03  0.50400001928E-02 0. -1.
        1   -1    0    0  501    0  0.00000000000E+00  0.00000000000E+00 -0.10932505345E+04  0.10932505345E+04  0.50400001928E-02 0.  1.
    10030    2    1    2    0    0  0.00000000000E+00  0.00000000000E+00 -0.94675709151E+03  0.12397439776E+04  0.80038499462E+03 0.  0.
        4    1    3    3  502    0  0.71741971216E+02  0.36544703869E+03 -0.70025370069E+03  0.79313006925E+03  0.12699999809E+01 0.  1.
       -4    1    3    3    0  502 -0.71741971216E+02 -0.36544703869E+03 -0.24650339082E+03  0.44661390833E+03  0.12699999809E+01 0. -1.
</event>
<event>
 5   0  0.3753450E-03  0.7951565E+03  0.7818609E-02  0.9567054E-01
       -1   -1    0    0    0  501  0.00000000000E+00  0.00000000000E+00  0.13451013073E+03  0.13451013083E+03  0.50400001928E-02 0.  1.
        1   -1    0    0  501    0  0.00000000000E+00  0.00000000000E+00 -0.11751417418E+04  0.11751417418E+04  0.50400001928E-02 0. -1.
    10030    2    1    2    0    0  0.00000000000E+00  0.00000000000E+00 -0.10406316111E+04  0.13096518726E+04  0.79515651136E+03 0.  0.
        5    1    3    3  502    0 -0.26873663538E+03 -0.25989194075E+03 -0.29761124625E+03  0.47786791476E+03  0.46999998093E+01 0.  1.
       -5    1    3    3    0  502  0.26873663538E+03  0.25989194075E+03 -0.74302036482E+03  0.83178395789E+03  0.46999998093E+01 0. -1.
</event>
<event>
 5   0  0.5813850E-03  0.8314251E+03  0.7818609E-02  0.9515612E-01
        2   -1    0    0  501    0  0.00000000000E+00  0.00000000000E+00  0.16780693290E+03  0.16780693292E+03  0.25500000920E-02 0.  1.
       -2   -1    0    0    0  501  0.00000000000E+00  0.00000000000E+00 -0.10298556920E+04  0.10298556920E+04  0.25500000920E-02 0. -1.
    10030    2    1    2    0    0  0.00000000000E+00  0.00000000000E+00 -0.86204875910E+03  0.11976626249E+04  0.83142510191E+03 0.  0.
        5    1    3    3  502    0 -0.24847679843E+03 -0.32435193173E+03 -0.32084836151E+03  0.51952926391E+03  0.46999998093E+01 0.  1.
       -5    1    3    3    0  502  0.24847679843E+03  0.32435193173E+03 -0.54120039759E+03  0.67813336102E+03  0.46999998093E+01 0. -1.
</event>
<event>
 5   0  0.3753450E-03  0.8049474E+03  0.7818609E-02  0.9552883E-01
        1   -1    0    0  501    0  0.00000000000E+00  0.00000000000E+00  0.21023331611E+04  0.21023331611E+04  0.50400001928E-02 0. -1.
       -1   -1    0    0    0  501  0.00000000000E+00  0.00000000000E+00 -0.77050151583E+02  0.77050151748E+02  0.50400001928E-02 0.  1.
    10030    2    1    2    0    0  0.00000000000E+00  0.00000000000E+00  0.20252830095E+04  0.21793833128E+04  0.80494742418E+03 0.  0.
        5    1    3    3  502    0  0.54262859381E+02 -0.32921136196E+03  0.16219064346E+04  0.16558765508E+04  0.46999998093E+01 0. -1.
       -5    1    3    3    0  502 -0.54262859381E+02  0.32921136196E+03  0.40337657485E+03  0.52350676203E+03  0.46999998093E+01 0.  1.
</event>
<event>
 5   0  0.2478000E-03  0.7873663E+03  0.7818609E-02  0.9578486E-01
        4   -1    0    0  501    0  0.00000000000E+00  0.00000000000E+00  0.79019544747E+03  0.79019646804E+03  0.12699999809E+01 0.  1.
       -4   -1    0    0    0  501  0.00000000000E+00  0.00000000000E+00 -0.19613359740E+03  0.19613770909E+03  0.12699999809E+01 0. -1.
    10030    2    1    2    0    0  0.00000000000E+00  0.00000000000E+00  0.59406185007E+03  0.98633417713E+03  0.78736625993E+03 0.  0.
        3    1    3    3  502    0  0.36550648298E+03  0.10895889571E+03  0.17480838452E+03  0.41955334769E+03  0.10100000352E+00 0. -1.
       -3    1    3    3    0  502 -0.36550648298E+03 -0.10895889571E+03  0.41925346555E+03  0.56678082945E+03  0.10100000352E+00 0.  1.
</event>
<event>
 5   0  0.6256781E-03  0.8000565E+03  0.7818609E-02  0.9559935E-01
        2   -1    0    0  501    0  0.00000000000E+00  0.00000000000E+00  0.46728824022E+03  0.46728824022E+03  0.25500000920E-02 0. -1.
       -2   -1    0    0    0  501  0.00000000000E+00  0.00000000000E+00 -0.34244946730E+03  0.34244946731E+03  0.25500000920E-02 0.  1.
    10030    2    1    2    0    0  0.00000000000E+00  0.00000000000E+00  0.12483877292E+03  0.80973770753E+03  0.80005652036E+03 0.  0.
        1    1    3    3  502    0 -0.42790532094E+02 -0.18028685591E+03 -0.29639595053E+03  0.34954962390E+03  0.50400001928E-02 0.  1.
       -1    1    3    3    0  502  0.42790532094E+02  0.18028685591E+03  0.42123472345E+03  0.46018808363E+03  0.50400001928E-02 0. -1.
</event>
<event>
 5   0  0.3860515E-03  0.8004802E+03  0.7818609E-02  0.9559322E-01
       -1   -1    0    0    0  501  0.00000000000E+00  0.00000000000E+00  0.13905930526E+03  0.13905930535E+03  0.50400001928E-02 0. -1.
        1   -1    0    0  501    0  0.00000000000E+00  0.00000000000E+00 -0.11519699588E+04  0.11519699588E+04  0.50400001928E-02 0.  1.
    10030    2    1    2    0    0  0.00000000000E+00  0.00000000000E+00 -0.10129106535E+04  0.12910292641E+04  0.80048021140E+03 0.  0.
        4    1    3    3  502    0 -0.19939426324E+03  0.24782000354E+03 -0.89826633842E+03  0.95292017189E+03  0.12699999809E+01 0.  1.
       -4    1    3    3    0  502  0.19939426324E+03 -0.24782000354E+03 -0.11464431508E+03  0.33810909223E+03  0.12699999809E+01 0. -1.
</event>
<event>
 5   0  0.6256781E-03  0.7959563E+03  0.7818609E-02  0.9565889E-01
        2   -1    0    0  501    0  0.00000000000E+00  0.00000000000E+00  0.77381820556E+03  0.77381820556E+03  0.25500000920E-02 0.  1.
       -2   -1    0    0    0  501  0.00000000000E+00  0.00000000000E+00 -0.20468192630E+03  0.20468192631E+03  0.25500000920E-02 0. -1.
    10030    2    1    2    0    0  0.00000000000E+00  0.00000000000E+00  0.56913627926E+03  0.97850013187E+03  0.79595628254E+03 0.  0.
        1    1    3    3  502    0 -0.83601803383E+01 -0.39699020974E+03  0.31745110125E+03  0.50837616089E+03  0.50400001928E-02 0.  1.
       -1    1    3    3    0  502  0.83601803383E+01  0.39699020974E+03  0.25168517801E+03  0.47012397099E+03  0.50400001928E-02 0. -1.
</event>
<event>
 5   0  0.6256781E-03  0.8135075E+03  0.7818609E-02  0.9540669E-01
       -2   -1    0    0    0  501  0.00000000000E+00  0.00000000000E+00  0.28280658689E+03  0.28280658690E+03  0.25500000920E-02 0.  1.
        2   -1    0    0  501    0  0.00000000000E+00  0.00000000000E+00 -0.58502393130E+03  0.58502393131E+03  0.25500000920E-02 0. -1.
    10030    2    1    2    0    0  0.00000000000E+00  0.00000000000E+00 -0.30221734441E+03  0.86783051821E+03  0.81350751999E+03 0.  0.
        1    1    3    3  502    0  0.14838203749E+03  0.30742218055E+03  0.84846697489E+02  0.35174506143E+03  0.50400001928E-02 0.  1.
       -1    1    3    3    0  502 -0.14838203749E+03 -0.30742218055E+03 -0.38706404190E+03  0.51608545678E+03  0.50400001928E-02 0. -1.
</event>
<event>
 5   0  0.3860515E-03  0.8013265E+03  0.7818609E-02  0.9558099E-01
       -1   -1    0    0    0  501  0.00000000000E+00  0.00000000000E+00  0.29331802977E+03  0.29331802981E+03  0.50400001928E-02 0. -1.
        1   -1    0    0  501    0  0.00000000000E+00  0.00000000000E+00 -0.54729345373E+03  0.54729345375E+03  0.50400001928E-02 0.  1.
    10030    2    1    2    0    0  0.00000000000E+00  0.00000000000E+00 -0.25397542395E+03  0.84061148356E+03  0.80132649421E+03 0.  0.
        4    1    3    3  502    0 -0.26342806401E+03  0.29967544807E+03 -0.16524054147E+03  0.43186313634E+03  0.12699999809E+01 0. -1.
       -4    1    3    3    0  502  0.26342806401E+03 -0.29967544807E+03 -0.88734882485E+02  0.40874834722E+03  0.12699999809E+01 0.  1.
</event>
<event>
 5   0  0.3627496E-03  0.7809860E+03  0.7818609E-02  0.9587954E-01
        1   -1    0    0  501    0  0.00000000000E+00  0.00000000000E+00  0.15780417060E+04  0.15780417061E+04  0.50400001928E-02 0. -1.
       -1   -1    0    0    0  501  0.00000000000E+00  0.00000000000E+00 -0.96629123248E+02  0.96629123379E+02  0.50400001928E-02 0.  1.
    10030    2    1    2    0    0  0.00000000000E+00  0.00000000000E+00  0.14814125828E+04  0.16746708294E+04  0.78098600915E+03 0.  0.
        3    1    3    3  502    0  0.36496591093E+03 -0.13445246792E+03  0.66620311958E+03  0.77142996378E+03  0.10100000352E+00 0.  1.
       -3    1    3    3    0  502 -0.36496591093E+03  0.13445246792E+03  0.81520946322E+03  0.90324086566E+03  0.10100000352E+00 0. -1.
</event>
<event>
 5   0  0.2478000E-03  0.8004369E+03  0.7818609E-02  0.9559385E-01
        3   -1    0    0  501    0  0.00000000000E+00  0.00000000000E+00  0.19145453172E+03  0.19145455836E+03  0.10100000352E+00 0.  1.
       -3   -1    0    0    0  501  0.00000000000E+00  0.00000000000E+00 -0.83662061102E+03  0.83662061712E+03  0.10100000352E+00 0. -1.
    10030    2    1    2    0    0  0.00000000000E+00  0.00000000000E+00 -0.64516607930E+03  0.10280751755E+04  0.80043694102E+03 0.  0.
        1    1    3    3  502    0 -0.28508807255E+03  0.26049475996E+03 -0.18761731548E+03  0.42934017535E+03  0.50400001928E-02 0.  1.
       -1    1    3    3    0  502  0.28508807255E+03 -0.26049475996E+03 -0.45754876382E+03  0.59873500012E+03  0.50400001928E-02 0. -1.
</event>
<event>
 5   0  0.6337108E-03  0.7974313E+03  0.7818609E-02  0.9563743E-01
        2   -1    0    0  501    0  0.00000000000E+00  0.00000000000E+00  0.13316915999E+03  0.13316916001E+03  0.25500000920E-02 0.  1.
       -2   -1    0    0    0  501  0.00000000000E+00  0.00000000000E+00 -0.11937760636E+04  0.11937760637E+04  0.25500000920E-02 0. -1.
    10030    2    1    2    0    0  0.00000000000E+00  0.00000000000E+00 -0.10606069037E+04  0.13269452237E+04  0.79743126507E+03 0.  0.
        4    1    3    3  502    0 -0.33235659306E+03  0.31669018180E+01 -0.16383397574E+03  0.37055919732E+03  0.12699999809E+01 0.  1.
       -4    1    3    3    0  502  0.33235659306E+03 -0.31669018180E+01 -0.89677292793E+03  0.95638602634E+03  0.12699999809E+01 0. -1.
</event>
<event>
 5   0  0.3860515E-03  0.8013158E+03  0.7818609E-02  0.9558114E-01
       -1   -1    0    0    0  501  0.00000000000E+00  0.00000000000E+00  0.31575942922E+03  0.31575942926E+03  0.50400001928E-02 0.  1.
        1   -1    0    0  501    0  0.00000000000E+00  0.00000000000E+00 -0.50838313584E+03  0.50838313586E+03  0.50400001928E-02 0. -1.
    10030    2    1    2    0    0  0.00000000000E+00  0.00000000000E+00 -0.19262370662E+03  0.82414256512E+03  0.80131583991E+03 0.  0.
        4    1    3    3  502    0  0.79553417860E+02 -0.89955871569E+02  0.29681272035E+03  0.32018777145E+03  0.12699999809E+01 0.  1.
       -4    1    3    3    0  502 -0.79553417860E+02  0.89955871569E+02 -0.48943642697E+03  0.50395479367E+03  0.12699999809E+01 0. -1.
</event>
<event>
 5   0  0.3714448E-03  0.7932224E+03  0.7818609E-02  0.9569880E-01
       -1   -1    0    0    0  501  0.00000000000E+00  0.00000000000E+00  0.30002010203E+03  0.30002010207E+03  0.50400001928E-02 0. -1.
        1   -1    0    0  501    0  0.00000000000E+00  0.00000000000E+00 -0.52429966819E+03  0.52429966822E+03  0.50400001928E-02 0.  1.
    10030    2    1    2    0    0  0.00000000000E+00  0.00000000000E+00 -0.22427956616E+03  0.82431977029E+03  0.79322238993E+03 0.  0.
        1    1    3    3  502    0 -0.26055111787E+02 -0.34723814580E+03 -0.30944418195E+03  0.46584214120E+03  0.50400001928E-02 0.  1.
       -1    1    3    3    0  502  0.26055111787E+02  0.34723814580E+03  0.85164615786E+02  0.35847762909E+03  0.50400001928E-02 0. -1.
</event>
<event>
 5   0  0.3753450E-03  0.8028871E+03  0.7818609E-02  0.9555848E-01
       -1   -1    0    0    0  501  0.00000000000E+00  0.00000000000E+00  0.48971218618E+03  0.48971218620E+03  0.50400001928E-02 0.  1.
        1   -1    0    0  501    0  0.00000000000E+00  0.00000000000E+00 -0.32908498393E+03  0.32908498397E+03  0.50400001928E-02 0. -1.
    10030    2    1    2    0    0  0.00000000000E+00  0.00000000000E+00  0.16062720225E+03  0.81879717017E+03  0.80288710774E+03 0.  0.
        5    1    3    3  502    0 -0.30393203694E+03 -0.63744965559E+02  0.33970945180E+03  0.46028546072E+03  0.46999998093E+01 0.  1.
       -5    1    3    3    0  502  0.30393203694E+03  0.63744965559E+02 -0.17908224955E+03  0.35851170945E+03  0.46999998093E+01 0. -1.
</event>
<event>
 5   0  0.6337108E-03  0.8084046E+03  0.7818609E-02  0.9547931E-01
        2   -1    0    0  501    0  0.00000000000E+00  0.00000000000E+00  0.62929696439E+03  0.62929696439E+03  0.25500000920E-02 0. -1.
       -2   -1    0    0    0  501  0.00000000000E+00  0.00000000000E+00 -0.25962227930E+03  0.25962227931E+03  0.25500000920E-02 0.  1.
    10030    2    1    2    0    0  0.00000000000E+00  0.00000000000E+00  0.36967468509E+03  0.88891924371E+03  0.80840463200E+03 0.  0.
        4    1    3    3  502    0  0.22684892683E+03 -0.30891532172E+03  0.32603512591E+03  0.50317951848E+03  0.12699999809E+01 0.  1.
       -4    1    3    3    0  502 -0.22684892683E+03  0.30891532172E+03  0.43639559182E+02  0.38573972523E+03  0.12699999809E+01 0. -1.
</event>
<event>
 5   0  0.6153659E-03  0.7992442E+03  0.7818609E-02  0.9561112E-01
       -2   -1    0    0    0  501  0.00000000000E+00  0.00000000000E+00  0.15984508994E+03  0.15984508996E+03  0.25500000920E-02 0. -1.
        2   -1    0    0  501    0  0.00000000000E+00  0.00000000000E+00 -0.99907858235E+03  0.99907858235E+03  0.25500000920E-02 0.  1.
    10030    2    1    2    0    0  0.00000000000E+00  0.00000000000E+00 -0.83923349241E+03  0.11589236723E+04  0.79924415760E+03 0.  0.
        2    1    3    3  502    0 -0.34908991284E+03  0.22637492074E+02 -0.69974401639E+03  0.78231573663E+03  0.25500000920E-02 0.  1.
       -2    1    3    3    0  502  0.34908991284E+03 -0.22637492074E+02 -0.13948947602E+03  0.37660793568E+03  0.25500000920E-02 0. -1.
</event>
<event>
 5   0  0.3753450E-03  0.7923966E+03  0.7818609E-02  0.9571088E-01
       -1   -1    0    0    0  501  0.00000000000E+00  0.00000000000E+00  0.15774473477E+03  0.15774473486E+03  0.50400001928E-02 0.  1.
        1   -1    0    0  501    0  0.00000000000E+00  0.00000000000E+00 -0.99510820692E+03  0.99510820693E+03  0.50400001928E-02 0. -1.
    10030    2    1    2    0    0  0.00000000000E+00  0.00000000000E+00 -0.83736347214E+03  0.11528529418E+04  0.79239656795E+03 0.  0.
        5    1    3    3  502    0 -0.36019778797E+03 -0.14032291155E+03 -0.29253291745E+03  0.48479950883E+03  0.46999998093E+01 0.  1.
       -5    1    3    3    0  502  0.36019778797E+03  0.14032291155E+03 -0.54483055469E+03  0.66805343296E+03  0.46999998093E+01 0. -1.
</event>
<event>
 5   0  0.3714448E-03  0.7991267E+03  0.7818609E-02  0.9561282E-01
        1   -1    0    0  501    0  0.00000000000E+00  0.00000000000E+00  0.61307582585E+03  0.61307582587E+03  0.50400001928E-02 0.  1.
       -1   -1    0    0    0  501  0.00000000000E+00  0.00000000000E+00 -0.26040965303E+03  0.26040965308E+03  0.50400001928E-02 0. -1.
    10030    2    1    2    0    0  0.00000000000E+00  0.00000000000E+00  0.35266617283E+03  0.87348547895E+03  0.79912668112E+03 0.  0.
        1    1    3    3  502    0 -0.23773776387E+03 -0.18428077956E+03  0.46381193290E+03  0.55281114244E+03  0.50400001928E-02 0.  1.
       -1    1    3    3    0  502  0.23773776387E+03  0.18428077956E+03 -0.11114576007E+03  0.32067433651E+03  0.50400001928E-02 0. -1.
</event>
<event>
 5   0  0.6536209E-03  0.7911251E+03  0.7818609E-02  0.9572953E-01
        2   -1    0    0  501    0  0.00000000000E+00  0.00000000000E+00  0.32342850937E+03  0.32342850938E+03  0.25500000920E-02 0.  1.
       -2   -1    0    0    0  501  0.00000000000E+00  0.00000000000E+00 -0.48378462179E+03  0.48378462180E+03  0.25500000920E-02 0. -1.
    10030    2    1    2    0    0  0.00000000000E+00  0.00000000000E+00 -0.16035611242E+03  0.80721313118E+03  0.79112512055E+03 0.  0.
        3    1    3    3  502    0  0.27800165109E+03 -0.10771357885E+03 -0.34543116197E+03  0.45630015444E+03  0.10100000352E+00 0. -1.
       -3    1    3    3    0  502 -0.27800165109E+03  0.10771357885E+03  0.18507504955E+03  0.35091297674E+03  0.10100000352E+00 0.  1.
</event>
<event>
 5   0  0.6337108E-03  0.8063143E+03  0.7818609E-02  0.9550922E-01
       -2   -1    0    0    0  501  0.00000000000E+00  0.00000000000E+00  0.16313785358E+03  0.16313785360E+03  0.25500000920E-02 0. -1.
        2   -1    0    0  501    0  0.00000000000E+00  0.00000000000E+00 -0.99630875321E+03  0.99630875321E+03  0.25500000920E-02 0.  1.
    10030    2    1    2    0    0  0.00000000000E+00  0.00000000000E+00 -0.83317089963E+03  0.11594466068E+04  0.80631426011E+03 0.  0.
        4    1    3    3  502    0  0.23491678795E+03 -0.14530820468E+03  0.56793606589E+01  0.27628651730E+03  0.12699999809E+01 0. -1.
       -4    1    3    3    0  502 -0.23491678795E+03  0.14530820468E+03 -0.83885026029E+03  0.88316008951E+03  0.12699999809E+01 0.  1.
</event>
<event>
 5   0  0.6337108E-03  0.8012639E+03  0.7818609E-02  0.9558189E-01
        2   -1    0    0  501    0  0.00000000000E+00  0.00000000000E+00  0.23845329557E+04  0.23845329557E+04  0.25500000920E-02 0. -1.
       -2   -1    0    0    0  501  0.00000000000E+00  0.00000000000E+00 -0.67311283154E+02  0.67311283203E+02  0.25500000920E-02 0.  1.
    10030    2    1    2    0    0  0.00000000000E+00  0.00000000000E+00  0.23172216725E+04  0.24518442389E+04  0.80126393412E+03 0.  0.
        4    1    3    3  502    0 -0.21190407307E+03  0.39498511546E+01  0.21989353075E+04  0.22091258536E+04  0.12699999809E+01 0. -1.
       -4    1    3    3    0  502  0.21190407307E+03 -0.39498511546E+01  0.11828636502E+03  0.24271838529E+03  0.12699999809E+01 0.  1.
</event>
<event>
 5   0  0.3627496E-03  0.7934931E+03  0.7818609E-02  0.9569484E-01
       -1   -1    0    0    0  501  0.00000000000E+00  0.00000000000E+00  0.13245845343E+03  0.13245845353E+03  0.50400001928E-02 0. -1.
        1   -1    0    0  501    0  0.00000000000E+00  0.00000000000E+00 -0.11883562347E+04  0.11883562347E+04  0.50400001928E-02 0.  1.
    10030    2    1    2    0    0  0.00000000000E+00  0.00000000000E+00 -0.10558977813E+04  0.13208146883E+04  0.79349311036E+03 0.  0.
        3    1    3    3  502    0  0.27810009237E+03  0.26460853512E+03 -0.69482422337E+03  0.79381235177E+03  0.10100000352E+00 0.  1.
       -3    1    3    3    0  502 -0.27810009237E+03 -0.26460853512E+03 -0.36107355792E+03  0.52700233649E+03  0.10100000352E+00 0. -1.
</event>
<event>
 5   0  0.3627496E-03  0.8003015E+03  0.7818609E-02  0.9559581E-01
        1   -1    0    0  501    0  0.00000000000E+00  0.00000000000E+00  0.32287445604E+03  0.32287445608E+03  0.50400001928E-02 0.  1.
       -1   -1    0    0    0  501  0.00000000000E+00  0.00000000000E+00 -0.49592227948E+03  0.49592227951E+03  0.50400001928E-02 0. -1.
    10030    2    1    2    0    0  0.00000000000E+00  0.00000000000E+00 -0.17304782345E+03  0.81879673558E+03  0.80030153380E+03 0.  0.
        3    1    3    3  502    0 -0.31352988851E+03  0.24104397244E+03 -0.14890376433E+03  0.42258197888E+03  0.10100000352E+00 0. -1.
       -3    1    3    3    0  502  0.31352988851E+03 -0.24104397244E+03 -0.24144059113E+02  0.39621475670E+03  0.10100000352E+00 0.  1.
</event>
<event>
 5   0  0.3714448E-03  0.7983149E+03  0.7818609E-02  0.9562459E-01
       -1   -1    0    0    0  501  0.00000000000E+00  0.00000000000E+00  0.81269610148E+03  0.81269610150E+03  0.50400001928E-02 0. -1.
        1   -1    0    0  501    0  0.00000000000E+00  0.00000000000E+00 -0.19604702678E+03  0.19604702684E+03  0.50400001928E-02 0.  1.
    10030    2    1    2    0    0  0.00000000000E+00  0.00000000000E+00  0.61664907470E+03  0.10087431283E+04  0.79831486122E+03 0.  0.
        1    1    3    3  502    0 -0.25895262193E+03  0.17421165075E+03 -0.61051790606E+01  0.31215930692E+03  0.50400001928E-02 0.  1.
       -1    1    3    3    0  502  0.25895262193E+03 -0.17421165075E+03  0.62275425377E+03  0.69658382142E+03  0.50400001928E-02 0. -1.
</event>
<event>
 5   0  0.2478000E-03  0.7983496E+03  0.7818609E-02  0.9562409E-01
       -4   -1    0    0    0  501  0.00000000000E+00  0.00000000000E+00  0.21307473518E+03  0.21307851997E+03  0.12699999809E+01 0. -1.
        4   -1    0    0  501    0  0.00000000000E+00  0.00000000000E+00 -0.74780420960E+03  0.74780528802E+03  0.12699999809E+01 0.  1.
    10030    2    1    2    0    0  0.00000000000E+00  0.00000000000E+00 -0.53472947442E+03  0.96088380799E+03  0.79834959863E+03 0.  0.
        1    1    3    3  502    0  0.24437315728E+03  0.21807842105E+03 -0.54199403987E+03  0.63327243507E+03  0.50400001928E-02 0.  1.
       -1    1    3    3    0  502 -0.24437315728E+03 -0.21807842105E+03  0.72645654565E+01  0.32761137292E+03  0.50400001928E-02 0. -1.
</event>
<event>
 5   0  0.6536209E-03  0.8021219E+03  0.7818609E-02  0.9556951E-01
        2   -1    0    0  501    0  0.00000000000E+00  0.00000000000E+00  0.10044036235E+04  0.10044036235E+04  0.25500000920E-02 0.  1.
       -2   -1    0    0    0  501  0.00000000000E+00  0.00000000000E+00 -0.16014464985E+03  0.16014464987E+03  0.25500000920E-02 0. -1.
    10030    2    1    2    0    0  0.00000000000E+00  0.00000000000E+00  0.84425897367E+03  0.11645482734E+04  0.80212185261E+03 0.  0.
        3    1    3    3  502    0  0.22704616347E+03  0.25998176273E+03  0.12562312904E+03  0.36731683605E+03  0.10100000352E+00 0. -1.
       -3    1    3    3    0  502 -0.22704616347E+03 -0.25998176273E+03  0.71863584463E+03  0.79723143734E+03  0.10100000352E+00 0.  1.
</event>
<event>
 5   0  0.6536209E-03  0.7991986E+03  0.7818609E-02  0.9561178E-01
       -2   -1    0    0    0  501  0.00000000000E+00  0.00000000000E+00  0.13668955105E+04  0.13668955105E+04  0.25500000920E-02 0.  1.
        2   -1    0    0  501    0  0.00000000000E+00  0.00000000000E+00 -0.11681917586E+03  0.11681917588E+03  0.25500000920E-02 0. -1.
    10030    2    1    2    0    0  0.00000000000E+00  0.00000000000E+00  0.12500763346E+04  0.14837146863E+04  0.79919861621E+03 0.  0.
        3    1    3    3  502    0  0.18608737445E+03 -0.20695772658E+03  0.11573710739E+04  0.11903645763E+04  0.10100000352E+00 0.  1.
       -3    1    3    3    0  502 -0.18608737445E+03  0.20695772658E+03  0.92705260694E+02  0.29335011008E+03  0.10100000352E+00 0. -1.
</event>
<event>
 5   0  0.2478000E-03  0.8021144E+03  0.7818609E-02  0.9556962E-01
       -3   -1    0    0    0  501  0.00000000000E+00  0.00000000000E+00  0.24469584642E+03  0.24469586726E+03  0.10100000352E+00 0.  1.
        3   -1    0    0  501    0  0.00000000000E+00  0.00000000000E+00 -0.65733378001E+03  0.65733378777E+03  0.10100000352E+00 0. -1.
    10030    2    1    2    0    0  0.00000000000E+00  0.00000000000E+00 -0.41263793360E+03  0.90202965504E+03  0.80211435240E+03 0.  0.
        3    1    3    3  502    0 -0.92437518168E+02 -0.23596231127E+03  0.14324519592E+03  0.29110496983E+03  0.10100000352E+00 0.  1.
       -3    1    3    3    0  502  0.92437518168E+02  0.23596231127E+03 -0.55588312952E+03  0.61092468520E+03  0.10100000352E+00 0. -1.
</event>
<event>
 5   0  0.3627496E-03  0.7988036E+03  0.7818609E-02  0.9561750E-01
       -1   -1    0    0    0  501  0.00000000000E+00  0.00000000000E+00  0.52863508614E+03  0.52863508616E+03  0.50400001928E-02 0. -1.
        1   -1    0    0  501    0  0.00000000000E+00  0.00000000000E+00 -0.30176168115E+03  0.30176168119E+03  0.50400001928E-02 0.  1.
    10030    2    1    2    0    0  0.00000000000E+00  0.00000000000E+00  0.22687340499E+03  0.83039676735E+03  0.79880363628E+03 0.  0.
        3    1    3    3  502    0  0.31528689074E+03 -0.24518559930E+03  0.11341207829E+03  0.41519165608E+03  0.10100000352E+00 0.  1.
       -3    1    3    3    0  502 -0.31528689074E+03  0.24518559930E+03  0.11346132670E+03  0.41520511127E+03  0.10100000352E+00 0. -1.
</event>
<event>
 5   0  0.6153659E-03  0.8040399E+03  0.7818609E-02  0.9554188E-01
       -2   -1    0    0    0  501  0.00000000000E+00  0.00000000000E+00  0.19680377192E+03  0.19680377193E+03  0.25500000920E-02 0.  1.
        2   -1    0    0  501    0  0.00000000000E+00  0.00000000000E+00 -0.82122430184E+03  0.82122430184E+03  0.25500000920E-02 0. -1.
    10030    2    1    2    0    0  0.00000000000E+00  0.00000000000E+00 -0.62442052992E+03  0.10180280738E+04  0.80403990001E+03 0.  0.
        2    1    3    3  502    0 -0.25215644620E+03 -0.31145426586E+03 -0.27150806561E+03  0.48404882272E+03  0.25500000920E-02 0.  1.
       -2    1    3    3    0  502  0.25215644620E+03  0.31145426586E+03 -0.35291246431E+03  0.53397925105E+03  0.25500000920E-02 0. -1.
</event>
<event>
 5   0  0.6256781E-03  0.8071113E+03  0.7818609E-02  0.9549781E-01
       -2   -1    0    0    0  501  0.00000000000E+00  0.00000000000E+00  0.15722608467E+03  0.15722608469E+03  0.25500000920E-02 0.  1.
        2   -1    0    0  501    0  0.00000000000E+00  0.00000000000E+00 -0.10358150755E+04  0.10358150755E+04  0.25500000920E-02 0. -1.
    10030    2    1    2    0    0  0.00000000000E+00  0.00000000000E+00 -0.87858899079E+03  0.11930411602E+04  0.80711126563E+03 0.  0.
        1    1    3    3  502    0  0.59596758504E+02 -0.39901946178E+03 -0.45322723987E+03  0.60678104411E+03  0.50400001928E-02 0.  1.
       -1    1    3    3    0  502 -0.59596758504E+02  0.39901946178E+03 -0.42536175093E+03  0.58626011606E+03  0.50400001928E-02 0. -1.
</event>
<event>
 5   0  0.6337108E-03  0.8010164E+03  0.7818609E-02  0.9558547E-01
       -2   -1    0    0    0  501  0.00000000000E+00  0.00000000000E+00  0.24332129887E+03  0.24332129889E+03  0.25500000920E-02 0.  1.
        2   -1    0    0  501    0  0.00000000000E+00  0.00000000000E+00 -0.65923863261E+03  0.65923863262E+03  0.25500000920E-02 0. -1.
    10030    2    1    2    0    0  0.00000000000E+00  0.00000000000E+00 -0.41591733374E+03  0.90255993151E+03  0.80101635530E+03 0.  0.
        4    1    3    3  502    0  0.90983839020E+02 -0.90536316602E+02 -0.63543373175E+03  0.64826886701E+03  0.12699999809E+01 0. -1.
       -4    1    3    3    0  502 -0.90983839020E+02  0.90536316602E+02  0.21951639801E+03  0.25429106450E+03  0.12699999809E+01 0.  1.
</event>
<event>
 5   0  0.2478000E-03  0.7966353E+03  0.7818609E-02  0.9564900E-01
        3   -1    0    0  501    0  0.00000000000E+00  0.00000000000E+00  0.14380386061E+04  0.14380386097E+04  0.10100000352E+00 0.  1.
       -3   -1    0    0    0  501  0.00000000000E+00  0.00000000000E+00 -0.11032868089E+03  0.11032872712E+03  0.10100000352E+00 0. -1.
    10030    2    1    2    0    0  0.00000000000E+00  0.00000000000E+00  0.13277099253E+04  0.15483673368E+04  0.79663527670E+03 0.  0.
        3    1    3    3  502    0 -0.27021050988E+03  0.12233919631E+03  0.11805704384E+04  0.12172621611E+04  0.10100000352E+00 0.  1.
       -3    1    3    3    0  502  0.27021050988E+03 -0.12233919631E+03  0.14713948687E+03  0.33110517574E+03  0.10100000352E+00 0. -1.
</event>
<event>
 5   0  0.3753450E-03  0.8085915E+03  0.7818609E-02  0.9547664E-01
        1   -1    0    0  501    0  0.00000000000E+00  0.00000000000E+00  0.18193876935E+04  0.18193876935E+04  0.50400001928E-02 0. -1.
       -1   -1    0    0    0  501  0.00000000000E+00  0.00000000000E+00 -0.89840684697E+02  0.89840684838E+02  0.50400001928E-02 0.  1.
    10030    2    1    2    0    0  0.00000000000E+00  0.00000000000E+00  0.17295470088E+04  0.19092283783E+04  0.80859145742E+03 0.  0.
        5    1    3    3  502    0 -0.12830858028E+03 -0.24633171773E+03  0.15583754838E+04  0.15829398743E+04  0.46999998093E+01 0. -1.
       -5    1    3    3    0  502  0.12830858028E+03  0.24633171773E+03  0.17117152497E+03  0.32628850408E+03  0.46999998093E+01 0.  1.
</event>
<event>
 5   0  0.6256781E-03  0.7988580E+03  0.7818609E-02  0.9561672E-01
       -2   -1    0    0    0  501  0.00000000000E+00  0.00000000000E+00  0.45998532938E+03  0.45998532939E+03  0.25500000920E-02 0.  1.
        2   -1    0    0  501    0  0.00000000000E+00  0.00000000000E+00 -0.34684477690E+03  0.34684477691E+03  0.25500000920E-02 0. -1.
    10030    2    1    2    0    0  0.00000000000E+00  0.00000000000E+00  0.11314055248E+03  0.80683010630E+03  0.79885795722E+03 0.  0.
        1    1    3    3  502    0 -0.59358663308E+02  0.25958866883E+03  0.35725555633E+03  0.44557969035E+03  0.50400001928E-02 0.  1.
       -1    1    3    3    0  502  0.59358663308E+02 -0.25958866883E+03 -0.24411500385E+03  0.36125041595E+03  0.50400001928E-02 0. -1.
</event>
<event>
 5   0  0.6536209E-03  0.8005999E+03  0.7818609E-02  0.9559149E-01
        2   -1    0    0  501    0  0.00000000000E+00  0.00000000000E+00  0.23055039633E+03  0.23055039634E+03  0.25500000920E-02 0.  1.
       -2   -1    0    0    0  501  0.00000000000E+00  0.00000000000E+00 -0.69503257517E+03  0.69503257517E+03  0.25500000920E-02 0. -1.
    10030    2    1    2    0    0  0.00000000000E+00  0.00000000000E+00 -0.46448217884E+03  0.92558297152E+03  0.80059986429E+03 0.  0.
        3    1    3    3  502    0 -0.30397896998E+03  0.13756071440E+03  0.23450131585E+02  0.33447882326E+03  0.10100000352E+00 0.  1.
       -3    1    3    3    0  502  0.30397896998E+03 -0.13756071440E+03 -0.48793231043E+03  0.59110414826E+03  0.10100000352E+00 0. -1.
</event>
<event>
 5   0  0.3860515E-03  0.8000327E+03  0.7818609E-02  0.9559970E-01
       -1   -1    0    0    0  501  0.00000000000E+00  0.00000000000E+00  0.11810562127E+03  0.11810562138E+03  0.50400001928E-02 0. -1.
        1   -1    0    0  501    0  0.00000000000E+00  0.00000000000E+00 -0.13548301935E+04  0.13548301935E+04  0.50400001928E-02 0.  1.
    10030    2    1    2    0    0  0.00000000000E+00  0.00000000000E+00 -0.12367245722E+04  0.14729358149E+04  0.80003265384E+03 0.  0.
        4    1    3    3  502    0 -0.27667561748E+03  0.32184001678E+01 -0.86506747684E+02  0.28990478731E+03  0.12699999809E+01 0. -1.
       -4    1    3    3    0  502  0.27667561748E+03 -0.32184001678E+01 -0.11502178245E+04  0.11830310276E+04  0.12699999809E+01 0.  1.
</event>
<event>
 5   0  0.5813850E-03  0.7989506E+03  0.7818609E-02  0.9561537E-01
       -2   -1    0    0    0  501  0.00000000000E+00  0.00000000000E+00  0.34890749024E+03  0.34890749024E+03  0.25500000920E-02 0. -1.
        2   -1    0    0  501    0  0.00000000000E+00  0.00000000000E+00 -0.45737198156E+03  0.45737198157E+03  0.25500000920E-02 0.  1.
    10030    2    1    2    0    0  0.00000000000E+00  0.00000000000E+00 -0.10846449132E+03  0.80627947181E+03  0.79895058720E+03 0.  0.
        5    1    3    3  502    0 -0.14081618805E+03  0.36296479460E+02 -0.42968234206E+03  0.45364704156E+03  0.46999998093E+01 0.  1.
       -5    1    3    3    0  502  0.14081618805E+03 -0.36296479460E+02  0.32121785073E+03  0.35263243025E+03  0.46999998093E+01 0. -1.
</event>
<event>
 5   0  0.6153659E-03  0.7989971E+03  0.7818609E-02  0.9561470E-01
       -2   -1    0    0    0  501  0.00000000000E+00  0.00000000000E+00  0.41640629766E+03  0.41640629766E+03  0.25500000920E-02 0. -1.
        2   -1    0    0  501    0  0.00000000000E+00  0.00000000000E+00 -0.38327728604E+03  0.38327728605E+03  0.25500000920E-02 0.  1.
    10030    2    1    2    0    0  0.00000000000E+00  0.00000000000E+00  0.33129011617E+02  0.79968358371E+03  0.79899706047E+03 0.  0.
        2    1    3    3  502    0  0.20066231321E+03 -0.25645682900E+03 -0.21507247994E+03  0.39024561588E+03  0.25500000920E-02 0.  1.
       -2    1    3    3    0  502 -0.20066231321E+03  0.25645682900E+03  0.24820149156E+03  0.40943796783E+03  0.25500000920E-02 0. -1.
</event>
<event>
 5   0  0.6153659E-03  0.8004645E+03  0.7818609E-02  0.9559345E-01
       -2   -1    0    0    0  501  0.00000000000E+00  0.00000000000E+00  0.15394193763E+03  0.15394193765E+03  0.25500000920E-02 0.  1.
        2   -1    0    0  501    0  0.00000000000E+00  0.00000000000E+00 -0.10405601854E+04  0.10405601854E+04  0.25500000920E-02 0. -1.
    10030    2    1    2    0    0  0.00000000000E+00  0.00000000000E+00 -0.88661824779E+03  0.11945021231E+04  0.80046449310E+03 0.  0.
        2    1    3    3  502    0  0.51045888714E+02 -0.17614627286E+03  0.87551472846E+02  0.20322020716E+03  0.25500000920E-02 0.  1.
       -2    1    3    3    0  502 -0.51045888714E+02  0.17614627286E+03 -0.97416972063E+03  0.99128191591E+03  0.25500000920E-02 0. -1.
</event>
<event>
 5   0  0.3627496E-03  0.7985707E+03  0.7818609E-02  0.9562088E-01
        1   -1    0    0  501    0  0.00000000000E+00  0.00000000000E+00  0.16296113744E+04  0.16296113744E+04  0.50400001928E-02 0. -1.
       -1   -1    0    0    0  501  0.00000000000E+00  0.00000000000E+00 -0.97832398019E+02  0.97832398149E+02  0.50400001928E-02 0.  1.
    10030    2    1    2    0    0  0.00000000000E+00  0.00000000000E+00  0.15317789764E+04  0.17274437726E+04  0.79857069497E+03 0.  0.
        3    1    3    3  502    0 -0.18756987645E+03  0.28876720278E+03  0.32863045574E+03  0.47599048582E+03  0.10100000352E+00 0.  1.
       -3    1    3    3    0  502  0.18756987645E+03 -0.28876720278E+03  0.12031485206E+04  0.12514532867E+04  0.10100000352E+00 0. -1.
</event>
<event>
 5   0  0.3671128E-03  0.7994749E+03  0.7818609E-02  0.9560777E-01
        1   -1    0    0  501    0  0.00000000000E+00  0.00000000000E+00  0.27817104052E+03  0.27817104056E+03  0.50400001928E-02 0. -1.
       -1   -1    0    0    0  501  0.00000000000E+00  0.00000000000E+00 -0.57443090740E+03  0.57443090742E+03  0.50400001928E-02 0.  1.
    10030    2    1    2    0    0  0.00000000000E+00  0.00000000000E+00 -0.29625986688E+03  0.85260194798E+03  0.79947493581E+03 0.  0.
        2    1    3    3  502    0  0.31297444382E+03  0.21908814512E+03 -0.27357948533E+03  0.46989185205E+03  0.25500000920E-02 0.  1.
       -2    1    3    3    0  502 -0.31297444382E+03 -0.21908814512E+03 -0.22680381543E+02  0.38271009594E+03  0.25500000920E-02 0. -1.
</event>
<event>
 5   0  0.6256781E-03  0.7972594E+03  0.7818609E-02  0.9563992E-01
       -2   -1    0    0    0  501  0.00000000000E+00  0.00000000000E+00  0.15441474868E+03  0.15441474870E+03  0.25500000920E-02 0.  1.
        2   -1    0    0  501    0  0.00000000000E+00  0.00000000000E+00 -0.10290833043E+04  0.10290833043E+04  0.25500000920E-02 0. -1.
    10030    2    1    2    0    0  0.00000000000E+00  0.00000000000E+00 -0.87466855558E+03  0.11834980530E+04  0.79725940524E+03 0.  0.
        1    1    3    3  502    0 -0.13115881917E+03 -0.31348841167E+03 -0.74668626452E+03  0.82037674135E+03  0.50400001928E-02 0. -1.
       -1    1    3    3    0  502  0.13115881917E+03  0.31348841167E+03 -0.12798229106E+03  0.36312131161E+03  0.50400001928E-02 0.  1.
</event>
<event>
 5   0  0.2478000E-03  0.7921950E+03  0.7818609E-02  0.9571384E-01
        4   -1    0    0  501    0  0.00000000000E+00  0.00000000000E+00  0.54692746376E+03  0.54692893827E+03  0.12699999809E+01 0. -1.
       -4   -1    0    0    0  501  0.00000000000E+00  0.00000000000E+00 -0.28685969917E+03  0.28686251046E+03  0.12699999809E+01 0.  1.
    10030    2    1    2    0    0  0.00000000000E+00  0.00000000000E+00  0.26006776459E+03  0.83379144872E+03  0.79219501247E+03 0.  0.
        4    1    3    3  502    0 -0.10305253811E+02 -0.83621848788E+02  0.53738678600E+03  0.54395310691E+03  0.12699999809E+01 0. -1.
       -4    1    3    3    0  502  0.10305253811E+02  0.83621848788E+02 -0.27731902141E+03  0.28983834181E+03  0.12699999809E+01 0.  1.
</event>
<event>
 5   0  0.3753450E-03  0.7997298E+03  0.7818609E-02  0.9560408E-01
        1   -1    0    0  501    0  0.00000000000E+00  0.00000000000E+00  0.32786393358E+03  0.32786393362E+03  0.50400001928E-02 0.  1.
       -1   -1    0    0    0  501  0.00000000000E+00  0.00000000000E+00 -0.48767775176E+03  0.48767775178E+03  0.50400001928E-02 0. -1.
    10030    2    1    2    0    0  0.00000000000E+00  0.00000000000E+00 -0.15981381818E+03  0.81554168540E+03  0.79972981947E+03 0.  0.
        5    1    3    3  502    0  0.29617512096E+03  0.24712552351E+01  0.19400008630E+03  0.35409593737E+03  0.46999998093E+01 0.  1.
       -5    1    3    3    0  502 -0.29617512096E+03 -0.24712552351E+01 -0.35381390448E+03  0.46144574803E+03  0.46999998093E+01 0. -1.
</event>
<event>
 5   0  0.5813850E-03  0.7959481E+03  0.7818609E-02  0.9565901E-01
        2   -1    0    0  501    0  0.00000000000E+00  0.00000000000E+00  0.82457591095E+03  0.82457591096E+03  0.25500000920E-02 0. -1.
       -2   -1    0    0    0  501  0.00000000000E+00  0.00000000000E+00 -0.19207856618E+03  0.19207856620E+03  0.25500000920E-02 0.  1.
    10030    2    1    2    0    0  0.00000000000E+00  0.00000000000E+00  0.63249734477E+03  0.10166544772E+04  0.79594813573E+03 0.  0.
        5    1    3    3  502    0  0.20109293938E+03 -0.16637253033E+03 -0.67454651492E+02  0.26961158937E+03  0.46999998093E+01 0.  1.
       -5    1    3    3    0  502 -0.20109293938E+03  0.16637253033E+03  0.69995199626E+03  0.74704288778E+03  0.46999998093E+01 0. -1.
</event>
<event>
 5   0  0.2478000E-03  0.7990879E+03  0.7818609E-02  0.9561338E-01
        4   -1    0    0  501    0  0.00000000000E+00  0.00000000000E+00  0.15790471550E+03  0.15790982261E+03  0.12699999809E+01 0.  1.
       -4   -1    0    0    0  501  0.00000000000E+00  0.00000000000E+00 -0.10109382583E+04  0.10109390560E+04  0.12699999809E+01 0. -1.
    10030    2    1    2    0    0  0.00000000000E+00  0.00000000000E+00 -0.85303354279E+03  0.11688488786E+04  0.79908790250E+03 0.  0.
        1    1    3    3  502    0 -0.19758647587E+02 -0.22383049630E+03  0.56726126495E+02  0.23175061743E+03  0.50400001928E-02 0.  1.
       -1    1    3    3    0  502  0.19758647587E+02  0.22383049630E+03 -0.90975966929E+03  0.93709826119E+03  0.50400001928E-02 0. -1.
</event>
<event>
 5   0  0.3627496E-03  0.8127510E+03  0.7818609E-02  0.9541742E-01
       -1   -1    0    0    0  501  0.00000000000E+00  0.00000000000E+00  0.29510549838E+03  0.29510549842E+03  0.50400001928E-02 0.  1.
        1   -1    0    0  501    0  0.00000000000E+00  0.00000000000E+00 -0.55960001213E+03  0.55960001215E+03  0.50400001928E-02 0. -1.
    10030    2    1    2    0    0  0.00000000000E+00  0.00000000000E+00 -0.26449451375E+03  0.85470551058E+03  0.81275098401E+03 0.  0.
        3    1    3    3  502    0 -0.28897455698E+03  0.94268444530E+02 -0.41588897957E+03  0.51512764219E+03  0.10100000352E+00 0. -1.
       -3    1    3    3    0  502  0.28897455698E+03 -0.94268444530E+02  0.15139446582E+03  0.33957786839E+03  0.10100000352E+00 0.  1.
</event>
<event>
 5   0  0.3627496E-03  0.7962451E+03  0.7818609E-02  0.9565468E-01
       -1   -1    0    0    0  501  0.00000000000E+00  0.00000000000E+00  0.35240886732E+03  0.35240886736E+03  0.50400001928E-02 0. -1.
        1   -1    0    0  501    0  0.00000000000E+00  0.00000000000E+00 -0.44976612701E+03  0.44976612704E+03  0.50400001928E-02 0.  1.
    10030    2    1    2    0    0  0.00000000000E+00  0.00000000000E+00 -0.97357259687E+02  0.80217499439E+03  0.79624511654E+03 0.  0.
        3    1    3    3  502    0 -0.17935223503E+03  0.27826664952E+03  0.17410623730E+03  0.37404885311E+03  0.10100000352E+00 0.  1.
       -3    1    3    3    0  502  0.17935223503E+03 -0.27826664952E+03 -0.27146349699E+03  0.42812614128E+03  0.10100000352E+00 0. -1.
</event>
<event>
 5   0  0.6153659E-03  0.8106276E+03  0.7818609E-02  0.9544760E-01
       -2   -1    0    0    0  501  0.00000000000E+00  0.00000000000E+00  0.13093663471E+03  0.13093663474E+03  0.25500000920E-02 0. -1.
        2   -1    0    0  501    0  0.00000000000E+00  0.00000000000E+00 -0.12546471305E+04  0.12546471305E+04  0.25500000920E-02 0.  1.
    10030    2    1    2    0    0  0.00000000000E+00  0.00000000000E+00 -0.11237104958E+04  0.13855837652E+04  0.81062759152E+03 0.  0.
        2    1    3    3  502    0  0.16328263321E+03  0.24202892597E+03 -0.81309191423E+02  0.30306831562E+03  0.25500000920E-02 0. -1.
       -2    1    3    3    0  502 -0.16328263321E+03 -0.24202892597E+03 -0.10424013043E+04  0.10825154496E+04  0.25500000920E-02 0.  1.
</event>
<event>
 5   0  0.6256781E-03  0.7980976E+03  0.7818609E-02  0.9562775E-01
        2   -1    0    0  501    0  0.00000000000E+00  0.00000000000E+00  0.36430388881E+03  0.36430388882E+03  0.25500000920E-02 0.  1.
       -2   -1    0    0    0  501  0.00000000000E+00  0.00000000000E+00 -0.43710740275E+03  0.43710740276E+03  0.25500000920E-02 0. -1.
    10030    2    1    2    0    0  0.00000000000E+00  0.00000000000E+00 -0.72803513939E+02  0.80141129158E+03  0.79809755458E+03 0.  0.
        1    1    3    3  502    0  0.17062074171E+03 -0.25326710796E+03  0.22153881360E+03  0.37727325830E+03  0.50400001928E-02 0.  1.
       -1    1    3    3    0  502 -0.17062074171E+03  0.25326710796E+03 -0.29434232753E+03  0.42413803328E+03  0.50400001928E-02 0. -1.
</event>
<event>
 5   0  0.3714448E-03  0.8016744E+03  0.7818609E-02  0.9557597E-01
       -1   -1    0    0    0  501  0.00000000000E+00  0.00000000000E+00  0.40780375241E+03  0.40780375244E+03  0.50400001928E-02 0. -1.
        1   -1    0    0  501    0  0.00000000000E+00  0.00000000000E+00 -0.39398961219E+03  0.39398961222E+03  0.50400001928E-02 0.  1.
    10030    2    1    2    0    0  0.00000000000E+00  0.00000000000E+00  0.13814140219E+02  0.80179336466E+03  0.80167435355E+03 0.  0.
        1    1    3    3  502    0  0.33147620522E+03  0.98283516808E+02  0.20975314944E+03  0.40439152814E+03  0.50400001928E-02 0. -1.
       -1    1    3    3    0  502 -0.33147620522E+03 -0.98283516808E+02 -0.19593900922E+03  0.39740183652E+03  0.50400001928E-02 0.  1.
</event>
<event>
 5   0  0.6256781E-03  0.8035421E+03  0.7818609E-02  0.9554904E-01
       -2   -1    0    0    0  501  0.00000000000E+00  0.00000000000E+00  0.74776560321E+03  0.74776560321E+03  0.25500000920E-02 0.  1.
        2   -1    0    0  501    0  0.00000000000E+00  0.00000000000E+00 -0.21586974711E+03  0.21586974712E+03  0.25500000920E-02 0. -1.
    10030    2    1    2    0    0  0.00000000000E+00  0.00000000000E+00  0.53189585610E+03  0.96363535034E+03  0.80354208768E+03 0.  0.
        1    1    3    3  502    0  0.33755792728E+02  0.79123077693E+02  0.73659215277E+03  0.74159821637E+03  0.50400001928E-02 0.  1.
       -1    1    3    3    0  502 -0.33755792728E+02 -0.79123077693E+02 -0.20469629667E+03  0.22203713397E+03  0.50400001928E-02 0. -1.
</event>
<event>
 5   0  0.6256781E-03  0.8012363E+03  0.7818609E-02  0.9558229E-01
       -2   -1    0    0    0  501  0.00000000000E+00  0.00000000000E+00  0.31077973466E+03  0.31077973468E+03  0.25500000920E-02 0.  1.
        2   -1    0    0  501    0  0.00000000000E+00  0.00000000000E+00 -0.51642658081E+03  0.51642658081E+03  0.25500000920E-02 0. -1.
    10030    2    1    2    0    0  0.00000000000E+00  0.00000000000E+00 -0.20564684614E+03  0.82720631549E+03  0.80123633408E+03 0.  0.
        1    1    3    3  502    0 -0.28434236596E+02 -0.21077219335E+03 -0.45332931725E+03  0.50074034510E+03  0.50400001928E-02 0. -1.
       -1    1    3    3    0  502  0.28434236596E+02  0.21077219335E+03  0.24768247111E+03  0.32646597039E+03  0.50400001928E-02 0.  1.
</event>
<event>
 5   0  0.5813850E-03  0.8038123E+03  0.7818609E-02  0.9554515E-01
       -2   -1    0    0    0  501  0.00000000000E+00  0.00000000000E+00  0.62046309705E+03  0.62046309705E+03  0.25500000920E-02 0.  1.
        2   -1    0    0  501    0  0.00000000000E+00  0.00000000000E+00 -0.26033547195E+03  0.26033547196E+03  0.25500000920E-02 0. -1.
    10030    2    1    2    0    0  0.00000000000E+00  0.00000000000E+00  0.36012762510E+03  0.88079856901E+03  0.80381229949E+03 0.  0.
        5    1    3    3  502    0  0.19849601239E+03  0.26834751146E+03  0.42532053383E+03  0.54067615107E+03  0.46999998093E+01 0.  1.
       -5    1    3    3    0  502 -0.19849601239E+03 -0.26834751146E+03 -0.65192908729E+02  0.34012241794E+03  0.46999998093E+01 0. -1.
</event>
<event>
 5   0  0.6536209E-03  0.8396352E+03  0.7818609E-02  0.9504355E-01
        2   -1    0    0  501    0  0.00000000000E+00  0.00000000000E+00  0.22132360356E+03  0.22132360358E+03  0.25500000920E-02 0. -1.
       -2   -1    0    0    0  501  0.00000000000E+00  0.00000000000E+00 -0.79633093133E+03  0.79633093133E+03  0.25500000920E-02 0.  1.
    10030    2    1    2    0    0  0.00000000000E+00  0.00000000000E+00 -0.57500732777E+03  0.10176545349E+04  0.83963523356E+03 0.  0.
        3    1    3    3  502    0 -0.36124162955E+03  0.91906634227E+01 -0.54650988067E+03  0.65517405557E+03  0.10100000352E+00 0.  1.
       -3    1    3    3    0  502  0.36124162955E+03 -0.91906634227E+01 -0.28497447091E+02  0.36248047934E+03  0.10100000352E+00 0. -1.
</event>
<event>
 5   0  0.3860515E-03  0.8079070E+03  0.7818609E-02  0.9548642E-01
       -1   -1    0    0    0  501  0.00000000000E+00  0.00000000000E+00  0.30016861189E+03  0.30016861193E+03  0.50400001928E-02 0. -1.
        1   -1    0    0  501    0  0.00000000000E+00  0.00000000000E+00 -0.54362255697E+03  0.54362255699E+03  0.50400001928E-02 0.  1.
    10030    2    1    2    0    0  0.00000000000E+00  0.00000000000E+00 -0.24345394508E+03  0.84379116892E+03  0.80790699549E+03 0.  0.
        4    1    3    3  502    0  0.92361322984E+02  0.27134923368E+03  0.17554807398E+03  0.33612461942E+03  0.12699999809E+01 0. -1.
       -4    1    3    3    0  502 -0.92361322984E+02 -0.27134923368E+03 -0.41900201906E+03  0.50766654950E+03  0.12699999809E+01 0.  1.
</event>
<event>
 5   0  0.3714448E-03  0.7957780E+03  0.7818609E-02  0.9566148E-01
       -1   -1    0    0    0  501  0.00000000000E+00  0.00000000000E+00  0.38482173856E+03  0.38482173859E+03  0.50400001928E-02 0. -1.
        1   -1    0    0  501    0  0.00000000000E+00  0.00000000000E+00 -0.41140000031E+03  0.41140000035E+03  0.50400001928E-02 0.  1.
    10030    2    1    2    0    0  0.00000000000E+00  0.00000000000E+00 -0.26578261757E+02  0.79622173894E+03  0.79577801776E+03 0.  0.
        1    1    3    3  502    0  0.15790499793E+02  0.27316343736E+03  0.27574572207E+03  0.38846274809E+03  0.50400001928E-02 0. -1.
       -1    1    3    3    0  502 -0.15790499793E+02 -0.27316343736E+03 -0.30232398382E+03  0.40775899084E+03  0.50400001928E-02 0.  1.
</event>
<event>
 5   0  0.3714448E-03  0.7990798E+03  0.7818609E-02  0.9561350E-01
       -1   -1    0    0    0  501  0.00000000000E+00  0.00000000000E+00  0.29487550564E+03  0.29487550569E+03  0.50400001928E-02 0.  1.
        1   -1    0    0  501    0  0.00000000000E+00  0.00000000000E+00 -0.54135429296E+03  0.54135429299E+03  0.50400001928E-02 0. -1.
    10030    2    1    2    0    0  0.00000000000E+00  0.00000000000E+00 -0.24647878732E+03  0.83622979867E+03  0.79907977298E+03 0.  0.
        1    1    3    3  502    0 -0.15435010857E+03 -0.72904726995E+02  0.25479317638E+03  0.30668977484E+03  0.50400001928E-02 0.  1.
       -1    1    3    3    0  502  0.15435010857E+03  0.72904726995E+02 -0.50127196370E+03  0.52954002384E+03  0.50400001928E-02 0. -1.
</event>
<event>
 5   0  0.5813850E-03  0.8010440E+03  0.7818609E-02  0.9558507E-01
        2   -1    0    0  501    0  0.00000000000E+00  0.00000000000E+00  0.36498667772E+03  0.36498667773E+03  0.25500000920E-02 0. -1.
       -2   -1    0    0    0  501  0.00000000000E+00  0.00000000000E+00 -0.43951706302E+03  0.43951706303E+03  0.25500000920E-02 0.  1.
    10030    2    1    2    0    0  0.00000000000E+00  0.00000000000E+00 -0.74530385295E+02  0.80450374076E+03  0.80104400039E+03 0.  0.
        5    1    3    3  502    0  0.79096598408E+02  0.18073575900E+03  0.31277146960E+03  0.36982396982E+03  0.46999998093E+01 0. -1.
       -5    1    3    3    0  502 -0.79096598408E+02 -0.18073575900E+03 -0.38730185489E+03  0.43467977094E+03  0.46999998093E+01 0.  1.
</event>
<event>
 5   0  0.6256781E-03  0.7996280E+03  0.7818609E-02  0.9560556E-01
       -2   -1    0    0    0  501  0.00000000000E+00  0.00000000000E+00  0.49228253121E+03  0.49228253122E+03  0.25500000920E-02 0. -1.
        2   -1    0    0  501    0  0.00000000000E+00  0.00000000000E+00 -0.32471439975E+03  0.32471439976E+03  0.25500000920E-02 0.  1.
    10030    2    1    2    0    0  0.00000000000E+00  0.00000000000E+00  0.16756813147E+03  0.81699693097E+03  0.79962798009E+03 0.  0.
        1    1    3    3  502    0  0.25131385687E+03  0.26154717765E+03  0.25562059503E+03  0.44374257111E+03  0.50400001928E-02 0. -1.
       -1    1    3    3    0  502 -0.25131385687E+03 -0.26154717765E+03 -0.88052463560E+02  0.37325435986E+03  0.50400001928E-02 0.  1.
</event>
<event>
 5   0  0.3627496E-03  0.7965982E+03  0.7818609E-02  0.9564954E-01
       -1   -1    0    0    0  501  0.00000000000E+00  0.00000000000E+00  0.18262951993E+03  0.18262951999E+03  0.50400001928E-02 0.  1.
        1   -1    0    0  501    0  0.00000000000E+00  0.00000000000E+00 -0.86865563402E+03  0.86865563404E+03  0.50400001928E-02 0. -1.
    10030    2    1    2    0    0  0.00000000000E+00  0.00000000000E+00 -0.68602611410E+03  0.10512851540E+04  0.79659817089E+03 0.  0.
        3    1    3    3  502    0 -0.17583996628E+03 -0.21764800533E+03  0.31079476732E+02  0.28152494035E+03  0.10100000352E+00 0.  1.
       -3    1    3    3    0  502  0.17583996628E+03  0.21764800533E+03 -0.71710559083E+03  0.76976021368E+03  0.10100000352E+00 0. -1.
</event>
<event>
 5   0  0.3627496E-03  0.8015226E+03  0.7818609E-02  0.9557816E-01
       -1   -1    0    0    0  501  0.00000000000E+00  0.00000000000E+00  0.28839976076E+03  0.28839976081E+03  0.50400001928E-02 0. -1.
        1   -1    0    0  501    0  0.00000000000E+00  0.00000000000E+00 -0.55689929615E+03  0.55689929618E+03  0.50400001928E-02 0.  1.
    10030    2    1    2    0    0  0.00000000000E+00  0.00000000000E+00 -0.26849953539E+03  0.84529905698E+03  0.80152261055E+03 0.  0.
        3    1    3    3  502    0 -0.30821173343E+03 -0.25292145527E+03 -0.91464575684E+02  0.40905930373E+03  0.10100000352E+00 0. -1.
       -3    1    3    3    0  502  0.30821173343E+03  0.25292145527E+03 -0.17703495971E+03  0.43623975325E+03  0.10100000352E+00 0.  1.
</event>
<event>
 5   0  0.6256781E-03  0.8306485E+03  0.7818609E-02  0.9516684E-01
       -2   -1    0    0    0  501  0.00000000000E+00  0.00000000000E+00  0.27132084852E+03  0.27132084853E+03  0.25500000920E-02 0. -1.
        2   -1    0    0  501    0  0.00000000000E+00  0.00000000000E+00 -0.63575743640E+03  0.63575743641E+03  0.25500000920E-02 0.  1.
    10030    2    1    2    0    0  0.00000000000E+00  0.00000000000E+00 -0.36443658789E+03  0.90707828494E+03  0.83064853483E+03 0.  0.
        1    1    3    3  502    0 -0.21257521433E+03 -0.13990253489E+02 -0.57154826328E+03  0.60996013495E+03  0.50400001928E-02 0.  1.
       -1    1    3    3    0  502  0.21257521433E+03  0.13990253489E+02  0.20711167540E+03  0.29711814999E+03  0.50400001928E-02 0. -1.
</event>
<event>
 5   0  0.3714448E-03  0.8056118E+03  0.7818609E-02  0.9551930E-01
        1   -1    0    0  501    0  0.00000000000E+00  0.00000000000E+00  0.10146531168E+04  0.10146531168E+04  0.50400001928E-02 0. -1.
       -1   -1    0    0    0  501  0.00000000000E+00  0.00000000000E+00 -0.15990943685E+03  0.15990943693E+03  0.50400001928E-02 0.  1.
    10030    2    1    2    0    0  0.00000000000E+00  0.00000000000E+00  0.85474367993E+03  0.11745625537E+04  0.80561183845E+03 0.  0.
        1    1    3    3  502    0  0.20702386016E+03  0.18007976756E+03  0.85732642041E+03  0.90016453636E+03  0.50400001928E-02 0. -1.
       -1    1    3    3    0  502 -0.20702386016E+03 -0.18007976756E+03 -0.25827404880E+01  0.27439801736E+03  0.50400001928E-02 0.  1.
</event>
<event>
 5   0  0.3671128E-03  0.7999772E+03  0.7818609E-02  0.9560050E-01
        1   -1    0    0  501    0  0.00000000000E+00  0.00000000000E+00  0.15404936398E+04  0.15404936398E+04  0.50400001928E-02 0. -1.
       -1   -1    0    0    0  501  0.00000000000E+00  0.00000000000E+00 -0.10385688354E+03  0.10385688366E+03  0.50400001928E-02 0.  1.
    10030    2    1    2    0    0  0.00000000000E+00  0.00000000000E+00  0.14366367562E+04  0.16443505234E+04  0.79997717128E+03 0.  0.
        2    1    3    3  502    0  0.22742202732E+03  0.28419915199E+03  0.10591897388E+04  0.11199878746E+04  0.25500000920E-02 0. -1.
       -2    1    3    3    0  502 -0.22742202732E+03 -0.28419915199E+03  0.37744701743E+03  0.52436264882E+03  0.25500000920E-02 0.  1.
</event>
<event>
 5   0  0.3860515E-03  0.7912515E+03  0.7818609E-02  0.9572767E-01
        1   -1    0    0  501    0  0.00000000000E+00  0.00000000000E+00  0.39812969174E+03  0.39812969177E+03  0.50400001928E-02 0. -1.
       -1   -1    0    0    0  501  0.00000000000E+00  0.00000000000E+00 -0.39313755745E+03  0.39313755748E+03  0.50400001928E-02 0.  1.
    10030    2    1    2    0    0  0.00000000000E+00  0.00000000000E+00  0.49921342917E+01  0.79126724925E+03  0.79125150132E+03 0.  0.
        4    1    3    3  502    0  0.13586822840E+03 -0.22453261504E+03 -0.29355551562E+03  0.39376582426E+03  0.12699999809E+01 0.  1.
       -4    1    3    3    0  502 -0.13586822840E+03  0.22453261504E+03  0.29854764991E+03  0.39750142499E+03  0.12699999809E+01 0. -1.
</event>
<event>
 5   0  0.3671128E-03  0.8476174E+03  0.7818609E-02  0.9493540E-01
        1   -1    0    0  501    0  0.00000000000E+00  0.00000000000E+00  0.42971140276E+03  0.42971140279E+03  0.50400001928E-02 0. -1.
       -1   -1    0    0    0  501  0.00000000000E+00  0.00000000000E+00 -0.41798709001E+03  0.41798709004E+03  0.50400001928E-02 0.  1.
    10030    2    1    2    0    0  0.00000000000E+00  0.00000000000E+00  0.11724312752E+02  0.84769849284E+03  0.84761741089E+03 0.  0.
        2    1    3    3  502    0  0.10912231362E+03  0.32241766708E+03  0.25837984896E+03  0.42734175753E+03  0.25500000920E-02 0. -1.
       -2    1    3    3    0  502 -0.10912231362E+03 -0.32241766708E+03 -0.24665553621E+03  0.42035673531E+03  0.25500000920E-02 0.  1.
</event>
<event>
 5   0  0.3714448E-03  0.8080989E+03  0.7818609E-02  0.9548368E-01
        1   -1    0    0  501    0  0.00000000000E+00  0.00000000000E+00  0.10933596244E+04  0.10933596244E+04  0.50400001928E-02 0.  1.
       -1   -1    0    0    0  501  0.00000000000E+00  0.00000000000E+00 -0.14931589855E+03  0.14931589864E+03  0.50400001928E-02 0. -1.
    10030    2    1    2    0    0  0.00000000000E+00  0.00000000000E+00  0.94404372583E+03  0.12426755230E+04  0.80809894151E+03 0.  0.
        1    1    3    3  502    0 -0.36113234382E+03 -0.13908847403E+03  0.65065431660E+03  0.75704241169E+03  0.50400001928E-02 0. -1.
       -1    1    3    3    0  502  0.36113234382E+03  0.13908847403E+03  0.29338940923E+03  0.48563311134E+03  0.50400001928E-02 0.  1.
</event>
<event>
 5   0  0.3627496E-03  0.7963992E+03  0.7818609E-02  0.9565244E-01
       -1   -1    0    0    0  501  0.00000000000E+00  0.00000000000E+00  0.10288244671E+03  0.10288244684E+03  0.50400001928E-02 0.  1.
        1   -1    0    0  501    0  0.00000000000E+00  0.00000000000E+00 -0.15412048385E+04  0.15412048385E+04  0.50400001928E-02 0. -1.
    10030    2    1    2    0    0  0.00000000000E+00  0.00000000000E+00 -0.14383223918E+04  0.16440872853E+04  0.79639920837E+03 0.  0.
        3    1    3    3  502    0 -0.29832923213E+03  0.96627484575E+02 -0.12257843406E+04  0.12652606298E+04  0.10100000352E+00 0. -1.
       -3    1    3    3    0  502  0.29832923213E+03 -0.96627484575E+02 -0.21253805115E+03  0.37882665548E+03  0.10100000352E+00 0.  1.
</event>
<event>
 5   0  0.3860515E-03  0.8052506E+03  0.7818609E-02  0.9552448E-01
        1   -1    0    0  501    0  0.00000000000E+00  0.00000000000E+00  0.12011664274E+04  0.12011664274E+04  0.50400001928E-02 0.  1.
       -1   -1    0    0    0  501  0.00000000000E+00  0.00000000000E+00 -0.13495810790E+03  0.13495810800E+03  0.50400001928E-02 0. -1.
    10030    2    1    2    0    0  0.00000000000E+00  0.00000000000E+00  0.10662083195E+04  0.13361245354E+04  0.80525064020E+03 0.  0.
        4    1    3    3  502    0 -0.29420529158E+03 -0.80226060959E+02  0.96931289025E+03  0.10161506121E+04  0.12699999809E+01 0.  1.
       -4    1    3    3    0  502  0.29420529158E+03  0.80226060959E+02  0.96895429217E+02  0.31997392324E+03  0.12699999809E+01 0. -1.
</event>
<event>
 5   0  0.6536209E-03  0.8004343E+03  0.7818609E-02  0.9559389E-01
       -2   -1    0    0    0  501  0.00000000000E+00  0.00000000000E+00  0.48186461720E+03  0.48186461720E+03  0.25500000920E-02 0.  1.
        2   -1    0    0  501    0  0.00000000000E+00  0.00000000000E+00 -0.33240405910E+03  0.33240405911E+03  0.25500000920E-02 0. -1.
    10030    2    1    2    0    0  0.00000000000E+00  0.00000000000E+00  0.14946055810E+03  0.81426867632E+03  0.80043426888E+03 0.  0.
        3    1    3    3  502    0 -0.84378034891E+02 -0.87559535109E+02 -0.31315693924E+03  0.33593690442E+03  0.10100000352E+00 0. -1.
       -3    1    3    3    0  502  0.84378034891E+02  0.87559535109E+02  0.46261749733E+03  0.47833177189E+03  0.10100000352E+00 0.  1.
</event>
<event>
 5   0  0.3671128E-03  0.7967300E+03  0.7818609E-02  0.9564762E-01
        1   -1    0    0  501    0  0.00000000000E+00  0.00000000000E+00  0.53874758748E+03  0.53874758750E+03  0.50400001928E-02 0. -1.
       -1   -1    0    0    0  501  0.00000000000E+00  0.00000000000E+00 -0.29456220909E+03  0.29456220913E+03  0.50400001928E-02 0.  1.
    10030    2    1    2    0    0  0.00000000000E+00  0.00000000000E+00  0.24418537839E+03  0.83330979664E+03  0.79673001585E+03 0.  0.
        2    1    3    3  502    0  0.48340624780E+02 -0.22420734021E+03  0.46275990998E+03  0.51648086286E+03  0.25500000920E-02 0. -1.
       -2    1    3    3    0  502 -0.48340624780E+02  0.22420734021E+03 -0.21857453160E+03  0.31682893377E+03  0.25500000920E-02 0.  1.
</event>
<event>
 5   0  0.3627496E-03  0.8015148E+03  0.7818609E-02  0.9557827E-01
       -1   -1    0    0    0  501  0.00000000000E+00  0.00000000000E+00  0.39173187806E+03  0.39173187809E+03  0.50400001928E-02 0.  1.
        1   -1    0    0  501    0  0.00000000000E+00  0.00000000000E+00 -0.40999087958E+03  0.40999087962E+03  0.50400001928E-02 0. -1.
    10030    2    1    2    0    0  0.00000000000E+00  0.00000000000E+00 -0.18259001529E+02  0.80172275770E+03  0.80151480902E+03 0.  0.
        3    1    3    3  502    0 -0.98325000014E+02  0.37333235015E+03  0.98423452531E+02  0.39841189177E+03  0.10100000352E+00 0.  1.
       -3    1    3    3    0  502  0.98325000014E+02 -0.37333235015E+03 -0.11668245406E+03  0.40331086593E+03  0.10100000352E+00 0. -1.
</event>
<event>
 5   0  0.2478000E-03  0.7865054E+03  0.7818609E-02  0.9579758E-01
       -4   -1    0    0    0  501  0.00000000000E+00  0.00000000000E+00  0.36706452059E+03  0.36706671761E+03  0.12699999809E+01 0. -1.
        4   -1    0    0  501    0  0.00000000000E+00  0.00000000000E+00 -0.42130489446E+03  0.42130680863E+03  0.12699999809E+01 0.  1.
    10030    2    1    2    0    0  0.00000000000E+00  0.00000000000E+00 -0.54240373872E+02  0.78837352623E+03  0.78650543463E+03 0.  0.
        1    1    3    3  502    0 -0.25111607420E+03  0.84649061284E+02 -0.31836659286E+03  0.41422461753E+03  0.50400001928E-02 0.  1.
       -1    1    3    3    0  502  0.25111607420E+03 -0.84649061284E+02  0.26412621899E+03  0.37414890870E+03  0.50400001928E-02 0. -1.
</event>
<event>
 5   0  0.6256781E-03  0.8030661E+03  0.7818609E-02  0.9555590E-01
        2   -1    0    0  501    0  0.00000000000E+00  0.00000000000E+00  0.42758083346E+03  0.42758083347E+03  0.25500000920E-02 0.  1.
       -2   -1    0    0    0  501  0.00000000000E+00  0.00000000000E+00 -0.37707210720E+03  0.37707210721E+03  0.25500000920E-02 0. -1.
    10030    2    1    2    0    0  0.00000000000E+00  0.00000000000E+00  0.50508726263E+02  0.80465294068E+03  0.80306613894E+03 0.  0.
        1    1    3    3  502    0 -0.93909075761E+02  0.20480102238E+03 -0.30776727512E+03  0.38142242847E+03  0.50400001928E-02 0. -1.
       -1    1    3    3    0  502  0.93909075761E+02 -0.20480102238E+03  0.35827600138E+03  0.42323051221E+03  0.50400001928E-02 0.  1.
</event>
<event>
 5   0  0.2478000E-03  0.7991345E+03  0.7818609E-02  0.9561271E-01
        3   -1    0    0  501    0  0.00000000000E+00  0.00000000000E+00  0.78287859236E+03  0.78287859888E+03  0.10100000352E+00 0. -1.
       -3   -1    0    0    0  501  0.00000000000E+00  0.00000000000E+00 -0.20393199105E+03  0.20393201606E+03  0.10100000352E+00 0.  1.
    10030    2    1    2    0    0  0.00000000000E+00  0.00000000000E+00  0.57894660131E+03  0.98681061494E+03  0.79913454599E+03 0.  0.
        1    1    3    3  502    0 -0.19861329285E+03  0.13658583455E+03  0.68298366053E+03  0.72427177970E+03  0.50400001928E-02 0. -1.
       -1    1    3    3    0  502  0.19861329285E+03 -0.13658583455E+03 -0.10403705921E+03  0.26253883524E+03  0.50400001928E-02 0.  1.
</event>
<event>
 5   0  0.3714448E-03  0.7974842E+03  0.7818609E-02  0.9563666E-01
       -1   -1    0    0    0  501  0.00000000000E+00  0.00000000000E+00  0.23361976619E+03  0.23361976624E+03  0.50400001928E-02 0. -1.
        1   -1    0    0  501    0  0.00000000000E+00  0.00000000000E+00 -0.68057281334E+03  0.68057281336E+03  0.50400001928E-02 0.  1.
    10030    2    1    2    0    0  0.00000000000E+00  0.00000000000E+00 -0.44695304716E+03  0.91419257960E+03  0.79748419811E+03 0.  0.
        1    1    3    3  502    0 -0.24564128448E+03 -0.30437195458E+03 -0.13458235457E+03  0.41363551294E+03  0.50400001928E-02 0. -1.
       -1    1    3    3    0  502  0.24564128448E+03  0.30437195458E+03 -0.31237069258E+03  0.50055706666E+03  0.50400001928E-02 0.  1.
</event>
<event>
 5   0  0.6153659E-03  0.7984576E+03  0.7818609E-02  0.9562252E-01
        2   -1    0    0  501    0  0.00000000000E+00  0.00000000000E+00  0.91212699431E+03  0.91212699431E+03  0.25500000920E-02 0.  1.
       -2   -1    0    0    0  501  0.00000000000E+00  0.00000000000E+00 -0.17473842544E+03  0.17473842546E+03  0.25500000920E-02 0. -1.
    10030    2    1    2    0    0  0.00000000000E+00  0.00000000000E+00  0.73738856887E+03  0.10868654198E+04  0.79845760012E+03 0.  0.
        2    1    3    3  502    0 -0.21882457027E+03 -0.31576748335E+03  0.51649857889E+03  0.64371117599E+03  0.25500000920E-02 0.  1.
       -2    1    3    3    0  502  0.21882457027E+03  0.31576748335E+03  0.22088998998E+03  0.44315424378E+03  0.25500000920E-02 0. -1.
</event>
<event>
 5   0  0.3753450E-03  0.7995693E+03  0.7818609E-02  0.9560641E-01
        1   -1    0    0  501    0  0.00000000000E+00  0.00000000000E+00  0.10209167127E+04  0.10209167127E+04  0.50400001928E-02 0. -1.
       -1   -1    0    0    0  501  0.00000000000E+00  0.00000000000E+00 -0.15655320467E+03  0.15655320475E+03  0.50400001928E-02 0.  1.
    10030    2    1    2    0    0  0.00000000000E+00  0.00000000000E+00  0.86436350802E+03  0.11774699175E+04  0.79956934190E+03 0.  0.
        5    1    3    3  502    0  0.79145841793E+02 -0.27127390411E+03  0.84857973837E+03  0.89440665119E+03  0.46999998093E+01 0. -1.
       -5    1    3    3    0  502 -0.79145841793E+02  0.27127390411E+03  0.15783769654E+02  0.28306326626E+03  0.46999998093E+01 0.  1.
</event>
<event>
 5   0  0.3860515E-03  0.7963514E+03  0.7818609E-02  0.9565313E-01
        1   -1    0    0  501    0  0.00000000000E+00  0.00000000000E+00  0.77521632430E+03  0.77521632431E+03  0.50400001928E-02 0.  1.
       -1   -1    0    0    0  501  0.00000000000E+00  0.00000000000E+00 -0.20451569643E+03  0.20451569649E+03  0.50400001928E-02 0. -1.
    10030    2    1    2    0    0  0.00000000000E+00  0.00000000000E+00  0.57070062787E+03  0.97973202080E+03  0.79635144624E+03 0.  0.
        4    1    3    3  502    0  0.21204718824E+03 -0.13107511303E+03 -0.96625298760E+02  0.26736259378E+03  0.12699999809E+01 0. -1.
       -4    1    3    3    0  502 -0.21204718824E+03  0.13107511303E+03  0.66732592663E+03  0.71236942702E+03  0.12699999809E+01 0.  1.
</event>
<event>
 5   0  0.3627496E-03  0.8014414E+03  0.7818609E-02  0.9557933E-01
       -1   -1    0    0    0  501  0.00000000000E+00  0.00000000000E+00  0.24378511891E+03  0.24378511896E+03  0.50400001928E-02 0. -1.
        1   -1    0    0  501    0  0.00000000000E+00  0.00000000000E+00 -0.65868286319E+03  0.65868286321E+03  0.50400001928E-02 0.  1.
    10030    2    1    2    0    0  0.00000000000E+00  0.00000000000E+00 -0.41489774428E+03  0.90246798218E+03  0.80144140188E+03 0.  0.
        3    1    3    3  502    0 -0.11503226200E+03 -0.31035770921E+02  0.22337823523E+03  0.25316691441E+03  0.10100000352E+00 0. -1.
       -3    1    3    3    0  502  0.11503226200E+03  0.31035770921E+02 -0.63827597951E+03  0.64930106776E+03  0.10100000352E+00 0.  1.
</event>
<event>
 5   0  0.2478000E-03  0.8013834E+03  0.7818609E-02  0.9558017E-01
        3   -1    0    0  501    0  0.00000000000E+00  0.00000000000E+00  0.78277774812E+03  0.78277775464E+03  0.10100000352E+00 0. -1.
       -3   -1    0    0    0  501  0.00000000000E+00  0.00000000000E+00 -0.20510780543E+03  0.20510783030E+03  0.10100000352E+00 0.  1.
    10030    2    1    2    0    0  0.00000000000E+00  0.00000000000E+00  0.57766994269E+03  0.98788558493E+03  0.80138340776E+03 0.  0.
        2    1    3    3  502    0 -0.14821427888E+03 -0.35367402404E+03  0.43207029576E+03  0.57770020619E+03  0.25500000920E-02 0. -1.
       -2    1    3    3    0  502  0.14821427888E+03  0.35367402404E+03  0.14559964694E+03  0.41018537875E+03  0.25500000920E-02 0.  1.
</event>
<event>
 5   0  0.6536209E-03  0.8074271E+03  0.7818609E-02  0.9549329E-01
        2   -1    0    0  501    0  0.00000000000E+00  0.00000000000E+00  0.98330710933E+03  0.98330710934E+03  0.25500000920E-02 0.  1.
       -2   -1    0    0    0  501  0.00000000000E+00  0.00000000000E+00 -0.16575148600E+03  0.16575148602E+03  0.25500000920E-02 0. -1.
    10030    2    1    2    0    0  0.00000000000E+00  0.00000000000E+00  0.81755562334E+03  0.11490585954E+04  0.80742706067E+03 0.  0.
        3    1    3    3  502    0  0.50492453254E+02  0.36915614691E+03  0.62997370283E+03  0.73191025754E+03  0.10100000352E+00 0.  1.
       -3    1    3    3    0  502 -0.50492453254E+02 -0.36915614691E+03  0.18758192051E+03  0.41714833781E+03  0.10100000352E+00 0. -1.
</event>
<event>
 5   0  0.6337108E-03  0.7980717E+03  0.7818609E-02  0.9562812E-01
       -2   -1    0    0    0  501  0.00000000000E+00  0.00000000000E+00  0.40247047647E+03  0.40247047648E+03  0.25500000920E-02 0. -1.
        2   -1    0    0  501    0  0.00000000000E+00  0.00000000000E+00 -0.39563051578E+03  0.39563051579E+03  0.25500000920E-02 0.  1.
    10030    2    1    2    0    0  0.00000000000E+00  0.00000000000E+00  0.68399606882E+01  0.79810099227E+03  0.79807168150E+03 0.  0.
        4    1    3    3  502    0 -0.14351967865E+03 -0.12017084533E+03 -0.34899764326E+03  0.39603017325E+03  0.12699999809E+01 0.  1.
       -4    1    3    3    0  502  0.14351967865E+03  0.12017084533E+03  0.35583760395E+03  0.40207081902E+03  0.12699999809E+01 0. -1.
</event>
<event>
 5   0  0.3860515E-03  0.8003232E+03  0.7818609E-02  0.9559549E-01
        1   -1    0    0  501    0  0.00000000000E+00  0.00000000000E+00  0.41609649182E+03  0.41609649185E+03  0.50400001928E-02 0. -1.
       -1   -1    0    0    0  501  0.00000000000E+00  0.00000000000E+00 -0.38483696034E+03  0.38483696038E+03  0.50400001928E-02 0.  1.
    10030    2    1    2    0    0  0.00000000000E+00  0.00000000000E+00  0.31259531481E+02  0.80093345223E+03  0.80032320758E+03 0.  0.
        4    1    3    3  502    0  0.14632129451E+03 -0.36404292156E+03  0.94369656552E+02  0.40353985546E+03  0.12699999809E+01 0. -1.
       -4    1    3    3    0  502 -0.14632129451E+03  0.36404292156E+03 -0.63110125072E+02  0.39739359677E+03  0.12699999809E+01 0.  1.
</event>
<event>
 5   0  0.3753450E-03  0.8081460E+03  0.7818609E-02  0.9548300E-01
        1   -1    0    0  501    0  0.00000000000E+00  0.00000000000E+00  0.91149343091E+03  0.91149343093E+03  0.50400001928E-02 0. -1.
       -1   -1    0    0    0  501  0.00000000000E+00  0.00000000000E+00 -0.17912911185E+03  0.17912911192E+03  0.50400001928E-02 0.  1.
    10030    2    1    2    0    0  0.00000000000E+00  0.00000000000E+00  0.73236431906E+03  0.10906225428E+04  0.80814604814E+03 0.  0.
        5    1    3    3  502    0 -0.33766392862E+02  0.49060144565E+02 -0.17313598441E+03  0.18315355899E+03  0.46999998093E+01 0.  1.
       -5    1    3    3    0  502  0.33766392862E+02 -0.49060144565E+02  0.90550030348E+03  0.90746898386E+03  0.46999998093E+01 0. -1.
</event>
<event>
 5   0  0.6536209E-03  0.7868962E+03  0.7818609E-02  0.9579180E-01
       -2   -1    0    0    0  501  0.00000000000E+00  0.00000000000E+00  0.20267813092E+03  0.20267813093E+03  0.25500000920E-02 0. -1.
        2   -1    0    0  501    0  0.00000000000E+00  0.00000000000E+00 -0.76377948227E+03  0.76377948227E+03  0.25500000920E-02 0.  1.
    10030    2    1    2    0    0  0.00000000000E+00  0.00000000000E+00 -0.56110135135E+03  0.96645761320E+03  0.78689617589E+03 0.  0.
        3    1    3    3  502    0 -0.86697431608E+02 -0.28226165463E+03 -0.59991135819E+03  0.66864170840E+03  0.10100000352E+00 0.  1.
       -3    1    3    3    0  502  0.86697431608E+02  0.28226165463E+03  0.38810006842E+02  0.29781590480E+03  0.10100000352E+00 0. -1.
</event>
<event>
 5   0  0.3671128E-03  0.7942453E+03  0.7818609E-02  0.9568384E-01
       -1   -1    0    0    0  501  0.00000000000E+00  0.00000000000E+00  0.28842341185E+03  0.28842341190E+03  0.50400001928E-02 0.  1.
        1   -1    0    0  501    0  0.00000000000E+00  0.00000000000E+00 -0.54678782696E+03  0.54678782698E+03  0.50400001928E-02 0. -1.
    10030    2    1    2    0    0  0.00000000000E+00  0.00000000000E+00 -0.25836441510E+03  0.83521123888E+03  0.79424532895E+03 0.  0.
        2    1    3    3  502    0  0.24814291640E+03 -0.66523727309E+02 -0.44763185058E+03  0.51611489701E+03  0.25500000920E-02 0. -1.
       -2    1    3    3    0  502 -0.24814291640E+03  0.66523727309E+02  0.18926743547E+03  0.31909634187E+03  0.25500000920E-02 0.  1.
</event>
<event>
 5   0  0.6536209E-03  0.8014008E+03  0.7818609E-02  0.9557992E-01
       -2   -1    0    0    0  501  0.00000000000E+00  0.00000000000E+00  0.31692680124E+03  0.31692680125E+03  0.25500000920E-02 0. -1.
        2   -1    0    0  501    0  0.00000000000E+00  0.00000000000E+00 -0.50661800934E+03  0.50661800935E+03  0.25500000920E-02 0.  1.
    10030    2    1    2    0    0  0.00000000000E+00  0.00000000000E+00 -0.18969120810E+03  0.82354481060E+03  0.80140083643E+03 0.  0.
        3    1    3    3  502    0 -0.38867935272E+03  0.49526213374E+02 -0.86449540745E+01  0.39191737711E+03  0.10100000352E+00 0. -1.
       -3    1    3    3    0  502  0.38867935272E+03 -0.49526213374E+02 -0.18104625403E+03  0.43162743349E+03  0.10100000352E+00 0.  1.
</event>
<event>
 5   0  0.3753450E-03  0.8031194E+03  0.7818609E-02  0.9555513E-01
       -1   -1    0    0    0  501  0.00000000000E+00  0.00000000000E+00  0.51401836578E+03  0.51401836581E+03  0.50400001928E-02 0. -1.
        1   -1    0    0  501    0  0.00000000000E+00  0.00000000000E+00 -0.31370510078E+03  0.31370510082E+03  0.50400001928E-02 0.  1.
    10030    2    1    2    0    0  0.00000000000E+00  0.00000000000E+00  0.20031326500E+03  0.82772346663E+03  0.80311937660E+03 0.  0.
        5    1    3    3  502    0  0.25509333177E+03  0.57661025336E+02 -0.21385877424E+03  0.33786841680E+03  0.46999998093E+01 0.  1.
       -5    1    3    3    0  502 -0.25509333177E+03 -0.57661025336E+02  0.41417203924E+03  0.48985504983E+03  0.46999998093E+01 0. -1.
</event>
<event>
 5   0  0.3671128E-03  0.7971128E+03  0.7818609E-02  0.9564206E-01
        1   -1    0    0  501    0  0.00000000000E+00  0.00000000000E+00  0.35955428018E+03  0.35955428021E+03  0.50400001928E-02 0.  1.
       -1   -1    0    0    0  501  0.00000000000E+00  0.00000000000E+00 -0.44178917636E+03  0.44178917639E+03  0.50400001928E-02 0. -1.
    10030    2    1    2    0    0  0.00000000000E+00  0.00000000000E+00 -0.82234896185E+02  0.80134345660E+03  0.79711276322E+03 0.  0.
        2    1    3    3  502    0  0.25793767632E+03 -0.18013598300E+03  0.20485723080E+03  0.37542949039E+03  0.25500000920E-02 0.  1.
       -2    1    3    3    0  502 -0.25793767632E+03  0.18013598300E+03 -0.28709212698E+03  0.42591396622E+03  0.25500000920E-02 0. -1.
</event>
<event>
 5   0  0.5813850E-03  0.8199490E+03  0.7818609E-02  0.9531582E-01
        2   -1    0    0  501    0  0.00000000000E+00  0.00000000000E+00  0.31048533496E+04  0.31048533496E+04  0.25500000920E-02 0. -1.
       -2   -1    0    0    0  501  0.00000000000E+00  0.00000000000E+00 -0.54134302569E+02  0.54134302629E+02  0.25500000920E-02 0.  1.
    10030    2    1    2    0    0  0.00000000000E+00  0.00000000000E+00  0.30507190470E+04  0.31589876522E+04  0.81994895148E+03 0.  0.
        5    1    3    3  502    0  0.14462121522E+03  0.38343188533E+03  0.14828623232E+04  0.15384531407E+04  0.46999998093E+01 0. -1.
       -5    1    3    3    0  502 -0.14462121522E+03 -0.38343188533E+03  0.15678567239E+04  0.16205345116E+04  0.46999998093E+01 0.  1.
</event>
<event>
 5   0  0.3714448E-03  0.8000233E+03  0.7818609E-02  0.9559983E-01
       -1   -1    0    0    0  501  0.00000000000E+00  0.00000000000E+00  0.12838249589E+04  0.12838249589E+04  0.50400001928E-02 0.  1.
        1   -1    0    0  501    0  0.00000000000E+00  0.00000000000E+00 -0.12463485154E+03  0.12463485164E+03  0.50400001928E-02 0. -1.
    10030    2    1    2    0    0  0.00000000000E+00  0.00000000000E+00  0.11591901074E+04  0.14084598105E+04  0.80002333274E+03 0.  0.
        1    1    3    3  502    0 -0.14093974195E+03  0.34040887848E+03  0.30534235804E+03  0.47851454633E+03  0.50400001928E-02 0. -1.
       -1    1    3    3    0  502  0.14093974195E+03 -0.34040887848E+03  0.85384774931E+03  0.92994526422E+03  0.50400001928E-02 0.  1.
</event>
<event>
 5   0  0.3714448E-03  0.8009234E+03  0.7818609E-02  0.9558681E-01
        1   -1    0    0  501    0  0.00000000000E+00  0.00000000000E+00  0.11928536927E+04  0.11928536927E+04  0.50400001928E-02 0. -1.
       -1   -1    0    0    0  501  0.00000000000E+00  0.00000000000E+00 -0.13444194457E+03  0.13444194466E+03  0.50400001928E-02 0.  1.
    10030    2    1    2    0    0  0.00000000000E+00  0.00000000000E+00  0.10584117481E+04  0.13272956374E+04  0.80092339234E+03 0.  0.
        1    1    3    3  502    0 -0.14047675071E+03  0.19550911137E+03  0.10595432034E+04  0.10865492764E+04  0.50400001928E-02 0. -1.
       -1    1    3    3    0  502  0.14047675071E+03 -0.19550911137E+03 -0.11314552549E+01  0.24074636100E+03  0.50400001928E-02 0.  1.
</event>
<event>
 5   0  0.6536209E-03  0.8044858E+03  0.7818609E-02  0.9553547E-01
        2   -1    0    0  501    0  0.00000000000E+00  0.00000000000E+00  0.59216910472E+03  0.59216910472E+03  0.25500000920E-02 0. -1.
       -2   -1    0    0    0  501  0.00000000000E+00  0.00000000000E+00 -0.27323168558E+03  0.27323168559E+03  0.25500000920E-02 0.  1.
    10030    2    1    2    0    0  0.00000000000E+00  0.00000000000E+00  0.31893741914E+03  0.86540079031E+03  0.80448582992E+03 0.  0.
        3    1    3    3  502    0  0.64506216307E+02 -0.39122850092E+03  0.23225731018E+03  0.45952612571E+03  0.10100000352E+00 0. -1.
       -3    1    3    3    0  502 -0.64506216307E+02  0.39122850092E+03  0.86680108965E+02  0.40587466460E+03  0.10100000352E+00 0.  1.
</event>
<event>
 5   0  0.3671128E-03  0.8071311E+03  0.7818609E-02  0.9549752E-01
       -1   -1    0    0    0  501  0.00000000000E+00  0.00000000000E+00  0.24795797890E+03  0.24795797895E+03  0.50400001928E-02 0.  1.
        1   -1    0    0  501    0  0.00000000000E+00  0.00000000000E+00 -0.65682561869E+03  0.65682561871E+03  0.50400001928E-02 0. -1.
    10030    2    1    2    0    0  0.00000000000E+00  0.00000000000E+00 -0.40886763979E+03  0.90478359767E+03  0.80713109947E+03 0.  0.
        2    1    3    3  502    0  0.12899834687E+03  0.29946701194E+03  0.62125726161E+02  0.33193473845E+03  0.25500000920E-02 0.  1.
       -2    1    3    3    0  502 -0.12899834687E+03 -0.29946701194E+03 -0.47099336595E+03  0.57284885922E+03  0.25500000920E-02 0. -1.
</event>
<event>
 5   0  0.3714448E-03  0.7984745E+03  0.7818609E-02  0.9562228E-01
       -1   -1    0    0    0  501  0.00000000000E+00  0.00000000000E+00  0.16645515887E+03  0.16645515895E+03  0.50400001928E-02 0. -1.
        1   -1    0    0  501    0  0.00000000000E+00  0.00000000000E+00 -0.95755752453E+03  0.95755752454E+03  0.50400001928E-02 0.  1.
    10030    2    1    2    0    0  0.00000000000E+00  0.00000000000E+00 -0.79110236566E+03  0.11240126835E+04  0.79847452039E+03 0.  0.
        1    1    3    3  502    0  0.13081208567E+03  0.28275950057E+03 -0.44117350604E+02  0.31466025738E+03  0.50400001928E-02 0. -1.
       -1    1    3    3    0  502 -0.13081208567E+03 -0.28275950057E+03 -0.74698501505E+03  0.80935242612E+03  0.50400001928E-02 0.  1.
</event>
<event>
 5   0  0.5813850E-03  0.7992471E+03  0.7818609E-02  0.9561108E-01
        2   -1    0    0  501    0  0.00000000000E+00  0.00000000000E+00  0.11150434846E+04  0.11150434846E+04  0.25500000920E-02 0.  1.
       -2   -1    0    0    0  501  0.00000000000E+00  0.00000000000E+00 -0.14322218802E+03  0.14322218805E+03  0.25500000920E-02 0. -1.
    10030    2    1    2    0    0  0.00000000000E+00  0.00000000000E+00  0.97182129658E+03  0.12582656727E+04  0.79924706473E+03 0.  0.
        5    1    3    3  502    0  0.13952487896E+03  0.32418771678E+03  0.19091259861E+03  0.40129113854E+03  0.46999998093E+01 0. -1.
       -5    1    3    3    0  502 -0.13952487896E+03 -0.32418771678E+03  0.78090869797E+03  0.85697453411E+03  0.46999998093E+01 0.  1.
</event>
<event>
 5   0  0.3753450E-03  0.8042281E+03  0.7818609E-02  0.9553917E-01
        1   -1    0    0  501    0  0.00000000000E+00  0.00000000000E+00  0.26800898279E+03  0.26800898283E+03  0.50400001928E-02 0.  1.
       -1   -1    0    0    0  501  0.00000000000E+00  0.00000000000E+00 -0.60332194732E+03  0.60332194734E+03  0.50400001928E-02 0. -1.
    10030    2    1    2    0    0  0.00000000000E+00  0.00000000000E+00 -0.33531296454E+03  0.87133093018E+03  0.80422808065E+03 0.  0.
        5    1    3    3  502    0  0.17823246242E+03  0.25358931229E+03  0.10983737430E+03  0.32887792380E+03  0.46999998093E+01 0.  1.
       -5    1    3    3    0  502 -0.17823246242E+03 -0.25358931229E+03 -0.44515033883E+03  0.54245300638E+03  0.46999998093E+01 0. -1.
</event>
<event>
 5   0  0.6536209E-03  0.8060112E+03  0.7818609E-02  0.9551357E-01
        2   -1    0    0  501    0  0.00000000000E+00  0.00000000000E+00  0.38169846617E+03  0.38169846617E+03  0.25500000920E-02 0. -1.
       -2   -1    0    0    0  501  0.00000000000E+00  0.00000000000E+00 -0.42550217065E+03  0.42550217066E+03  0.25500000920E-02 0.  1.
    10030    2    1    2    0    0  0.00000000000E+00  0.00000000000E+00 -0.43803704488E+02  0.80720063684E+03  0.80601123043E+03 0.  0.
        3    1    3    3  502    0 -0.34473215759E+03  0.10524677601E+03  0.15863166250E+03  0.39380345210E+03  0.10100000352E+00 0. -1.
       -3    1    3    3    0  502  0.34473215759E+03 -0.10524677601E+03 -0.20243536699E+03  0.41339718474E+03  0.10100000352E+00 0.  1.
</event>
<event>
 5   0  0.3671128E-03  0.8010072E+03  0.7818609E-02  0.9558560E-01
       -1   -1    0    0    0  501  0.00000000000E+00  0.00000000000E+00  0.30052171420E+03  0.30052171424E+03  0.50400001928E-02 0. -1.
        1   -1    0    0  501    0  0.00000000000E+00  0.00000000000E+00 -0.53374889560E+03  0.53374889562E+03  0.50400001928E-02 0.  1.
    10030    2    1    2    0    0  0.00000000000E+00  0.00000000000E+00 -0.23322718139E+03  0.83427060987E+03  0.80100719868E+03 0.  0.
        2    1    3    3  502    0  0.34320293102E+03 -0.16899069693E+03  0.68722726952E+01  0.38261382051E+03  0.25500000920E-02 0. -1.
       -2    1    3    3    0  502 -0.34320293102E+03  0.16899069693E+03 -0.24009945409E+03  0.45165678935E+03  0.25500000920E-02 0.  1.
</event>
<event>
 5   0  0.3671128E-03  0.8004823E+03  0.7818609E-02  0.9559319E-01
        1   -1    0    0  501    0  0.00000000000E+00  0.00000000000E+00  0.78723374548E+03  0.78723374550E+03  0.50400001928E-02 0. -1.
       -1   -1    0    0    0  501  0.00000000000E+00  0.00000000000E+00 -0.20348843232E+03  0.20348843239E+03  0.50400001928E-02 0.  1.
    10030    2    1    2    0    0  0.00000000000E+00  0.00000000000E+00  0.58374531316E+03  0.99072217789E+03  0.80048225659E+03 0.  0.
        2    1    3    3  502    0  0.14222280487E+03  0.19456433078E+03 -0.10361694547E+03  0.26233390256E+03  0.25500000920E-02 0.  1.
       -2    1    3    3    0  502 -0.14222280487E+03 -0.19456433078E+03  0.68736225863E+03  0.72838827533E+03  0.25500000920E-02 0. -1.
</event>
<event>
 5   0  0.3714448E-03  0.7963392E+03  0.7818609E-02  0.9565331E-01
       -1   -1    0    0    0  501  0.00000000000E+00  0.00000000000E+00  0.27539639434E+03  0.27539639439E+03  0.50400001928E-02 0. -1.
        1   -1    0    0  501    0  0.00000000000E+00  0.00000000000E+00 -0.57567575704E+03  0.57567575707E+03  0.50400001928E-02 0.  1.
    10030    2    1    2    0    0  0.00000000000E+00  0.00000000000E+00 -0.30027936270E+03  0.85107215145E+03  0.79633919363E+03 0.  0.
        1    1    3    3  502    0 -0.35584522565E+03 -0.11768024203E+03 -0.29378187494E+03  0.47621660413E+03  0.50400001928E-02 0.  1.
       -1    1    3    3    0  502  0.35584522565E+03  0.11768024203E+03 -0.64974877641E+01  0.37485554732E+03  0.50400001928E-02 0. -1.
</event>
<event>
 5   0  0.3860515E-03  0.8011364E+03  0.7818609E-02  0.9558374E-01
        1   -1    0    0  501    0  0.00000000000E+00  0.00000000000E+00  0.45772992869E+03  0.45772992872E+03  0.50400001928E-02 0.  1.
       -1   -1    0    0    0  501  0.00000000000E+00  0.00000000000E+00 -0.35054484064E+03  0.35054484067E+03  0.50400001928E-02 0. -1.
    10030    2    1    2    0    0  0.00000000000E+00  0.00000000000E+00  0.10718508806E+03  0.80827476939E+03  0.80113635527E+03 0.  0.
        4    1    3    3  502    0 -0.81140411940E+02 -0.25043426092E+03 -0.25101179104E+03  0.36374389017E+03  0.12699999809E+01 0. -1.
       -4    1    3    3    0  502  0.81140411940E+02  0.25043426092E+03  0.35819687910E+03  0.44453087923E+03  0.12699999809E+01 0.  1.
</event>
<event>
 5   0  0.6153659E-03  0.8038084E+03  0.7818609E-02  0.9554521E-01
       -2   -1    0    0    0  501  0.00000000000E+00  0.00000000000E+00  0.49554345758E+03  0.49554345759E+03  0.25500000920E-02 0. -1.
        2   -1    0    0  501    0  0.00000000000E+00  0.00000000000E+00 -0.32595927046E+03  0.32595927047E+03  0.25500000920E-02 0.  1.
    10030    2    1    2    0    0  0.00000000000E+00  0.00000000000E+00  0.16958418712E+03  0.82150272806E+03  0.80380839489E+03 0.  0.
        2    1    3    3  502    0  0.18038013522E+03  0.18563510105E+02  0.45135927565E+03  0.48642244275E+03  0.25500000920E-02 0. -1.
       -2    1    3    3    0  502 -0.18038013522E+03 -0.18563510105E+02 -0.28177508853E+03  0.33508028532E+03  0.25500000920E-02 0.  1.
</event>
<event>
 5   0  0.6256781E-03  0.8350312E+03  0.7818609E-02  0.9510651E-01
       -2   -1    0    0    0  501  0.00000000000E+00  0.00000000000E+00  0.99273877424E+02  0.99273877457E+02  0.25500000920E-02 0. -1.
        2   -1    0    0  501    0  0.00000000000E+00  0.00000000000E+00 -0.17559432666E+04  0.17559432666E+04  0.25500000920E-02 0.  1.
    10030    2    1    2    0    0  0.00000000000E+00  0.00000000000E+00 -0.16566693892E+04  0.18552171441E+04  0.83503124886E+03 0.  0.
        1    1    3    3  502    0 -0.11948029135E+02 -0.37301359031E+03 -0.12442050590E+04  0.12989719485E+04  0.50400001928E-02 0.  1.
       -1    1    3    3    0  502  0.11948029135E+02  0.37301359031E+03 -0.41246433014E+03  0.55624519559E+03  0.50400001928E-02 0. -1.
</event>
<event>
 5   0  0.6536209E-03  0.7981584E+03  0.7818609E-02  0.9562687E-01
        2   -1    0    0  501    0  0.00000000000E+00  0.00000000000E+00  0.98192241646E+02  0.98192241679E+02  0.25500000920E-02 0. -1.
       -2   -1    0    0    0  501  0.00000000000E+00  0.00000000000E+00 -0.16219633786E+04  0.16219633786E+04  0.25500000920E-02 0.  1.
    10030    2    1    2    0    0  0.00000000000E+00  0.00000000000E+00 -0.15237711370E+04  0.17201556203E+04  0.79815843051E+03 0.  0.
        3    1    3    3  502    0  0.12435010351E+03  0.37234331823E+03 -0.60704824942E+03  0.72291775618E+03  0.10100000352E+00 0. -1.
       -3    1    3    3    0  502 -0.12435010351E+03 -0.37234331823E+03 -0.91672288758E+03  0.99723786414E+03  0.10100000352E+00 0.  1.
</event>
<event>
 5   0  0.6256781E-03  0.8013168E+03  0.7818609E-02  0.9558113E-01
        2   -1    0    0  501    0  0.00000000000E+00  0.00000000000E+00  0.63379678151E+03  0.63379678152E+03  0.25500000920E-02 0. -1.
       -2   -1    0    0    0  501  0.00000000000E+00  0.00000000000E+00 -0.25327857275E+03  0.25327857277E+03  0.25500000920E-02 0.  1.
    10030    2    1    2    0    0  0.00000000000E+00  0.00000000000E+00  0.38051820876E+03  0.88707535428E+03  0.80131677693E+03 0.  0.
        1    1    3    3  502    0 -0.27938730406E+03 -0.22309210566E+03  0.39044282919E+03  0.52940811872E+03  0.50400001928E-02 0. -1.
       -1    1    3    3    0  502  0.27938730406E+03  0.22309210566E+03 -0.99246204360E+01  0.35766723556E+03  0.50400001928E-02 0.  1.
</event>
<event>
 5   0  0.6337108E-03  0.8145537E+03  0.7818609E-02  0.9539187E-01
        2   -1    0    0  501    0  0.00000000000E+00  0.00000000000E+00  0.29401479666E+04  0.29401479666E+04  0.25500000920E-02 0.  1.
       -2   -1    0    0    0  501  0.00000000000E+00  0.00000000000E+00 -0.56417038384E+02  0.56417038442E+02  0.25500000920E-02 0. -1.
    10030    2    1    2    0    0  0.00000000000E+00  0.00000000000E+00  0.28837309282E+04  0.29965650050E+04  0.81455372020E+03 0.  0.
        4    1    3    3  502    0  0.90868416727E+02 -0.20698802888E+03  0.26881620541E+04  0.26976504509E+04  0.12699999809E+01 0.  1.
       -4    1    3    3    0  502 -0.90868416727E+02  0.20698802888E+03  0.19556887413E+03  0.29891455416E+03  0.12699999809E+01 0. -1.
</event>
<event>
 5   0  0.3627496E-03  0.8027096E+03  0.7818609E-02  0.9556103E-01
        1   -1    0    0  501    0  0.00000000000E+00  0.00000000000E+00  0.52475369669E+03  0.52475369671E+03  0.50400001928E-02 0. -1.
       -1   -1    0    0    0  501  0.00000000000E+00  0.00000000000E+00 -0.30697388184E+03  0.30697388188E+03  0.50400001928E-02 0.  1.
    10030    2    1    2    0    0  0.00000000000E+00  0.00000000000E+00  0.21777981485E+03  0.83172757859E+03  0.80270960953E+03 0.  0.
        3    1    3    3  502    0 -0.32451945788E+03  0.19466870447E+03  0.24742779977E+03  0.45213859528E+03  0.10100000352E+00 0. -1.
       -3    1    3    3    0  502  0.32451945788E+03 -0.19466870447E+03 -0.29647984918E+02  0.37958898331E+03  0.10100000352E+00 0.  1.
</event>
<event>
 5   0  0.3714448E-03  0.8054912E+03  0.7818609E-02  0.9552103E-01
       -1   -1    0    0    0  501  0.00000000000E+00  0.00000000000E+00  0.37946813428E+03  0.37946813431E+03  0.50400001928E-02 0. -1.
        1   -1    0    0  501    0  0.00000000000E+00  0.00000000000E+00 -0.42745100089E+03  0.42745100092E+03  0.50400001928E-02 0.  1.
    10030    2    1    2    0    0  0.00000000000E+00  0.00000000000E+00 -0.47982866608E+02  0.80691913523E+03  0.80549123851E+03 0.  0.
        1    1    3    3  502    0 -0.22893564599E+03 -0.27238783451E+03 -0.21299855065E+03  0.41469874005E+03  0.50400001928E-02 0.  1.
       -1    1    3    3    0  502  0.22893564599E+03  0.27238783451E+03  0.16501568404E+03  0.39222039518E+03  0.50400001928E-02 0. -1.
</event>
<event>
 5   0  0.3753450E-03  0.8122202E+03  0.7818609E-02  0.9542495E-01
       -1   -1    0    0    0  501  0.00000000000E+00  0.00000000000E+00  0.18421056829E+03  0.18421056836E+03  0.50400001928E-02 0. -1.
        1   -1    0    0  501    0  0.00000000000E+00  0.00000000000E+00 -0.89530913617E+03  0.89530913618E+03  0.50400001928E-02 0.  1.
    10030    2    1    2    0    0  0.00000000000E+00  0.00000000000E+00 -0.71109856788E+03  0.10795197045E+04  0.81222017904E+03 0.  0.
        5    1    3    3  502    0 -0.33055149107E+03 -0.19489019399E+03 -0.53215846456E+03  0.65609541788E+03  0.46999998093E+01 0.  1.
       -5    1    3    3    0  502  0.33055149107E+03  0.19489019399E+03 -0.17894010332E+03  0.42342428666E+03  0.46999998093E+01 0. -1.
</event>
<event>
 5   0  0.3714448E-03  0.8003379E+03  0.7818609E-02  0.9559528E-01
        1   -1    0    0  501    0  0.00000000000E+00  0.00000000000E+00  0.27843990642E+03  0.27843990647E+03  0.50400001928E-02 0. -1.
       -1   -1    0    0    0  501  0.00000000000E+00  0.00000000000E+00 -0.57511585909E+03  0.57511585911E+03  0.50400001928E-02 0.  1.
    10030    2    1    2    0    0  0.00000000000E+00  0.00000000000E+00 -0.29667595267E+03  0.85355576558E+03  0.80033794366E+03 0.  0.
        1    1    3    3  502    0 -0.18100766686E+03  0.35563003390E+03 -0.18030985546E+03  0.43789055765E+03  0.50400001928E-02 0. -1.
       -1    1    3    3    0  502  0.18100766686E+03 -0.35563003390E+03 -0.11636609721E+03  0.41566520793E+03  0.50400001928E-02 0.  1.
</event>
<event>
 5   0  0.3860515E-03  0.8015167E+03  0.7818609E-02  0.9557824E-01
       -1   -1    0    0    0  501  0.00000000000E+00  0.00000000000E+00  0.45117294114E+03  0.45117294117E+03  0.50400001928E-02 0.  1.
        1   -1    0    0  501    0  0.00000000000E+00  0.00000000000E+00 -0.35597714163E+03  0.35597714167E+03  0.50400001928E-02 0. -1.
    10030    2    1    2    0    0  0.00000000000E+00  0.00000000000E+00  0.95195799507E+02  0.80715008284E+03  0.80151669725E+03 0.  0.
        4    1    3    3  502    0 -0.63090484368E+02 -0.19616919636E+03  0.39373288329E+03  0.44439842383E+03  0.12699999809E+01 0.  1.
       -4    1    3    3    0  502  0.63090484368E+02  0.19616919636E+03 -0.29853708378E+03  0.36275165901E+03  0.12699999809E+01 0. -1.
</event>
<event>
 5   0  0.3627496E-03  0.7974469E+03  0.7818609E-02  0.9563720E-01
       -1   -1    0    0    0  501  0.00000000000E+00  0.00000000000E+00  0.88938224629E+02  0.88938224772E+02  0.50400001928E-02 0. -1.
        1   -1    0    0  501    0  0.00000000000E+00  0.00000000000E+00 -0.17875371144E+04  0.17875371144E+04  0.50400001928E-02 0.  1.
    10030    2    1    2    0    0  0.00000000000E+00  0.00000000000E+00 -0.16985988898E+04  0.18764753392E+04  0.79744686984E+03 0.  0.
        3    1    3    3  502    0  0.79961910828E+02  0.32809815264E+03 -0.35047437155E+03  0.48669764769E+03  0.10100000352E+00 0. -1.
       -3    1    3    3    0  502 -0.79961910828E+02 -0.32809815264E+03 -0.13481245182E+04  0.13897776915E+04  0.10100000352E+00 0.  1.
</event>
<event>
 5   0  0.6337108E-03  0.8071142E+03  0.7818609E-02  0.9549776E-01
        2   -1    0    0  501    0  0.00000000000E+00  0.00000000000E+00  0.35054075532E+03  0.35054075533E+03  0.25500000920E-02 0.  1.
       -2   -1    0    0    0  501  0.00000000000E+00  0.00000000000E+00 -0.46459168507E+03  0.46459168508E+03  0.25500000920E-02 0. -1.
    10030    2    1    2    0    0  0.00000000000E+00  0.00000000000E+00 -0.11405092975E+03  0.81513244040E+03  0.80711416839E+03 0.  0.
        4    1    3    3  502    0  0.10068695134E+03 -0.20664132457E+03  0.27795963486E+03  0.36069609188E+03  0.12699999809E+01 0.  1.
       -4    1    3    3    0  502 -0.10068695134E+03  0.20664132457E+03 -0.39201056461E+03  0.45443634852E+03  0.12699999809E+01 0. -1.
</event>
<event>
 5   0  0.3671128E-03  0.7935936E+03  0.7818609E-02  0.9569337E-01
       -1   -1    0    0    0  501  0.00000000000E+00  0.00000000000E+00  0.28101867924E+03  0.28101867928E+03  0.50400001928E-02 0. -1.
        1   -1    0    0  501    0  0.00000000000E+00  0.00000000000E+00 -0.56027490184E+03  0.56027490186E+03  0.50400001928E-02 0.  1.
    10030    2    1    2    0    0  0.00000000000E+00  0.00000000000E+00 -0.27925622260E+03  0.84129358115E+03  0.79359363141E+03 0.  0.
        2    1    3    3  502    0 -0.27301143003E+03 -0.58526958142E+02 -0.43850865050E+03  0.51985621313E+03  0.25500000920E-02 0.  1.
       -2    1    3    3    0  502  0.27301143003E+03  0.58526958142E+02  0.15925242790E+03  0.32143736802E+03  0.25500000920E-02 0. -1.
</event>
<event>
 5   0  0.3627496E-03  0.8003076E+03  0.7818609E-02  0.9559572E-01
       -1   -1    0    0    0  501  0.00000000000E+00  0.00000000000E+00  0.19818376917E+03  0.19818376924E+03  0.50400001928E-02 0.  1.
        1   -1    0    0  501    0  0.00000000000E+00  0.00000000000E+00 -0.80795237610E+03  0.80795237611E+03  0.50400001928E-02 0. -1.
    10030    2    1    2    0    0  0.00000000000E+00  0.00000000000E+00 -0.60976860692E+03  0.10061361454E+04  0.80030755900E+03 0.  0.
        3    1    3    3  502    0 -0.23867653886E+03  0.26191708756E+03 -0.53858579149E+03  0.64470281212E+03  0.10100000352E+00 0. -1.
       -3    1    3    3    0  502  0.23867653886E+03 -0.26191708756E+03 -0.71182815432E+02  0.36143333323E+03  0.10100000352E+00 0.  1.
</event>
<event>
 5   0  0.5813850E-03  0.7999662E+03  0.7818609E-02  0.9560066E-01
       -2   -1    0    0    0  501  0.00000000000E+00  0.00000000000E+00  0.28101703516E+03  0.28101703517E+03  0.25500000920E-02 0. -1.
        2   -1    0    0  501    0  0.00000000000E+00  0.00000000000E+00 -0.56931245967E+03  0.56931245968E+03  0.25500000920E-02 0.  1.
    10030    2    1    2    0    0  0.00000000000E+00  0.00000000000E+00 -0.28829542451E+03  0.85032949485E+03  0.79996624805E+03 0.  0.
        5    1    3    3  502    0  0.54314412395E+02 -0.39145167944E+03 -0.20949955645E+03  0.44732161459E+03  0.46999998093E+01 0. -1.
       -5    1    3    3    0  502 -0.54314412395E+02  0.39145167944E+03 -0.78795868063E+02  0.40300788026E+03  0.46999998093E+01 0.  1.
</event>
<event>
 5   0  0.3671128E-03  0.8022305E+03  0.7818609E-02  0.9556794E-01
        1   -1    0    0  501    0  0.00000000000E+00  0.00000000000E+00  0.56578200953E+03  0.56578200956E+03  0.50400001928E-02 0. -1.
       -1   -1    0    0    0  501  0.00000000000E+00  0.00000000000E+00 -0.28437356705E+03  0.28437356709E+03  0.50400001928E-02 0.  1.
    10030    2    1    2    0    0  0.00000000000E+00  0.00000000000E+00  0.28140844248E+03  0.85015557665E+03  0.80223051114E+03 0.  0.
        2    1    3    3  502    0  0.13966181726E+03  0.33045994155E+03 -0.49412774575E+02  0.36214750926E+03  0.25500000920E-02 0.  1.
       -2    1    3    3    0  502 -0.13966181726E+03 -0.33045994155E+03  0.33082121706E+03  0.48800806738E+03  0.25500000920E-02 0. -1.
</event>
<event>
 5   0  0.3627496E-03  0.7847201E+03  0.7818609E-02  0.9582401E-01
        1   -1    0    0  501    0  0.00000000000E+00  0.00000000000E+00  0.63118808763E+03  0.63118808765E+03  0.50400001928E-02 0. -1.
       -1   -1    0    0    0  501  0.00000000000E+00  0.00000000000E+00 -0.24389940404E+03  0.24389940409E+03  0.50400001928E-02 0.  1.
    10030    2    1    2    0    0  0.00000000000E+00  0.00000000000E+00  0.38728868359E+03  0.87508749174E+03  0.78472007351E+03 0.  0.
        3    1    3    3  502    0 -0.28344405124E+03 -0.15514442232E+03  0.44184188133E+03  0.54738887480E+03  0.10100000352E+00 0. -1.
       -3    1    3    3    0  502  0.28344405124E+03  0.15514442232E+03 -0.54553197737E+02  0.32769861694E+03  0.10100000352E+00 0.  1.
</event>
<event>
 5   0  0.3753450E-03  0.7981334E+03  0.7818609E-02  0.9562723E-01
       -1   -1    0    0    0  501  0.00000000000E+00  0.00000000000E+00  0.24686360090E+03  0.24686360096E+03  0.50400001928E-02 0.  1.
        1   -1    0    0  501    0  0.00000000000E+00  0.00000000000E+00 -0.64511020791E+03  0.64511020793E+03  0.50400001928E-02 0. -1.
    10030    2    1    2    0    0  0.00000000000E+00  0.00000000000E+00 -0.39824660700E+03  0.89197380888E+03  0.79813339471E+03 0.  0.
        5    1    3    3  502    0  0.50287350970E+02 -0.42897209813E+02 -0.63891868584E+03  0.64234583006E+03  0.46999998093E+01 0. -1.
       -5    1    3    3    0  502 -0.50287350970E+02  0.42897209813E+02  0.24067207884E+03  0.24962797882E+03  0.46999998093E+01 0.  1.
</event>
<event>
 5   0  0.6153659E-03  0.7971679E+03  0.7818609E-02  0.9564126E-01
        2   -1    0    0  501    0  0.00000000000E+00  0.00000000000E+00  0.67688895745E+03  0.67688895746E+03  0.25500000920E-02 0.  1.
       -2   -1    0    0    0  501  0.00000000000E+00  0.00000000000E+00 -0.23470489198E+03  0.23470489199E+03  0.25500000920E-02 0. -1.
    10030    2    1    2    0    0  0.00000000000E+00  0.00000000000E+00  0.44218406547E+03  0.91159384945E+03  0.79716786099E+03 0.  0.
        2    1    3    3  502    0  0.56328805781E+02 -0.39376870502E+03  0.19210779489E+03  0.44173762833E+03  0.25500000920E-02 0.  1.
       -2    1    3    3    0  502 -0.56328805781E+02  0.39376870502E+03  0.25007627058E+03  0.46985622112E+03  0.25500000920E-02 0. -1.
</event>
<event>
 5   0  0.6153659E-03  0.7995973E+03  0.7818609E-02  0.9560600E-01
        2   -1    0    0  501    0  0.00000000000E+00  0.00000000000E+00  0.13223427078E+04  0.13223427078E+04  0.25500000920E-02 0. -1.
       -2   -1    0    0    0  501  0.00000000000E+00  0.00000000000E+00 -0.12087560795E+03  0.12087560797E+03  0.25500000920E-02 0.  1.
    10030    2    1    2    0    0  0.00000000000E+00  0.00000000000E+00  0.12014670998E+04  0.14432183157E+04  0.79959734551E+03 0.  0.
        2    1    3    3  502    0  0.14968512370E+03  0.11976157055E+03 -0.32513202758E+02  0.19443656652E+03  0.25500000920E-02 0.  1.
       -2    1    3    3    0  502 -0.14968512370E+03 -0.11976157055E+03  0.12339803026E+04  0.12487817492E+04  0.25500000920E-02 0. -1.
</event>
<event>
 5   0  0.5813850E-03  0.7929195E+03  0.7818609E-02  0.9570323E-01
       -2   -1    0    0    0  501  0.00000000000E+00  0.00000000000E+00  0.10354118838E+03  0.10354118841E+03  0.25500000920E-02 0. -1.
        2   -1    0    0  501    0  0.00000000000E+00  0.00000000000E+00 -0.15180465708E+04  0.15180465708E+04  0.25500000920E-02 0.  1.
    10030    2    1    2    0    0  0.00000000000E+00  0.00000000000E+00 -0.14145053824E+04  0.16215877592E+04  0.79291953181E+03 0.  0.
        5    1    3    3  502    0 -0.19005950950E+03  0.70279335542E+02 -0.14040730305E+04  0.14186278466E+04  0.46999998093E+01 0.  1.
       -5    1    3    3    0  502  0.19005950950E+03 -0.70279335542E+02 -0.10432351893E+02  0.20295991259E+03  0.46999998093E+01 0. -1.
</event>
<event>
 5   0  0.6337108E-03  0.7993432E+03  0.7818609E-02  0.9560968E-01
       -2   -1    0    0    0  501  0.00000000000E+00  0.00000000000E+00  0.37812553386E+03  0.37812553387E+03  0.25500000920E-02 0. -1.
        2   -1    0    0  501    0  0.00000000000E+00  0.00000000000E+00 -0.42244533820E+03  0.42244533820E+03  0.25500000920E-02 0.  1.
    10030    2    1    2    0    0  0.00000000000E+00  0.00000000000E+00 -0.44319804338E+02  0.80057087207E+03  0.79934315294E+03 0.  0.
        4    1    3    3  502    0 -0.15798131907E+03 -0.33883633878E+03  0.11936387126E+03  0.39245064443E+03  0.12699999809E+01 0. -1.
       -4    1    3    3    0  502  0.15798131907E+03  0.33883633878E+03 -0.16368367559E+03  0.40812022764E+03  0.12699999809E+01 0.  1.
</event>
<event>
 5   0  0.3714448E-03  0.8348585E+03  0.7818609E-02  0.9510888E-01
       -1   -1    0    0    0  501  0.00000000000E+00  0.00000000000E+00  0.22456544842E+03  0.22456544848E+03  0.50400001928E-02 0.  1.
        1   -1    0    0  501    0  0.00000000000E+00  0.00000000000E+00 -0.77593056326E+03  0.77593056328E+03  0.50400001928E-02 0. -1.
    10030    2    1    2    0    0  0.00000000000E+00  0.00000000000E+00 -0.55136511484E+03  0.10004960118E+04  0.83485853872E+03 0.  0.
        1    1    3    3  502    0  0.25377317142E+03  0.18718474591E+03  0.52093476886E+02  0.31961333200E+03  0.50400001928E-02 0. -1.
       -1    1    3    3    0  502 -0.25377317142E+03 -0.18718474591E+03 -0.60345859173E+03  0.68088267976E+03  0.50400001928E-02 0.  1.
</event>
<event>
 5   0  0.6337108E-03  0.8043494E+03  0.7818609E-02  0.9553743E-01
        2   -1    0    0  501    0  0.00000000000E+00  0.00000000000E+00  0.14023744433E+04  0.14023744433E+04  0.25500000920E-02 0. -1.
       -2   -1    0    0    0  501  0.00000000000E+00  0.00000000000E+00 -0.11533616304E+03  0.11533616307E+03  0.25500000920E-02 0.  1.
    10030    2    1    2    0    0  0.00000000000E+00  0.00000000000E+00  0.12870382803E+04  0.15177106064E+04  0.80434939537E+03 0.  0.
        4    1    3    3  502    0  0.29041293238E+02  0.37039687942E+03  0.93403508689E+03  0.10052165943E+04  0.12699999809E+01 0.  1.
       -4    1    3    3    0  502 -0.29041293238E+02 -0.37039687942E+03  0.35300319339E+03  0.51249401210E+03  0.12699999809E+01 0. -1.
</event>
<event>
 5   0  0.3860515E-03  0.8049112E+03  0.7818609E-02  0.9552935E-01
       -1   -1    0    0    0  501  0.00000000000E+00  0.00000000000E+00  0.20500331591E+03  0.20500331597E+03  0.50400001928E-02 0. -1.
        1   -1    0    0  501    0  0.00000000000E+00  0.00000000000E+00 -0.79008734875E+03  0.79008734877E+03  0.50400001928E-02 0.  1.
    10030    2    1    2    0    0  0.00000000000E+00  0.00000000000E+00 -0.58508403284E+03  0.99509066474E+03  0.80491124081E+03 0.  0.
        4    1    3    3  502    0  0.29736027770E+03 -0.76125169589E+02  0.29247337958E+02  0.30834265984E+03  0.12699999809E+01 0. -1.
       -4    1    3    3    0  502 -0.29736027770E+03  0.76125169589E+02 -0.61433137080E+03  0.68674800491E+03  0.12699999809E+01 0.  1.
</event>
<event>
 5   0  0.6256781E-03  0.8004842E+03  0.7818609E-02  0.9559317E-01
       -2   -1    0    0    0  501  0.00000000000E+00  0.00000000000E+00  0.20238866173E+03  0.20238866175E+03  0.25500000920E-02 0. -1.
        2   -1    0    0  501    0  0.00000000000E+00  0.00000000000E+00 -0.79151534949E+03  0.79151534949E+03  0.25500000920E-02 0.  1.
    10030    2    1    2    0    0  0.00000000000E+00  0.00000000000E+00 -0.58912668776E+03  0.99390401124E+03  0.80048418431E+03 0.  0.
        1    1    3    3  502    0 -0.17030601802E+02 -0.12050038370E+03  0.17885929432E+03  0.21633545956E+03  0.50400001928E-02 0. -1.
       -1    1    3    3    0  502  0.17030601802E+02  0.12050038370E+03 -0.76798598208E+03  0.77756855169E+03  0.50400001928E-02 0.  1.
</event>
<event>
 5   0  0.3627496E-03  0.7982389E+03  0.7818609E-02  0.9562570E-01
        1   -1    0    0  501    0  0.00000000000E+00  0.00000000000E+00  0.15570275553E+04  0.15570275553E+04  0.50400001928E-02 0. -1.
       -1   -1    0    0    0  501  0.00000000000E+00  0.00000000000E+00 -0.10230796742E+03  0.10230796754E+03  0.50400001928E-02 0.  1.
    10030    2    1    2    0    0  0.00000000000E+00  0.00000000000E+00  0.14547195878E+04  0.16593355228E+04  0.79823887278E+03 0.  0.
        3    1    3    3  502    0 -0.10689106520E+03 -0.25000305420E+03  0.11999214378E+03  0.29719581373E+03  0.10100000352E+00 0.  1.
       -3    1    3    3    0  502  0.10689106520E+03  0.25000305420E+03  0.13347274441E+04  0.13621397091E+04  0.10100000352E+00 0. -1.
</event>
<event>
 5   0  0.6536209E-03  0.7880658E+03  0.7818609E-02  0.9577454E-01
        2   -1    0    0  501    0  0.00000000000E+00  0.00000000000E+00  0.13870370878E+03  0.13870370881E+03  0.25500000920E-02 0.  1.
       -2   -1    0    0    0  501  0.00000000000E+00  0.00000000000E+00 -0.11193782467E+04  0.11193782467E+04  0.25500000920E-02 0. -1.
    10030    2    1    2    0    0  0.00000000000E+00  0.00000000000E+00 -0.98067453788E+03  0.12580819555E+04  0.78806576974E+03 0.  0.
        3    1    3    3  502    0 -0.30462382828E+03  0.24599716208E+03 -0.56086249810E+03  0.68401537445E+03  0.10100000352E+00 0. -1.
       -3    1    3    3    0  502  0.30462382828E+03 -0.24599716208E+03 -0.41981203978E+03  0.57406658102E+03  0.10100000352E+00 0.  1.
</event>
<event>
 5   0  0.3753450E-03  0.8005134E+03  0.7818609E-02  0.9559274E-01
       -1   -1    0    0    0  501  0.00000000000E+00  0.00000000000E+00  0.50252451957E+03  0.50252451959E+03  0.50400001928E-02 0.  1.
        1   -1    0    0  501    0  0.00000000000E+00  0.00000000000E+00 -0.31880117427E+03  0.31880117431E+03  0.50400001928E-02 0. -1.
    10030    2    1    2    0    0  0.00000000000E+00  0.00000000000E+00  0.18372334530E+03  0.82132569390E+03  0.80051335270E+03 0.  0.
        5    1    3    3  502    0 -0.39143204680E+03 -0.82468555724E+02  0.78754281923E+02  0.40773083874E+03  0.46999998093E+01 0.  1.
       -5    1    3    3    0  502  0.39143204680E+03  0.82468555724E+02  0.10496906338E+03  0.41359485515E+03  0.46999998093E+01 0. -1.
</event>
<event>
 5   0  0.6256781E-03  0.7931138E+03  0.7818609E-02  0.9570038E-01
       -2   -1    0    0    0  501  0.00000000000E+00  0.00000000000E+00  0.11568696971E+03  0.11568696974E+03  0.25500000920E-02 0.  1.
        2   -1    0    0  501    0  0.00000000000E+00  0.00000000000E+00 -0.13593352063E+04  0.13593352063E+04  0.25500000920E-02 0. -1.
    10030    2    1    2    0    0  0.00000000000E+00  0.00000000000E+00 -0.12436482366E+04  0.14750221760E+04  0.79311378971E+03 0.  0.
        1    1    3    3  502    0 -0.25883549365E+03 -0.24572619554E+03 -0.94330471195E+03  0.10085638084E+04  0.50400001928E-02 0. -1.
       -1    1    3    3    0  502  0.25883549365E+03  0.24572619554E+03 -0.30034352462E+03  0.46645836765E+03  0.50400001928E-02 0.  1.
</event>
<event>
 5   0  0.6536209E-03  0.8020291E+03  0.7818609E-02  0.9557085E-01
        2   -1    0    0  501    0  0.00000000000E+00  0.00000000000E+00  0.16023143048E+04  0.16023143048E+04  0.25500000920E-02 0. -1.
       -2   -1    0    0    0  501  0.00000000000E+00  0.00000000000E+00 -0.10036276060E+03  0.10036276064E+03  0.25500000920E-02 0.  1.
    10030    2    1    2    0    0  0.00000000000E+00  0.00000000000E+00  0.15019515442E+04  0.17026770654E+04  0.80202914414E+03 0.  0.
        3    1    3    3  502    0 -0.27287300458E+03  0.19896518676E+03  0.29187653193E+03  0.44636167204E+03  0.10100000352E+00 0.  1.
       -3    1    3    3    0  502  0.27287300458E+03 -0.19896518676E+03  0.12100750122E+04  0.12563153934E+04  0.10100000352E+00 0. -1.
</event>
<event>
 5   0  0.3753450E-03  0.7998057E+03  0.7818609E-02  0.9560298E-01
       -1   -1    0    0    0  501  0.00000000000E+00  0.00000000000E+00  0.74957101490E+03  0.74957101492E+03  0.50400001928E-02 0. -1.
        1   -1    0    0  501    0  0.00000000000E+00  0.00000000000E+00 -0.21335174593E+03  0.21335174599E+03  0.50400001928E-02 0.  1.
    10030    2    1    2    0    0  0.00000000000E+00  0.00000000000E+00  0.53621926897E+03  0.96292276090E+03  0.79980568831E+03 0.  0.
        5    1    3    3  502    0  0.50162547258E+02  0.31309287470E+03  0.56142990517E+03  0.64480156464E+03  0.46999998093E+01 0. -1.
       -5    1    3    3    0  502 -0.50162547258E+02 -0.31309287470E+03 -0.25210636201E+02  0.31812119627E+03  0.46999998093E+01 0.  1.
</event>
<event>
 5   0  0.3860515E-03  0.7926835E+03  0.7818609E-02  0.9570668E-01
       -1   -1    0    0    0  501  0.00000000000E+00  0.00000000000E+00  0.28653743590E+03  0.28653743595E+03  0.50400001928E-02 0.  1.
        1   -1    0    0  501    0  0.00000000000E+00  0.00000000000E+00 -0.54822422630E+03  0.54822422633E+03  0.50400001928E-02 0. -1.
    10030    2    1    2    0    0  0.00000000000E+00  0.00000000000E+00 -0.26168679040E+03  0.83476166228E+03  0.79268345292E+03 0.  0.
        4    1    3    3  502    0  0.28298755632E+03 -0.13023084749E+03  0.12720094050E+03  0.33648732938E+03  0.12699999809E+01 0.  1.
       -4    1    3    3    0  502 -0.28298755632E+03  0.13023084749E+03 -0.38888773090E+03  0.49827433289E+03  0.12699999809E+01 0. -1.
</event>
<event>
 5   0  0.3671128E-03  0.8033589E+03  0.7818609E-02  0.9555168E-01
       -1   -1    0    0    0  501  0.00000000000E+00  0.00000000000E+00  0.52264124937E+03  0.52264124940E+03  0.50400001928E-02 0. -1.
        1   -1    0    0  501    0  0.00000000000E+00  0.00000000000E+00 -0.30871343790E+03  0.30871343795E+03  0.50400001928E-02 0.  1.
    10030    2    1    2    0    0  0.00000000000E+00  0.00000000000E+00  0.21392781147E+03  0.83135468734E+03  0.80335889094E+03 0.  0.
        2    1    3    3  502    0  0.30035623880E+03 -0.20141440075E+03 -0.73956327952E+02  0.36912216063E+03  0.25500000920E-02 0.  1.
       -2    1    3    3    0  502 -0.30035623880E+03  0.20141440075E+03  0.28788413942E+03  0.46223252671E+03  0.25500000920E-02 0. -1.
</event>
<event>
 5   0  0.6337108E-03  0.7992863E+03  0.7818609E-02  0.9561051E-01
        2   -1    0    0  501    0  0.00000000000E+00  0.00000000000E+00  0.18689432100E+04  0.18689432100E+04  0.25500000920E-02 0. -1.
       -2   -1    0    0    0  501  0.00000000000E+00  0.00000000000E+00 -0.85457186737E+02  0.85457186775E+02  0.25500000920E-02 0.  1.
    10030    2    1    2    0    0  0.00000000000E+00  0.00000000000E+00  0.17834860233E+04  0.19544003968E+04  0.79928625395E+03 0.  0.
        4    1    3    3  502    0  0.25942011125E+03  0.23069139087E+01  0.16350497990E+04  0.16555040242E+04  0.12699999809E+01 0. -1.
       -4    1    3    3    0  502 -0.25942011125E+03 -0.23069139087E+01  0.14843622425E+03  0.29889637258E+03  0.12699999809E+01 0.  1.
</event>
<event>
 5   0  0.6256781E-03  0.8022457E+03  0.7818609E-02  0.9556772E-01
        2   -1    0    0  501    0  0.00000000000E+00  0.00000000000E+00  0.15902349229E+03  0.15902349231E+03  0.25500000920E-02 0. -1.
       -2   -1    0    0    0  501  0.00000000000E+00  0.00000000000E+00 -0.10117972745E+04  0.10117972745E+04  0.25500000920E-02 0.  1.
    10030    2    1    2    0    0  0.00000000000E+00  0.00000000000E+00 -0.85277378218E+03  0.11708207668E+04  0.80224568827E+03 0.  0.
        1    1    3    3  502    0  0.18747023988E+03  0.25269766191E+03 -0.78948376966E+03  0.84987400346E+03  0.50400001928E-02 0.  1.
       -1    1    3    3    0  502 -0.18747023988E+03 -0.25269766191E+03 -0.63290012514E+02  0.32094676331E+03  0.50400001928E-02 0. -1.
</event>
<event>
 5   0  0.3714448E-03  0.8001145E+03  0.7818609E-02  0.9559851E-01
        1   -1    0    0  501    0  0.00000000000E+00  0.00000000000E+00  0.40876207952E+03  0.40876207955E+03  0.50400001928E-02 0. -1.
       -1   -1    0    0    0  501  0.00000000000E+00  0.00000000000E+00 -0.39153778499E+03  0.39153778502E+03  0.50400001928E-02 0.  1.
    10030    2    1    2    0    0  0.00000000000E+00  0.00000000000E+00  0.17224294533E+02  0.80029986458E+03  0.80011448988E+03 0.  0.
        1    1    3    3  502    0  0.15976190704E+03 -0.17779030864E+03  0.32948631352E+03  0.40705588266E+03  0.50400001928E-02 0. -1.
       -1    1    3    3    0  502 -0.15976190704E+03  0.17779030864E+03 -0.31226201899E+03  0.39324398192E+03  0.50400001928E-02 0.  1.
</event>
<event>
 5   0  0.5813850E-03  0.8003022E+03  0.7818609E-02  0.9559580E-01
       -2   -1    0    0    0  501  0.00000000000E+00  0.00000000000E+00  0.21358826717E+03  0.21358826719E+03  0.25500000920E-02 0.  1.
        2   -1    0    0  501    0  0.00000000000E+00  0.00000000000E+00 -0.74967094949E+03  0.74967094949E+03  0.25500000920E-02 0. -1.
    10030    2    1    2    0    0  0.00000000000E+00  0.00000000000E+00 -0.53608268232E+03  0.96325921668E+03  0.80030224056E+03 0.  0.
        5    1    3    3  502    0  0.16716656967E+03  0.26504373228E+02  0.16834607589E+03  0.23876690533E+03  0.46999998093E+01 0.  1.
       -5    1    3    3    0  502 -0.16716656967E+03 -0.26504373228E+02 -0.70442875821E+03  0.72449231135E+03  0.46999998093E+01 0. -1.
</event>
<event>
 5   0  0.3860515E-03  0.8000224E+03  0.7818609E-02  0.9559985E-01
        1   -1    0    0  501    0  0.00000000000E+00  0.00000000000E+00  0.52189364708E+03  0.52189364710E+03  0.50400001928E-02 0.  1.
       -1   -1    0    0    0  501  0.00000000000E+00  0.00000000000E+00 -0.30659304999E+03  0.30659305003E+03  0.50400001928E-02 0. -1.
    10030    2    1    2    0    0  0.00000000000E+00  0.00000000000E+00  0.21530059709E+03  0.82848669713E+03  0.80002241232E+03 0.  0.
        4    1    3    3  502    0  0.22081229812E+03  0.26068511924E+03 -0.10782126746E+03  0.35824829520E+03  0.12699999809E+01 0. -1.
       -4    1    3    3    0  502 -0.22081229812E+03 -0.26068511924E+03  0.32312186455E+03  0.47023840193E+03  0.12699999809E+01 0.  1.
</event>
<event>
 5   0  0.3627496E-03  0.7978359E+03  0.7818609E-02  0.9563155E-01
        1   -1    0    0  501    0  0.00000000000E+00  0.00000000000E+00  0.11261665932E+04  0.11261665932E+04  0.50400001928E-02 0.  1.
       -1   -1    0    0    0  501  0.00000000000E+00  0.00000000000E+00 -0.14130727002E+03  0.14130727011E+03  0.50400001928E-02 0. -1.
    10030    2    1    2    0    0  0.00000000000E+00  0.00000000000E+00  0.98485932317E+03  0.12674738633E+04  0.79783589023E+03 0.  0.
        3    1    3    3  502    0 -0.35978811880E+02  0.30616852982E+03  0.90212308325E+02  0.32120385167E+03  0.10100000352E+00 0.  1.
       -3    1    3    3    0  502  0.35978811880E+02 -0.30616852982E+03  0.89464701485E+03  0.94627001164E+03  0.10100000352E+00 0. -1.
</event>
<event>
 5   0  0.2478000E-03  0.7990363E+03  0.7818609E-02  0.9561413E-01
       -3   -1    0    0    0  501  0.00000000000E+00  0.00000000000E+00  0.75500123762E+03  0.75500124438E+03  0.10100000352E+00 0. -1.
        3   -1    0    0  501    0  0.00000000000E+00  0.00000000000E+00 -0.21140990512E+03  0.21140992925E+03  0.10100000352E+00 0.  1.
    10030    2    1    2    0    0  0.00000000000E+00  0.00000000000E+00  0.54359133250E+03  0.96641117363E+03  0.79903630690E+03 0.  0.
        2    1    3    3  502    0 -0.24425362562E+03  0.31511205456E+03  0.24073993928E+03  0.46573722090E+03  0.25500000920E-02 0. -1.
       -2    1    3    3    0  502  0.24425362562E+03 -0.31511205456E+03  0.30285139322E+03  0.50067395273E+03  0.25500000920E-02 0.  1.
</event>
<event>
 5   0  0.3671128E-03  0.7977456E+03  0.7818609E-02  0.9563286E-01
        1   -1    0    0  501    0  0.00000000000E+00  0.00000000000E+00  0.99136880140E+03  0.99136880141E+03  0.50400001928E-02 0. -1.
       -1   -1    0    0    0  501  0.00000000000E+00  0.00000000000E+00 -0.16048468605E+03  0.16048468613E+03  0.50400001928E-02 0.  1.
    10030    2    1    2    0    0  0.00000000000E+00  0.00000000000E+00  0.83088411535E+03  0.11518534875E+04  0.79774560081E+03 0.  0.
        2    1    3    3  502    0  0.24179474825E+03 -0.25893719005E+03  0.15082722885E+03  0.38504807705E+03  0.25500000920E-02 0. -1.
       -2    1    3    3    0  502 -0.24179474825E+03  0.25893719005E+03  0.68005688650E+03  0.76680541049E+03  0.25500000920E-02 0.  1.
</event>
<event>
 5   0  0.2478000E-03  0.7981556E+03  0.7818609E-02  0.9562691E-01
        3   -1    0    0  501    0  0.00000000000E+00  0.00000000000E+00  0.25620442287E+03  0.25620444278E+03  0.10100000352E+00 0.  1.
       -3   -1    0    0    0  501  0.00000000000E+00  0.00000000000E+00 -0.62162505571E+03  0.62162506392E+03  0.10100000352E+00 0. -1.
    10030    2    1    2    0    0  0.00000000000E+00  0.00000000000E+00 -0.36542063284E+03  0.87782950670E+03  0.79815562638E+03 0.  0.
        4    1    3    3  502    0 -0.10792387884E+03 -0.30660354303E+02 -0.60392060094E+03  0.61425509854E+03  0.12699999809E+01 0. -1.
       -4    1    3    3    0  502  0.10792387884E+03  0.30660354303E+02  0.23849996810E+03  0.26357440815E+03  0.12699999809E+01 0.  1.
</event>
<event>
 5   0  0.6337108E-03  0.8015792E+03  0.7818609E-02  0.9557734E-01
        2   -1    0    0  501    0  0.00000000000E+00  0.00000000000E+00  0.11084349714E+04  0.11084349714E+04  0.25500000920E-02 0.  1.
       -2   -1    0    0    0  501  0.00000000000E+00  0.00000000000E+00 -0.14491809784E+03  0.14491809787E+03  0.25500000920E-02 0. -1.
    10030    2    1    2    0    0  0.00000000000E+00  0.00000000000E+00  0.96351687355E+03  0.12533530693E+04  0.80157916054E+03 0.  0.
        4    1    3    3  502    0 -0.13276902333E+03  0.14822755018E+03  0.10257303747E+04  0.10448557004E+04  0.12699999809E+01 0.  1.
       -4    1    3    3    0  502  0.13276902333E+03 -0.14822755018E+03 -0.62213501164E+02  0.20849736884E+03  0.12699999809E+01 0. -1.
</event>
<event>
 5   0  0.3714448E-03  0.7442202E+03  0.7818609E-02  0.9644462E-01
       -1   -1    0    0    0  501  0.00000000000E+00  0.00000000000E+00  0.34879383586E+03  0.34879383590E+03  0.50400001928E-02 0.  1.
        1   -1    0    0  501    0  0.00000000000E+00  0.00000000000E+00 -0.39698502576E+03  0.39698502579E+03  0.50400001928E-02 0. -1.
    10030    2    1    2    0    0  0.00000000000E+00  0.00000000000E+00 -0.48191189897E+02  0.74577886169E+03  0.74422020919E+03 0.  0.
        1    1    3    3  502    0 -0.78490248268E+02  0.72328973611E+02 -0.38131619877E+03  0.39597252805E+03  0.50400001928E-02 0. -1.
       -1    1    3    3    0  502  0.78490248268E+02 -0.72328973611E+02  0.33312500887E+03  0.34980633365E+03  0.50400001928E-02 0.  1.
</event>
<event>
 5   0  0.3627496E-03  0.7978770E+03  0.7818609E-02  0.9563095E-01
       -1   -1    0    0    0  501  0.00000000000E+00  0.00000000000E+00  0.18786126792E+03  0.18786126799E+03  0.50400001928E-02 0. -1.
        1   -1    0    0  501    0  0.00000000000E+00  0.00000000000E+00 -0.84717806794E+03  0.84717806796E+03  0.50400001928E-02 0.  1.
    10030    2    1    2    0    0  0.00000000000E+00  0.00000000000E+00 -0.65931680003E+03  0.10350393359E+04  0.79787704827E+03 0.  0.
        3    1    3    3  502    0  0.32120041409E+03 -0.60886605982E+02 -0.33060470092E+02  0.32858771992E+03  0.10100000352E+00 0. -1.
       -3    1    3    3    0  502 -0.32120041409E+03  0.60886605982E+02 -0.62625632993E+03  0.70645161602E+03  0.10100000352E+00 0.  1.
</event>
<event>
 5   0  0.6153659E-03  0.8002988E+03  0.7818609E-02  0.9559585E-01
        2   -1    0    0  501    0  0.00000000000E+00  0.00000000000E+00  0.19882984549E+04  0.19882984549E+04  0.25500000920E-02 0. -1.
       -2   -1    0    0    0  501  0.00000000000E+00  0.00000000000E+00 -0.80530948996E+02  0.80530949037E+02  0.25500000920E-02 0.  1.
    10030    2    1    2    0    0  0.00000000000E+00  0.00000000000E+00  0.19077675059E+04  0.20688294039E+04  0.80029884794E+03 0.  0.
        2    1    3    3  502    0  0.16051711197E+03  0.82865575119E+02  0.30875392973E+02  0.18326411725E+03  0.25500000920E-02 0.  1.
       -2    1    3    3    0  502 -0.16051711197E+03 -0.82865575119E+02  0.18768921129E+04  0.18855652867E+04  0.25500000920E-02 0. -1.
</event>
<event>
 5   0  0.6337108E-03  0.7868016E+03  0.7818609E-02  0.9579320E-01
       -2   -1    0    0    0  501  0.00000000000E+00  0.00000000000E+00  0.27830447549E+03  0.27830447550E+03  0.25500000920E-02 0. -1.
        2   -1    0    0  501    0  0.00000000000E+00  0.00000000000E+00 -0.55609661891E+03  0.55609661891E+03  0.25500000920E-02 0.  1.
    10030    2    1    2    0    0  0.00000000000E+00  0.00000000000E+00 -0.27779214342E+03  0.83440109441E+03  0.78680157055E+03 0.  0.
        4    1    3    3  502    0  0.24012945366E+03 -0.28580770141E+03 -0.72304142686E+01  0.37336589090E+03  0.12699999809E+01 0. -1.
       -4    1    3    3    0  502 -0.24012945366E+03  0.28580770141E+03 -0.27056172915E+03  0.46103520351E+03  0.12699999809E+01 0.  1.
</event>
<event>
 5   0  0.3753450E-03  0.7993138E+03  0.7818609E-02  0.9561011E-01
        1   -1    0    0  501    0  0.00000000000E+00  0.00000000000E+00  0.47608263068E+03  0.47608263070E+03  0.50400001928E-02 0. -1.
       -1   -1    0    0    0  501  0.00000000000E+00  0.00000000000E+00 -0.33549982728E+03  0.33549982731E+03  0.50400001928E-02 0.  1.
    10030    2    1    2    0    0  0.00000000000E+00  0.00000000000E+00  0.14058280340E+03  0.81158245802E+03  0.79931380668E+03 0.  0.
        5    1    3    3  502    0  0.23338242149E+03  0.10335807718E+03 -0.24192354508E+03  0.35170916742E+03  0.46999998093E+01 0.  1.
       -5    1    3    3    0  502 -0.23338242149E+03 -0.10335807718E+03  0.38250634848E+03  0.45987329060E+03  0.46999998093E+01 0. -1.
</event>
<event>
 5   0  0.6337108E-03  0.7899271E+03  0.7818609E-02  0.9574713E-01
       -2   -1    0    0    0  501  0.00000000000E+00  0.00000000000E+00  0.23262616959E+03  0.23262616960E+03  0.25500000920E-02 0.  1.
        2   -1    0    0  501    0  0.00000000000E+00  0.00000000000E+00 -0.67058746074E+03  0.67058746074E+03  0.25500000920E-02 0. -1.
    10030    2    1    2    0    0  0.00000000000E+00  0.00000000000E+00 -0.43796129115E+03  0.90321363034E+03  0.78992706593E+03 0.  0.
        4    1    3    3  502    0 -0.12280844223E+03 -0.83559318140E+02 -0.63743032894E+03  0.65450982444E+03  0.12699999809E+01 0. -1.
       -4    1    3    3    0  502  0.12280844223E+03  0.83559318140E+02  0.19946903779E+03  0.24870380590E+03  0.12699999809E+01 0.  1.
</event>
<event>
 5   0  0.3671128E-03  0.8007993E+03  0.7818609E-02  0.9558861E-01
        1   -1    0    0  501    0  0.00000000000E+00  0.00000000000E+00  0.16874386358E+04  0.16874386358E+04  0.50400001928E-02 0.  1.
       -1   -1    0    0    0  501  0.00000000000E+00  0.00000000000E+00 -0.95007824647E+02  0.95007824781E+02  0.50400001928E-02 0. -1.
    10030    2    1    2    0    0  0.00000000000E+00  0.00000000000E+00  0.15924308111E+04  0.17824464605E+04  0.80079928605E+03 0.  0.
        2    1    3    3  502    0  0.15274661924E+03 -0.32237010530E+03  0.39146925636E+03  0.52962457756E+03  0.25500000920E-02 0. -1.
       -2    1    3    3    0  502 -0.15274661924E+03  0.32237010530E+03  0.12009615548E+04  0.12528218830E+04  0.25500000920E-02 0.  1.
</event>
<event>
 5   0  0.5813850E-03  0.7867976E+03  0.7818609E-02  0.9579326E-01
       -2   -1    0    0    0  501  0.00000000000E+00  0.00000000000E+00  0.10549958766E+03  0.10549958769E+03  0.25500000920E-02 0. -1.
        2   -1    0    0  501    0  0.00000000000E+00  0.00000000000E+00 -0.14669501442E+04  0.14669501442E+04  0.25500000920E-02 0.  1.
    10030    2    1    2    0    0  0.00000000000E+00  0.00000000000E+00 -0.13614505565E+04  0.15724497319E+04  0.78679764960E+03 0.  0.
        5    1    3    3  502    0 -0.10275208373E+02 -0.30191783360E+03 -0.11842655206E+04  0.12221975583E+04  0.46999998093E+01 0.  1.
       -5    1    3    3    0  502  0.10275208373E+02  0.30191783360E+03 -0.17718503589E+03  0.35025217357E+03  0.46999998093E+01 0. -1.
</event>
<event>
 5   0  0.3671128E-03  0.8042944E+03  0.7818609E-02  0.9553822E-01
       -1   -1    0    0    0  501  0.00000000000E+00  0.00000000000E+00  0.15263789428E+03  0.15263789437E+03  0.50400001928E-02 0.  1.
        1   -1    0    0  501    0  0.00000000000E+00  0.00000000000E+00 -0.10595165588E+04  0.10595165588E+04  0.50400001928E-02 0. -1.
    10030    2    1    2    0    0  0.00000000000E+00  0.00000000000E+00 -0.90687866448E+03  0.12121544531E+04  0.80429441511E+03 0.  0.
        2    1    3    3  502    0 -0.21934355556E+03  0.31358040397E+03 -0.26715439290E+03  0.46670733311E+03  0.25500000920E-02 0.  1.
       -2    1    3    3    0  502  0.21934355556E+03 -0.31358040397E+03 -0.63972427157E+03  0.74544712003E+03  0.25500000920E-02 0. -1.
</event>
<event>
 5   0  0.6536209E-03  0.8021175E+03  0.7818609E-02  0.9556957E-01
       -2   -1    0    0    0  501  0.00000000000E+00  0.00000000000E+00  0.10718613379E+03  0.10718613382E+03  0.25500000920E-02 0. -1.
        2   -1    0    0  501    0  0.00000000000E+00  0.00000000000E+00 -0.15006430471E+04  0.15006430471E+04  0.25500000920E-02 0.  1.
    10030    2    1    2    0    0  0.00000000000E+00  0.00000000000E+00 -0.13934569133E+04  0.16078291809E+04  0.80211751369E+03 0.  0.
        3    1    3    3  502    0 -0.21662737406E+03 -0.16493392542E+03 -0.12870046600E+04  0.13154891197E+04  0.10100000352E+00 0.  1.
       -3    1    3    3    0  502  0.21662737406E+03  0.16493392542E+03 -0.10645225326E+03  0.29234006119E+03  0.10100000352E+00 0. -1.
</event>
<event>
 5   0  0.2478000E-03  0.7999813E+03  0.7818609E-02  0.9560044E-01
       -4   -1    0    0    0  501  0.00000000000E+00  0.00000000000E+00  0.21065991809E+03  0.21066374626E+03  0.12699999809E+01 0.  1.
        4   -1    0    0  501    0  0.00000000000E+00  0.00000000000E+00 -0.75947120227E+03  0.75947226413E+03  0.12699999809E+01 0. -1.
    10030    2    1    2    0    0  0.00000000000E+00  0.00000000000E+00 -0.54881128418E+03  0.97013601039E+03  0.79998128292E+03 0.  0.
        2    1    3    3  502    0  0.18342512214E+02  0.30138037908E+02 -0.75758303719E+03  0.75840411874E+03  0.25500000920E-02 0. -1.
       -2    1    3    3    0  502 -0.18342512214E+02 -0.30138037908E+02  0.20877175300E+03  0.21173189165E+03  0.25500000920E-02 0.  1.
</event>
<event>
 5   0  0.6153659E-03  0.8042214E+03  0.7818609E-02  0.9553927E-01
        2   -1    0    0  501    0  0.00000000000E+00  0.00000000000E+00  0.44771633535E+03  0.44771633536E+03  0.25500000920E-02 0.  1.
       -2   -1    0    0    0  501  0.00000000000E+00  0.00000000000E+00 -0.36115059132E+03  0.36115059133E+03  0.25500000920E-02 0. -1.
    10030    2    1    2    0    0  0.00000000000E+00  0.00000000000E+00  0.86565744023E+02  0.80886692669E+03  0.80422141047E+03 0.  0.
        2    1    3    3  502    0  0.38368052606E+03 -0.64478517061E+02  0.14548081282E+03  0.41537078875E+03  0.25500000920E-02 0.  1.
       -2    1    3    3    0  502 -0.38368052606E+03  0.64478517061E+02 -0.58915068795E+02  0.39349613794E+03  0.25500000920E-02 0. -1.
</event>
<event>
 5   0  0.3753450E-03  0.8009656E+03  0.7818609E-02  0.9558620E-01
       -1   -1    0    0    0  501  0.00000000000E+00  0.00000000000E+00  0.25689751078E+03  0.25689751083E+03  0.50400001928E-02 0.  1.
        1   -1    0    0  501    0  0.00000000000E+00  0.00000000000E+00 -0.62432087175E+03  0.62432087177E+03  0.50400001928E-02 0. -1.
    10030    2    1    2    0    0  0.00000000000E+00  0.00000000000E+00 -0.36742336097E+03  0.88121838259E+03  0.80096561202E+03 0.  0.
        5    1    3    3  502    0 -0.17166643946E+03 -0.30046931611E+03 -0.40543090144E+03  0.53305485853E+03  0.46999998093E+01 0. -1.
       -5    1    3    3    0  502  0.17166643946E+03  0.30046931611E+03  0.38007540475E+02  0.34816352406E+03  0.46999998093E+01 0.  1.
</event>
<event>
 5   0  0.6337108E-03  0.7957160E+03  0.7818609E-02  0.9566239E-01
       -2   -1    0    0    0  501  0.00000000000E+00  0.00000000000E+00  0.21391476647E+03  0.21391476648E+03  0.25500000920E-02 0.  1.
        2   -1    0    0  501    0  0.00000000000E+00  0.00000000000E+00 -0.73997227237E+03  0.73997227238E+03  0.25500000920E-02 0. -1.
    10030    2    1    2    0    0  0.00000000000E+00  0.00000000000E+00 -0.52605750591E+03  0.95388703886E+03  0.79571601931E+03 0.  0.
        4    1    3    3  502    0  0.18561626210E+03 -0.30764935766E+03 -0.46783347499E+03  0.58989091979E+03  0.12699999809E+01 0. -1.
       -4    1    3    3    0  502 -0.18561626210E+03  0.30764935766E+03 -0.58224030917E+02  0.36399611908E+03  0.12699999809E+01 0.  1.
</event>
<event>
 5   0  0.5813850E-03  0.8032721E+03  0.7818609E-02  0.9555293E-01
       -2   -1    0    0    0  501  0.00000000000E+00  0.00000000000E+00  0.14492892981E+03  0.14492892983E+03  0.25500000920E-02 0.  1.
        2   -1    0    0  501    0  0.00000000000E+00  0.00000000000E+00 -0.11130388811E+04  0.11130388811E+04  0.25500000920E-02 0. -1.
    10030    2    1    2    0    0  0.00000000000E+00  0.00000000000E+00 -0.96810995133E+03  0.12579678110E+04  0.80327214292E+03 0.  0.
        5    1    3    3  502    0 -0.30650962592E+03 -0.24432791705E+03 -0.34712448309E+03  0.52360460139E+03  0.46999998093E+01 0. -1.
       -5    1    3    3    0  502  0.30650962592E+03  0.24432791705E+03 -0.62098546825E+03  0.73436320959E+03  0.46999998093E+01 0.  1.
</event>
<event>
 5   0  0.3860515E-03  0.8010160E+03  0.7818609E-02  0.9558548E-01
       -1   -1    0    0    0  501  0.00000000000E+00  0.00000000000E+00  0.14861897488E+03  0.14861897497E+03  0.50400001928E-02 0. -1.
        1   -1    0    0  501    0  0.00000000000E+00  0.00000000000E+00 -0.10793146867E+04  0.10793146867E+04  0.50400001928E-02 0.  1.
    10030    2    1    2    0    0  0.00000000000E+00  0.00000000000E+00 -0.93069571180E+03  0.12279336617E+04  0.80101596082E+03 0.  0.
        4    1    3    3  502    0  0.13631348835E+03  0.11213369448E+03  0.85775101027E+02  0.19625063923E+03  0.12699999809E+01 0. -1.
       -4    1    3    3    0  502 -0.13631348835E+03 -0.11213369448E+03 -0.10164708128E+04  0.10316830224E+04  0.12699999809E+01 0.  1.
</event>
<event>
 5   0  0.2478000E-03  0.7880095E+03  0.7818609E-02  0.9577537E-01
       -4   -1    0    0    0  501  0.00000000000E+00  0.00000000000E+00  0.19729696420E+03  0.19730105165E+03  0.12699999809E+01 0. -1.
        4   -1    0    0  501    0  0.00000000000E+00  0.00000000000E+00 -0.78682006219E+03  0.78682108714E+03  0.12699999809E+01 0.  1.
    10030    2    1    2    0    0  0.00000000000E+00  0.00000000000E+00 -0.58952309799E+03  0.98412213879E+03  0.78800945489E+03 0.  0.
        4    1    3    3  502    0 -0.11946778028E+03  0.92262689825E+02  0.15975398627E+03  0.21979059008E+03  0.12699999809E+01 0. -1.
       -4    1    3    3    0  502  0.11946778028E+03 -0.92262689825E+02 -0.74927708426E+03  0.76433154871E+03  0.12699999809E+01 0.  1.
</event>
<event>
 5   0  0.5813850E-03  0.8012284E+03  0.7818609E-02  0.9558241E-01
       -2   -1    0    0    0  501  0.00000000000E+00  0.00000000000E+00  0.46169666374E+03  0.46169666375E+03  0.25500000920E-02 0.  1.
        2   -1    0    0  501    0  0.00000000000E+00  0.00000000000E+00 -0.34761290377E+03  0.34761290378E+03  0.25500000920E-02 0. -1.
    10030    2    1    2    0    0  0.00000000000E+00  0.00000000000E+00  0.11408375997E+03  0.80930956752E+03  0.80122835184E+03 0.  0.
        5    1    3    3  502    0 -0.23804491245E+02  0.11086557391E+03 -0.33103601156E+03  0.34994965385E+03  0.46999998093E+01 0. -1.
       -5    1    3    3    0  502  0.23804491245E+02 -0.11086557391E+03  0.44511977153E+03  0.45935991367E+03  0.46999998093E+01 0.  1.
</event>
<event>
 5   0  0.3627496E-03  0.8001763E+03  0.7818609E-02  0.9559762E-01
        1   -1    0    0  501    0  0.00000000000E+00  0.00000000000E+00  0.28662093164E+03  0.28662093168E+03  0.50400001928E-02 0. -1.
       -1   -1    0    0    0  501  0.00000000000E+00  0.00000000000E+00 -0.55847468406E+03  0.55847468408E+03  0.50400001928E-02 0.  1.
    10030    2    1    2    0    0  0.00000000000E+00  0.00000000000E+00 -0.27185375242E+03  0.84509561576E+03  0.80017631624E+03 0.  0.
        3    1    3    3  502    0  0.26507513296E+01  0.16711106937E+03  0.24798629737E+03  0.29904907603E+03  0.10100000352E+00 0. -1.
       -3    1    3    3    0  502 -0.26507513296E+01 -0.16711106937E+03 -0.51984004979E+03  0.54604653974E+03  0.10100000352E+00 0.  1.
</event>
<event>
 5   0  0.6256781E-03  0.7986278E+03  0.7818609E-02  0.9562005E-01
        2   -1    0    0  501    0  0.00000000000E+00  0.00000000000E+00  0.15158901866E+04  0.15158901866E+04  0.25500000920E-02 0.  1.
       -2   -1    0    0    0  501  0.00000000000E+00  0.00000000000E+00 -0.10518678188E+03  0.10518678191E+03  0.25500000920E-02 0. -1.
    10030    2    1    2    0    0  0.00000000000E+00  0.00000000000E+00  0.14107034047E+04  0.16210769685E+04  0.79862784933E+03 0.  0.
        1    1    3    3  502    0  0.16203296349E+03  0.36362904774E+03  0.64210555331E+03  0.75550003788E+03  0.50400001928E-02 0. -1.
       -1    1    3    3    0  502 -0.16203296349E+03 -0.36362904774E+03  0.76859785139E+03  0.86557693061E+03  0.50400001928E-02 0.  1.
</event>
<event>
 5   0  0.3714448E-03  0.7839696E+03  0.7818609E-02  0.9583515E-01
       -1   -1    0    0    0  501  0.00000000000E+00  0.00000000000E+00  0.34293409570E+03  0.34293409573E+03  0.50400001928E-02 0. -1.
        1   -1    0    0  501    0  0.00000000000E+00  0.00000000000E+00 -0.44805139443E+03  0.44805139446E+03  0.50400001928E-02 0.  1.
    10030    2    1    2    0    0  0.00000000000E+00  0.00000000000E+00 -0.10511729874E+03  0.79098549020E+03  0.78396964176E+03 0.  0.
        1    1    3    3  502    0  0.19357879908E+03 -0.31907981346E+03 -0.17349550697E+03  0.41156453901E+03  0.50400001928E-02 0.  1.
       -1    1    3    3    0  502 -0.19357879908E+03  0.31907981346E+03  0.68378208237E+02  0.37942095118E+03  0.50400001928E-02 0. -1.
</event>
<event>
 5   0  0.6256781E-03  0.7922335E+03  0.7818609E-02  0.9571327E-01
        2   -1    0    0  501    0  0.00000000000E+00  0.00000000000E+00  0.69387469330E+03  0.69387469330E+03  0.25500000920E-02 0.  1.
       -2   -1    0    0    0  501  0.00000000000E+00  0.00000000000E+00 -0.22613374170E+03  0.22613374172E+03  0.25500000920E-02 0. -1.
    10030    2    1    2    0    0  0.00000000000E+00  0.00000000000E+00  0.46774095159E+03  0.92000843502E+03  0.79223350264E+03 0.  0.
        1    1    3    3  502    0 -0.26863467968E+03  0.12211224955E+03  0.54074961175E+03  0.61602445995E+03  0.50400001928E-02 0.  1.
       -1    1    3    3    0  502  0.26863467968E+03 -0.12211224955E+03 -0.73008660159E+02  0.30398397507E+03  0.50400001928E-02 0. -1.
</event>
<event>
 5   0  0.6256781E-03  0.7985488E+03  0.7818609E-02  0.9562120E-01
       -2   -1    0    0    0  501  0.00000000000E+00  0.00000000000E+00  0.10077816554E+03  0.10077816558E+03  0.25500000920E-02 0.  1.
        2   -1    0    0  501    0  0.00000000000E+00  0.00000000000E+00 -0.15818907645E+04  0.15818907645E+04  0.25500000920E-02 0. -1.
    10030    2    1    2    0    0  0.00000000000E+00  0.00000000000E+00 -0.14811125990E+04  0.16826689301E+04  0.79854880719E+03 0.  0.
        1    1    3    3  502    0 -0.15771898719E+03 -0.43905385829E+02 -0.15079124057E+04  0.15167738081E+04  0.50400001928E-02 0. -1.
       -1    1    3    3    0  502  0.15771898719E+03  0.43905385829E+02  0.26799806702E+02  0.16589512196E+03  0.50400001928E-02 0.  1.
</event>
<event>
 5   0  0.5813850E-03  0.7991641E+03  0.7818609E-02  0.9561228E-01
       -2   -1    0    0    0  501  0.00000000000E+00  0.00000000000E+00  0.69208909695E+03  0.69208909695E+03  0.25500000920E-02 0. -1.
        2   -1    0    0  501    0  0.00000000000E+00  0.00000000000E+00 -0.23070122569E+03  0.23070122570E+03  0.25500000920E-02 0.  1.
    10030    2    1    2    0    0  0.00000000000E+00  0.00000000000E+00  0.46138787126E+03  0.92279032265E+03  0.79916407066E+03 0.  0.
        5    1    3    3  502    0  0.56384087088E+02 -0.34773603843E+03  0.12997447014E+02  0.35254863683E+03  0.46999998093E+01 0.  1.
       -5    1    3    3    0  502 -0.56384087088E+02  0.34773603843E+03  0.44839042425E+03  0.57024168583E+03  0.46999998093E+01 0. -1.
</event>
<event>
 5   0  0.6536209E-03  0.7985480E+03  0.7818609E-02  0.9562121E-01
        2   -1    0    0  501    0  0.00000000000E+00  0.00000000000E+00  0.62231106616E+03  0.62231106616E+03  0.25500000920E-02 0.  1.
       -2   -1    0    0    0  501  0.00000000000E+00  0.00000000000E+00 -0.25617372806E+03  0.25617372807E+03  0.25500000920E-02 0. -1.
    10030    2    1    2    0    0  0.00000000000E+00  0.00000000000E+00  0.36613733810E+03  0.87848479423E+03  0.79854804699E+03 0.  0.
        3    1    3    3  502    0 -0.21085526742E+03  0.32275575579E+03  0.68803462126E+02  0.39161862608E+03  0.10100000352E+00 0. -1.
       -3    1    3    3    0  502  0.21085526742E+03 -0.32275575579E+03  0.29733387597E+03  0.48686616815E+03  0.10100000352E+00 0.  1.
</event>
<event>
 5   0  0.3671128E-03  0.7968193E+03  0.7818609E-02  0.9564632E-01
        1   -1    0    0  501    0  0.00000000000E+00  0.00000000000E+00  0.33366894351E+03  0.33366894355E+03  0.50400001928E-02 0. -1.
       -1   -1    0    0    0  501  0.00000000000E+00  0.00000000000E+00 -0.47571177629E+03  0.47571177632E+03  0.50400001928E-02 0.  1.
    10030    2    1    2    0    0  0.00000000000E+00  0.00000000000E+00 -0.14204283278E+03  0.80938071987E+03  0.79681929153E+03 0.  0.
        2    1    3    3  502    0  0.19382534617E+03 -0.34750519771E+03 -0.50652398753E+02  0.40111568501E+03  0.25500000920E-02 0.  1.
       -2    1    3    3    0  502 -0.19382534617E+03  0.34750519771E+03 -0.91390434026E+02  0.40826503486E+03  0.25500000920E-02 0. -1.
</event>
<event>
 5   0  0.3627496E-03  0.8000305E+03  0.7818609E-02  0.9559973E-01
       -1   -1    0    0    0  501  0.00000000000E+00  0.00000000000E+00  0.12368828587E+03  0.12368828597E+03  0.50400001928E-02 0. -1.
        1   -1    0    0  501    0  0.00000000000E+00  0.00000000000E+00 -0.12936731049E+04  0.12936731050E+04  0.50400001928E-02 0.  1.
    10030    2    1    2    0    0  0.00000000000E+00  0.00000000000E+00 -0.11699848191E+04  0.14173613909E+04  0.80003052169E+03 0.  0.
        3    1    3    3  502    0 -0.20152739320E+03 -0.30781583018E+03 -0.86313515193E+03  0.93827830425E+03  0.10100000352E+00 0.  1.
       -3    1    3    3    0  502  0.20152739320E+03  0.30781583018E+03 -0.30684966714E+03  0.47908308668E+03  0.10100000352E+00 0. -1.
</event>
<event>
 5   0  0.3753450E-03  0.7983031E+03  0.7818609E-02  0.9562477E-01
       -1   -1    0    0    0  501  0.00000000000E+00  0.00000000000E+00  0.25440309989E+03  0.25440309994E+03  0.50400001928E-02 0. -1.
        1   -1    0    0  501    0  0.00000000000E+00  0.00000000000E+00 -0.62625790165E+03  0.62625790167E+03  0.50400001928E-02 0.  1.
    10030    2    1    2    0    0  0.00000000000E+00  0.00000000000E+00 -0.37185480176E+03  0.88066100161E+03  0.79830307914E+03 0.  0.
        5    1    3    3  502    0  0.34878789255E+03  0.19308653460E+03 -0.16486710192E+03  0.43143789255E+03  0.46999998093E+01 0.  1.
       -5    1    3    3    0  502 -0.34878789255E+03 -0.19308653460E+03 -0.20698769984E+03  0.44922310906E+03  0.46999998093E+01 0. -1.
</event>
<event>
 5   0  0.2478000E-03  0.7512338E+03  0.7818609E-02  0.9633417E-01
        3   -1    0    0  501    0  0.00000000000E+00  0.00000000000E+00  0.27888546709E+03  0.27888548538E+03  0.10100000352E+00 0. -1.
       -3   -1    0    0    0  501  0.00000000000E+00  0.00000000000E+00 -0.50589958755E+03  0.50589959764E+03  0.10100000352E+00 0.  1.
    10030    2    1    2    0    0  0.00000000000E+00  0.00000000000E+00 -0.22701412047E+03  0.78478508301E+03  0.75123379558E+03 0.  0.
        1    1    3    3  502    0 -0.32542828371E+03 -0.12094175928E+03 -0.26328973579E+03  0.43572005000E+03  0.50400001928E-02 0. -1.
       -1    1    3    3    0  502  0.32542828371E+03  0.12094175928E+03  0.36275615322E+02  0.34906503301E+03  0.50400001928E-02 0.  1.
</event>
<event>
 5   0  0.3671128E-03  0.7990317E+03  0.7818609E-02  0.9561420E-01
       -1   -1    0    0    0  501  0.00000000000E+00  0.00000000000E+00  0.98696967073E+02  0.98696967202E+02  0.50400001928E-02 0.  1.
        1   -1    0    0  501    0  0.00000000000E+00  0.00000000000E+00 -0.16172017929E+04  0.16172017929E+04  0.50400001928E-02 0. -1.
    10030    2    1    2    0    0  0.00000000000E+00  0.00000000000E+00 -0.15185048259E+04  0.17158987601E+04  0.79903169455E+03 0.  0.
        2    1    3    3  502    0 -0.18955044680E+03 -0.99900949951E+02 -0.14833786210E+04  0.14987734001E+04  0.25500000920E-02 0. -1.
       -2    1    3    3    0  502  0.18955044680E+03  0.99900949951E+02 -0.35126204844E+02  0.21712536000E+03  0.25500000920E-02 0.  1.
</event>
<event>
 5   0  0.3714448E-03  0.8073577E+03  0.7818609E-02  0.9549428E-01
        1   -1    0    0  501    0  0.00000000000E+00  0.00000000000E+00  0.83154947893E+03  0.83154947895E+03  0.50400001928E-02 0.  1.
       -1   -1    0    0    0  501  0.00000000000E+00  0.00000000000E+00 -0.19596742876E+03  0.19596742883E+03  0.50400001928E-02 0. -1.
    10030    2    1    2    0    0  0.00000000000E+00  0.00000000000E+00  0.63558205017E+03  0.10275169078E+04  0.80735769846E+03 0.  0.
        1    1    3    3  502    0  0.30380148476E+02  0.39851721469E+03  0.24559803158E+03  0.46910267210E+03  0.50400001928E-02 0. -1.
       -1    1    3    3    0  502 -0.30380148476E+02 -0.39851721469E+03  0.38998401859E+03  0.55841423568E+03  0.50400001928E-02 0.  1.
</event>
<event>
 5   0  0.6337108E-03  0.8068302E+03  0.7818609E-02  0.9550183E-01
       -2   -1    0    0    0  501  0.00000000000E+00  0.00000000000E+00  0.97564789060E+02  0.97564789093E+02  0.25500000920E-02 0.  1.
        2   -1    0    0  501    0  0.00000000000E+00  0.00000000000E+00 -0.16680583553E+04  0.16680583553E+04  0.25500000920E-02 0. -1.
    10030    2    1    2    0    0  0.00000000000E+00  0.00000000000E+00 -0.15704935662E+04  0.17656231444E+04  0.80683024634E+03 0.  0.
        4    1    3    3  502    0 -0.18248340456E+03 -0.23264267958E+03 -0.18466923358E+03  0.34860744116E+03  0.12699999809E+01 0.  1.
       -4    1    3    3    0  502  0.18248340456E+03  0.23264267958E+03 -0.13858243326E+04  0.14170157032E+04  0.12699999809E+01 0. -1.
</event>
<event>
 5   0  0.3627496E-03  0.8002257E+03  0.7818609E-02  0.9559690E-01
        1   -1    0    0  501    0  0.00000000000E+00  0.00000000000E+00  0.10730130948E+04  0.10730130948E+04  0.50400001928E-02 0.  1.
       -1   -1    0    0    0  501  0.00000000000E+00  0.00000000000E+00 -0.14919695704E+03  0.14919695712E+03  0.50400001928E-02 0. -1.
    10030    2    1    2    0    0  0.00000000000E+00  0.00000000000E+00  0.92381613772E+03  0.12222100519E+04  0.80022568980E+03 0.  0.
        3    1    3    3  502    0  0.15254702786E+03 -0.36702198350E+03  0.53214118991E+03  0.66419122871E+03  0.10100000352E+00 0.  1.
       -3    1    3    3    0  502 -0.15254702786E+03  0.36702198350E+03  0.39167494780E+03  0.55801882318E+03  0.10100000352E+00 0. -1.
</event>
<event>
 5   0  0.6153659E-03  0.7981523E+03  0.7818609E-02  0.9562695E-01
        2   -1    0    0  501    0  0.00000000000E+00  0.00000000000E+00  0.77857505391E+03  0.77857505391E+03  0.25500000920E-02 0.  1.
       -2   -1    0    0    0  501  0.00000000000E+00  0.00000000000E+00 -0.20455544462E+03  0.20455544464E+03  0.25500000920E-02 0. -1.
    10030    2    1    2    0    0  0.00000000000E+00  0.00000000000E+00  0.57401960929E+03  0.98313049855E+03  0.79815228204E+03 0.  0.
        2    1    3    3  502    0 -0.20982481458E+03  0.20437827637E+03  0.62087039657E+03  0.68649616315E+03  0.25500000920E-02 0.  1.
       -2    1    3    3    0  502  0.20982481458E+03 -0.20437827637E+03 -0.46850787283E+02  0.29663433540E+03  0.25500000920E-02 0. -1.
</event>
<event>
 5   0  0.3753450E-03  0.8023449E+03  0.7818609E-02  0.9556629E-01
        1   -1    0    0  501    0  0.00000000000E+00  0.00000000000E+00  0.54858540456E+03  0.54858540459E+03  0.50400001928E-02 0. -1.
       -1   -1    0    0    0  501  0.00000000000E+00  0.00000000000E+00 -0.29337150060E+03  0.29337150065E+03  0.50400001928E-02 0.  1.
    10030    2    1    2    0    0  0.00000000000E+00  0.00000000000E+00  0.25521390396E+03  0.84195690523E+03  0.80234487192E+03 0.  0.
        5    1    3    3  502    0 -0.22306697263E+03 -0.28384475033E+03  0.31114334354E+03  0.47661198768E+03  0.46999998093E+01 0. -1.
       -5    1    3    3    0  502  0.22306697263E+03  0.28384475033E+03 -0.55929439585E+02  0.36534491755E+03  0.46999998093E+01 0.  1.
</event>
<event>
 5   0  0.6337108E-03  0.8038648E+03  0.7818609E-02  0.9554440E-01
        2   -1    0    0  501    0  0.00000000000E+00  0.00000000000E+00  0.81510149579E+03  0.81510149579E+03  0.25500000920E-02 0. -1.
       -2   -1    0    0    0  501  0.00000000000E+00  0.00000000000E+00 -0.19819576770E+03  0.19819576772E+03  0.25500000920E-02 0.  1.
    10030    2    1    2    0    0  0.00000000000E+00  0.00000000000E+00  0.61690572809E+03  0.10132972635E+04  0.80386483123E+03 0.  0.
        4    1    3    3  502    0  0.22607296988E+02 -0.26761742330E+03 -0.68481751359E+02  0.27716698631E+03  0.12699999809E+01 0.  1.
       -4    1    3    3    0  502 -0.22607296988E+02  0.26761742330E+03  0.68538747945E+03  0.73613027720E+03  0.12699999809E+01 0. -1.
</event>
<event>
 5   0  0.6256781E-03  0.8020969E+03  0.7818609E-02  0.9556987E-01
       -2   -1    0    0    0  501  0.00000000000E+00  0.00000000000E+00  0.19211962282E+03  0.19211962283E+03  0.25500000920E-02 0.  1.
        2   -1    0    0  501    0  0.00000000000E+00  0.00000000000E+00 -0.83718606915E+03  0.83718606915E+03  0.25500000920E-02 0. -1.
    10030    2    1    2    0    0  0.00000000000E+00  0.00000000000E+00 -0.64506644634E+03  0.10293056920E+04  0.80209693140E+03 0.  0.
        1    1    3    3  502    0 -0.27980855501E+03 -0.74949484498E+02 -0.67846299050E+03  0.73771422799E+03  0.50400001928E-02 0. -1.
       -1    1    3    3    0  502  0.27980855501E+03  0.74949484498E+02  0.33396544161E+02  0.29159146399E+03  0.50400001928E-02 0.  1.
</event>
<event>
 5   0  0.6256781E-03  0.7973120E+03  0.7818609E-02  0.9563916E-01
       -2   -1    0    0    0  501  0.00000000000E+00  0.00000000000E+00  0.12049721355E+03  0.12049721358E+03  0.25500000920E-02 0. -1.
        2   -1    0    0  501    0  0.00000000000E+00  0.00000000000E+00 -0.13189235889E+04  0.13189235889E+04  0.25500000920E-02 0.  1.
    10030    2    1    2    0    0  0.00000000000E+00  0.00000000000E+00 -0.11984263753E+04  0.14394208025E+04  0.79731202768E+03 0.  0.
        1    1    3    3  502    0  0.14896552716E+03 -0.53455070264E+02 -0.12597770153E+04  0.12696796057E+04  0.50400001928E-02 0.  1.
       -1    1    3    3    0  502 -0.14896552716E+03  0.53455070264E+02  0.61350639993E+02  0.16974119674E+03  0.50400001928E-02 0. -1.
</event>
<event>
 5   0  0.3671128E-03  0.7878666E+03  0.7818609E-02  0.9577748E-01
       -1   -1    0    0    0  501  0.00000000000E+00  0.00000000000E+00  0.97061718839E+02  0.97061718970E+02  0.50400001928E-02 0.  1.
        1   -1    0    0  501    0  0.00000000000E+00  0.00000000000E+00 -0.15988118594E+04  0.15988118594E+04  0.50400001928E-02 0. -1.
    10030    2    1    2    0    0  0.00000000000E+00  0.00000000000E+00 -0.15017501406E+04  0.16958735784E+04  0.78786655544E+03 0.  0.
        2    1    3    3  502    0 -0.36291805287E+03 -0.13045497763E+03 -0.57793213534E+03  0.69479030459E+03  0.25500000920E-02 0. -1.
       -2    1    3    3    0  502  0.36291805287E+03  0.13045497763E+03 -0.92381800524E+03  0.10010832738E+04  0.25500000920E-02 0.  1.
</event>
<event>
 5   0  0.6337108E-03  0.7982441E+03  0.7818609E-02  0.9562562E-01
        2   -1    0    0  501    0  0.00000000000E+00  0.00000000000E+00  0.22028070892E+04  0.22028070892E+04  0.25500000920E-02 0.  1.
       -2   -1    0    0    0  501  0.00000000000E+00  0.00000000000E+00 -0.72316103512E+02  0.72316103557E+02  0.25500000920E-02 0. -1.
    10030    2    1    2    0    0  0.00000000000E+00  0.00000000000E+00  0.21304909857E+04  0.22751231928E+04  0.79824413693E+03 0.  0.
        4    1    3    3  502    0 -0.21182525683E+03 -0.36258041157E+02  0.10667521650E+03  0.23992873878E+03  0.12699999809E+01 0. -1.
       -4    1    3    3    0  502  0.21182525683E+03  0.36258041157E+02  0.20238157692E+04  0.20351944540E+04  0.12699999809E+01 0.  1.
</event>
<event>
 5   0  0.6337108E-03  0.7989381E+03  0.7818609E-02  0.9561555E-01
        2   -1    0    0  501    0  0.00000000000E+00  0.00000000000E+00  0.55372783679E+03  0.55372783680E+03  0.25500000920E-02 0.  1.
       -2   -1    0    0    0  501  0.00000000000E+00  0.00000000000E+00 -0.28818404977E+03  0.28818404978E+03  0.25500000920E-02 0. -1.
    10030    2    1    2    0    0  0.00000000000E+00  0.00000000000E+00  0.26554378702E+03  0.84191188658E+03  0.79893812147E+03 0.  0.
        4    1    3    3  502    0 -0.74848919820E+02 -0.18096339039E+03  0.49967167955E+03  0.53667821803E+03  0.12699999809E+01 0.  1.
       -4    1    3    3    0  502  0.74848919820E+02  0.18096339039E+03 -0.23412789253E+03  0.30523366855E+03  0.12699999809E+01 0. -1.
</event>
<event>
 5   0  0.2478000E-03  0.7999330E+03  0.7818609E-02  0.9560114E-01
       -4   -1    0    0    0  501  0.00000000000E+00  0.00000000000E+00  0.22641243229E+03  0.22641599412E+03  0.12699999809E+01 0.  1.
        4   -1    0    0  501    0  0.00000000000E+00  0.00000000000E+00 -0.70654698318E+03  0.70654812458E+03  0.12699999809E+01 0. -1.
    10030    2    1    2    0    0  0.00000000000E+00  0.00000000000E+00 -0.48013455089E+03  0.93296411870E+03  0.79993303459E+03 0.  0.
        4    1    3    3  502    0  0.71541169725E+02 -0.36375950313E+03 -0.64995605792E+02  0.37638432054E+03  0.12699999809E+01 0.  1.
       -4    1    3    3    0  502 -0.71541169725E+02  0.36375950313E+03 -0.41513894510E+03  0.55657979816E+03  0.12699999809E+01 0. -1.
</event>
<event>
 5   0  0.6337108E-03  0.7997460E+03  0.7818609E-02  0.9560385E-01
        2   -1    0    0  501    0  0.00000000000E+00  0.00000000000E+00  0.48192967620E+03  0.48192967621E+03  0.25500000920E-02 0. -1.
       -2   -1    0    0    0  501  0.00000000000E+00  0.00000000000E+00 -0.33178784081E+03  0.33178784082E+03  0.25500000920E-02 0.  1.
    10030    2    1    2    0    0  0.00000000000E+00  0.00000000000E+00  0.15014183539E+03  0.81371751703E+03  0.79974597641E+03 0.  0.
        4    1    3    3  502    0 -0.12914705235E+03 -0.37497401381E+03  0.12707469916E+03  0.41645415622E+03  0.12699999809E+01 0.  1.
       -4    1    3    3    0  502  0.12914705235E+03  0.37497401381E+03  0.23067136228E+02  0.39726336081E+03  0.12699999809E+01 0. -1.
</event>
<event>
 5   0  0.3627496E-03  0.7973732E+03  0.7818609E-02  0.9563827E-01
       -1   -1    0    0    0  501  0.00000000000E+00  0.00000000000E+00  0.19893220246E+03  0.19893220253E+03  0.50400001928E-02 0.  1.
        1   -1    0    0  501    0  0.00000000000E+00  0.00000000000E+00 -0.79902092419E+03  0.79902092420E+03  0.50400001928E-02 0. -1.
    10030    2    1    2    0    0  0.00000000000E+00  0.00000000000E+00 -0.60008872172E+03  0.99795312673E+03  0.79737316811E+03 0.  0.
        3    1    3    3  502    0 -0.16298631563E+03  0.17724341415E+03  0.97648062646E+02  0.25983633556E+03  0.10100000352E+00 0.  1.
       -3    1    3    3    0  502  0.16298631563E+03 -0.17724341415E+03 -0.69773678437E+03  0.73811679117E+03  0.10100000352E+00 0. -1.
</event>
<event>
 5   0  0.3753450E-03  0.7996631E+03  0.7818609E-02  0.9560505E-01
       -1   -1    0    0    0  501  0.00000000000E+00  0.00000000000E+00  0.14683861533E+03  0.14683861542E+03  0.50400001928E-02 0.  1.
        1   -1    0    0  501    0  0.00000000000E+00  0.00000000000E+00 -0.10887140444E+04  0.10887140444E+04  0.50400001928E-02 0. -1.
    10030    2    1    2    0    0  0.00000000000E+00  0.00000000000E+00 -0.94187542907E+03  0.12355526598E+04  0.79966308613E+03 0.  0.
        5    1    3    3  502    0 -0.38272977810E+02  0.23495315506E+03 -0.96723536856E+03  0.99610950909E+03  0.46999998093E+01 0. -1.
       -5    1    3    3    0  502  0.38272977810E+02 -0.23495315506E+03  0.25359939496E+02  0.23944315074E+03  0.46999998093E+01 0.  1.
</event>
<event>
 5   0  0.3627496E-03  0.8000253E+03  0.7818609E-02  0.9559980E-01
        1   -1    0    0  501    0  0.00000000000E+00  0.00000000000E+00  0.23361478328E+03  0.23361478333E+03  0.50400001928E-02 0.  1.
       -1   -1    0    0    0  501  0.00000000000E+00  0.00000000000E+00 -0.68493156517E+03  0.68493156518E+03  0.50400001928E-02 0. -1.
    10030    2    1    2    0    0  0.00000000000E+00  0.00000000000E+00 -0.45131678189E+03  0.91854634851E+03  0.80002534757E+03 0.  0.
        3    1    3    3  502    0 -0.23172340856E+03  0.30881919983E+03 -0.10554067910E+03  0.40025477062E+03  0.10100000352E+00 0.  1.
       -3    1    3    3    0  502  0.23172340856E+03 -0.30881919983E+03 -0.34577610279E+03  0.51829157790E+03  0.10100000352E+00 0. -1.
</event>
<event>
 5   0  0.2478000E-03  0.7979330E+03  0.7818609E-02  0.9563014E-01
       -4   -1    0    0    0  501  0.00000000000E+00  0.00000000000E+00  0.18291439275E+03  0.18291880159E+03  0.12699999809E+01 0. -1.
        4   -1    0    0  501    0  0.00000000000E+00  0.00000000000E+00 -0.87019648983E+03  0.87019741657E+03  0.12699999809E+01 0.  1.
    10030    2    1    2    0    0  0.00000000000E+00  0.00000000000E+00 -0.68728209708E+03  0.10531162182E+04  0.79793300971E+03 0.  0.
        3    1    3    3  502    0  0.23595441302E+03  0.14390222907E+02  0.80533572430E+02  0.24973431889E+03  0.10100000352E+00 0. -1.
       -3    1    3    3    0  502 -0.23595441302E+03 -0.14390222907E+02 -0.76781566951E+03  0.80338189927E+03  0.10100000352E+00 0.  1.
</event>
<event>
 5   0  0.6536209E-03  0.7992390E+03  0.7818609E-02  0.9561119E-01
        2   -1    0    0  501    0  0.00000000000E+00  0.00000000000E+00  0.10007162662E+04  0.10007162662E+04  0.25500000920E-02 0. -1.
       -2   -1    0    0    0  501  0.00000000000E+00  0.00000000000E+00 -0.15958145502E+03  0.15958145504E+03  0.25500000920E-02 0.  1.
    10030    2    1    2    0    0  0.00000000000E+00  0.00000000000E+00  0.84113481121E+03  0.11602977213E+04  0.79923903269E+03 0.  0.
        3    1    3    3  502    0 -0.11930683494E+03  0.32184818052E+03  0.71764651337E+03  0.79551046538E+03  0.10100000352E+00 0. -1.
       -3    1    3    3    0  502  0.11930683494E+03 -0.32184818052E+03  0.12348829784E+03  0.36478725591E+03  0.10100000352E+00 0.  1.
</event>
<event>
 5   0  0.5813850E-03  0.8050025E+03  0.7818609E-02  0.9552804E-01
        2   -1    0    0  501    0  0.00000000000E+00  0.00000000000E+00  0.16672963222E+04  0.16672963222E+04  0.25500000920E-02 0.  1.
       -2   -1    0    0    0  501  0.00000000000E+00  0.00000000000E+00 -0.97167636099E+02  0.97167636133E+02  0.25500000920E-02 0. -1.
    10030    2    1    2    0    0  0.00000000000E+00  0.00000000000E+00  0.15701286861E+04  0.17644639583E+04  0.80500246543E+03 0.  0.
        5    1    3    3  502    0  0.30785625408E+03  0.19175459850E+03  0.11674810501E+04  0.12225299144E+04  0.46999998093E+01 0.  1.
       -5    1    3    3    0  502 -0.30785625408E+03 -0.19175459850E+03  0.40264763602E+03  0.54193404397E+03  0.46999998093E+01 0. -1.
</event>
<event>
 5   0  0.6153659E-03  0.8008727E+03  0.7818609E-02  0.9558755E-01
        2   -1    0    0  501    0  0.00000000000E+00  0.00000000000E+00  0.50226795722E+03  0.50226795723E+03  0.25500000920E-02 0.  1.
       -2   -1    0    0    0  501  0.00000000000E+00  0.00000000000E+00 -0.31925042557E+03  0.31925042558E+03  0.25500000920E-02 0. -1.
    10030    2    1    2    0    0  0.00000000000E+00  0.00000000000E+00  0.18301753165E+03  0.82151838281E+03  0.80087267177E+03 0.  0.
        2    1    3    3  502    0  0.27331427544E+03 -0.74960872526E+02  0.38169625371E+03  0.47540704209E+03  0.25500000920E-02 0.  1.
       -2    1    3    3    0  502 -0.27331427544E+03  0.74960872526E+02 -0.19867872206E+03  0.34611134071E+03  0.25500000920E-02 0. -1.
</event>
<event>
 5   0  0.3671128E-03  0.8011845E+03  0.7818609E-02  0.9558304E-01
       -1   -1    0    0    0  501  0.00000000000E+00  0.00000000000E+00  0.14336591671E+03  0.14336591680E+03  0.50400001928E-02 0. -1.
        1   -1    0    0  501    0  0.00000000000E+00  0.00000000000E+00 -0.11193326668E+04  0.11193326668E+04  0.50400001928E-02 0.  1.
    10030    2    1    2    0    0  0.00000000000E+00  0.00000000000E+00 -0.97596675008E+03  0.12626985836E+04  0.80118450795E+03 0.  0.
        2    1    3    3  502    0 -0.45938277921E+02  0.38633798581E+03 -0.63838405306E+03  0.74759719359E+03  0.25500000920E-02 0. -1.
       -2    1    3    3    0  502  0.45938277921E+02 -0.38633798581E+03 -0.33758269702E+03  0.51510139002E+03  0.25500000920E-02 0.  1.
</event>
<event>
 5   0  0.6256781E-03  0.8007358E+03  0.7818609E-02  0.9558953E-01
        2   -1    0    0  501    0  0.00000000000E+00  0.00000000000E+00  0.64793123763E+03  0.64793123763E+03  0.25500000920E-02 0. -1.
       -2   -1    0    0    0  501  0.00000000000E+00  0.00000000000E+00 -0.24739421654E+03  0.24739421655E+03  0.25500000920E-02 0.  1.
    10030    2    1    2    0    0  0.00000000000E+00  0.00000000000E+00  0.40053702109E+03  0.89532545418E+03  0.80073576393E+03 0.  0.
        1    1    3    3  502    0 -0.33047464249E+03 -0.22424011645E+03  0.23184097670E+03  0.46178713457E+03  0.50400001928E-02 0.  1.
       -1    1    3    3    0  502  0.33047464249E+03  0.22424011645E+03  0.16869604439E+03  0.43353831961E+03  0.50400001928E-02 0. -1.
</event>
<event>
 5   0  0.3753450E-03  0.8015465E+03  0.7818609E-02  0.9557781E-01
        1   -1    0    0  501    0  0.00000000000E+00  0.00000000000E+00  0.21071257521E+03  0.21071257527E+03  0.50400001928E-02 0.  1.
       -1   -1    0    0    0  501  0.00000000000E+00  0.00000000000E+00 -0.76226678715E+03  0.76226678717E+03  0.50400001928E-02 0. -1.
    10030    2    1    2    0    0  0.00000000000E+00  0.00000000000E+00 -0.55155421194E+03  0.97297936244E+03  0.80154649961E+03 0.  0.
        5    1    3    3  502    0  0.39251666841E+03 -0.80747303560E+02 -0.27913359268E+03  0.48839237768E+03  0.46999998093E+01 0.  1.
       -5    1    3    3    0  502 -0.39251666841E+03  0.80747303560E+02 -0.27242061926E+03  0.48458698477E+03  0.46999998093E+01 0. -1.
</event>
<event>
 5   0  0.2478000E-03  0.8014059E+03  0.7818609E-02  0.9557984E-01
        4   -1    0    0  501    0  0.00000000000E+00  0.00000000000E+00  0.15324595461E+04  0.15324600723E+04  0.12699999809E+01 0. -1.
       -4   -1    0    0    0  501  0.00000000000E+00  0.00000000000E+00 -0.10477021434E+03  0.10477791137E+03  0.12699999809E+01 0.  1.
    10030    2    1    2    0    0  0.00000000000E+00  0.00000000000E+00  0.14276893318E+04  0.16372379837E+04  0.80140588175E+03 0.  0.
        2    1    3    3  502    0 -0.10753377306E+02 -0.31169333891E+03  0.12278198897E+04  0.12668109780E+04  0.25500000920E-02 0. -1.
       -2    1    3    3    0  502  0.10753377306E+02  0.31169333891E+03  0.19986944211E+03  0.37042700568E+03  0.25500000920E-02 0.  1.
</event>
<event>
 5   0  0.3714448E-03  0.8405395E+03  0.7818609E-02  0.9503123E-01
        1   -1    0    0  501    0  0.00000000000E+00  0.00000000000E+00  0.57273937020E+03  0.57273937022E+03  0.50400001928E-02 0. -1.
       -1   -1    0    0    0  501  0.00000000000E+00  0.00000000000E+00 -0.30838927456E+03  0.30838927460E+03  0.50400001928E-02 0.  1.
    10030    2    1    2    0    0  0.00000000000E+00  0.00000000000E+00  0.26435009564E+03  0.88112864482E+03  0.84053953843E+03 0.  0.
        1    1    3    3  502    0 -0.86349847230E+02 -0.37415644294E+03 -0.46887192323E+02  0.38684331290E+03  0.50400001928E-02 0.  1.
       -1    1    3    3    0  502  0.86349847230E+02  0.37415644294E+03  0.31123728796E+03  0.49428533192E+03  0.50400001928E-02 0. -1.
</event>
<event>
 5   0  0.2478000E-03  0.7976835E+03  0.7818609E-02  0.9563376E-01
       -3   -1    0    0    0  501  0.00000000000E+00  0.00000000000E+00  0.42337152046E+03  0.42337153250E+03  0.10100000352E+00 0. -1.
        3   -1    0    0  501    0  0.00000000000E+00  0.00000000000E+00 -0.37573320520E+03  0.37573321877E+03  0.10100000352E+00 0.  1.
    10030    2    1    2    0    0  0.00000000000E+00  0.00000000000E+00  0.47638315256E+02  0.79910475128E+03  0.79768351771E+03 0.  0.
        3    1    3    3  502    0 -0.38810107477E+03 -0.81199274522E+02 -0.19373459288E+02  0.39697746478E+03  0.10100000352E+00 0.  1.
       -3    1    3    3    0  502  0.38810107477E+03  0.81199274522E+02  0.67011774545E+02  0.40212728650E+03  0.10100000352E+00 0. -1.
</event>
<event>
 5   0  0.3627496E-03  0.8059081E+03  0.7818609E-02  0.9551505E-01
        1   -1    0    0  501    0  0.00000000000E+00  0.00000000000E+00  0.47629496837E+03  0.47629496839E+03  0.50400001928E-02 0.  1.
       -1   -1    0    0    0  501  0.00000000000E+00  0.00000000000E+00 -0.34090634159E+03  0.34090634162E+03  0.50400001928E-02 0. -1.
    10030    2    1    2    0    0  0.00000000000E+00  0.00000000000E+00  0.13538862678E+03  0.81720131002E+03  0.80590812183E+03 0.  0.
        3    1    3    3  502    0  0.12729656807E+03 -0.36485264823E+03  0.18353212357E+03  0.42779191408E+03  0.10100000352E+00 0.  1.
       -3    1    3    3    0  502 -0.12729656807E+03  0.36485264823E+03 -0.48143496787E+02  0.38940939594E+03  0.10100000352E+00 0. -1.
</event>
<event>
 5   0  0.3671128E-03  0.8000317E+03  0.7818609E-02  0.9559971E-01
       -1   -1    0    0    0  501  0.00000000000E+00  0.00000000000E+00  0.16786270222E+03  0.16786270229E+03  0.50400001928E-02 0.  1.
        1   -1    0    0  501    0  0.00000000000E+00  0.00000000000E+00 -0.95323542444E+03  0.95323542445E+03  0.50400001928E-02 0. -1.
    10030    2    1    2    0    0  0.00000000000E+00  0.00000000000E+00 -0.78537272222E+03  0.11210981267E+04  0.80003168498E+03 0.  0.
        2    1    3    3  502    0  0.34139729267E+02 -0.38857273268E+03 -0.26846305661E+03  0.47352582028E+03  0.25500000920E-02 0.  1.
       -2    1    3    3    0  502 -0.34139729267E+02  0.38857273268E+03 -0.51690966561E+03  0.64757230646E+03  0.25500000920E-02 0. -1.
</event>
<event>
 5   0  0.3627496E-03  0.8114736E+03  0.7818609E-02  0.9543556E-01
       -1   -1    0    0    0  501  0.00000000000E+00  0.00000000000E+00  0.24633680777E+03  0.24633680782E+03  0.50400001928E-02 0. -1.
        1   -1    0    0  501    0  0.00000000000E+00  0.00000000000E+00 -0.66828153906E+03  0.66828153908E+03  0.50400001928E-02 0.  1.
    10030    2    1    2    0    0  0.00000000000E+00  0.00000000000E+00 -0.42194473129E+03  0.91461834690E+03  0.81147357580E+03 0.  0.
        3    1    3    3  502    0  0.25640817353E+03  0.23553744477E+03 -0.44577709845E+03  0.56563262904E+03  0.10100000352E+00 0.  1.
       -3    1    3    3    0  502 -0.25640817353E+03 -0.23553744477E+03  0.23832367153E+02  0.34898571785E+03  0.10100000352E+00 0. -1.
</event>
<event>
 5   0  0.3860515E-03  0.8010553E+03  0.7818609E-02  0.9558491E-01
       -1   -1    0    0    0  501  0.00000000000E+00  0.00000000000E+00  0.14764177551E+03  0.14764177560E+03  0.50400001928E-02 0.  1.
        1   -1    0    0  501    0  0.00000000000E+00  0.00000000000E+00 -0.10865651307E+04  0.10865651307E+04  0.50400001928E-02 0. -1.
    10030    2    1    2    0    0  0.00000000000E+00  0.00000000000E+00 -0.93892335518E+03  0.12342069063E+04  0.80105531686E+03 0.  0.
        4    1    3    3  502    0  0.40612278030E+01 -0.40012196738E+03 -0.44247873094E+03  0.59657616663E+03  0.12699999809E+01 0.  1.
       -4    1    3    3    0  502 -0.40612278030E+01  0.40012196738E+03 -0.49644462424E+03  0.63763073968E+03  0.12699999809E+01 0. -1.
</event>
<event>
 5   0  0.2478000E-03  0.7945917E+03  0.7818609E-02  0.9567879E-01
       -4   -1    0    0    0  501  0.00000000000E+00  0.00000000000E+00  0.32412960629E+03  0.32413209433E+03  0.12699999809E+01 0.  1.
        4   -1    0    0  501    0  0.00000000000E+00  0.00000000000E+00 -0.48697286463E+03  0.48697452067E+03  0.12699999809E+01 0. -1.
    10030    2    1    2    0    0  0.00000000000E+00  0.00000000000E+00 -0.16284325834E+03  0.81110661500E+03  0.79459172794E+03 0.  0.
        3    1    3    3  502    0 -0.15652406390E+03 -0.11196395405E+03  0.27337726786E+03  0.33432147758E+03  0.10100000352E+00 0.  1.
       -3    1    3    3    0  502  0.15652406390E+03  0.11196395405E+03 -0.43622052620E+03  0.47678513742E+03  0.10100000352E+00 0. -1.
</event>
<event>
 5   0  0.6153659E-03  0.7998375E+03  0.7818609E-02  0.9560252E-01
       -2   -1    0    0    0  501  0.00000000000E+00  0.00000000000E+00  0.20153508932E+03  0.20153508934E+03  0.25500000920E-02 0.  1.
        2   -1    0    0  501    0  0.00000000000E+00  0.00000000000E+00 -0.79358388936E+03  0.79358388936E+03  0.25500000920E-02 0. -1.
    10030    2    1    2    0    0  0.00000000000E+00  0.00000000000E+00 -0.59204880003E+03  0.99511897870E+03  0.79983748358E+03 0.  0.
        2    1    3    3  502    0 -0.22675630181E+03  0.15024642087E+03 -0.66075943467E+03  0.71455961116E+03  0.25500000920E-02 0. -1.
       -2    1    3    3    0  502  0.22675630181E+03 -0.15024642087E+03  0.68710634631E+02  0.28055936754E+03  0.25500000920E-02 0.  1.
</event>
<event>
 5   0  0.3671128E-03  0.8005798E+03  0.7818609E-02  0.9559178E-01
        1   -1    0    0  501    0  0.00000000000E+00  0.00000000000E+00  0.59150543764E+03  0.59150543766E+03  0.50400001928E-02 0. -1.
       -1   -1    0    0    0  501  0.00000000000E+00  0.00000000000E+00 -0.27088850207E+03  0.27088850212E+03  0.50400001928E-02 0.  1.
    10030    2    1    2    0    0  0.00000000000E+00  0.00000000000E+00  0.32061693557E+03  0.86239393978E+03  0.80057984485E+03 0.  0.
        2    1    3    3  502    0 -0.36366433318E+03 -0.94533666136E+02  0.30896235203E+03  0.48646284159E+03  0.25500000920E-02 0.  1.
       -2    1    3    3    0  502  0.36366433318E+03  0.94533666136E+02  0.11654583539E+02  0.37593109819E+03  0.25500000920E-02 0. -1.
</event>
<event>
 5   0  0.3753450E-03  0.7993580E+03  0.7818609E-02  0.9560947E-01
       -1   -1    0    0    0  501  0.00000000000E+00  0.00000000000E+00  0.12868141682E+03  0.12868141692E+03  0.50400001928E-02 0. -1.
        1   -1    0    0  501    0  0.00000000000E+00  0.00000000000E+00 -0.12413858446E+04  0.12413858446E+04  0.50400001928E-02 0.  1.
    10030    2    1    2    0    0  0.00000000000E+00  0.00000000000E+00 -0.11127044278E+04  0.13700672616E+04  0.79935796583E+03 0.  0.
        5    1    3    3  502    0  0.20324891392E+03  0.27789911790E+02 -0.11442148705E+04  0.11624681329E+04  0.46999998093E+01 0.  1.
       -5    1    3    3    0  502 -0.20324891392E+03 -0.27789911790E+02  0.31510442706E+02  0.20759912862E+03  0.46999998093E+01 0. -1.
</event>
<event>
 5   0  0.3753450E-03  0.8066362E+03  0.7818609E-02  0.9550461E-01
        1   -1    0    0  501    0  0.00000000000E+00  0.00000000000E+00  0.73377327394E+03  0.73377327396E+03  0.50400001928E-02 0.  1.
       -1   -1    0    0    0  501  0.00000000000E+00  0.00000000000E+00 -0.22168356183E+03  0.22168356189E+03  0.50400001928E-02 0. -1.
    10030    2    1    2    0    0  0.00000000000E+00  0.00000000000E+00  0.51208971211E+03  0.95545683584E+03  0.80663615832E+03 0.  0.
        5    1    3    3  502    0  0.15353432372E+03  0.57907113075E+02 -0.18032132893E+03  0.24385219698E+03  0.46999998093E+01 0. -1.
       -5    1    3    3    0  502 -0.15353432372E+03 -0.57907113075E+02  0.69241104104E+03  0.71160463887E+03  0.46999998093E+01 0.  1.
</event>
<event>
 5   0  0.6536209E-03  0.8019536E+03  0.7818609E-02  0.9557194E-01
       -2   -1    0    0    0  501  0.00000000000E+00  0.00000000000E+00  0.22369016268E+03  0.22369016270E+03  0.25500000920E-02 0.  1.
        2   -1    0    0  501    0  0.00000000000E+00  0.00000000000E+00 -0.71877278099E+03  0.71877278099E+03  0.25500000920E-02 0. -1.
    10030    2    1    2    0    0  0.00000000000E+00  0.00000000000E+00 -0.49508261831E+03  0.94246294369E+03  0.80195361541E+03 0.  0.
        3    1    3    3  502    0 -0.39219504608E+03 -0.53622899715E+02 -0.32269975309E+03  0.51071274743E+03  0.10100000352E+00 0. -1.
       -3    1    3    3    0  502  0.39219504608E+03  0.53622899715E+02 -0.17238286522E+03  0.43175019626E+03  0.10100000352E+00 0.  1.
</event>
<event>
 5   0  0.6536209E-03  0.7973995E+03  0.7818609E-02  0.9563789E-01
       -2   -1    0    0    0  501  0.00000000000E+00  0.00000000000E+00  0.12521131312E+03  0.12521131315E+03  0.25500000920E-02 0.  1.
        2   -1    0    0  501    0  0.00000000000E+00  0.00000000000E+00 -0.12695456560E+04  0.12695456561E+04  0.25500000920E-02 0. -1.
    10030    2    1    2    0    0  0.00000000000E+00  0.00000000000E+00 -0.11443343429E+04  0.13947569692E+04  0.79739946998E+03 0.  0.
        3    1    3    3  502    0  0.36259111309E+03  0.28273904126E+02 -0.28641156150E+03  0.46292906768E+03  0.10100000352E+00 0. -1.
       -3    1    3    3    0  502 -0.36259111309E+03 -0.28273904126E+02 -0.85792278143E+03  0.93182790152E+03  0.10100000352E+00 0.  1.
</event>
<event>
 5   0  0.6337108E-03  0.7864587E+03  0.7818609E-02  0.9579827E-01
        2   -1    0    0  501    0  0.00000000000E+00  0.00000000000E+00  0.10837488417E+04  0.10837488417E+04  0.25500000920E-02 0. -1.
       -2   -1    0    0    0  501  0.00000000000E+00  0.00000000000E+00 -0.14268005104E+03  0.14268005107E+03  0.25500000920E-02 0.  1.
    10030    2    1    2    0    0  0.00000000000E+00  0.00000000000E+00  0.94106879063E+03  0.12264288927E+04  0.78645874669E+03 0.  0.
        4    1    3    3  502    0  0.12999764429E+03  0.31005820130E+02 -0.10617503503E+03  0.17069123987E+03  0.12699999809E+01 0.  1.
       -4    1    3    3    0  502 -0.12999764429E+03 -0.31005820130E+02  0.10472438257E+04  0.10557376529E+04  0.12699999809E+01 0. -1.
</event>
<event>
 5   0  0.6536209E-03  0.8024502E+03  0.7818609E-02  0.9556477E-01
        2   -1    0    0  501    0  0.00000000000E+00  0.00000000000E+00  0.87830199355E+03  0.87830199355E+03  0.25500000920E-02 0.  1.
       -2   -1    0    0    0  501  0.00000000000E+00  0.00000000000E+00 -0.18328728606E+03  0.18328728608E+03  0.25500000920E-02 0. -1.
    10030    2    1    2    0    0  0.00000000000E+00  0.00000000000E+00  0.69501470749E+03  0.10615892796E+04  0.80245021964E+03 0.  0.
        3    1    3    3  502    0  0.33312353627E+03 -0.33655351743E+02  0.55029232380E+02  0.33931136105E+03  0.10100000352E+00 0. -1.
       -3    1    3    3    0  502 -0.33312353627E+03  0.33655351743E+02  0.63998547511E+03  0.72227791858E+03  0.10100000352E+00 0.  1.
</event>
<event>
 5   0  0.6256781E-03  0.8014121E+03  0.7818609E-02  0.9557975E-01
       -2   -1    0    0    0  501  0.00000000000E+00  0.00000000000E+00  0.14950220270E+03  0.14950220273E+03  0.25500000920E-02 0.  1.
        2   -1    0    0  501    0  0.00000000000E+00  0.00000000000E+00 -0.10739999376E+04  0.10739999376E+04  0.25500000920E-02 0. -1.
    10030    2    1    2    0    0  0.00000000000E+00  0.00000000000E+00 -0.92449773491E+03  0.12235021403E+04  0.80141214464E+03 0.  0.
        1    1    3    3  502    0  0.26419276593E+03  0.29875184343E+03 -0.40282824576E+03  0.56685190053E+03  0.50400001928E-02 0.  1.
       -1    1    3    3    0  502 -0.26419276593E+03 -0.29875184343E+03 -0.52166948915E+03  0.65665023982E+03  0.50400001928E-02 0. -1.
</event>
<event>
 5   0  0.6536209E-03  0.7929099E+03  0.7818609E-02  0.9570337E-01
       -2   -1    0    0    0  501  0.00000000000E+00  0.00000000000E+00  0.14618436491E+03  0.14618436494E+03  0.25500000920E-02 0. -1.
        2   -1    0    0  501    0  0.00000000000E+00  0.00000000000E+00 -0.10751937772E+04  0.10751937772E+04  0.25500000920E-02 0.  1.
    10030    2    1    2    0    0  0.00000000000E+00  0.00000000000E+00 -0.92900941233E+03  0.12213781422E+04  0.79290988013E+03 0.  0.
        3    1    3    3  502    0 -0.11149945232E+03  0.37875036695E+03 -0.51988413500E+03  0.65281198852E+03  0.10100000352E+00 0.  1.
       -3    1    3    3    0  502  0.11149945232E+03 -0.37875036695E+03 -0.40912527734E+03  0.56856615366E+03  0.10100000352E+00 0. -1.
</event>
<event>
 5   0  0.5813850E-03  0.8038391E+03  0.7818609E-02  0.9554477E-01
        2   -1    0    0  501    0  0.00000000000E+00  0.00000000000E+00  0.26949475005E+03  0.26949475006E+03  0.25500000920E-02 0. -1.
       -2   -1    0    0    0  501  0.00000000000E+00  0.00000000000E+00 -0.59941545904E+03  0.59941545904E+03  0.25500000920E-02 0.  1.
    10030    2    1    2    0    0  0.00000000000E+00  0.00000000000E+00 -0.32992070899E+03  0.86891020910E+03  0.80383908667E+03 0.  0.
        5    1    3    3  502    0 -0.16193560855E+03 -0.30943272243E+02  0.23122914343E+03  0.28402400283E+03  0.46999998093E+01 0. -1.
       -5    1    3    3    0  502  0.16193560855E+03  0.30943272243E+02 -0.56114985242E+03  0.58488620627E+03  0.46999998093E+01 0.  1.
</event>
<event>
 5   0  0.3627496E-03  0.8023593E+03  0.7818609E-02  0.9556608E-01
       -1   -1    0    0    0  501  0.00000000000E+00  0.00000000000E+00  0.35578181698E+03  0.35578181702E+03  0.50400001928E-02 0.  1.
        1   -1    0    0  501    0  0.00000000000E+00  0.00000000000E+00 -0.45237030396E+03  0.45237030399E+03  0.50400001928E-02 0. -1.
    10030    2    1    2    0    0  0.00000000000E+00  0.00000000000E+00 -0.96588486978E+02  0.80815212101E+03  0.80235934273E+03 0.  0.
        3    1    3    3  502    0  0.29605863179E+03  0.26328861481E+03  0.15196641201E+02  0.39648777566E+03  0.10100000352E+00 0.  1.
       -3    1    3    3    0  502 -0.29605863179E+03 -0.26328861481E+03 -0.11178512818E+03  0.41166434534E+03  0.10100000352E+00 0. -1.
</event>
<event>
 5   0  0.2478000E-03  0.8005396E+03  0.7818609E-02  0.9559236E-01
       -3   -1    0    0    0  501  0.00000000000E+00  0.00000000000E+00  0.14670980281E+03  0.14670983757E+03  0.10100000352E+00 0. -1.
        3   -1    0    0  501    0  0.00000000000E+00  0.00000000000E+00 -0.10920599262E+04  0.10920599309E+04  0.10100000352E+00 0.  1.
    10030    2    1    2    0    0  0.00000000000E+00  0.00000000000E+00 -0.94535012342E+03  0.12387697685E+04  0.80053962015E+03 0.  0.
        3    1    3    3  502    0 -0.43095259816E+02 -0.59394992530E+01 -0.10883909556E+04  0.10892600064E+04  0.10100000352E+00 0.  1.
       -3    1    3    3    0  502  0.43095259816E+02  0.59394992530E+01  0.14304083221E+03  0.14950976206E+03  0.10100000352E+00 0. -1.
</event>
<event>
 5   0  0.3714448E-03  0.7859952E+03  0.7818609E-02  0.9580513E-01
       -1   -1    0    0    0  501  0.00000000000E+00  0.00000000000E+00  0.54440857919E+03  0.54440857921E+03  0.50400001928E-02 0.  1.
        1   -1    0    0  501    0  0.00000000000E+00  0.00000000000E+00 -0.28369704570E+03  0.28369704575E+03  0.50400001928E-02 0. -1.
    10030    2    1    2    0    0  0.00000000000E+00  0.00000000000E+00  0.26071153348E+03  0.82810562496E+03  0.78599517962E+03 0.  0.
        1    1    3    3  502    0  0.12765809337E+03  0.97811339999E+02  0.50815267846E+03  0.53299417603E+03  0.50400001928E-02 0.  1.
       -1    1    3    3    0  502 -0.12765809337E+03 -0.97811339999E+02 -0.24744114497E+03  0.29511144893E+03  0.50400001928E-02 0. -1.
</event>
<event>
 5   0  0.3627496E-03  0.7990030E+03  0.7818609E-02  0.9561461E-01
       -1   -1    0    0    0  501  0.00000000000E+00  0.00000000000E+00  0.15832817153E+03  0.15832817161E+03  0.50400001928E-02 0.  1.
        1   -1    0    0  501    0  0.00000000000E+00  0.00000000000E+00 -0.10080421306E+04  0.10080421306E+04  0.50400001928E-02 0. -1.
    10030    2    1    2    0    0  0.00000000000E+00  0.00000000000E+00 -0.84971395905E+03  0.11663703022E+04  0.79900304733E+03 0.  0.
        3    1    3    3  502    0  0.11177498730E+03 -0.27684045072E+03 -0.37348289762E+02  0.30088068714E+03  0.10100000352E+00 0.  1.
       -3    1    3    3    0  502 -0.11177498730E+03  0.27684045072E+03 -0.81236566929E+03  0.86548961507E+03  0.10100000352E+00 0. -1.
</event>
<event>
 5   0  0.3860515E-03  0.8005619E+03  0.7818609E-02  0.9559204E-01
       -1   -1    0    0    0  501  0.00000000000E+00  0.00000000000E+00  0.14238055291E+03  0.14238055300E+03  0.50400001928E-02 0. -1.
        1   -1    0    0  501    0  0.00000000000E+00  0.00000000000E+00 -0.11253280527E+04  0.11253280527E+04  0.50400001928E-02 0.  1.
    10030    2    1    2    0    0  0.00000000000E+00  0.00000000000E+00 -0.98294749979E+03  0.12677086057E+04  0.80056187873E+03 0.  0.
        4    1    3    3  502    0  0.24943467059E+03 -0.19251553757E+03 -0.88239351076E+03  0.93696307709E+03  0.12699999809E+01 0.  1.
       -4    1    3    3    0  502 -0.24943467059E+03  0.19251553757E+03 -0.10055398903E+03  0.33074552863E+03  0.12699999809E+01 0. -1.
</event>
<event>
 5   0  0.3860515E-03  0.8003038E+03  0.7818609E-02  0.9559578E-01
        1   -1    0    0  501    0  0.00000000000E+00  0.00000000000E+00  0.15174367601E+03  0.15174367609E+03  0.50400001928E-02 0.  1.
       -1   -1    0    0    0  501  0.00000000000E+00  0.00000000000E+00 -0.10552105706E+04  0.10552105706E+04  0.50400001928E-02 0. -1.
    10030    2    1    2    0    0  0.00000000000E+00  0.00000000000E+00 -0.90346689459E+03  0.12069542467E+04  0.80030376983E+03 0.  0.
        4    1    3    3  502    0  0.23303646935E+03 -0.31823033255E+03 -0.35007924050E+03  0.52738375793E+03  0.12699999809E+01 0. -1.
       -4    1    3    3    0  502 -0.23303646935E+03  0.31823033255E+03 -0.55338765409E+03  0.67957048876E+03  0.12699999809E+01 0.  1.
</event>
<event>
 5   0  0.6337108E-03  0.8003151E+03  0.7818609E-02  0.9559561E-01
       -2   -1    0    0    0  501  0.00000000000E+00  0.00000000000E+00  0.16427028463E+03  0.16427028465E+03  0.25500000920E-02 0.  1.
        2   -1    0    0  501    0  0.00000000000E+00  0.00000000000E+00 -0.97477197331E+03  0.97477197332E+03  0.25500000920E-02 0. -1.
    10030    2    1    2    0    0  0.00000000000E+00  0.00000000000E+00 -0.81050168868E+03  0.11390422580E+04  0.80031511175E+03 0.  0.
        4    1    3    3  502    0 -0.41194090057E+02  0.39387205422E+03 -0.32358713951E+03  0.51141216050E+03  0.12699999809E+01 0. -1.
       -4    1    3    3    0  502  0.41194090057E+02 -0.39387205422E+03 -0.48691454917E+03  0.62763009747E+03  0.12699999809E+01 0.  1.
</event>
<event>
 5   0  0.5813850E-03  0.7996987E+03  0.7818609E-02  0.9560453E-01
        2   -1    0    0  501    0  0.00000000000E+00  0.00000000000E+00  0.14471392373E+04  0.14471392373E+04  0.25500000920E-02 0.  1.
       -2   -1    0    0    0  501  0.00000000000E+00  0.00000000000E+00 -0.11047969771E+03  0.11047969774E+03  0.25500000920E-02 0. -1.
    10030    2    1    2    0    0  0.00000000000E+00  0.00000000000E+00  0.13366595396E+04  0.15576189350E+04  0.79969870704E+03 0.  0.
        5    1    3    3  502    0 -0.16857478209E+03  0.17685390556E+03  0.51894134334E+02  0.24981963943E+03  0.46999998093E+01 0. -1.
       -5    1    3    3    0  502  0.16857478209E+03 -0.17685390556E+03  0.12847654053E+04  0.13077992956E+04  0.46999998093E+01 0.  1.
</event>
<event>
 5   0  0.3860515E-03  0.8019588E+03  0.7818609E-02  0.9557186E-01
       -1   -1    0    0    0  501  0.00000000000E+00  0.00000000000E+00  0.25656039153E+03  0.25656039158E+03  0.50400001928E-02 0.  1.
        1   -1    0    0  501    0  0.00000000000E+00  0.00000000000E+00 -0.62669255030E+03  0.62669255032E+03  0.50400001928E-02 0. -1.
    10030    2    1    2    0    0  0.00000000000E+00  0.00000000000E+00 -0.37013215877E+03  0.88325294190E+03  0.80195881716E+03 0.  0.
        4    1    3    3  502    0 -0.24557770094E+03 -0.28869993158E+03 -0.40930454325E+02  0.38122561914E+03  0.12699999809E+01 0. -1.
       -4    1    3    3    0  502  0.24557770094E+03  0.28869993158E+03 -0.32920170444E+03  0.50202732276E+03  0.12699999809E+01 0.  1.
</event>
<event>
 5   0  0.6536209E-03  0.8004283E+03  0.7818609E-02  0.9559397E-01
        2   -1    0    0  501    0  0.00000000000E+00  0.00000000000E+00  0.11833805412E+04  0.11833805412E+04  0.25500000920E-02 0. -1.
       -2   -1    0    0    0  501  0.00000000000E+00  0.00000000000E+00 -0.13535067469E+03  0.13535067472E+03  0.25500000920E-02 0.  1.
    10030    2    1    2    0    0  0.00000000000E+00  0.00000000000E+00  0.10480298665E+04  0.13187312159E+04  0.80042827208E+03 0.  0.
        3    1    3    3  502    0  0.17451529569E+03  0.35581050224E+03  0.61596201977E+03  0.73243834002E+03  0.10100000352E+00 0. -1.
       -3    1    3    3    0  502 -0.17451529569E+03 -0.35581050224E+03  0.43206784671E+03  0.58629287587E+03  0.10100000352E+00 0.  1.
</event>
<event>
 5   0  0.6256781E-03  0.8041543E+03  0.7818609E-02  0.9554023E-01
        2   -1    0    0  501    0  0.00000000000E+00  0.00000000000E+00  0.88469648532E+03  0.88469648532E+03  0.25500000920E-02 0.  1.
       -2   -1    0    0    0  501  0.00000000000E+00  0.00000000000E+00 -0.18273614232E+03  0.18273614234E+03  0.25500000920E-02 0. -1.
    10030    2    1    2    0    0  0.00000000000E+00  0.00000000000E+00  0.70196034299E+03  0.10674326277E+04  0.80415427093E+03 0.  0.
        1    1    3    3  502    0  0.32273634128E+03 -0.10201460909E+03  0.62900296002E+02  0.34427049498E+03  0.50400001928E-02 0. -1.
       -1    1    3    3    0  502 -0.32273634128E+03  0.10201460909E+03  0.63906004699E+03  0.72316213268E+03  0.50400001928E-02 0.  1.
</event>
<event>
 5   0  0.2478000E-03  0.8007368E+03  0.7818609E-02  0.9558951E-01
        3   -1    0    0  501    0  0.00000000000E+00  0.00000000000E+00  0.13811686409E+03  0.13811690102E+03  0.10100000352E+00 0. -1.
       -3   -1    0    0    0  501  0.00000000000E+00  0.00000000000E+00 -0.11605738983E+04  0.11605739027E+04  0.10100000352E+00 0.  1.
    10030    2    1    2    0    0  0.00000000000E+00  0.00000000000E+00 -0.10224570342E+04  0.12986908037E+04  0.80073679626E+03 0.  0.
        5    1    3    3  502    0  0.50349279990E+02  0.16408232586E+03 -0.10978314925E+04  0.11111769146E+04  0.46999998093E+01 0.  1.
       -5    1    3    3    0  502 -0.50349279990E+02 -0.16408232586E+03  0.75374458274E+02  0.18751388912E+03  0.46999998093E+01 0. -1.
</event>
<event>
 5   0  0.6153659E-03  0.7899029E+03  0.7818609E-02  0.9574748E-01
       -2   -1    0    0    0  501  0.00000000000E+00  0.00000000000E+00  0.86204723752E+02  0.86204723790E+02  0.25500000920E-02 0. -1.
        2   -1    0    0  501    0  0.00000000000E+00  0.00000000000E+00 -0.18094907458E+04  0.18094907459E+04  0.25500000920E-02 0.  1.
    10030    2    1    2    0    0  0.00000000000E+00  0.00000000000E+00 -0.17232860221E+04  0.18956954696E+04  0.78990290521E+03 0.  0.
        2    1    3    3  502    0 -0.18356717579E+03  0.33374856949E+03 -0.11122196991E+04  0.11756350091E+04  0.25500000920E-02 0.  1.
       -2    1    3    3    0  502  0.18356717579E+03 -0.33374856949E+03 -0.61106632301E+03  0.72006046050E+03  0.25500000920E-02 0. -1.
</event>
<event>
 5   0  0.2478000E-03  0.7996353E+03  0.7818609E-02  0.9560545E-01
        4   -1    0    0  501    0  0.00000000000E+00  0.00000000000E+00  0.16777272448E+03  0.16777753121E+03  0.12699999809E+01 0.  1.
       -4   -1    0    0    0  501  0.00000000000E+00  0.00000000000E+00 -0.95278298857E+03  0.95278383499E+03  0.12699999809E+01 0. -1.
    10030    2    1    2    0    0  0.00000000000E+00  0.00000000000E+00 -0.78501026409E+03  0.11205613662E+04  0.79963532981E+03 0.  0.
        4    1    3    3  502    0 -0.35292920115E+03  0.73477741850E+02 -0.15021278276E+03  0.39054256180E+03  0.12699999809E+01 0.  1.
       -4    1    3    3    0  502  0.35292920115E+03 -0.73477741850E+02 -0.63479748133E+03  0.73001880440E+03  0.12699999809E+01 0. -1.
</event>
<event>
 5   0  0.3860515E-03  0.8023731E+03  0.7818609E-02  0.9556589E-01
       -1   -1    0    0    0  501  0.00000000000E+00  0.00000000000E+00  0.27614292935E+03  0.27614292940E+03  0.50400001928E-02 0.  1.
        1   -1    0    0  501    0  0.00000000000E+00  0.00000000000E+00 -0.58285265955E+03  0.58285265957E+03  0.50400001928E-02 0. -1.
    10030    2    1    2    0    0  0.00000000000E+00  0.00000000000E+00 -0.30670973020E+03  0.85899558897E+03  0.80237308234E+03 0.  0.
        4    1    3    3  502    0 -0.33240100866E+03  0.21531274536E+03 -0.84813215738E+02  0.40502457128E+03  0.12699999809E+01 0.  1.
       -4    1    3    3    0  502  0.33240100866E+03 -0.21531274536E+03 -0.22189651446E+03  0.45397101769E+03  0.12699999809E+01 0. -1.
</event>
<event>
 5   0  0.5813850E-03  0.7961128E+03  0.7818609E-02  0.9565661E-01
       -2   -1    0    0    0  501  0.00000000000E+00  0.00000000000E+00  0.86125268901E+02  0.86125268939E+02  0.25500000920E-02 0.  1.
        2   -1    0    0  501    0  0.00000000000E+00  0.00000000000E+00 -0.18397492088E+04  0.18397492088E+04  0.25500000920E-02 0. -1.
    10030    2    1    2    0    0  0.00000000000E+00  0.00000000000E+00 -0.17536239399E+04  0.19258744778E+04  0.79611279442E+03 0.  0.
        5    1    3    3  502    0 -0.24256271208E+03 -0.11687835409E+03 -0.15859401351E+04  0.16086408614E+04  0.46999998093E+01 0. -1.
       -5    1    3    3    0  502  0.24256271208E+03  0.11687835409E+03 -0.16768380486E+03  0.31723361637E+03  0.46999998093E+01 0.  1.
</event>
<event>
 5   0  0.2478000E-03  0.8008100E+03  0.7818609E-02  0.9558845E-01
       -4   -1    0    0    0  501  0.00000000000E+00  0.00000000000E+00  0.13408512029E+03  0.13409113462E+03  0.12699999809E+01 0. -1.
        4   -1    0    0  501    0  0.00000000000E+00  0.00000000000E+00 -0.11956562837E+04  0.11956569582E+04  0.12699999809E+01 0.  1.
    10030    2    1    2    0    0  0.00000000000E+00  0.00000000000E+00 -0.10615711634E+04  0.13297480928E+04  0.80080999950E+03 0.  0.
        2    1    3    3  502    0  0.21009521467E+03  0.28194521442E+03 -0.21271754960E+03  0.41095238055E+03  0.25500000920E-02 0. -1.
       -2    1    3    3    0  502 -0.21009521467E+03 -0.28194521442E+03 -0.84885361379E+03  0.91879571223E+03  0.25500000920E-02 0.  1.
</event>
<event>
 5   0  0.3753450E-03  0.7939368E+03  0.7818609E-02  0.9568835E-01
       -1   -1    0    0    0  501  0.00000000000E+00  0.00000000000E+00  0.14369445851E+03  0.14369445860E+03  0.50400001928E-02 0. -1.
        1   -1    0    0  501    0  0.00000000000E+00  0.00000000000E+00 -0.10966595294E+04  0.10966595294E+04  0.50400001928E-02 0.  1.
    10030    2    1    2    0    0  0.00000000000E+00  0.00000000000E+00 -0.95296507088E+03  0.12403539880E+04  0.79393676651E+03 0.  0.
        5    1    3    3  502    0  0.21276246384E+01 -0.24690403986E+03  0.90726263564E+01  0.24712453183E+03  0.46999998093E+01 0. -1.
       -5    1    3    3    0  502 -0.21276246384E+01  0.24690403986E+03 -0.96203769723E+03  0.99322945616E+03  0.46999998093E+01 0.  1.
</event>
<event>
 5   0  0.3860515E-03  0.7934265E+03  0.7818609E-02  0.9569581E-01
        1   -1    0    0  501    0  0.00000000000E+00  0.00000000000E+00  0.42968260261E+03  0.42968260264E+03  0.50400001928E-02 0. -1.
       -1   -1    0    0    0  501  0.00000000000E+00  0.00000000000E+00 -0.36627362095E+03  0.36627362099E+03  0.50400001928E-02 0.  1.
    10030    2    1    2    0    0  0.00000000000E+00  0.00000000000E+00  0.63408981655E+02  0.79595622363E+03  0.79342650005E+03 0.  0.
        4    1    3    3  502    0 -0.15773229276E+03 -0.28923703314E+03  0.25341195911E+03  0.41564019469E+03  0.12699999809E+01 0. -1.
       -4    1    3    3    0  502  0.15773229276E+03  0.28923703314E+03 -0.19000297746E+03  0.38031602894E+03  0.12699999809E+01 0.  1.
</event>
<event>
 5   0  0.3627496E-03  0.7935045E+03  0.7818609E-02  0.9569467E-01
        1   -1    0    0  501    0  0.00000000000E+00  0.00000000000E+00  0.55871243899E+03  0.55871243902E+03  0.50400001928E-02 0. -1.
       -1   -1    0    0    0  501  0.00000000000E+00  0.00000000000E+00 -0.28174123489E+03  0.28174123494E+03  0.50400001928E-02 0.  1.
    10030    2    1    2    0    0  0.00000000000E+00  0.00000000000E+00  0.27697120410E+03  0.84045367395E+03  0.79350446133E+03 0.  0.
        3    1    3    3  502    0  0.15131993352E+03  0.16678549237E+03  0.48445757455E+03  0.53424177531E+03  0.10100000352E+00 0. -1.
       -3    1    3    3    0  502 -0.15131993352E+03 -0.16678549237E+03 -0.20748637045E+03  0.30621189864E+03  0.10100000352E+00 0.  1.
</event>
<event>
 5   0  0.2478000E-03  0.8009168E+03  0.7818609E-02  0.9558691E-01
        3   -1    0    0  501    0  0.00000000000E+00  0.00000000000E+00  0.75154954012E+03  0.75154954690E+03  0.10100000352E+00 0. -1.
       -3   -1    0    0    0  501  0.00000000000E+00  0.00000000000E+00 -0.21338170574E+03  0.21338172965E+03  0.10100000352E+00 0.  1.
    10030    2    1    2    0    0  0.00000000000E+00  0.00000000000E+00  0.53816783437E+03  0.96493127655E+03  0.80091681872E+03 0.  0.
        5    1    3    3  502    0 -0.16404352845E+03 -0.36327525894E+03  0.22296014761E+03  0.45674118536E+03  0.46999998093E+01 0. -1.
       -5    1    3    3    0  502  0.16404352845E+03  0.36327525894E+03  0.31520768677E+03  0.50819009119E+03  0.46999998093E+01 0.  1.
</event>
<event>
 5   0  0.2478000E-03  0.8000229E+03  0.7818609E-02  0.9559984E-01
        3   -1    0    0  501    0  0.00000000000E+00  0.00000000000E+00  0.16187727881E+03  0.16187731032E+03  0.10100000352E+00 0.  1.
       -3   -1    0    0    0  501  0.00000000000E+00  0.00000000000E+00 -0.98845959669E+03  0.98845960185E+03  0.10100000352E+00 0. -1.
    10030    2    1    2    0    0  0.00000000000E+00  0.00000000000E+00 -0.82658231788E+03  0.11503369122E+04  0.80002292671E+03 0.  0.
        4    1    3    3  502    0  0.73021083019E+02  0.18481062089E+03 -0.91246648453E+03  0.93385424048E+03  0.12699999809E+01 0. -1.
       -4    1    3    3    0  502 -0.73021083019E+02 -0.18481062089E+03  0.85884166654E+02  0.21648267169E+03  0.12699999809E+01 0.  1.
</event>
<event>
 5   0  0.3753450E-03  0.8035892E+03  0.7818609E-02  0.9554836E-01
        1   -1    0    0  501    0  0.00000000000E+00  0.00000000000E+00  0.88364032806E+03  0.88364032808E+03  0.50400001928E-02 0.  1.
       -1   -1    0    0    0  501  0.00000000000E+00  0.00000000000E+00 -0.18269753220E+03  0.18269753227E+03  0.50400001928E-02 0. -1.
    10030    2    1    2    0    0  0.00000000000E+00  0.00000000000E+00  0.70094279586E+03  0.10663378603E+04  0.80358921679E+03 0.  0.
        5    1    3    3  502    0 -0.11802076076E+03 -0.21248034272E+03 -0.74034257322E+02  0.25412586895E+03  0.46999998093E+01 0. -1.
       -5    1    3    3    0  502  0.11802076076E+03  0.21248034272E+03  0.77497705318E+03  0.81221199140E+03  0.46999998093E+01 0.  1.
</event>
<event>
 5   0  0.3860515E-03  0.7990273E+03  0.7818609E-02  0.9561426E-01
       -1   -1    0    0    0  501  0.00000000000E+00  0.00000000000E+00  0.24016810997E+03  0.24016811003E+03  0.50400001928E-02 0. -1.
        1   -1    0    0  501    0  0.00000000000E+00  0.00000000000E+00 -0.66458103733E+03  0.66458103735E+03  0.50400001928E-02 0.  1.
    10030    2    1    2    0    0  0.00000000000E+00  0.00000000000E+00 -0.42441292736E+03  0.90474914738E+03  0.79902733794E+03 0.  0.
        4    1    3    3  502    0 -0.25005428721E+03 -0.54056202657E+02  0.13525012475E+03  0.28938456894E+03  0.12699999809E+01 0. -1.
       -4    1    3    3    0  502  0.25005428721E+03  0.54056202657E+02 -0.55966305211E+03  0.61536457844E+03  0.12699999809E+01 0.  1.
</event>
<event>
 5   0  0.3753450E-03  0.7990055E+03  0.7818609E-02  0.9561458E-01
       -1   -1    0    0    0  501  0.00000000000E+00  0.00000000000E+00  0.47088623710E+03  0.47088623713E+03  0.50400001928E-02 0.  1.
        1   -1    0    0  501    0  0.00000000000E+00  0.00000000000E+00 -0.33894060299E+03  0.33894060302E+03  0.50400001928E-02 0. -1.
    10030    2    1    2    0    0  0.00000000000E+00  0.00000000000E+00  0.13194563412E+03  0.80982684016E+03  0.79900554483E+03 0.  0.
        5    1    3    3  502    0  0.18968178923E+03  0.33513699145E+03 -0.41693891264E+02  0.38737121056E+03  0.46999998093E+01 0. -1.
       -5    1    3    3    0  502 -0.18968178923E+03 -0.33513699145E+03  0.17363952538E+03  0.42245562960E+03  0.46999998093E+01 0.  1.
</event>
<event>
 5   0  0.6256781E-03  0.7995343E+03  0.7818609E-02  0.9560691E-01
       -2   -1    0    0    0  501  0.00000000000E+00  0.00000000000E+00  0.42158113650E+03  0.42158113651E+03  0.25500000920E-02 0. -1.
        2   -1    0    0  501    0  0.00000000000E+00  0.00000000000E+00 -0.37908186333E+03  0.37908186333E+03  0.25500000920E-02 0.  1.
    10030    2    1    2    0    0  0.00000000000E+00  0.00000000000E+00  0.42499273178E+02  0.80066299985E+03  0.79953427137E+03 0.  0.
        1    1    3    3  502    0 -0.38412470171E+03  0.43790881764E+02 -0.80601050424E+02  0.39492525513E+03  0.50400001928E-02 0.  1.
       -1    1    3    3    0  502  0.38412470171E+03 -0.43790881764E+02  0.12310032360E+03  0.40573774471E+03  0.50400001928E-02 0. -1.
</event>
<event>
 5   0  0.3714448E-03  0.8096691E+03  0.7818609E-02  0.9546126E-01
       -1   -1    0    0    0  501  0.00000000000E+00  0.00000000000E+00  0.19526251217E+03  0.19526251223E+03  0.50400001928E-02 0. -1.
        1   -1    0    0  501    0  0.00000000000E+00  0.00000000000E+00 -0.83933675546E+03  0.83933675548E+03  0.50400001928E-02 0.  1.
    10030    2    1    2    0    0  0.00000000000E+00  0.00000000000E+00 -0.64407424329E+03  0.10345992677E+04  0.80966907677E+03 0.  0.
        1    1    3    3  502    0 -0.10453006706E+03 -0.87518947942E+02 -0.80912211236E+03  0.82052708298E+03  0.50400001928E-02 0.  1.
       -1    1    3    3    0  502  0.10453006706E+03  0.87518947942E+02  0.16504786906E+03  0.21407218473E+03  0.50400001928E-02 0. -1.
</event>
<event>
 5   0  0.6337108E-03  0.8010735E+03  0.7818609E-02  0.9558465E-01
        2   -1    0    0  501    0  0.00000000000E+00  0.00000000000E+00  0.10570275374E+04  0.10570275374E+04  0.25500000920E-02 0.  1.
       -2   -1    0    0    0  501  0.00000000000E+00  0.00000000000E+00 -0.15177437314E+03  0.15177437316E+03  0.25500000920E-02 0. -1.
    10030    2    1    2    0    0  0.00000000000E+00  0.00000000000E+00  0.90525316430E+03  0.12088019106E+04  0.80107350948E+03 0.  0.
        4    1    3    3  502    0 -0.12726700069E+03 -0.37830606011E+03  0.40222324521E+03  0.56665467127E+03  0.12699999809E+01 0.  1.
       -4    1    3    3    0  502  0.12726700069E+03  0.37830606011E+03  0.50302991909E+03  0.64214723933E+03  0.12699999809E+01 0. -1.
</event>
<event>
 5   0  0.5813850E-03  0.7803792E+03  0.7818609E-02  0.9588860E-01
       -2   -1    0    0    0  501  0.00000000000E+00  0.00000000000E+00  0.97963940878E+02  0.97963940911E+02  0.25500000920E-02 0.  1.
        2   -1    0    0  501    0  0.00000000000E+00  0.00000000000E+00 -0.15541219540E+04  0.15541219540E+04  0.25500000920E-02 0. -1.
    10030    2    1    2    0    0  0.00000000000E+00  0.00000000000E+00 -0.14561580131E+04  0.16520858949E+04  0.78037916745E+03 0.  0.
        5    1    3    3  502    0  0.29850532966E+03  0.16587234120E+03 -0.32860073751E+03  0.47394050270E+03  0.46999998093E+01 0.  1.
       -5    1    3    3    0  502 -0.29850532966E+03 -0.16587234120E+03 -0.11275572756E+04  0.11781453922E+04  0.46999998093E+01 0. -1.
</event>
<event>
 5   0  0.2478000E-03  0.8007133E+03  0.7818609E-02  0.9558985E-01
        4   -1    0    0  501    0  0.00000000000E+00  0.00000000000E+00  0.79815121031E+03  0.79815222070E+03  0.12699999809E+01 0. -1.
       -4   -1    0    0    0  501  0.00000000000E+00  0.00000000000E+00 -0.20081776137E+03  0.20082177716E+03  0.12699999809E+01 0.  1.
    10030    2    1    2    0    0  0.00000000000E+00  0.00000000000E+00  0.59733344893E+03  0.99897399787E+03  0.80071330650E+03 0.  0.
        3    1    3    3  502    0 -0.25672571441E+02 -0.19137005299E+03  0.73622561370E+03  0.76112399947E+03  0.10100000352E+00 0. -1.
       -3    1    3    3    0  502  0.25672571441E+02  0.19137005299E+03 -0.13889216476E+03  0.23784999840E+03  0.10100000352E+00 0.  1.
</event>
<event>
 5   0  0.3714448E-03  0.7853209E+03  0.7818609E-02  0.9581511E-01
       -1   -1    0    0    0  501  0.00000000000E+00  0.00000000000E+00  0.28194493127E+03  0.28194493131E+03  0.50400001928E-02 0.  1.
        1   -1    0    0  501    0  0.00000000000E+00  0.00000000000E+00 -0.54685228833E+03  0.54685228836E+03  0.50400001928E-02 0. -1.
    10030    2    1    2    0    0  0.00000000000E+00  0.00000000000E+00 -0.26490735707E+03  0.82879721967E+03  0.78532090479E+03 0.  0.
        1    1    3    3  502    0 -0.32116752698E+03 -0.12848750610E+03 -0.32854822948E+03  0.47707605130E+03  0.50400001928E-02 0.  1.
       -1    1    3    3    0  502  0.32116752698E+03  0.12848750610E+03  0.63640872407E+02  0.35172116837E+03  0.50400001928E-02 0. -1.
</event>
<event>
 5   0  0.6153659E-03  0.7991339E+03  0.7818609E-02  0.9561272E-01
        2   -1    0    0  501    0  0.00000000000E+00  0.00000000000E+00  0.13990397492E+04  0.13990397492E+04  0.25500000920E-02 0. -1.
       -2   -1    0    0    0  501  0.00000000000E+00  0.00000000000E+00 -0.11411667699E+03  0.11411667702E+03  0.25500000920E-02 0.  1.
    10030    2    1    2    0    0  0.00000000000E+00  0.00000000000E+00  0.12849230722E+04  0.15131564262E+04  0.79913394916E+03 0.  0.
        2    1    3    3  502    0  0.19974088327E+03 -0.27478024417E+03  0.10407854768E+04  0.10948219087E+04  0.25500000920E-02 0. -1.
       -2    1    3    3    0  502 -0.19974088327E+03  0.27478024417E+03  0.24413759537E+03  0.41833451748E+03  0.25500000920E-02 0.  1.
</event>
<event>
 5   0  0.3627496E-03  0.7983912E+03  0.7818609E-02  0.9562349E-01
        1   -1    0    0  501    0  0.00000000000E+00  0.00000000000E+00  0.13138926316E+04  0.13138926316E+04  0.50400001928E-02 0. -1.
       -1   -1    0    0    0  501  0.00000000000E+00  0.00000000000E+00 -0.12128625024E+03  0.12128625035E+03  0.50400001928E-02 0.  1.
    10030    2    1    2    0    0  0.00000000000E+00  0.00000000000E+00  0.11926063813E+04  0.14351788819E+04  0.79839115874E+03 0.  0.
        3    1    3    3  502    0 -0.11261478642E+03 -0.12197792889E+03 -0.56289315092E+02  0.17529746847E+03  0.10100000352E+00 0.  1.
       -3    1    3    3    0  502  0.11261478642E+03  0.12197792889E+03  0.12488956964E+04  0.12598814135E+04  0.10100000352E+00 0. -1.
</event>
<event>
 5   0  0.3627496E-03  0.8020059E+03  0.7818609E-02  0.9557118E-01
        1   -1    0    0  501    0  0.00000000000E+00  0.00000000000E+00  0.42763858356E+03  0.42763858359E+03  0.50400001928E-02 0.  1.
       -1   -1    0    0    0  501  0.00000000000E+00  0.00000000000E+00 -0.37602629264E+03  0.37602629268E+03  0.50400001928E-02 0. -1.
    10030    2    1    2    0    0  0.00000000000E+00  0.00000000000E+00  0.51612290918E+02  0.80366487627E+03  0.80200586330E+03 0.  0.
        3    1    3    3  502    0  0.86222549905E+02  0.12772636614E+03 -0.34516904648E+03  0.37800798083E+03  0.10100000352E+00 0. -1.
       -3    1    3    3    0  502 -0.86222549905E+02 -0.12772636614E+03  0.39678133740E+03  0.42565689544E+03  0.10100000352E+00 0.  1.
</event>
<event>
 5   0  0.6153659E-03  0.7971367E+03  0.7818609E-02  0.9564171E-01
        2   -1    0    0  501    0  0.00000000000E+00  0.00000000000E+00  0.42238985018E+03  0.42238985019E+03  0.25500000920E-02 0.  1.
       -2   -1    0    0    0  501  0.00000000000E+00  0.00000000000E+00 -0.37609035328E+03  0.37609035329E+03  0.25500000920E-02 0. -1.
    10030    2    1    2    0    0  0.00000000000E+00  0.00000000000E+00  0.46299496899E+02  0.79848020348E+03  0.79713674607E+03 0.  0.
        2    1    3    3  502    0 -0.39813631875E+03 -0.17250506098E+02  0.16308911246E+02  0.39884343903E+03  0.25500000920E-02 0. -1.
       -2    1    3    3    0  502  0.39813631875E+03  0.17250506098E+02  0.29990585653E+02  0.39963676445E+03  0.25500000920E-02 0.  1.
</event>
<event>
 5   0  0.3627496E-03  0.8004188E+03  0.7818609E-02  0.9559411E-01
       -1   -1    0    0    0  501  0.00000000000E+00  0.00000000000E+00  0.19642047126E+03  0.19642047133E+03  0.50400001928E-02 0.  1.
        1   -1    0    0  501    0  0.00000000000E+00  0.00000000000E+00 -0.81543213835E+03  0.81543213837E+03  0.50400001928E-02 0. -1.
    10030    2    1    2    0    0  0.00000000000E+00  0.00000000000E+00 -0.61901166709E+03  0.10118526097E+04  0.80041880272E+03 0.  0.
        3    1    3    3  502    0  0.28191441120E+02  0.10864436855E+03  0.17611558509E+03  0.20884220283E+03  0.10100000352E+00 0.  1.
       -3    1    3    3    0  502 -0.28191441120E+02 -0.10864436855E+03 -0.79512725218E+03  0.80301040686E+03  0.10100000352E+00 0. -1.
</event>
<event>
 5   0  0.6536209E-03  0.7995821E+03  0.7818609E-02  0.9560622E-01
        2   -1    0    0  501    0  0.00000000000E+00  0.00000000000E+00  0.54978048468E+03  0.54978048469E+03  0.25500000920E-02 0.  1.
       -2   -1    0    0    0  501  0.00000000000E+00  0.00000000000E+00 -0.29072129519E+03  0.29072129520E+03  0.25500000920E-02 0. -1.
    10030    2    1    2    0    0  0.00000000000E+00  0.00000000000E+00  0.25905918949E+03  0.84050177989E+03  0.79958212733E+03 0.  0.
        3    1    3    3  502    0 -0.31942537537E+03  0.20578873121E+03 -0.11350949246E+01  0.37997746113E+03  0.10100000352E+00 0.  1.
       -3    1    3    3    0  502  0.31942537537E+03 -0.20578873121E+03  0.26019428442E+03  0.46052431876E+03  0.10100000352E+00 0. -1.
</event>
<event>
 5   0  0.6536209E-03  0.7996768E+03  0.7818609E-02  0.9560485E-01
       -2   -1    0    0    0  501  0.00000000000E+00  0.00000000000E+00  0.14984238820E+03  0.14984238822E+03  0.25500000920E-02 0. -1.
        2   -1    0    0  501    0  0.00000000000E+00  0.00000000000E+00 -0.10669260427E+04  0.10669260427E+04  0.25500000920E-02 0.  1.
    10030    2    1    2    0    0  0.00000000000E+00  0.00000000000E+00 -0.91708365445E+03  0.12167684309E+04  0.79967680041E+03 0.  0.
        3    1    3    3  502    0  0.14456614862E+03 -0.30176697094E+03 -0.12550080644E+03  0.35736975067E+03  0.10100000352E+00 0. -1.
       -3    1    3    3    0  502 -0.14456614862E+03  0.30176697094E+03 -0.79158284801E+03  0.85939868021E+03  0.10100000352E+00 0.  1.
</event>
<event>
 5   0  0.6153659E-03  0.7951088E+03  0.7818609E-02  0.9567124E-01
       -2   -1    0    0    0  501  0.00000000000E+00  0.00000000000E+00  0.10224706303E+03  0.10224706306E+03  0.25500000920E-02 0.  1.
        2   -1    0    0  501    0  0.00000000000E+00  0.00000000000E+00 -0.15457606209E+04  0.15457606209E+04  0.25500000920E-02 0. -1.
    10030    2    1    2    0    0  0.00000000000E+00  0.00000000000E+00 -0.14435135579E+04  0.16480076840E+04  0.79510875648E+03 0.  0.
        2    1    3    3  502    0  0.25470564582E+03 -0.16672988381E+03 -0.19179963527E+03  0.35980678185E+03  0.25500000920E-02 0. -1.
       -2    1    3    3    0  502 -0.25470564582E+03  0.16672988381E+03 -0.12517139226E+04  0.12882009021E+04  0.25500000920E-02 0.  1.
</event>
<event>
 5   0  0.3860515E-03  0.8005025E+03  0.7818609E-02  0.9559290E-01
        1   -1    0    0  501    0  0.00000000000E+00  0.00000000000E+00  0.42459355665E+03  0.42459355668E+03  0.50400001928E-02 0. -1.
       -1   -1    0    0    0  501  0.00000000000E+00  0.00000000000E+00 -0.37730452193E+03  0.37730452196E+03  0.50400001928E-02 0.  1.
    10030    2    1    2    0    0  0.00000000000E+00  0.00000000000E+00  0.47289034724E+02  0.80189807864E+03  0.80050251450E+03 0.  0.
        4    1    3    3  502    0 -0.92076817724E+02 -0.34338610686E+03  0.20783267284E+03  0.41181086866E+03  0.12699999809E+01 0. -1.
       -4    1    3    3    0  502  0.92076817724E+02  0.34338610686E+03 -0.16054363812E+03  0.39008720998E+03  0.12699999809E+01 0.  1.
</event>
<event>
 5   0  0.6256781E-03  0.8017541E+03  0.7818609E-02  0.9557482E-01
        2   -1    0    0  501    0  0.00000000000E+00  0.00000000000E+00  0.12848180212E+03  0.12848180214E+03  0.25500000920E-02 0.  1.
       -2   -1    0    0    0  501  0.00000000000E+00  0.00000000000E+00 -0.12507795301E+04  0.12507795301E+04  0.25500000920E-02 0. -1.
    10030    2    1    2    0    0  0.00000000000E+00  0.00000000000E+00 -0.11222977280E+04  0.13792613322E+04  0.80175409720E+03 0.  0.
        1    1    3    3  502    0  0.29308983257E+03  0.21343037954E+03 -0.26694039066E+03  0.45023477105E+03  0.50400001928E-02 0.  1.
       -1    1    3    3    0  502 -0.29308983257E+03 -0.21343037954E+03 -0.85535733730E+03  0.92902656117E+03  0.50400001928E-02 0. -1.
</event>
<event>
 5   0  0.6153659E-03  0.7952310E+03  0.7818609E-02  0.9566946E-01
       -2   -1    0    0    0  501  0.00000000000E+00  0.00000000000E+00  0.18283670354E+03  0.18283670355E+03  0.25500000920E-02 0. -1.
        2   -1    0    0  501    0  0.00000000000E+00  0.00000000000E+00 -0.86469548597E+03  0.86469548597E+03  0.25500000920E-02 0.  1.
    10030    2    1    2    0    0  0.00000000000E+00  0.00000000000E+00 -0.68185878243E+03  0.10475321895E+04  0.79523096576E+03 0.  0.
        2    1    3    3  502    0  0.26734945376E+03 -0.40527547464E+02  0.43071382339E+02  0.27381263030E+03  0.25500000920E-02 0. -1.
       -2    1    3    3    0  502 -0.26734945376E+03  0.40527547464E+02 -0.72493016477E+03  0.77371955923E+03  0.25500000920E-02 0.  1.
</event>
<event>
 5   0  0.6256781E-03  0.8030559E+03  0.7818609E-02  0.9555604E-01
        2   -1    0    0  501    0  0.00000000000E+00  0.00000000000E+00  0.89158897465E+03  0.89158897466E+03  0.25500000920E-02 0. -1.
       -2   -1    0    0    0  501  0.00000000000E+00  0.00000000000E+00 -0.18082851725E+03  0.18082851727E+03  0.25500000920E-02 0.  1.
    10030    2    1    2    0    0  0.00000000000E+00  0.00000000000E+00  0.71076045740E+03  0.10724174919E+04  0.80305594400E+03 0.  0.
        1    1    3    3  502    0 -0.20880604069E+03  0.42123403483E+01 -0.10258729838E+03  0.23268403523E+03  0.50400001928E-02 0.  1.
       -1    1    3    3    0  502  0.20880604069E+03 -0.42123403483E+01  0.81334775578E+03  0.83973345669E+03  0.50400001928E-02 0. -1.
</event>
<event>
 5   0  0.6536209E-03  0.7958311E+03  0.7818609E-02  0.9566071E-01
        2   -1    0    0  501    0  0.00000000000E+00  0.00000000000E+00  0.90204234013E+03  0.90204234013E+03  0.25500000920E-02 0.  1.
       -2   -1    0    0    0  501  0.00000000000E+00  0.00000000000E+00 -0.17553143354E+03  0.17553143356E+03  0.25500000920E-02 0. -1.
    10030    2    1    2    0    0  0.00000000000E+00  0.00000000000E+00  0.72651090659E+03  0.10775737737E+04  0.79583110039E+03 0.  0.
        3    1    3    3  502    0  0.31837357296E+03  0.98732914634E+02  0.69002645086E+02  0.34039873034E+03  0.10100000352E+00 0. -1.
       -3    1    3    3    0  502 -0.31837357296E+03 -0.98732914634E+02  0.65750826150E+03  0.73717504335E+03  0.10100000352E+00 0.  1.
</event>
<event>
 5   0  0.2478000E-03  0.7996765E+03  0.7818609E-02  0.9560485E-01
        4   -1    0    0  501    0  0.00000000000E+00  0.00000000000E+00  0.12272707619E+04  0.12272714190E+04  0.12699999809E+01 0. -1.
       -4   -1    0    0    0  501  0.00000000000E+00  0.00000000000E+00 -0.13026137188E+03  0.13026756275E+03  0.12699999809E+01 0.  1.
    10030    2    1    2    0    0  0.00000000000E+00  0.00000000000E+00  0.10970093900E+04  0.13575389818E+04  0.79967648785E+03 0.  0.
        1    1    3    3  502    0  0.39657791927E+03 -0.27472681950E+02  0.47564918598E+03  0.61989591260E+03  0.50400001928E-02 0.  1.
       -1    1    3    3    0  502 -0.39657791927E+03  0.27472681950E+02  0.62136020405E+03  0.73764306918E+03  0.50400001928E-02 0. -1.
</event>
<event>
 5   0  0.6256781E-03  0.7947394E+03  0.7818609E-02  0.9567663E-01
       -2   -1    0    0    0  501  0.00000000000E+00  0.00000000000E+00  0.19474721710E+03  0.19474721712E+03  0.25500000920E-02 0.  1.
        2   -1    0    0  501    0  0.00000000000E+00  0.00000000000E+00 -0.81080839464E+03  0.81080839465E+03  0.25500000920E-02 0. -1.
    10030    2    1    2    0    0  0.00000000000E+00  0.00000000000E+00 -0.61606117754E+03  0.10055556118E+04  0.79473939998E+03 0.  0.
        1    1    3    3  502    0 -0.12504173964E+03  0.21209200642E+03  0.86610732359E+02  0.26099784448E+03  0.50400001928E-02 0.  1.
       -1    1    3    3    0  502  0.12504173964E+03 -0.21209200642E+03 -0.70267190990E+03  0.74455776728E+03  0.50400001928E-02 0. -1.
</event>
<event>
 5   0  0.6337108E-03  0.7975597E+03  0.7818609E-02  0.9563556E-01
       -2   -1    0    0    0  501  0.00000000000E+00  0.00000000000E+00  0.12687614145E+03  0.12687614148E+03  0.25500000920E-02 0. -1.
        2   -1    0    0  501    0  0.00000000000E+00  0.00000000000E+00 -0.12533905079E+04  0.12533905079E+04  0.25500000920E-02 0.  1.
    10030    2    1    2    0    0  0.00000000000E+00  0.00000000000E+00 -0.11265143665E+04  0.13802666494E+04  0.79755965644E+03 0.  0.
        4    1    3    3  502    0  0.21664329767E+03  0.31051334813E+03 -0.34661325632E+03  0.51331785489E+03  0.12699999809E+01 0.  1.
       -4    1    3    3    0  502 -0.21664329767E+03 -0.31051334813E+03 -0.77990111013E+03  0.86694879450E+03  0.12699999809E+01 0. -1.
</event>
<event>
 5   0  0.3714448E-03  0.7983625E+03  0.7818609E-02  0.9562390E-01
       -1   -1    0    0    0  501  0.00000000000E+00  0.00000000000E+00  0.17737453270E+03  0.17737453278E+03  0.50400001928E-02 0. -1.
        1   -1    0    0  501    0  0.00000000000E+00  0.00000000000E+00 -0.89835713691E+03  0.89835713693E+03  0.50400001928E-02 0.  1.
    10030    2    1    2    0    0  0.00000000000E+00  0.00000000000E+00 -0.72098260421E+03  0.10757316697E+04  0.79836251768E+03 0.  0.
        1    1    3    3  502    0  0.68864213114E+02 -0.17720928647E+03 -0.83343521346E+03  0.85484481991E+03  0.50400001928E-02 0.  1.
       -1    1    3    3    0  502 -0.68864213114E+02  0.17720928647E+03  0.11245260925E+03  0.22088684980E+03  0.50400001928E-02 0. -1.
</event>
<event>
 5   0  0.3671128E-03  0.7974929E+03  0.7818609E-02  0.9563653E-01
        1   -1    0    0  501    0  0.00000000000E+00  0.00000000000E+00  0.21330953253E+03  0.21330953259E+03  0.50400001928E-02 0. -1.
       -1   -1    0    0    0  501  0.00000000000E+00  0.00000000000E+00 -0.74538973427E+03  0.74538973428E+03  0.50400001928E-02 0.  1.
    10030    2    1    2    0    0  0.00000000000E+00  0.00000000000E+00 -0.53208020174E+03  0.95869926687E+03  0.79749291108E+03 0.  0.
        2    1    3    3  502    0 -0.17783457036E+03  0.28654781817E+03 -0.10280594103E+02  0.33740254465E+03  0.25500000920E-02 0. -1.
       -2    1    3    3    0  502  0.17783457036E+03 -0.28654781817E+03 -0.52179960763E+03  0.62129672222E+03  0.25500000920E-02 0.  1.
</event>
<event>
 5   0  0.3753450E-03  0.7998143E+03  0.7818609E-02  0.9560286E-01
        1   -1    0    0  501    0  0.00000000000E+00  0.00000000000E+00  0.59372873882E+03  0.59372873885E+03  0.50400001928E-02 0. -1.
       -1   -1    0    0    0  501  0.00000000000E+00  0.00000000000E+00 -0.26935822874E+03  0.26935822879E+03  0.50400001928E-02 0.  1.
    10030    2    1    2    0    0  0.00000000000E+00  0.00000000000E+00  0.32437051008E+03  0.86308696764E+03  0.79981428213E+03 0.  0.
        5    1    3    3  502    0  0.34616946327E+03  0.43057355889E+02 -0.48769967325E+02  0.35226102950E+03  0.46999998093E+01 0.  1.
       -5    1    3    3    0  502 -0.34616946327E+03 -0.43057355889E+02  0.37314047740E+03  0.51082593813E+03  0.46999998093E+01 0. -1.
</event>
<event>
 5   0  0.3753450E-03  0.7987799E+03  0.7818609E-02  0.9561785E-01
        1   -1    0    0  501    0  0.00000000000E+00  0.00000000000E+00  0.26903833051E+03  0.26903833056E+03  0.50400001928E-02 0. -1.
       -1   -1    0    0    0  501  0.00000000000E+00  0.00000000000E+00 -0.59289815089E+03  0.59289815091E+03  0.50400001928E-02 0.  1.
    10030    2    1    2    0    0  0.00000000000E+00  0.00000000000E+00 -0.32385982037E+03  0.86193648147E+03  0.79877989135E+03 0.  0.
        5    1    3    3  502    0 -0.18357137666E+03  0.15120450555E+03 -0.50812187711E+03  0.56104472622E+03  0.46999998093E+01 0.  1.
       -5    1    3    3    0  502  0.18357137666E+03 -0.15120450555E+03  0.18426205673E+03  0.30089175525E+03  0.46999998093E+01 0. -1.
</event>
<event>
 5   0  0.3714448E-03  0.8093842E+03  0.7818609E-02  0.9546532E-01
        1   -1    0    0  501    0  0.00000000000E+00  0.00000000000E+00  0.38087526883E+03  0.38087526887E+03  0.50400001928E-02 0. -1.
       -1   -1    0    0    0  501  0.00000000000E+00  0.00000000000E+00 -0.42999826306E+03  0.42999826309E+03  0.50400001928E-02 0.  1.
    10030    2    1    2    0    0  0.00000000000E+00  0.00000000000E+00 -0.49122994226E+02  0.81087353195E+03  0.80938422042E+03 0.  0.
        1    1    3    3  502    0 -0.10585290871E+02  0.88251641428E+02 -0.42009843532E+03  0.42939852816E+03  0.50400001928E-02 0.  1.
       -1    1    3    3    0  502  0.10585290871E+02 -0.88251641428E+02  0.37097544110E+03  0.38147500380E+03  0.50400001928E-02 0. -1.
</event>
<event>
 5   0  0.6337108E-03  0.8106927E+03  0.7818609E-02  0.9544668E-01
        2   -1    0    0  501    0  0.00000000000E+00  0.00000000000E+00  0.18281522250E+04  0.18281522250E+04  0.25500000920E-02 0. -1.
       -2   -1    0    0    0  501  0.00000000000E+00  0.00000000000E+00 -0.89875263361E+02  0.89875263397E+02  0.25500000920E-02 0.  1.
    10030    2    1    2    0    0  0.00000000000E+00  0.00000000000E+00  0.17382769616E+04  0.19180274884E+04  0.81069269818E+03 0.  0.
        4    1    3    3  502    0  0.34603392550E+03  0.77011688098E+02  0.13341697139E+04  0.13804639495E+04  0.12699999809E+01 0. -1.
       -4    1    3    3    0  502 -0.34603392550E+03 -0.77011688098E+02  0.40410724777E+03  0.53756353885E+03  0.12699999809E+01 0.  1.
</event>
<event>
 5   0  0.3714448E-03  0.7997969E+03  0.7818609E-02  0.9560311E-01
       -1   -1    0    0    0  501  0.00000000000E+00  0.00000000000E+00  0.23471883034E+03  0.23471883039E+03  0.50400001928E-02 0.  1.
        1   -1    0    0  501    0  0.00000000000E+00  0.00000000000E+00 -0.68132063401E+03  0.68132063403E+03  0.50400001928E-02 0. -1.
    10030    2    1    2    0    0  0.00000000000E+00  0.00000000000E+00 -0.44660180367E+03  0.91603946442E+03  0.79979693006E+03 0.  0.
        1    1    3    3  502    0 -0.53288654634E+02  0.80539583017E+02 -0.66776438967E+03  0.67471148300E+03  0.50400001928E-02 0. -1.
       -1    1    3    3    0  502  0.53288654634E+02 -0.80539583017E+02  0.22116258600E+03  0.24132798142E+03  0.50400001928E-02 0.  1.
</event>
<event>
 5   0  0.5813850E-03  0.7923038E+03  0.7818609E-02  0.9571224E-01
       -2   -1    0    0    0  501  0.00000000000E+00  0.00000000000E+00  0.58266582298E+03  0.58266582299E+03  0.25500000920E-02 0. -1.
        2   -1    0    0  501    0  0.00000000000E+00  0.00000000000E+00 -0.26934189568E+03  0.26934189569E+03  0.25500000920E-02 0.  1.
    10030    2    1    2    0    0  0.00000000000E+00  0.00000000000E+00  0.31332392730E+03  0.85200771868E+03  0.79230377336E+03 0.  0.
        5    1    3    3  502    0 -0.52744980337E+02 -0.17698984415E+03 -0.22018324148E+03  0.28741988050E+03  0.46999998093E+01 0.  1.
       -5    1    3    3    0  502  0.52744980337E+02  0.17698984415E+03  0.53350716878E+03  0.56458783818E+03  0.46999998093E+01 0. -1.
</event>
<event>
 5   0  0.5813850E-03  0.7977947E+03  0.7818609E-02  0.9563215E-01
       -2   -1    0    0    0  501  0.00000000000E+00  0.00000000000E+00  0.32246285820E+03  0.32246285821E+03  0.25500000920E-02 0.  1.
        2   -1    0    0  501    0  0.00000000000E+00  0.00000000000E+00 -0.49344935667E+03  0.49344935668E+03  0.25500000920E-02 0. -1.
    10030    2    1    2    0    0  0.00000000000E+00  0.00000000000E+00 -0.17098649846E+03  0.81591221489E+03  0.79779468521E+03 0.  0.
        5    1    3    3  502    0 -0.38149611697E+03 -0.40287575699E+02  0.26233371997E+02  0.38454213790E+03  0.46999998093E+01 0.  1.
       -5    1    3    3    0  502  0.38149611697E+03  0.40287575699E+02 -0.19721987046E+03  0.43137007699E+03  0.46999998093E+01 0. -1.
</event>
<event>
 5   0  0.5813850E-03  0.7998989E+03  0.7818609E-02  0.9560163E-01
        2   -1    0    0  501    0  0.00000000000E+00  0.00000000000E+00  0.19674943722E+04  0.19674943722E+04  0.25500000920E-02 0. -1.
       -2   -1    0    0    0  501  0.00000000000E+00  0.00000000000E+00 -0.81301149977E+02  0.81301150017E+02  0.25500000920E-02 0.  1.
    10030    2    1    2    0    0  0.00000000000E+00  0.00000000000E+00  0.18861932222E+04  0.20487955222E+04  0.79989888130E+03 0.  0.
        5    1    3    3  502    0  0.11199024036E+03 -0.30444187284E+03  0.15421976165E+04  0.15759512195E+04  0.46999998093E+01 0. -1.
       -5    1    3    3    0  502 -0.11199024036E+03  0.30444187284E+03  0.34399560576E+03  0.47284430276E+03  0.46999998093E+01 0.  1.
</event>
<event>
 5   0  0.6153659E-03  0.7982202E+03  0.7818609E-02  0.9562597E-01
       -2   -1    0    0    0  501  0.00000000000E+00  0.00000000000E+00  0.20511689202E+03  0.20511689203E+03  0.25500000920E-02 0. -1.
        2   -1    0    0  501    0  0.00000000000E+00  0.00000000000E+00 -0.77657599885E+03  0.77657599885E+03  0.25500000920E-02 0.  1.
    10030    2    1    2    0    0  0.00000000000E+00  0.00000000000E+00 -0.57145910683E+03  0.98169289088E+03  0.79822015837E+03 0.  0.
        2    1    3    3  502    0 -0.39016403797E+03 -0.77324387499E+02 -0.32618062498E+03  0.51439366010E+03  0.25500000920E-02 0.  1.
       -2    1    3    3    0  502  0.39016403797E+03  0.77324387499E+02 -0.24527848184E+03  0.46729923078E+03  0.25500000920E-02 0. -1.
</event>
<event>
 5   0  0.3860515E-03  0.7889332E+03  0.7818609E-02  0.9576175E-01
        1   -1    0    0  501    0  0.00000000000E+00  0.00000000000E+00  0.14615231586E+04  0.14615231586E+04  0.50400001928E-02 0.  1.
       -1   -1    0    0    0  501  0.00000000000E+00  0.00000000000E+00 -0.10646693516E+03  0.10646693528E+03  0.50400001928E-02 0. -1.
    10030    2    1    2    0    0  0.00000000000E+00  0.00000000000E+00  0.13550562234E+04  0.15679900938E+04  0.78893318210E+03 0.  0.
        4    1    3    3  502    0 -0.26688814577E+03 -0.28384034648E+03  0.55488820103E+03  0.67800969992E+03  0.12699999809E+01 0. -1.
       -4    1    3    3    0  502  0.26688814577E+03  0.28384034648E+03  0.80016802238E+03  0.88998039393E+03  0.12699999809E+01 0.  1.
</event>
<event>
 5   0  0.6256781E-03  0.7954395E+03  0.7818609E-02  0.9566642E-01
        2   -1    0    0  501    0  0.00000000000E+00  0.00000000000E+00  0.20979611832E+04  0.20979611832E+04  0.25500000920E-02 0.  1.
       -2   -1    0    0    0  501  0.00000000000E+00  0.00000000000E+00 -0.75397481187E+02  0.75397481230E+02  0.25500000920E-02 0. -1.
    10030    2    1    2    0    0  0.00000000000E+00  0.00000000000E+00  0.20225637020E+04  0.21733586644E+04  0.79543947322E+03 0.  0.
        1    1    3    3  502    0  0.99810697176E+02 -0.59259126869E+02  0.20506497235E+04  0.20539323523E+04  0.50400001928E-02 0.  1.
       -1    1    3    3    0  502 -0.99810697176E+02  0.59259126869E+02 -0.28086021516E+02  0.11942631208E+03  0.50400001928E-02 0. -1.
</event>
<event>
 5   0  0.5813850E-03  0.8163271E+03  0.7818609E-02  0.9536680E-01
        2   -1    0    0  501    0  0.00000000000E+00  0.00000000000E+00  0.96232503070E+02  0.96232503104E+02  0.25500000920E-02 0.  1.
       -2   -1    0    0    0  501  0.00000000000E+00  0.00000000000E+00 -0.17311976256E+04  0.17311976256E+04  0.25500000920E-02 0. -1.
    10030    2    1    2    0    0  0.00000000000E+00  0.00000000000E+00 -0.16349651226E+04  0.18274301288E+04  0.81632709341E+03 0.  0.
        5    1    3    3  502    0  0.35027194096E+03  0.14292968857E+03 -0.47463258489E+03  0.60697405969E+03  0.46999998093E+01 0.  1.
       -5    1    3    3    0  502 -0.35027194096E+03 -0.14292968857E+03 -0.11603325377E+04  0.12204560691E+04  0.46999998093E+01 0. -1.
</event>
<event>
 5   0  0.6337108E-03  0.7993614E+03  0.7818609E-02  0.9560942E-01
       -2   -1    0    0    0  501  0.00000000000E+00  0.00000000000E+00  0.67991374553E+02  0.67991374601E+02  0.25500000920E-02 0. -1.
        2   -1    0    0  501    0  0.00000000000E+00  0.00000000000E+00 -0.23494844479E+04  0.23494844479E+04  0.25500000920E-02 0.  1.
    10030    2    1    2    0    0  0.00000000000E+00  0.00000000000E+00 -0.22814930734E+04  0.24174758225E+04  0.79936143806E+03 0.  0.
        4    1    3    3  502    0  0.11257831130E+03  0.98690078763E+02 -0.20017055805E+02  0.15104934043E+03  0.12699999809E+01 0. -1.
       -4    1    3    3    0  502 -0.11257831130E+03 -0.98690078763E+02 -0.22614760176E+04  0.22664264821E+04  0.12699999809E+01 0.  1.
</event>
<event>
 5   0  0.6536209E-03  0.7980894E+03  0.7818609E-02  0.9562787E-01
       -2   -1    0    0    0  501  0.00000000000E+00  0.00000000000E+00  0.32430541658E+03  0.32430541659E+03  0.25500000920E-02 0.  1.
        2   -1    0    0  501    0  0.00000000000E+00  0.00000000000E+00 -0.49100833611E+03  0.49100833611E+03  0.25500000920E-02 0. -1.
    10030    2    1    2    0    0  0.00000000000E+00  0.00000000000E+00 -0.16670291952E+03  0.81531375271E+03  0.79808937593E+03 0.  0.
        3    1    3    3  502    0  0.15411474231E+03 -0.13262533809E+03  0.26741853786E+03  0.33593677782E+03  0.10100000352E+00 0.  1.
       -3    1    3    3    0  502 -0.15411474231E+03  0.13262533809E+03 -0.43412145738E+03  0.47937697489E+03  0.10100000352E+00 0. -1.
</event>
<event>
 5   0  0.5813850E-03  0.7842772E+03  0.7818609E-02  0.9583058E-01
       -2   -1    0    0    0  501  0.00000000000E+00  0.00000000000E+00  0.32891600087E+03  0.32891600088E+03  0.25500000920E-02 0. -1.
        2   -1    0    0  501    0  0.00000000000E+00  0.00000000000E+00 -0.46751356258E+03  0.46751356259E+03  0.25500000920E-02 0.  1.
    10030    2    1    2    0    0  0.00000000000E+00  0.00000000000E+00 -0.13859756170E+03  0.79642956347E+03  0.78427722488E+03 0.  0.
        5    1    3    3  502    0 -0.46669686262E+02 -0.29636835287E+02 -0.46350732906E+03  0.46681638330E+03  0.46999998093E+01 0.  1.
       -5    1    3    3    0  502  0.46669686262E+02  0.29636835287E+02  0.32490976736E+03  0.32961318017E+03  0.46999998093E+01 0. -1.
</event>
<event>
 5   0  0.3860515E-03  0.8084096E+03  0.7818609E-02  0.9547924E-01
        1   -1    0    0  501    0  0.00000000000E+00  0.00000000000E+00  0.25205857867E+03  0.25205857872E+03  0.50400001928E-02 0. -1.
       -1   -1    0    0    0  501  0.00000000000E+00  0.00000000000E+00 -0.64818862225E+03  0.64818862227E+03  0.50400001928E-02 0.  1.
    10030    2    1    2    0    0  0.00000000000E+00  0.00000000000E+00 -0.39613004359E+03  0.90024720099E+03  0.80840955676E+03 0.  0.
        4    1    3    3  502    0  0.36810670991E+03 -0.16338660036E+03 -0.15977652908E+03  0.43327575885E+03  0.12699999809E+01 0. -1.
       -4    1    3    3    0  502 -0.36810670991E+03  0.16338660036E+03 -0.23635351451E+03  0.46697144215E+03  0.12699999809E+01 0.  1.
</event>
<event>
 5   0  0.3627496E-03  0.8019722E+03  0.7818609E-02  0.9557167E-01
        1   -1    0    0  501    0  0.00000000000E+00  0.00000000000E+00  0.42848804437E+03  0.42848804440E+03  0.50400001928E-02 0.  1.
       -1   -1    0    0    0  501  0.00000000000E+00  0.00000000000E+00 -0.37524937539E+03  0.37524937543E+03  0.50400001928E-02 0. -1.
    10030    2    1    2    0    0  0.00000000000E+00  0.00000000000E+00  0.53238668979E+02  0.80373741983E+03  0.80197224650E+03 0.  0.
        3    1    3    3  502    0 -0.29986548099E+03  0.14983681651E+03  0.24714793493E+03  0.41647627809E+03  0.10100000352E+00 0.  1.
       -3    1    3    3    0  502  0.29986548099E+03 -0.14983681651E+03 -0.19390926595E+03  0.38726114173E+03  0.10100000352E+00 0. -1.
</event>
<event>
 5   0  0.3753450E-03  0.7994857E+03  0.7818609E-02  0.9560762E-01
       -1   -1    0    0    0  501  0.00000000000E+00  0.00000000000E+00  0.11619881671E+04  0.11619881671E+04  0.50400001928E-02 0.  1.
        1   -1    0    0  501    0  0.00000000000E+00  0.00000000000E+00 -0.13751803496E+03  0.13751803505E+03  0.50400001928E-02 0. -1.
    10030    2    1    2    0    0  0.00000000000E+00  0.00000000000E+00  0.10244701322E+04  0.12995062022E+04  0.79948565830E+03 0.  0.
        5    1    3    3  502    0  0.18504321210E+03 -0.29213709068E+03  0.83808031101E+03  0.90663430764E+03  0.46999998093E+01 0.  1.
       -5    1    3    3    0  502 -0.18504321210E+03  0.29213709068E+03  0.18638982115E+03  0.39287189454E+03  0.46999998093E+01 0. -1.
</event>
<event>
 5   0  0.6256781E-03  0.8011013E+03  0.7818609E-02  0.9558424E-01
        2   -1    0    0  501    0  0.00000000000E+00  0.00000000000E+00  0.18941544636E+04  0.18941544636E+04  0.25500000920E-02 0. -1.
       -2   -1    0    0    0  501  0.00000000000E+00  0.00000000000E+00 -0.84703144784E+02  0.84703144823E+02  0.25500000920E-02 0.  1.
    10030    2    1    2    0    0  0.00000000000E+00  0.00000000000E+00  0.18094513188E+04  0.19788576084E+04  0.80110134144E+03 0.  0.
        1    1    3    3  502    0 -0.23286774467E+03 -0.29659120504E+03  0.12384010178E+04  0.12945388408E+04  0.50400001928E-02 0. -1.
       -1    1    3    3    0  502  0.23286774467E+03  0.29659120504E+03  0.57105030100E+03  0.68431876762E+03  0.50400001928E-02 0.  1.
</event>
<event>
 5   0  0.5813850E-03  0.7991758E+03  0.7818609E-02  0.9561211E-01
       -2   -1    0    0    0  501  0.00000000000E+00  0.00000000000E+00  0.22259845669E+03  0.22259845670E+03  0.25500000920E-02 0. -1.
        2   -1    0    0  501    0  0.00000000000E+00  0.00000000000E+00 -0.71730273972E+03  0.71730273972E+03  0.25500000920E-02 0.  1.
    10030    2    1    2    0    0  0.00000000000E+00  0.00000000000E+00 -0.49470428303E+03  0.93990119643E+03  0.79917578254E+03 0.  0.
        5    1    3    3  502    0 -0.13785833456E+03 -0.60970320729E+02  0.18784195427E+03  0.24089207169E+03  0.46999998093E+01 0. -1.
       -5    1    3    3    0  502  0.13785833456E+03  0.60970320729E+02 -0.68254623730E+03  0.69900912474E+03  0.46999998093E+01 0.  1.
</event>
<event>
 5   0  0.3753450E-03  0.7975996E+03  0.7818609E-02  0.9563498E-01
        1   -1    0    0  501    0  0.00000000000E+00  0.00000000000E+00  0.65991808036E+03  0.65991808038E+03  0.50400001928E-02 0. -1.
       -1   -1    0    0    0  501  0.00000000000E+00  0.00000000000E+00 -0.24100153013E+03  0.24100153018E+03  0.50400001928E-02 0.  1.
    10030    2    1    2    0    0  0.00000000000E+00  0.00000000000E+00  0.41891655023E+03  0.90091961056E+03  0.79759956659E+03 0.  0.
        5    1    3    3  502    0 -0.25013221049E+03  0.27283203211E+03  0.41860695541E+02  0.37252898988E+03  0.46999998093E+01 0.  1.
       -5    1    3    3    0  502  0.25013221049E+03 -0.27283203211E+03  0.37705585469E+03  0.52839062068E+03  0.46999998093E+01 0. -1.
</event>
<event>
 5   0  0.3714448E-03  0.7993383E+03  0.7818609E-02  0.9560975E-01
       -1   -1    0    0    0  501  0.00000000000E+00  0.00000000000E+00  0.17678205715E+03  0.17678205722E+03  0.50400001928E-02 0.  1.
        1   -1    0    0  501    0  0.00000000000E+00  0.00000000000E+00 -0.90357266615E+03  0.90357266617E+03  0.50400001928E-02 0. -1.
    10030    2    1    2    0    0  0.00000000000E+00  0.00000000000E+00 -0.72679060900E+03  0.10803547234E+04  0.79933831324E+03 0.  0.
        1    1    3    3  502    0  0.30480224367E+03 -0.71973429791E+02 -0.69898242764E+03  0.76593799783E+03  0.50400001928E-02 0. -1.
       -1    1    3    3    0  502 -0.30480224367E+03  0.71973429791E+02 -0.27808181364E+02  0.31441672557E+03  0.50400001928E-02 0.  1.
</event>
<event>
 5   0  0.6153659E-03  0.7994935E+03  0.7818609E-02  0.9560751E-01
        2   -1    0    0  501    0  0.00000000000E+00  0.00000000000E+00  0.12873347124E+04  0.12873347124E+04  0.25500000920E-02 0. -1.
       -2   -1    0    0    0  501  0.00000000000E+00  0.00000000000E+00 -0.12413046250E+03  0.12413046253E+03  0.25500000920E-02 0.  1.
    10030    2    1    2    0    0  0.00000000000E+00  0.00000000000E+00  0.11632042499E+04  0.14114651750E+04  0.79949347281E+03 0.  0.
        2    1    3    3  502    0 -0.18178516542E+03 -0.26949163256E+03  0.17087094075E+03  0.36724442104E+03  0.25500000920E-02 0.  1.
       -2    1    3    3    0  502  0.18178516542E+03  0.26949163256E+03  0.99233330920E+03  0.10442207539E+04  0.25500000920E-02 0. -1.
</event>
<event>
 5   0  0.3860515E-03  0.8081067E+03  0.7818609E-02  0.9548357E-01
       -1   -1    0    0    0  501  0.00000000000E+00  0.00000000000E+00  0.16314662484E+03  0.16314662491E+03  0.50400001928E-02 0. -1.
        1   -1    0    0  501    0  0.00000000000E+00  0.00000000000E+00 -0.10006894735E+04  0.10006894736E+04  0.50400001928E-02 0.  1.
    10030    2    1    2    0    0  0.00000000000E+00  0.00000000000E+00 -0.83754284871E+03  0.11638360985E+04  0.80810670130E+03 0.  0.
        4    1    3    3  502    0  0.52435026536E+01 -0.40351450980E+03 -0.44779221945E+03  0.60280257020E+03  0.12699999809E+01 0. -1.
       -4    1    3    3    0  502 -0.52435026536E+01  0.40351450980E+03 -0.38975062926E+03  0.56103352828E+03  0.12699999809E+01 0.  1.
</event>
<event>
 5   0  0.6337108E-03  0.8041464E+03  0.7818609E-02  0.9554035E-01
       -2   -1    0    0    0  501  0.00000000000E+00  0.00000000000E+00  0.19293664298E+03  0.19293664299E+03  0.25500000920E-02 0.  1.
        2   -1    0    0  501    0  0.00000000000E+00  0.00000000000E+00 -0.83790635800E+03  0.83790635801E+03  0.25500000920E-02 0. -1.
    10030    2    1    2    0    0  0.00000000000E+00  0.00000000000E+00 -0.64496971503E+03  0.10308430010E+04  0.80414635447E+03 0.  0.
        4    1    3    3  502    0  0.21268782006E+03 -0.10928271163E+02 -0.75966246817E+03  0.78895133840E+03  0.12699999809E+01 0. -1.
       -4    1    3    3    0  502 -0.21268782006E+03  0.10928271163E+02  0.11469275314E+03  0.24189166260E+03  0.12699999809E+01 0.  1.
</event>
<event>
 5   0  0.6256781E-03  0.7984497E+03  0.7818609E-02  0.9562264E-01
        2   -1    0    0  501    0  0.00000000000E+00  0.00000000000E+00  0.26524243542E+03  0.26524243543E+03  0.25500000920E-02 0. -1.
       -2   -1    0    0    0  501  0.00000000000E+00  0.00000000000E+00 -0.60088600432E+03  0.60088600432E+03  0.25500000920E-02 0.  1.
    10030    2    1    2    0    0  0.00000000000E+00  0.00000000000E+00 -0.33564356890E+03  0.86612843975E+03  0.79844966579E+03 0.  0.
        1    1    3    3  502    0  0.69512983513E+02  0.17212102502E+03 -0.55122482248E+03  0.58164121851E+03  0.50400001928E-02 0.  1.
       -1    1    3    3    0  502 -0.69512983513E+02 -0.17212102502E+03  0.21558125358E+03  0.28448722124E+03  0.50400001928E-02 0. -1.
</event>
<event>
 5   0  0.5813850E-03  0.7995883E+03  0.7818609E-02  0.9560613E-01
        2   -1    0    0  501    0  0.00000000000E+00  0.00000000000E+00  0.53772700645E+03  0.53772700646E+03  0.25500000920E-02 0. -1.
       -2   -1    0    0    0  501  0.00000000000E+00  0.00000000000E+00 -0.29724254347E+03  0.29724254348E+03  0.25500000920E-02 0.  1.
    10030    2    1    2    0    0  0.00000000000E+00  0.00000000000E+00  0.24048446298E+03  0.83496954993E+03  0.79958825178E+03 0.  0.
        5    1    3    3  502    0  0.25320563501E+03 -0.15130488641E+03  0.40200965068E+03  0.49863825715E+03  0.46999998093E+01 0. -1.
       -5    1    3    3    0  502 -0.25320563501E+03  0.15130488641E+03 -0.16152518770E+03  0.33633129279E+03  0.46999998093E+01 0.  1.
</event>
<event>
 5   0  0.3714448E-03  0.7977198E+03  0.7818609E-02  0.9563323E-01
       -1   -1    0    0    0  501  0.00000000000E+00  0.00000000000E+00  0.14900556564E+03  0.14900556572E+03  0.50400001928E-02 0.  1.
        1   -1    0    0  501    0  0.00000000000E+00  0.00000000000E+00 -0.10676730006E+04  0.10676730006E+04  0.50400001928E-02 0. -1.
    10030    2    1    2    0    0  0.00000000000E+00  0.00000000000E+00 -0.91866743493E+03  0.12166785663E+04  0.79771979899E+03 0.  0.
        1    1    3    3  502    0 -0.38133379582E+03  0.45910906004E+02 -0.62336097887E+03  0.73218999251E+03  0.50400001928E-02 0. -1.
       -1    1    3    3    0  502  0.38133379582E+03 -0.45910906004E+02 -0.29530645606E+03  0.48448857380E+03  0.50400001928E-02 0.  1.
</event>
<event>
 5   0  0.3753450E-03  0.8061062E+03  0.7818609E-02  0.9551220E-01
        1   -1    0    0  501    0  0.00000000000E+00  0.00000000000E+00  0.83380562807E+03  0.83380562809E+03  0.50400001928E-02 0.  1.
       -1   -1    0    0    0  501  0.00000000000E+00  0.00000000000E+00 -0.19483174511E+03  0.19483174517E+03  0.50400001928E-02 0. -1.
    10030    2    1    2    0    0  0.00000000000E+00  0.00000000000E+00  0.63897388297E+03  0.10286373733E+04  0.80610621047E+03 0.  0.
        5    1    3    3  502    0 -0.29553169202E+02 -0.15674175454E+03  0.79178030907E+03  0.80770013945E+03  0.46999998093E+01 0.  1.
       -5    1    3    3    0  502  0.29553169202E+02  0.15674175454E+03 -0.15280642611E+03  0.22093723381E+03  0.46999998093E+01 0. -1.
</event>
<event>
 5   0  0.6337108E-03  0.8014947E+03  0.7818609E-02  0.9557856E-01
       -2   -1    0    0    0  501  0.00000000000E+00  0.00000000000E+00  0.26955943730E+03  0.26955943731E+03  0.25500000920E-02 0.  1.
        2   -1    0    0  501    0  0.00000000000E+00  0.00000000000E+00 -0.59578115222E+03  0.59578115223E+03  0.25500000920E-02 0. -1.
    10030    2    1    2    0    0  0.00000000000E+00  0.00000000000E+00 -0.32622171492E+03  0.86534058954E+03  0.80149468409E+03 0.  0.
        4    1    3    3  502    0 -0.21852804840E+03  0.33591800224E+03 -0.16183015937E+03  0.43218748889E+03  0.12699999809E+01 0.  1.
       -4    1    3    3    0  502  0.21852804840E+03 -0.33591800224E+03 -0.16439155555E+03  0.43315310065E+03  0.12699999809E+01 0. -1.
</event>
<event>
 5   0  0.2478000E-03  0.7963811E+03  0.7818609E-02  0.9565270E-01
        3   -1    0    0  501    0  0.00000000000E+00  0.00000000000E+00  0.22132763244E+03  0.22132765548E+03  0.10100000352E+00 0. -1.
       -3   -1    0    0    0  501  0.00000000000E+00  0.00000000000E+00 -0.71638449195E+03  0.71638449907E+03  0.10100000352E+00 0.  1.
    10030    2    1    2    0    0  0.00000000000E+00  0.00000000000E+00 -0.49505685951E+03  0.93771215455E+03  0.79638105869E+03 0.  0.
        3    1    3    3  502    0 -0.38451821714E+03  0.58007816581E+02 -0.14667429302E+03  0.41561102552E+03  0.10100000352E+00 0. -1.
       -3    1    3    3    0  502  0.38451821714E+03 -0.58007816581E+02 -0.34838256650E+03  0.52210112904E+03  0.10100000352E+00 0.  1.
</event>
<event>
 5   0  0.3860515E-03  0.7993265E+03  0.7818609E-02  0.9560992E-01
       -1   -1    0    0    0  501  0.00000000000E+00  0.00000000000E+00  0.11731496347E+04  0.11731496347E+04  0.50400001928E-02 0.  1.
        1   -1    0    0  501    0  0.00000000000E+00  0.00000000000E+00 -0.13615546050E+03  0.13615546059E+03  0.50400001928E-02 0. -1.
    10030    2    1    2    0    0  0.00000000000E+00  0.00000000000E+00  0.10369941742E+04  0.13093050953E+04  0.79932653856E+03 0.  0.
        4    1    3    3  502    0  0.49027687433E+01  0.64412495619E+02  0.11645382075E+04  0.11663292230E+04  0.12699999809E+01 0.  1.
       -4    1    3    3    0  502 -0.49027687433E+01 -0.64412495619E+02 -0.12754403330E+03  0.14297587232E+03  0.12699999809E+01 0. -1.
</event>
<event>
 5   0  0.6337108E-03  0.8271485E+03  0.7818609E-02  0.9521531E-01
        2   -1    0    0  501    0  0.00000000000E+00  0.00000000000E+00  0.50858903649E+03  0.50858903650E+03  0.25500000920E-02 0.  1.
       -2   -1    0    0    0  501  0.00000000000E+00  0.00000000000E+00 -0.33631017862E+03  0.33631017863E+03  0.25500000920E-02 0. -1.
    10030    2    1    2    0    0  0.00000000000E+00  0.00000000000E+00  0.17227885787E+03  0.84489921513E+03  0.82714852286E+03 0.  0.
        4    1    3    3  502    0  0.31334721326E+03 -0.48524007527E+02 -0.18507890962E+03  0.36714693387E+03  0.12699999809E+01 0. -1.
       -4    1    3    3    0  502 -0.31334721326E+03  0.48524007527E+02  0.35735776749E+03  0.47775228126E+03  0.12699999809E+01 0.  1.
</event>
<event>
 5   0  0.2478000E-03  0.8010709E+03  0.7818609E-02  0.9558468E-01
        4   -1    0    0  501    0  0.00000000000E+00  0.00000000000E+00  0.27151013603E+03  0.27151310625E+03  0.12699999809E+01 0.  1.
       -4   -1    0    0    0  501  0.00000000000E+00  0.00000000000E+00 -0.59086845010E+03  0.59086981496E+03  0.12699999809E+01 0. -1.
    10030    2    1    2    0    0  0.00000000000E+00  0.00000000000E+00 -0.31935831408E+03  0.86238292121E+03  0.80107088951E+03 0.  0.
        3    1    3    3  502    0  0.14289608898E+03  0.35671199794E+03 -0.28131309179E+03  0.47623503392E+03  0.10100000352E+00 0. -1.
       -3    1    3    3    0  502 -0.14289608898E+03 -0.35671199794E+03 -0.38045222292E+02  0.38614788729E+03  0.10100000352E+00 0.  1.
</event>
<event>
 5   0  0.6256781E-03  0.7959881E+03  0.7818609E-02  0.9565842E-01
        2   -1    0    0  501    0  0.00000000000E+00  0.00000000000E+00  0.18341905924E+04  0.18341905924E+04  0.25500000920E-02 0.  1.
       -2   -1    0    0    0  501  0.00000000000E+00  0.00000000000E+00 -0.86359215119E+02  0.86359215157E+02  0.25500000920E-02 0. -1.
    10030    2    1    2    0    0  0.00000000000E+00  0.00000000000E+00  0.17478313773E+04  0.19205498076E+04  0.79598809031E+03 0.  0.
        1    1    3    3  502    0  0.34954315525E+02  0.21331727659E+03  0.16802097781E+04  0.16940575442E+04  0.50400001928E-02 0.  1.
       -1    1    3    3    0  502 -0.34954315525E+02 -0.21331727659E+03  0.67621599225E+02  0.22649226339E+03  0.50400001928E-02 0. -1.
</event>
<event>
 5   0  0.3714448E-03  0.7985879E+03  0.7818609E-02  0.9562063E-01
        1   -1    0    0  501    0  0.00000000000E+00  0.00000000000E+00  0.44911840508E+03  0.44911840511E+03  0.50400001928E-02 0. -1.
       -1   -1    0    0    0  501  0.00000000000E+00  0.00000000000E+00 -0.35499697264E+03  0.35499697267E+03  0.50400001928E-02 0.  1.
    10030    2    1    2    0    0  0.00000000000E+00  0.00000000000E+00  0.94121432444E+02  0.80411537779E+03  0.79858793927E+03 0.  0.
        1    1    3    3  502    0 -0.28448240628E+02 -0.22471454587E+03  0.37816759954E+03  0.44081363737E+03  0.50400001928E-02 0. -1.
       -1    1    3    3    0  502  0.28448240628E+02  0.22471454587E+03 -0.28404616710E+03  0.36330174042E+03  0.50400001928E-02 0.  1.
</event>
<event>
 5   0  0.3860515E-03  0.7975980E+03  0.7818609E-02  0.9563500E-01
       -1   -1    0    0    0  501  0.00000000000E+00  0.00000000000E+00  0.11704941106E+03  0.11704941116E+03  0.50400001928E-02 0. -1.
        1   -1    0    0  501    0  0.00000000000E+00  0.00000000000E+00 -0.13587478023E+04  0.13587478023E+04  0.50400001928E-02 0.  1.
    10030    2    1    2    0    0  0.00000000000E+00  0.00000000000E+00 -0.12416983912E+04  0.14757972134E+04  0.79759796920E+03 0.  0.
        4    1    3    3  502    0  0.86559756164E+02  0.51926331998E+02 -0.13347159970E+04  0.13385280501E+04  0.12699999809E+01 0.  1.
       -4    1    3    3    0  502 -0.86559756164E+02 -0.51926331998E+02  0.93017605739E+02  0.13726916339E+03  0.12699999809E+01 0. -1.
</event>
<event>
 5   0  0.3627496E-03  0.8036501E+03  0.7818609E-02  0.9554749E-01
       -1   -1    0    0    0  501  0.00000000000E+00  0.00000000000E+00  0.13588218011E+03  0.13588218020E+03  0.50400001928E-02 0.  1.
        1   -1    0    0  501    0  0.00000000000E+00  0.00000000000E+00 -0.11882599683E+04  0.11882599683E+04  0.50400001928E-02 0. -1.
    10030    2    1    2    0    0  0.00000000000E+00  0.00000000000E+00 -0.10523777882E+04  0.13241421485E+04  0.80365006091E+03 0.  0.
        3    1    3    3  502    0 -0.33180046989E+03 -0.17820853833E+03 -0.75694079519E+03  0.84546390377E+03  0.10100000352E+00 0. -1.
       -3    1    3    3    0  502  0.33180046989E+03  0.17820853833E+03 -0.29543699299E+03  0.47867824474E+03  0.10100000352E+00 0.  1.
</event>
<event>
 5   0  0.6536209E-03  0.7984578E+03  0.7818609E-02  0.9562252E-01
        2   -1    0    0  501    0  0.00000000000E+00  0.00000000000E+00  0.77706695739E+03  0.77706695739E+03  0.25500000920E-02 0.  1.
       -2   -1    0    0    0  501  0.00000000000E+00  0.00000000000E+00 -0.20510935943E+03  0.20510935945E+03  0.25500000920E-02 0. -1.
    10030    2    1    2    0    0  0.00000000000E+00  0.00000000000E+00  0.57195759796E+03  0.98217631684E+03  0.79845777816E+03 0.  0.
        3    1    3    3  502    0  0.93513024749E+02  0.14700247756E+03 -0.15587810102E+03  0.23377854218E+03  0.10100000352E+00 0. -1.
       -3    1    3    3    0  502 -0.93513024749E+02 -0.14700247756E+03  0.72783569898E+03  0.74839777466E+03  0.10100000352E+00 0.  1.
</event>
<event>
 5   0  0.6153659E-03  0.7980871E+03  0.7818609E-02  0.9562790E-01
       -2   -1    0    0    0  501  0.00000000000E+00  0.00000000000E+00  0.13576957043E+03  0.13576957045E+03  0.25500000920E-02 0.  1.
        2   -1    0    0  501    0  0.00000000000E+00  0.00000000000E+00 -0.11728382395E+04  0.11728382395E+04  0.25500000920E-02 0. -1.
    10030    2    1    2    0    0  0.00000000000E+00  0.00000000000E+00 -0.10370686690E+04  0.13086078099E+04  0.79808707288E+03 0.  0.
        2    1    3    3  502    0  0.33128380017E+03  0.11257761531E+03 -0.20393323252E+03  0.40498325774E+03  0.25500000920E-02 0.  1.
       -2    1    3    3    0  502 -0.33128380017E+03 -0.11257761531E+03 -0.83313543653E+03  0.90362455219E+03  0.25500000920E-02 0. -1.
</event>
<event>
 5   0  0.3671128E-03  0.8002524E+03  0.7818609E-02  0.9559652E-01
       -1   -1    0    0    0  501  0.00000000000E+00  0.00000000000E+00  0.48235105739E+03  0.48235105741E+03  0.50400001928E-02 0.  1.
        1   -1    0    0  501    0  0.00000000000E+00  0.00000000000E+00 -0.33191793352E+03  0.33191793356E+03  0.50400001928E-02 0. -1.
    10030    2    1    2    0    0  0.00000000000E+00  0.00000000000E+00  0.15043312387E+03  0.81426899097E+03  0.80025237575E+03 0.  0.
        2    1    3    3  502    0 -0.45689905941E+02 -0.37166450790E+03 -0.68245482102E+02  0.38063042413E+03  0.25500000920E-02 0. -1.
       -2    1    3    3    0  502  0.45689905941E+02  0.37166450790E+03  0.21867860597E+03  0.43363856684E+03  0.25500000920E-02 0.  1.
</event>
<event>
 5   0  0.6256781E-03  0.8004065E+03  0.7818609E-02  0.9559429E-01
        2   -1    0    0  501    0  0.00000000000E+00  0.00000000000E+00  0.81458508655E+03  0.81458508655E+03  0.25500000920E-02 0. -1.
       -2   -1    0    0    0  501  0.00000000000E+00  0.00000000000E+00 -0.19661867981E+03  0.19661867983E+03  0.25500000920E-02 0.  1.
    10030    2    1    2    0    0  0.00000000000E+00  0.00000000000E+00  0.61796640674E+03  0.10112037664E+04  0.80040650753E+03 0.  0.
        1    1    3    3  502    0  0.36334995689E+03 -0.14300090166E+03  0.19819417573E+03  0.43789654072E+03  0.50400001928E-02 0.  1.
       -1    1    3    3    0  502 -0.36334995689E+03  0.14300090166E+03  0.41977223100E+03  0.57330722567E+03  0.50400001928E-02 0. -1.
</event>
<event>
 5   0  0.5813850E-03  0.7994037E+03  0.7818609E-02  0.9560881E-01
        2   -1    0    0  501    0  0.00000000000E+00  0.00000000000E+00  0.67105302995E+03  0.67105302995E+03  0.25500000920E-02 0. -1.
       -2   -1    0    0    0  501  0.00000000000E+00  0.00000000000E+00 -0.23807592146E+03  0.23807592147E+03  0.25500000920E-02 0.  1.
    10030    2    1    2    0    0  0.00000000000E+00  0.00000000000E+00  0.43297710849E+03  0.90912895142E+03  0.79940369891E+03 0.  0.
        5    1    3    3  502    0  0.12041689614E+03  0.28815998512E+03  0.50012710226E+03  0.58964872111E+03  0.46999998093E+01 0. -1.
       -5    1    3    3    0  502 -0.12041689614E+03 -0.28815998512E+03 -0.67149993764E+02  0.31948023031E+03  0.46999998093E+01 0.  1.
</event>
<event>
 5   0  0.3860515E-03  0.7957636E+03  0.7818609E-02  0.9566169E-01
        1   -1    0    0  501    0  0.00000000000E+00  0.00000000000E+00  0.46264936419E+03  0.46264936422E+03  0.50400001928E-02 0.  1.
       -1   -1    0    0    0  501  0.00000000000E+00  0.00000000000E+00 -0.34218119408E+03  0.34218119412E+03  0.50400001928E-02 0. -1.
    10030    2    1    2    0    0  0.00000000000E+00  0.00000000000E+00  0.12046817011E+03  0.80483055833E+03  0.79576356263E+03 0.  0.
        4    1    3    3  502    0  0.19146504276E+03 -0.34134601379E+03 -0.12222509428E+02  0.39156987418E+03  0.12699999809E+01 0.  1.
       -4    1    3    3    0  502 -0.19146504276E+03  0.34134601379E+03  0.13269067954E+03  0.41326068415E+03  0.12699999809E+01 0. -1.
</event>
<event>
 5   0  0.6256781E-03  0.8009664E+03  0.7818609E-02  0.9558619E-01
        2   -1    0    0  501    0  0.00000000000E+00  0.00000000000E+00  0.81663328833E+03  0.81663328833E+03  0.25500000920E-02 0. -1.
       -2   -1    0    0    0  501  0.00000000000E+00  0.00000000000E+00 -0.19640000312E+03  0.19640000313E+03  0.25500000920E-02 0.  1.
    10030    2    1    2    0    0  0.00000000000E+00  0.00000000000E+00  0.62023328521E+03  0.10130332915E+04  0.80096636729E+03 0.  0.
        1    1    3    3  502    0 -0.43231270311E+02 -0.30198185271E+03  0.63828519996E+03  0.70743902819E+03  0.50400001928E-02 0. -1.
       -1    1    3    3    0  502  0.43231270311E+02  0.30198185271E+03 -0.18051914744E+02  0.30559426328E+03  0.50400001928E-02 0.  1.
</event>
<event>
 5   0  0.3714448E-03  0.7936234E+03  0.7818609E-02  0.9569293E-01
       -1   -1    0    0    0  501  0.00000000000E+00  0.00000000000E+00  0.24641186755E+03  0.24641186760E+03  0.50400001928E-02 0.  1.
        1   -1    0    0  501    0  0.00000000000E+00  0.00000000000E+00 -0.63900949689E+03  0.63900949691E+03  0.50400001928E-02 0. -1.
    10030    2    1    2    0    0  0.00000000000E+00  0.00000000000E+00 -0.39259762934E+03  0.88542136450E+03  0.79362339567E+03 0.  0.
        1    1    3    3  502    0  0.39193372775E+03 -0.93142339705E+01 -0.12788069604E+03  0.41237394965E+03  0.50400001928E-02 0.  1.
       -1    1    3    3    0  502 -0.39193372775E+03  0.93142339705E+01 -0.26471693330E+03  0.47304741486E+03  0.50400001928E-02 0. -1.
</event>
<event>
 5   0  0.6256781E-03  0.8339965E+03  0.7818609E-02  0.9512072E-01
        2   -1    0    0  501    0  0.00000000000E+00  0.00000000000E+00  0.91272804958E+03  0.91272804959E+03  0.25500000920E-02 0.  1.
       -2   -1    0    0    0  501  0.00000000000E+00  0.00000000000E+00 -0.19051407144E+03  0.19051407146E+03  0.25500000920E-02 0. -1.
    10030    2    1    2    0    0  0.00000000000E+00  0.00000000000E+00  0.72221397814E+03  0.11032421210E+04  0.83399649126E+03 0.  0.
        1    1    3    3  502    0  0.19482216762E+03  0.36861709610E+03  0.37076427616E+03  0.55794299801E+03  0.50400001928E-02 0.  1.
       -1    1    3    3    0  502 -0.19482216762E+03 -0.36861709610E+03  0.35144970199E+03  0.54529912304E+03  0.50400001928E-02 0. -1.
</event>
<event>
 5   0  0.3671128E-03  0.7980096E+03  0.7818609E-02  0.9562903E-01
       -1   -1    0    0    0  501  0.00000000000E+00  0.00000000000E+00  0.93280688919E+03  0.93280688920E+03  0.50400001928E-02 0.  1.
        1   -1    0    0  501    0  0.00000000000E+00  0.00000000000E+00 -0.17067288194E+03  0.17067288201E+03  0.50400001928E-02 0. -1.
    10030    2    1    2    0    0  0.00000000000E+00  0.00000000000E+00  0.76213400725E+03  0.11034797712E+04  0.79800962430E+03 0.  0.
        2    1    3    3  502    0 -0.89719564277E+02  0.51151444498E+02  0.91400435370E+03  0.91982065049E+03  0.25500000920E-02 0.  1.
       -2    1    3    3    0  502  0.89719564277E+02 -0.51151444498E+02 -0.15187034645E+03  0.18365912072E+03  0.25500000920E-02 0. -1.
</event>
<event>
 5   0  0.6153659E-03  0.7993813E+03  0.7818609E-02  0.9560913E-01
        2   -1    0    0  501    0  0.00000000000E+00  0.00000000000E+00  0.13070779768E+03  0.13070779771E+03  0.25500000920E-02 0. -1.
       -2   -1    0    0    0  501  0.00000000000E+00  0.00000000000E+00 -0.12222118506E+04  0.12222118506E+04  0.25500000920E-02 0.  1.
    10030    2    1    2    0    0  0.00000000000E+00  0.00000000000E+00 -0.10915040529E+04  0.13529196483E+04  0.79938130903E+03 0.  0.
        2    1    3    3  502    0  0.19729316703E+03  0.24427391426E+03 -0.12720366383E+03  0.33878475622E+03  0.25500000920E-02 0. -1.
       -2    1    3    3    0  502 -0.19729316703E+03 -0.24427391426E+03 -0.96430038906E+03  0.10141348921E+04  0.25500000920E-02 0.  1.
</event>
<event>
 5   0  0.6153659E-03  0.7905680E+03  0.7818609E-02  0.9573771E-01
       -2   -1    0    0    0  501  0.00000000000E+00  0.00000000000E+00  0.26122296242E+03  0.26122296244E+03  0.25500000920E-02 0.  1.
        2   -1    0    0  501    0  0.00000000000E+00  0.00000000000E+00 -0.59814582046E+03  0.59814582046E+03  0.25500000920E-02 0. -1.
    10030    2    1    2    0    0  0.00000000000E+00  0.00000000000E+00 -0.33692285803E+03  0.85936878290E+03  0.79056795581E+03 0.  0.
        2    1    3    3  502    0  0.20549586920E+02 -0.27078830416E+03  0.14376490561E+03  0.30727339502E+03  0.25500000920E-02 0.  1.
       -2    1    3    3    0  502 -0.20549586920E+02  0.27078830416E+03 -0.48068776364E+03  0.55209538788E+03  0.25500000920E-02 0. -1.
</event>
<event>
 5   0  0.3860515E-03  0.8005217E+03  0.7818609E-02  0.9559262E-01
       -1   -1    0    0    0  501  0.00000000000E+00  0.00000000000E+00  0.11218976101E+04  0.11218976101E+04  0.50400001928E-02 0. -1.
        1   -1    0    0  501    0  0.00000000000E+00  0.00000000000E+00 -0.14280157140E+03  0.14280157149E+03  0.50400001928E-02 0.  1.
    10030    2    1    2    0    0  0.00000000000E+00  0.00000000000E+00  0.97909603873E+03  0.12646991816E+04  0.80052168424E+03 0.  0.
        4    1    3    3  502    0  0.29991086968E+03  0.20142249989E+01  0.90830062475E+03  0.95653657780E+03  0.12699999809E+01 0. -1.
       -4    1    3    3    0  502 -0.29991086968E+03 -0.20142249989E+01  0.70795413981E+02  0.30816260382E+03  0.12699999809E+01 0.  1.
</event>
<event>
 5   0  0.3753450E-03  0.8000586E+03  0.7818609E-02  0.9559932E-01
        1   -1    0    0  501    0  0.00000000000E+00  0.00000000000E+00  0.88247122815E+03  0.88247122816E+03  0.50400001928E-02 0.  1.
       -1   -1    0    0    0  501  0.00000000000E+00  0.00000000000E+00 -0.18133559473E+03  0.18133559480E+03  0.50400001928E-02 0. -1.
    10030    2    1    2    0    0  0.00000000000E+00  0.00000000000E+00  0.70113563342E+03  0.10638068230E+04  0.80005861043E+03 0.  0.
        5    1    3    3  502    0  0.83472767385E+02  0.16325073870E+03 -0.12213156862E+03  0.22035588631E+03  0.46999998093E+01 0. -1.
       -5    1    3    3    0  502 -0.83472767385E+02 -0.16325073870E+03  0.82326720204E+03  0.84345093665E+03  0.46999998093E+01 0.  1.
</event>
<event>
 5   0  0.2478000E-03  0.7985048E+03  0.7818609E-02  0.9562184E-01
       -4   -1    0    0    0  501  0.00000000000E+00  0.00000000000E+00  0.35085906004E+03  0.35086135853E+03  0.12699999809E+01 0. -1.
        4   -1    0    0  501    0  0.00000000000E+00  0.00000000000E+00 -0.45431581568E+03  0.45431759076E+03  0.12699999809E+01 0.  1.
    10030    2    1    2    0    0  0.00000000000E+00  0.00000000000E+00 -0.10345675564E+03  0.80517894929E+03  0.79850475270E+03 0.  0.
        1    1    3    3  502    0  0.53414462122E+02 -0.54349510889E+02 -0.44691672738E+03  0.45336688822E+03  0.50400001928E-02 0.  1.
       -1    1    3    3    0  502 -0.53414462122E+02  0.54349510889E+02  0.34345997174E+03  0.35181206107E+03  0.50400001928E-02 0. -1.
</event>
<event>
 5   0  0.6536209E-03  0.8011212E+03  0.7818609E-02  0.9558396E-01
       -2   -1    0    0    0  501  0.00000000000E+00  0.00000000000E+00  0.19991072492E+03  0.19991072494E+03  0.25500000920E-02 0. -1.
        2   -1    0    0  501    0  0.00000000000E+00  0.00000000000E+00 -0.80260215721E+03  0.80260215721E+03  0.25500000920E-02 0.  1.
    10030    2    1    2    0    0  0.00000000000E+00  0.00000000000E+00 -0.60269143228E+03  0.10025128821E+04  0.80112116208E+03 0.  0.
        3    1    3    3  502    0  0.19419374966E+03 -0.29297712134E+03 -0.54173576820E+03  0.64577430949E+03  0.10100000352E+00 0. -1.
       -3    1    3    3    0  502 -0.19419374966E+03  0.29297712134E+03 -0.60955664079E+02  0.35673857266E+03  0.10100000352E+00 0.  1.
</event>
<event>
 5   0  0.2478000E-03  0.7980352E+03  0.7818609E-02  0.9562865E-01
       -4   -1    0    0    0  501  0.00000000000E+00  0.00000000000E+00  0.10256398397E+04  0.10256406260E+04  0.12699999809E+01 0. -1.
        4   -1    0    0  501    0  0.00000000000E+00  0.00000000000E+00 -0.15523140800E+03  0.15523660306E+03  0.12699999809E+01 0.  1.
    10030    2    1    2    0    0  0.00000000000E+00  0.00000000000E+00  0.87040843167E+03  0.11808772290E+04  0.79803520729E+03 0.  0.
        5    1    3    3  502    0  0.38576258446E+03 -0.51334119763E+02  0.30497954868E+03  0.49445179596E+03  0.46999998093E+01 0.  1.
       -5    1    3    3    0  502 -0.38576258446E+03  0.51334119763E+02  0.56542888299E+03  0.68642543305E+03  0.46999998093E+01 0. -1.
</event>
<event>
 5   0  0.3714448E-03  0.7976052E+03  0.7818609E-02  0.9563490E-01
       -1   -1    0    0    0  501  0.00000000000E+00  0.00000000000E+00  0.11741794526E+03  0.11741794537E+03  0.50400001928E-02 0. -1.
        1   -1    0    0  501    0  0.00000000000E+00  0.00000000000E+00 -0.13545077924E+04  0.13545077925E+04  0.50400001928E-02 0.  1.
    10030    2    1    2    0    0  0.00000000000E+00  0.00000000000E+00 -0.12370898472E+04  0.14719257378E+04  0.79760522044E+03 0.  0.
        1    1    3    3  502    0  0.38010289430E+02  0.36923311279E+03 -0.88765950153E+03  0.96214201881E+03  0.50400001928E-02 0.  1.
       -1    1    3    3    0  502 -0.38010289430E+02 -0.36923311279E+03 -0.34943034565E+03  0.50978371901E+03  0.50400001928E-02 0. -1.
</event>
<event>
 5   0  0.6256781E-03  0.8013958E+03  0.7818609E-02  0.9557999E-01
       -2   -1    0    0    0  501  0.00000000000E+00  0.00000000000E+00  0.40650267172E+03  0.40650267173E+03  0.25500000920E-02 0.  1.
        2   -1    0    0  501    0  0.00000000000E+00  0.00000000000E+00 -0.39497599213E+03  0.39497599214E+03  0.25500000920E-02 0. -1.
    10030    2    1    2    0    0  0.00000000000E+00  0.00000000000E+00  0.11526679590E+02  0.80147866387E+03  0.80139577258E+03 0.  0.
        1    1    3    3  502    0  0.13855793278E+02 -0.95889690120E+02  0.39461196655E+03  0.40633166238E+03  0.50400001928E-02 0.  1.
       -1    1    3    3    0  502 -0.13855793278E+02  0.95889690120E+02 -0.38308528696E+03  0.39514700150E+03  0.50400001928E-02 0. -1.
</event>
<event>
 5   0  0.3753450E-03  0.8000995E+03  0.7818609E-02  0.9559873E-01
        1   -1    0    0  501    0  0.00000000000E+00  0.00000000000E+00  0.30424942416E+03  0.30424942421E+03  0.50400001928E-02 0. -1.
       -1   -1    0    0    0  501  0.00000000000E+00  0.00000000000E+00 -0.52601509822E+03  0.52601509824E+03  0.50400001928E-02 0.  1.
    10030    2    1    2    0    0  0.00000000000E+00  0.00000000000E+00 -0.22176567406E+03  0.83026452245E+03  0.80009947072E+03 0.  0.
        5    1    3    3  502    0 -0.31333779631E+03 -0.57826030043E+02  0.14008927870E+03  0.34809699848E+03  0.46999998093E+01 0. -1.
       -5    1    3    3    0  502  0.31333779631E+03  0.57826030043E+02 -0.36185495275E+03  0.48216752397E+03  0.46999998093E+01 0.  1.
</event>
<event>
 5   0  0.3753450E-03  0.7981275E+03  0.7818609E-02  0.9562731E-01
        1   -1    0    0  501    0  0.00000000000E+00  0.00000000000E+00  0.12673971325E+04  0.12673971325E+04  0.50400001928E-02 0. -1.
       -1   -1    0    0    0  501  0.00000000000E+00  0.00000000000E+00 -0.12565271736E+03  0.12565271746E+03  0.50400001928E-02 0.  1.
    10030    2    1    2    0    0  0.00000000000E+00  0.00000000000E+00  0.11417444151E+04  0.13930498500E+04  0.79812754307E+03 0.  0.
        5    1    3    3  502    0 -0.37518905099E+03  0.94218939913E+02  0.39998565550E+03  0.55646621391E+03  0.46999998093E+01 0. -1.
       -5    1    3    3    0  502  0.37518905099E+03 -0.94218939913E+02  0.74175875962E+03  0.83658363604E+03  0.46999998093E+01 0.  1.
</event>
<event>
 5   0  0.6153659E-03  0.8061178E+03  0.7818609E-02  0.9551204E-01
       -2   -1    0    0    0  501  0.00000000000E+00  0.00000000000E+00  0.19035401197E+03  0.19035401199E+03  0.25500000920E-02 0. -1.
        2   -1    0    0  501    0  0.00000000000E+00  0.00000000000E+00 -0.85344403308E+03  0.85344403308E+03  0.25500000920E-02 0.  1.
    10030    2    1    2    0    0  0.00000000000E+00  0.00000000000E+00 -0.66309002111E+03  0.10437980451E+04  0.80611784673E+03 0.  0.
        2    1    3    3  502    0  0.20753791012E+02 -0.29216721377E+03  0.26975453421E+02  0.29414295119E+03  0.25500000920E-02 0. -1.
       -2    1    3    3    0  502 -0.20753791012E+02  0.29216721377E+03 -0.69006547453E+03  0.74965509388E+03  0.25500000920E-02 0.  1.
</event>
<event>
 5   0  0.6153659E-03  0.7964085E+03  0.7818609E-02  0.9565230E-01
       -2   -1    0    0    0  501  0.00000000000E+00  0.00000000000E+00  0.80769404694E+02  0.80769404734E+02  0.25500000920E-02 0.  1.
        2   -1    0    0  501    0  0.00000000000E+00  0.00000000000E+00 -0.19632015839E+04  0.19632015839E+04  0.25500000920E-02 0. -1.
    10030    2    1    2    0    0  0.00000000000E+00  0.00000000000E+00 -0.18824321792E+04  0.20439709886E+04  0.79640849636E+03 0.  0.
        2    1    3    3  502    0 -0.15566382238E+03  0.12537701640E+03 -0.18251310462E+04  0.18360430163E+04  0.25500000920E-02 0. -1.
       -2    1    3    3    0  502  0.15566382238E+03 -0.12537701640E+03 -0.57301133025E+02  0.20792797237E+03  0.25500000920E-02 0.  1.
</event>
<event>
 5   0  0.3714448E-03  0.7968412E+03  0.7818609E-02  0.9564601E-01
       -1   -1    0    0    0  501  0.00000000000E+00  0.00000000000E+00  0.32689629786E+03  0.32689629790E+03  0.50400001928E-02 0. -1.
        1   -1    0    0  501    0  0.00000000000E+00  0.00000000000E+00 -0.48559423771E+03  0.48559423774E+03  0.50400001928E-02 0.  1.
    10030    2    1    2    0    0  0.00000000000E+00  0.00000000000E+00 -0.15869793985E+03  0.81249053564E+03  0.79684116007E+03 0.  0.
        1    1    3    3  502    0 -0.18374035089E+03 -0.26785238536E+02  0.28008073112E+03  0.33604044625E+03  0.50400001928E-02 0. -1.
       -1    1    3    3    0  502  0.18374035089E+03  0.26785238536E+02 -0.43877867097E+03  0.47645008938E+03  0.50400001928E-02 0.  1.
</event>
<event>
 5   0  0.5813850E-03  0.8004724E+03  0.7818609E-02  0.9559334E-01
       -2   -1    0    0    0  501  0.00000000000E+00  0.00000000000E+00  0.58936214130E+02  0.58936214185E+02  0.25500000920E-02 0. -1.
        2   -1    0    0  501    0  0.00000000000E+00  0.00000000000E+00 -0.27180065744E+04  0.27180065744E+04  0.25500000920E-02 0.  1.
    10030    2    1    2    0    0  0.00000000000E+00  0.00000000000E+00 -0.26590703603E+04  0.27769427886E+04  0.80047240441E+03 0.  0.
        5    1    3    3  502    0 -0.10879385962E+03 -0.20997055405E+03 -0.20946711635E+03  0.31594667317E+03  0.46999998093E+01 0. -1.
       -5    1    3    3    0  502  0.10879385962E+03  0.20997055405E+03 -0.24496032439E+04  0.24609961154E+04  0.46999998093E+01 0.  1.
</event>
<event>
 5   0  0.3860515E-03  0.7927893E+03  0.7818609E-02  0.9570513E-01
       -1   -1    0    0    0  501  0.00000000000E+00  0.00000000000E+00  0.32428223715E+03  0.32428223719E+03  0.50400001928E-02 0. -1.
        1   -1    0    0  501    0  0.00000000000E+00  0.00000000000E+00 -0.48454313994E+03  0.48454313996E+03  0.50400001928E-02 0.  1.
    10030    2    1    2    0    0  0.00000000000E+00  0.00000000000E+00 -0.16026090279E+03  0.80882537715E+03  0.79278933756E+03 0.  0.
        4    1    3    3  502    0  0.10508919298E+03  0.12905723126E+02 -0.46984772268E+03  0.48163138558E+03  0.12699999809E+01 0.  1.
       -4    1    3    3    0  502 -0.10508919298E+03 -0.12905723126E+02  0.30958681989E+03  0.32719399157E+03  0.12699999809E+01 0. -1.
</event>
<event>
 5   0  0.6153659E-03  0.7990251E+03  0.7818609E-02  0.9561429E-01
        2   -1    0    0  501    0  0.00000000000E+00  0.00000000000E+00  0.10669502402E+04  0.10669502402E+04  0.25500000920E-02 0.  1.
       -2   -1    0    0    0  501  0.00000000000E+00  0.00000000000E+00 -0.14959485103E+03  0.14959485106E+03  0.25500000920E-02 0. -1.
    10030    2    1    2    0    0  0.00000000000E+00  0.00000000000E+00  0.91735538913E+03  0.12165450912E+04  0.79902506157E+03 0.  0.
        2    1    3    3  502    0  0.52563873701E+02  0.18016047540E+03 -0.78304243984E+02  0.20335267972E+03  0.25500000920E-02 0. -1.
       -2    1    3    3    0  502 -0.52563873701E+02 -0.18016047540E+03  0.99565963312E+03  0.10131924115E+04  0.25500000920E-02 0.  1.
</event>
<event>
 5   0  0.3627496E-03  0.8004314E+03  0.7818609E-02  0.9559393E-01
       -1   -1    0    0    0  501  0.00000000000E+00  0.00000000000E+00  0.26673192160E+03  0.26673192165E+03  0.50400001928E-02 0. -1.
        1   -1    0    0  501    0  0.00000000000E+00  0.00000000000E+00 -0.60050032677E+03  0.60050032679E+03  0.50400001928E-02 0.  1.
    10030    2    1    2    0    0  0.00000000000E+00  0.00000000000E+00 -0.33376840517E+03  0.86723224844E+03  0.80043139896E+03 0.  0.
        3    1    3    3  502    0 -0.44253878317E+02  0.19059186228E+03  0.21137842806E+03  0.28803561197E+03  0.10100000352E+00 0. -1.
       -3    1    3    3    0  502  0.44253878317E+02 -0.19059186228E+03 -0.54514683324E+03  0.57919663647E+03  0.10100000352E+00 0.  1.
</event>
<event>
 5   0  0.3753450E-03  0.7997862E+03  0.7818609E-02  0.9560327E-01
        1   -1    0    0  501    0  0.00000000000E+00  0.00000000000E+00  0.13384641579E+04  0.13384641579E+04  0.50400001928E-02 0. -1.
       -1   -1    0    0    0  501  0.00000000000E+00  0.00000000000E+00 -0.11947610607E+03  0.11947610618E+03  0.50400001928E-02 0.  1.
    10030    2    1    2    0    0  0.00000000000E+00  0.00000000000E+00  0.12189880518E+04  0.14579402640E+04  0.79978618588E+03 0.  0.
        5    1    3    3  502    0  0.26709308172E+03 -0.12347400989E+03  0.11030552967E+04  0.11416381314E+04  0.46999998093E+01 0. -1.
       -5    1    3    3    0  502 -0.26709308172E+03  0.12347400989E+03  0.11593275505E+03  0.31630213264E+03  0.46999998093E+01 0.  1.
</event>
<event>
 5   0  0.2478000E-03  0.7997038E+03  0.7818609E-02  0.9560446E-01
        4   -1    0    0  501    0  0.00000000000E+00  0.00000000000E+00  0.62465550829E+03  0.62465679932E+03  0.12699999809E+01 0. -1.
       -4   -1    0    0    0  501  0.00000000000E+00  0.00000000000E+00 -0.25594838463E+03  0.25595153544E+03  0.12699999809E+01 0.  1.
    10030    2    1    2    0    0  0.00000000000E+00  0.00000000000E+00  0.36870712367E+03  0.88060833476E+03  0.79970375528E+03 0.  0.
        5    1    3    3  502    0  0.12953732711E+03  0.37462035543E+03  0.24198479809E+03  0.46443413131E+03  0.46999998093E+01 0. -1.
       -5    1    3    3    0  502 -0.12953732711E+03 -0.37462035543E+03  0.12672232557E+03  0.41617420345E+03  0.46999998093E+01 0.  1.
</event>
<event>
 5   0  0.3753450E-03  0.7919920E+03  0.7818609E-02  0.9571681E-01
       -1   -1    0    0    0  501  0.00000000000E+00  0.00000000000E+00  0.41720489370E+03  0.41720489373E+03  0.50400001928E-02 0.  1.
        1   -1    0    0  501    0  0.00000000000E+00  0.00000000000E+00 -0.37586525630E+03  0.37586525633E+03  0.50400001928E-02 0. -1.
    10030    2    1    2    0    0  0.00000000000E+00  0.00000000000E+00  0.41339637404E+02  0.79307015007E+03  0.79199198058E+03 0.  0.
        5    1    3    3  502    0 -0.14941065587E+03  0.10361202559E+03  0.37290390189E+03  0.41489565673E+03  0.46999998093E+01 0.  1.
       -5    1    3    3    0  502  0.14941065587E+03 -0.10361202559E+03 -0.33156426448E+03  0.37817449334E+03  0.46999998093E+01 0. -1.
</event>
<event>
 5   0  0.6153659E-03  0.7963898E+03  0.7818609E-02  0.9565257E-01
        2   -1    0    0  501    0  0.00000000000E+00  0.00000000000E+00  0.19576819668E+03  0.19576819670E+03  0.25500000920E-02 0. -1.
       -2   -1    0    0    0  501  0.00000000000E+00  0.00000000000E+00 -0.80993329917E+03  0.80993329917E+03  0.25500000920E-02 0.  1.
    10030    2    1    2    0    0  0.00000000000E+00  0.00000000000E+00 -0.61416510249E+03  0.10057014959E+04  0.79638980762E+03 0.  0.
        2    1    3    3  502    0  0.24021336119E+03 -0.22156512478E+03 -0.59440139132E+03  0.67831156368E+03  0.25500000920E-02 0.  1.
       -2    1    3    3    0  502 -0.24021336119E+03  0.22156512478E+03 -0.19763711167E+02  0.32738993219E+03  0.25500000920E-02 0. -1.
</event>
<event>
 5   0  0.6153659E-03  0.7982811E+03  0.7818609E-02  0.9562508E-01
        2   -1    0    0  501    0  0.00000000000E+00  0.00000000000E+00  0.60182926253E+03  0.60182926254E+03  0.25500000920E-02 0.  1.
       -2   -1    0    0    0  501  0.00000000000E+00  0.00000000000E+00 -0.26471492797E+03  0.26471492798E+03  0.25500000920E-02 0. -1.
    10030    2    1    2    0    0  0.00000000000E+00  0.00000000000E+00  0.33711433456E+03  0.86654419052E+03  0.79828112815E+03 0.  0.
        2    1    3    3  502    0  0.31917384390E+03  0.85004569245E+02  0.41180759946E+03  0.52790455425E+03  0.25500000920E-02 0.  1.
       -2    1    3    3    0  502 -0.31917384390E+03 -0.85004569245E+02 -0.74693264898E+02  0.33863963627E+03  0.25500000920E-02 0. -1.
</event>
<event>
 5   0  0.3671128E-03  0.7956669E+03  0.7818609E-02  0.9566310E-01
        1   -1    0    0  501    0  0.00000000000E+00  0.00000000000E+00  0.60820250326E+03  0.60820250328E+03  0.50400001928E-02 0.  1.
       -1   -1    0    0    0  501  0.00000000000E+00  0.00000000000E+00 -0.26022819619E+03  0.26022819623E+03  0.50400001928E-02 0. -1.
    10030    2    1    2    0    0  0.00000000000E+00  0.00000000000E+00  0.34797430708E+03  0.86843069952E+03  0.79566686589E+03 0.  0.
        2    1    3    3  502    0  0.28461311274E+03 -0.88113172691E+02 -0.11375620695E+03  0.31891853156E+03  0.25500000920E-02 0. -1.
       -2    1    3    3    0  502 -0.28461311274E+03  0.88113172691E+02  0.46173051403E+03  0.54951216796E+03  0.25500000920E-02 0.  1.
</event>
<event>
 5   0  0.6337108E-03  0.8282891E+03  0.7818609E-02  0.9519949E-01
        2   -1    0    0  501    0  0.00000000000E+00  0.00000000000E+00  0.12016681248E+04  0.12016681248E+04  0.25500000920E-02 0.  1.
       -2   -1    0    0    0  501  0.00000000000E+00  0.00000000000E+00 -0.14273134333E+03  0.14273134336E+03  0.25500000920E-02 0. -1.
    10030    2    1    2    0    0  0.00000000000E+00  0.00000000000E+00  0.10589367814E+04  0.13443994681E+04  0.82828909375E+03 0.  0.
        4    1    3    3  502    0 -0.40857669644E+03 -0.66745897692E+02  0.54755424885E+03  0.68644533655E+03  0.12699999809E+01 0. -1.
       -4    1    3    3    0  502  0.40857669644E+03  0.66745897692E+02  0.51138253258E+03  0.65795413157E+03  0.12699999809E+01 0.  1.
</event>
<event>
 5   0  0.3753450E-03  0.7990995E+03  0.7818609E-02  0.9561321E-01
       -1   -1    0    0    0  501  0.00000000000E+00  0.00000000000E+00  0.49676560128E+03  0.49676560130E+03  0.50400001928E-02 0.  1.
        1   -1    0    0  501    0  0.00000000000E+00  0.00000000000E+00 -0.32135880158E+03  0.32135880162E+03  0.50400001928E-02 0. -1.
    10030    2    1    2    0    0  0.00000000000E+00  0.00000000000E+00  0.17540679969E+03  0.81812440292E+03  0.79909948898E+03 0.  0.
        5    1    3    3  502    0 -0.13097438076E+03  0.13594417342E+03 -0.27279157641E+03  0.33177166977E+03  0.46999998093E+01 0. -1.
       -5    1    3    3    0  502  0.13097438076E+03 -0.13594417342E+03  0.44819837611E+03  0.48635273315E+03  0.46999998093E+01 0.  1.
</event>
<event>
 5   0  0.3753450E-03  0.7971782E+03  0.7818609E-02  0.9564111E-01
        1   -1    0    0  501    0  0.00000000000E+00  0.00000000000E+00  0.77375473797E+03  0.77375473799E+03  0.50400001928E-02 0. -1.
       -1   -1    0    0    0  501  0.00000000000E+00  0.00000000000E+00 -0.20532769500E+03  0.20532769506E+03  0.50400001928E-02 0.  1.
    10030    2    1    2    0    0  0.00000000000E+00  0.00000000000E+00  0.56842704297E+03  0.97908243305E+03  0.79717821566E+03 0.  0.
        5    1    3    3  502    0 -0.48203097702E+02 -0.15397438875E+03  0.73181840403E+03  0.74940771113E+03  0.46999998093E+01 0. -1.
       -5    1    3    3    0  502  0.48203097702E+02  0.15397438875E+03 -0.16339136106E+03  0.22967472192E+03  0.46999998093E+01 0.  1.
</event>
<event>
 5   0  0.3627496E-03  0.8035351E+03  0.7818609E-02  0.9554914E-01
       -1   -1    0    0    0  501  0.00000000000E+00  0.00000000000E+00  0.92088834398E+02  0.92088834536E+02  0.50400001928E-02 0. -1.
        1   -1    0    0  501    0  0.00000000000E+00  0.00000000000E+00 -0.17528417745E+04  0.17528417745E+04  0.50400001928E-02 0.  1.
    10030    2    1    2    0    0  0.00000000000E+00  0.00000000000E+00 -0.16607529401E+04  0.18449306090E+04  0.80353507959E+03 0.  0.
        3    1    3    3  502    0  0.36639527130E+02 -0.33412410783E+03 -0.32506598997E+03  0.46759948933E+03  0.10100000352E+00 0. -1.
       -3    1    3    3    0  502 -0.36639527130E+02  0.33412410783E+03 -0.13356869501E+04  0.13773311197E+04  0.10100000352E+00 0.  1.
</event>
<event>
 5   0  0.6153659E-03  0.8010357E+03  0.7818609E-02  0.9558519E-01
        2   -1    0    0  501    0  0.00000000000E+00  0.00000000000E+00  0.35666757310E+03  0.35666757311E+03  0.25500000920E-02 0. -1.
       -2   -1    0    0    0  501  0.00000000000E+00  0.00000000000E+00 -0.44975925154E+03  0.44975925154E+03  0.25500000920E-02 0.  1.
    10030    2    1    2    0    0  0.00000000000E+00  0.00000000000E+00 -0.93091678437E+02  0.80642682465E+03  0.80103568143E+03 0.  0.
        2    1    3    3  502    0  0.93479566669E+02 -0.17124216956E+03 -0.39868883098E+03  0.44386382368E+03  0.25500000920E-02 0.  1.
       -2    1    3    3    0  502 -0.93479566669E+02  0.17124216956E+03  0.30559715254E+03  0.36256300097E+03  0.25500000920E-02 0. -1.
</event>
<event>
 5   0  0.3860515E-03  0.8026619E+03  0.7818609E-02  0.9556172E-01
        1   -1    0    0  501    0  0.00000000000E+00  0.00000000000E+00  0.31744760650E+03  0.31744760654E+03  0.50400001928E-02 0.  1.
       -1   -1    0    0    0  501  0.00000000000E+00  0.00000000000E+00 -0.50737988279E+03  0.50737988281E+03  0.50400001928E-02 0. -1.
    10030    2    1    2    0    0  0.00000000000E+00  0.00000000000E+00 -0.18993227629E+03  0.82482748935E+03  0.80266189495E+03 0.  0.
        4    1    3    3  502    0  0.60227555274E+02 -0.39207773914E+03 -0.32352371995E+02  0.39799572965E+03  0.12699999809E+01 0.  1.
       -4    1    3    3    0  502 -0.60227555274E+02  0.39207773914E+03 -0.15757990430E+03  0.42683175969E+03  0.12699999809E+01 0. -1.
</event>
<event>
 5   0  0.6153659E-03  0.7991962E+03  0.7818609E-02  0.9561181E-01
       -2   -1    0    0    0  501  0.00000000000E+00  0.00000000000E+00  0.13068554837E+03  0.13068554840E+03  0.25500000920E-02 0.  1.
        2   -1    0    0  501    0  0.00000000000E+00  0.00000000000E+00 -0.12218537691E+04  0.12218537691E+04  0.25500000920E-02 0. -1.
    10030    2    1    2    0    0  0.00000000000E+00  0.00000000000E+00 -0.10911682207E+04  0.13525393175E+04  0.79919617081E+03 0.  0.
        2    1    3    3  502    0 -0.30297340591E+03  0.17379271616E+03 -0.87410465742E+03  0.94130534101E+03  0.25500000920E-02 0. -1.
       -2    1    3    3    0  502  0.30297340591E+03 -0.17379271616E+03 -0.21706356327E+03  0.41123397645E+03  0.25500000920E-02 0.  1.
</event>
<event>
 5   0  0.6153659E-03  0.8006303E+03  0.7818609E-02  0.9559105E-01
       -2   -1    0    0    0  501  0.00000000000E+00  0.00000000000E+00  0.73565512336E+02  0.73565512380E+02  0.25500000920E-02 0. -1.
        2   -1    0    0  501    0  0.00000000000E+00  0.00000000000E+00 -0.21783604921E+04  0.21783604921E+04  0.25500000920E-02 0.  1.
    10030    2    1    2    0    0  0.00000000000E+00  0.00000000000E+00 -0.21047949798E+04  0.22519260045E+04  0.80063026600E+03 0.  0.
        2    1    3    3  502    0 -0.35769445700E+03 -0.12754053209E+03 -0.69616931002E+03  0.79300921818E+03  0.25500000920E-02 0. -1.
       -2    1    3    3    0  502  0.35769445700E+03  0.12754053209E+03 -0.14086256698E+04  0.14589167863E+04  0.25500000920E-02 0.  1.
</event>
<event>
 5   0  0.3627496E-03  0.8013132E+03  0.7818609E-02  0.9558118E-01
       -1   -1    0    0    0  501  0.00000000000E+00  0.00000000000E+00  0.17539005302E+03  0.17539005309E+03  0.50400001928E-02 0. -1.
        1   -1    0    0  501    0  0.00000000000E+00  0.00000000000E+00 -0.91524973251E+03  0.91524973253E+03  0.50400001928E-02 0.  1.
    10030    2    1    2    0    0  0.00000000000E+00  0.00000000000E+00 -0.73985967949E+03  0.10906397856E+04  0.80131317014E+03 0.  0.
        3    1    3    3  502    0 -0.37658801077E+03  0.76591799595E+02 -0.52416238734E+03  0.64994696101E+03  0.10100000352E+00 0. -1.
       -3    1    3    3    0  502  0.37658801077E+03 -0.76591799595E+02 -0.21569729215E+03  0.44069282461E+03  0.10100000352E+00 0.  1.
</event>
<event>
 5   0  0.3714448E-03  0.7954544E+03  0.7818609E-02  0.9566620E-01
        1   -1    0    0  501    0  0.00000000000E+00  0.00000000000E+00  0.91401019161E+03  0.91401019163E+03  0.50400001928E-02 0. -1.
       -1   -1    0    0    0  501  0.00000000000E+00  0.00000000000E+00 -0.17306910321E+03  0.17306910328E+03  0.50400001928E-02 0.  1.
    10030    2    1    2    0    0  0.00000000000E+00  0.00000000000E+00  0.74094108841E+03  0.10870792949E+04  0.79545439651E+03 0.  0.
        1    1    3    3  502    0 -0.10722906217E+03  0.32975827172E+03  0.63669153685E+03  0.72499289836E+03  0.50400001928E-02 0. -1.
       -1    1    3    3    0  502  0.10722906217E+03 -0.32975827172E+03  0.10424955155E+03  0.36208639655E+03  0.50400001928E-02 0.  1.
</event>
<event>
 5   0  0.3627496E-03  0.8001131E+03  0.7818609E-02  0.9559853E-01
        1   -1    0    0  501    0  0.00000000000E+00  0.00000000000E+00  0.18221430499E+03  0.18221430506E+03  0.50400001928E-02 0.  1.
       -1   -1    0    0    0  501  0.00000000000E+00  0.00000000000E+00 -0.87833518131E+03  0.87833518132E+03  0.50400001928E-02 0. -1.
    10030    2    1    2    0    0  0.00000000000E+00  0.00000000000E+00 -0.69612087632E+03  0.10605494864E+04  0.80011307864E+03 0.  0.
        3    1    3    3  502    0 -0.24207396314E+02 -0.28359374794E+03 -0.72069748964E+03  0.77486533906E+03  0.10100000352E+00 0. -1.
       -3    1    3    3    0  502  0.24207396314E+02  0.28359374794E+03  0.24576613320E+02  0.28568414732E+03  0.10100000352E+00 0.  1.
</event>
<event>
 5   0  0.3753450E-03  0.7954302E+03  0.7818609E-02  0.9566655E-01
        1   -1    0    0  501    0  0.00000000000E+00  0.00000000000E+00  0.59807649841E+03  0.59807649843E+03  0.50400001928E-02 0.  1.
       -1   -1    0    0    0  501  0.00000000000E+00  0.00000000000E+00 -0.26447669674E+03  0.26447669679E+03  0.50400001928E-02 0. -1.
    10030    2    1    2    0    0  0.00000000000E+00  0.00000000000E+00  0.33359980167E+03  0.86255319522E+03  0.79543018984E+03 0.  0.
        5    1    3    3  502    0 -0.67197357565E+02  0.27317370422E+03  0.47161812178E+03  0.54916764319E+03  0.46999998093E+01 0.  1.
       -5    1    3    3    0  502  0.67197357565E+02 -0.27317370422E+03 -0.13801832011E+03  0.31338555203E+03  0.46999998093E+01 0. -1.
</event>
<event>
 5   0  0.3860515E-03  0.8005629E+03  0.7818609E-02  0.9559203E-01
        1   -1    0    0  501    0  0.00000000000E+00  0.00000000000E+00  0.34989591195E+03  0.34989591198E+03  0.50400001928E-02 0. -1.
       -1   -1    0    0    0  501  0.00000000000E+00  0.00000000000E+00 -0.45792261479E+03  0.45792261481E+03  0.50400001928E-02 0.  1.
    10030    2    1    2    0    0  0.00000000000E+00  0.00000000000E+00 -0.10802670284E+03  0.80781852680E+03  0.80056292926E+03 0.  0.
        4    1    3    3  502    0  0.22683944634E+03  0.21381510222E+03 -0.30738788648E+03  0.43779214018E+03  0.12699999809E+01 0.  1.
       -4    1    3    3    0  502 -0.22683944634E+03 -0.21381510222E+03  0.19936118364E+03  0.37002638662E+03  0.12699999809E+01 0. -1.
</event>
<event>
 5   0  0.3860515E-03  0.8010014E+03  0.7818609E-02  0.9558569E-01
        1   -1    0    0  501    0  0.00000000000E+00  0.00000000000E+00  0.45128371510E+03  0.45128371513E+03  0.50400001928E-02 0. -1.
       -1   -1    0    0    0  501  0.00000000000E+00  0.00000000000E+00 -0.35543233172E+03  0.35543233176E+03  0.50400001928E-02 0.  1.
    10030    2    1    2    0    0  0.00000000000E+00  0.00000000000E+00  0.95851383374E+02  0.80671604688E+03  0.80100143109E+03 0.  0.
        4    1    3    3  502    0  0.12075600453E+03  0.26343188297E+03  0.32634112725E+03  0.43643844220E+03  0.12699999809E+01 0. -1.
       -4    1    3    3    0  502 -0.12075600453E+03 -0.26343188297E+03 -0.23048974388E+03  0.37027760468E+03  0.12699999809E+01 0.  1.
</event>
<event>
 5   0  0.6256781E-03  0.8009253E+03  0.7818609E-02  0.9558679E-01
       -2   -1    0    0    0  501  0.00000000000E+00  0.00000000000E+00  0.17945523734E+03  0.17945523735E+03  0.25500000920E-02 0. -1.
        2   -1    0    0  501    0  0.00000000000E+00  0.00000000000E+00 -0.89365084797E+03  0.89365084797E+03  0.25500000920E-02 0.  1.
    10030    2    1    2    0    0  0.00000000000E+00  0.00000000000E+00 -0.71419561063E+03  0.10731060853E+04  0.80092527749E+03 0.  0.
        1    1    3    3  502    0 -0.34907209302E+03 -0.12269048225E+03 -0.15185374306E+03  0.39995479728E+03  0.50400001928E-02 0. -1.
       -1    1    3    3    0  502  0.34907209302E+03  0.12269048225E+03 -0.56234186757E+03  0.67315128805E+03  0.50400001928E-02 0.  1.
</event>
<event>
 5   0  0.6536209E-03  0.7981111E+03  0.7818609E-02  0.9562755E-01
        2   -1    0    0  501    0  0.00000000000E+00  0.00000000000E+00  0.17257177557E+04  0.17257177557E+04  0.25500000920E-02 0. -1.
       -2   -1    0    0    0  501  0.00000000000E+00  0.00000000000E+00 -0.92277738005E+02  0.92277738040E+02  0.25500000920E-02 0.  1.
    10030    2    1    2    0    0  0.00000000000E+00  0.00000000000E+00  0.16334400177E+04  0.18179954938E+04  0.79811109744E+03 0.  0.
        3    1    3    3  502    0 -0.15780578619E+03  0.35934511622E+03  0.65224336954E+03  0.76121810410E+03  0.10100000352E+00 0. -1.
       -3    1    3    3    0  502  0.15780578619E+03 -0.35934511622E+03  0.98119664818E+03  0.10567773897E+04  0.10100000352E+00 0.  1.
</event>
<event>
 5   0  0.3753450E-03  0.8052751E+03  0.7818609E-02  0.9552413E-01
       -1   -1    0    0    0  501  0.00000000000E+00  0.00000000000E+00  0.73156704889E+02  0.73156705062E+02  0.50400001928E-02 0.  1.
        1   -1    0    0  501    0  0.00000000000E+00  0.00000000000E+00 -0.22160234930E+04  0.22160234930E+04  0.50400001928E-02 0. -1.
    10030    2    1    2    0    0  0.00000000000E+00  0.00000000000E+00 -0.21428667881E+04  0.22891801980E+04  0.80527505092E+03 0.  0.
        5    1    3    3  502    0 -0.24123161383E+03  0.23340290202E+03 -0.43944324499E+03  0.55299372667E+03  0.46999998093E+01 0.  1.
       -5    1    3    3    0  502  0.24123161383E+03 -0.23340290202E+03 -0.17034235431E+04  0.17361864714E+04  0.46999998093E+01 0. -1.
</event>
<event>
 5   0  0.6153659E-03  0.7894091E+03  0.7818609E-02  0.9575475E-01
        2   -1    0    0  501    0  0.00000000000E+00  0.00000000000E+00  0.77470420280E+03  0.77470420280E+03  0.25500000920E-02 0. -1.
       -2   -1    0    0    0  501  0.00000000000E+00  0.00000000000E+00 -0.20109830043E+03  0.20109830044E+03  0.25500000920E-02 0.  1.
    10030    2    1    2    0    0  0.00000000000E+00  0.00000000000E+00  0.57360590237E+03  0.97580250325E+03  0.78940914240E+03 0.  0.
        2    1    3    3  502    0  0.26887293631E+03 -0.89806355858E+02  0.62630542639E+03  0.68747096271E+03  0.25500000920E-02 0. -1.
       -2    1    3    3    0  502 -0.26887293631E+03  0.89806355858E+02 -0.52699524016E+02  0.28833154054E+03  0.25500000920E-02 0.  1.
</event>
<event>
 5   0  0.6337108E-03  0.8109073E+03  0.7818609E-02  0.9544362E-01
        2   -1    0    0  501    0  0.00000000000E+00  0.00000000000E+00  0.11975808732E+03  0.11975808734E+03  0.25500000920E-02 0. -1.
       -2   -1    0    0    0  501  0.00000000000E+00  0.00000000000E+00 -0.13727063055E+04  0.13727063055E+04  0.25500000920E-02 0.  1.
    10030    2    1    2    0    0  0.00000000000E+00  0.00000000000E+00 -0.12529482182E+04  0.14924643928E+04  0.81090734763E+03 0.  0.
        4    1    3    3  502    0 -0.34281862392E+03 -0.14915714611E+03 -0.91525235100E+03  0.98866624402E+03  0.12699999809E+01 0.  1.
       -4    1    3    3    0  502  0.34281862392E+03  0.14915714611E+03 -0.33769586716E+03  0.50379814881E+03  0.12699999809E+01 0. -1.
</event>
<event>
 5   0  0.3860515E-03  0.7973053E+03  0.7818609E-02  0.9563926E-01
       -1   -1    0    0    0  501  0.00000000000E+00  0.00000000000E+00  0.13825013894E+03  0.13825013903E+03  0.50400001928E-02 0. -1.
        1   -1    0    0  501    0  0.00000000000E+00  0.00000000000E+00 -0.11495389580E+04  0.11495389580E+04  0.50400001928E-02 0.  1.
    10030    2    1    2    0    0  0.00000000000E+00  0.00000000000E+00 -0.10112888190E+04  0.12877890970E+04  0.79730526329E+03 0.  0.
        4    1    3    3  502    0  0.30474943742E+03  0.21597172846E+03 -0.73064905838E+03  0.82058860979E+03  0.12699999809E+01 0. -1.
       -4    1    3    3    0  502 -0.30474943742E+03 -0.21597172846E+03 -0.28063976065E+03  0.46720048722E+03  0.12699999809E+01 0.  1.
</event>
<event>
 5   0  0.5813850E-03  0.8008828E+03  0.7818609E-02  0.9558740E-01
        2   -1    0    0  501    0  0.00000000000E+00  0.00000000000E+00  0.10548322986E+04  0.10548322986E+04  0.25500000920E-02 0. -1.
       -2   -1    0    0    0  501  0.00000000000E+00  0.00000000000E+00 -0.15201780994E+03  0.15201780996E+03  0.25500000920E-02 0.  1.
    10030    2    1    2    0    0  0.00000000000E+00  0.00000000000E+00  0.90281448862E+03  0.12068501085E+04  0.80088275271E+03 0.  0.
        5    1    3    3  502    0  0.15730336669E+03 -0.24660881664E+03  0.39356372781E+02  0.29518006656E+03  0.46999998093E+01 0.  1.
       -5    1    3    3    0  502 -0.15730336669E+03  0.24660881664E+03  0.86345811584E+03  0.91167004197E+03  0.46999998093E+01 0. -1.
</event>
<event>
 5   0  0.6256781E-03  0.8006959E+03  0.7818609E-02  0.9559010E-01
       -2   -1    0    0    0  501  0.00000000000E+00  0.00000000000E+00  0.35013253752E+03  0.35013253753E+03  0.25500000920E-02 0. -1.
        2   -1    0    0  501    0  0.00000000000E+00  0.00000000000E+00 -0.45776514474E+03  0.45776514475E+03  0.25500000920E-02 0.  1.
    10030    2    1    2    0    0  0.00000000000E+00  0.00000000000E+00 -0.10763260722E+03  0.80789768227E+03  0.80069587665E+03 0.  0.
        1    1    3    3  502    0  0.23258834317E+03 -0.32510892604E+03 -0.76044442342E+02  0.40691019698E+03  0.50400001928E-02 0. -1.
       -1    1    3    3    0  502 -0.23258834317E+03  0.32510892604E+03 -0.31588164879E+02  0.40098748529E+03  0.50400001928E-02 0.  1.
</event>
<event>
 5   0  0.3860515E-03  0.8012083E+03  0.7818609E-02  0.9558270E-01
        1   -1    0    0  501    0  0.00000000000E+00  0.00000000000E+00  0.55159605389E+03  0.55159605392E+03  0.50400001928E-02 0. -1.
       -1   -1    0    0    0  501  0.00000000000E+00  0.00000000000E+00 -0.29094425067E+03  0.29094425072E+03  0.50400001928E-02 0.  1.
    10030    2    1    2    0    0  0.00000000000E+00  0.00000000000E+00  0.26065180322E+03  0.84254030463E+03  0.80120833895E+03 0.  0.
        4    1    3    3  502    0 -0.34492904386E+03  0.19500850432E+03  0.19234034982E+03  0.44045520217E+03  0.12699999809E+01 0. -1.
       -4    1    3    3    0  502  0.34492904386E+03 -0.19500850432E+03  0.68311453397E+02  0.40208510246E+03  0.12699999809E+01 0.  1.
</event>
<event>
 5   0  0.2478000E-03  0.7934645E+03  0.7818609E-02  0.9569525E-01
       -3   -1    0    0    0  501  0.00000000000E+00  0.00000000000E+00  0.85094058686E+03  0.85094059285E+03  0.10100000352E+00 0.  1.
        3   -1    0    0  501    0  0.00000000000E+00  0.00000000000E+00 -0.18496763232E+03  0.18496765990E+03  0.10100000352E+00 0. -1.
    10030    2    1    2    0    0  0.00000000000E+00  0.00000000000E+00  0.66597295453E+03  0.10359082527E+04  0.79346451209E+03 0.  0.
        4    1    3    3  502    0 -0.17332492142E+03 -0.42345173335E+02 -0.12962865355E+03  0.22054442367E+03  0.12699999809E+01 0. -1.
       -4    1    3    3    0  502  0.17332492142E+03  0.42345173335E+02  0.79560160808E+03  0.81536382908E+03  0.12699999809E+01 0.  1.
</event>
<event>
 5   0  0.3714448E-03  0.7969405E+03  0.7818609E-02  0.9564456E-01
        1   -1    0    0  501    0  0.00000000000E+00  0.00000000000E+00  0.81867909871E+03  0.81867909872E+03  0.50400001928E-02 0. -1.
       -1   -1    0    0    0  501  0.00000000000E+00  0.00000000000E+00 -0.19394478566E+03  0.19394478573E+03  0.50400001928E-02 0.  1.
    10030    2    1    2    0    0  0.00000000000E+00  0.00000000000E+00  0.62473431305E+03  0.10126238845E+04  0.79694050560E+03 0.  0.
        1    1    3    3  502    0  0.20946256505E+03  0.19293074100E+02 -0.11764944308E+03  0.24101489652E+03  0.50400001928E-02 0.  1.
       -1    1    3    3    0  502 -0.20946256505E+03 -0.19293074100E+02  0.74238375613E+03  0.77160898793E+03  0.50400001928E-02 0. -1.
</event>
<event>
 5   0  0.6337108E-03  0.8019126E+03  0.7818609E-02  0.9557253E-01
       -2   -1    0    0    0  501  0.00000000000E+00  0.00000000000E+00  0.80895502596E+02  0.80895502636E+02  0.25500000920E-02 0.  1.
        2   -1    0    0  501    0  0.00000000000E+00  0.00000000000E+00 -0.19873285746E+04  0.19873285746E+04  0.25500000920E-02 0. -1.
    10030    2    1    2    0    0  0.00000000000E+00  0.00000000000E+00 -0.19064330720E+04  0.20682240772E+04  0.80191257356E+03 0.  0.
        4    1    3    3  502    0 -0.18986133124E+03 -0.53321684379E+02 -0.52836721955E+02  0.20416625385E+03  0.12699999809E+01 0.  1.
       -4    1    3    3    0  502  0.18986133124E+03  0.53321684379E+02 -0.18535963500E+04  0.18640578234E+04  0.12699999809E+01 0. -1.
</event>
<event>
 5   0  0.6536209E-03  0.7984611E+03  0.7818609E-02  0.9562247E-01
        2   -1    0    0  501    0  0.00000000000E+00  0.00000000000E+00  0.97358333978E+03  0.97358333978E+03  0.25500000920E-02 0. -1.
       -2   -1    0    0    0  501  0.00000000000E+00  0.00000000000E+00 -0.16370970033E+03  0.16370970035E+03  0.25500000920E-02 0.  1.
    10030    2    1    2    0    0  0.00000000000E+00  0.00000000000E+00  0.80987363946E+03  0.11372930401E+04  0.79846111192E+03 0.  0.
        3    1    3    3  502    0  0.14354200026E+03 -0.31106387515E+03  0.69691242384E+03  0.77656421303E+03  0.10100000352E+00 0. -1.
       -3    1    3    3    0  502 -0.14354200026E+03  0.31106387515E+03  0.11296121562E+03  0.36072882710E+03  0.10100000352E+00 0.  1.
</event>
<event>
 5   0  0.6153659E-03  0.8055293E+03  0.7818609E-02  0.9552048E-01
       -2   -1    0    0    0  501  0.00000000000E+00  0.00000000000E+00  0.16880671782E+03  0.16880671784E+03  0.25500000920E-02 0.  1.
        2   -1    0    0  501    0  0.00000000000E+00  0.00000000000E+00 -0.96097692703E+03  0.96097692703E+03  0.25500000920E-02 0. -1.
    10030    2    1    2    0    0  0.00000000000E+00  0.00000000000E+00 -0.79217020921E+03  0.11297836449E+04  0.80552929422E+03 0.  0.
        2    1    3    3  502    0 -0.25074199681E+03 -0.31158196237E+03 -0.32934307505E+03  0.51809432474E+03  0.25500000920E-02 0. -1.
       -2    1    3    3    0  502  0.25074199681E+03  0.31158196237E+03 -0.46282713416E+03  0.61168932013E+03  0.25500000920E-02 0.  1.
</event>
<event>
 5   0  0.6153659E-03  0.7994388E+03  0.7818609E-02  0.9560830E-01
       -2   -1    0    0    0  501  0.00000000000E+00  0.00000000000E+00  0.53725039557E+03  0.53725039557E+03  0.25500000920E-02 0.  1.
        2   -1    0    0  501    0  0.00000000000E+00  0.00000000000E+00 -0.29739506374E+03  0.29739506375E+03  0.25500000920E-02 0. -1.
    10030    2    1    2    0    0  0.00000000000E+00  0.00000000000E+00  0.23985533183E+03  0.83464545932E+03  0.79943884229E+03 0.  0.
        2    1    3    3  502    0 -0.17379476995E+03  0.98704558920E+02 -0.24147943089E+03  0.31346375797E+03  0.25500000920E-02 0. -1.
       -2    1    3    3    0  502  0.17379476995E+03 -0.98704558920E+02  0.48133476272E+03  0.52118170135E+03  0.25500000920E-02 0.  1.
</event>
<event>
 5   0  0.6337108E-03  0.8004922E+03  0.7818609E-02  0.9559305E-01
       -2   -1    0    0    0  501  0.00000000000E+00  0.00000000000E+00  0.12488061282E+03  0.12488061285E+03  0.25500000920E-02 0.  1.
        2   -1    0    0  501    0  0.00000000000E+00  0.00000000000E+00 -0.12828006203E+04  0.12828006203E+04  0.25500000920E-02 0. -1.
    10030    2    1    2    0    0  0.00000000000E+00  0.00000000000E+00 -0.11579200075E+04  0.14076812332E+04  0.80049216764E+03 0.  0.
        4    1    3    3  502    0 -0.11555893066E+03  0.20100492478E+03 -0.52445579926E+01  0.23191801252E+03  0.12699999809E+01 0.  1.
       -4    1    3    3    0  502  0.11555893066E+03 -0.20100492478E+03 -0.11526754495E+04  0.11757632207E+04  0.12699999809E+01 0. -1.
</event>
<event>
 5   0  0.5813850E-03  0.7956098E+03  0.7818609E-02  0.9566394E-01
       -2   -1    0    0    0  501  0.00000000000E+00  0.00000000000E+00  0.22651277603E+03  0.22651277605E+03  0.25500000920E-02 0. -1.
        2   -1    0    0  501    0  0.00000000000E+00  0.00000000000E+00 -0.69863058381E+03  0.69863058382E+03  0.25500000920E-02 0.  1.
    10030    2    1    2    0    0  0.00000000000E+00  0.00000000000E+00 -0.47211780778E+03  0.92514335986E+03  0.79560983646E+03 0.  0.
        5    1    3    3  502    0  0.19397804642E+03  0.22136356058E+03 -0.54720000195E+03  0.62135275052E+03  0.46999998093E+01 0.  1.
       -5    1    3    3    0  502 -0.19397804642E+03 -0.22136356058E+03  0.75082194171E+02  0.30379060934E+03  0.46999998093E+01 0. -1.
</event>
<event>
 5   0  0.5813850E-03  0.7873894E+03  0.7818609E-02  0.9578452E-01
        2   -1    0    0  501    0  0.00000000000E+00  0.00000000000E+00  0.85415917165E+03  0.85415917165E+03  0.25500000920E-02 0. -1.
       -2   -1    0    0    0  501  0.00000000000E+00  0.00000000000E+00 -0.18145974411E+03  0.18145974413E+03  0.25500000920E-02 0.  1.
    10030    2    1    2    0    0  0.00000000000E+00  0.00000000000E+00  0.67269942754E+03  0.10356189158E+04  0.78738936932E+03 0.  0.
        5    1    3    3  502    0 -0.31503990530E+03  0.17769437380E+03  0.54073557619E+03  0.65057089219E+03  0.46999998093E+01 0. -1.
       -5    1    3    3    0  502  0.31503990530E+03 -0.17769437380E+03  0.13196385135E+03  0.38504802359E+03  0.46999998093E+01 0.  1.
</event>
<event>
 5   0  0.6536209E-03  0.7932288E+03  0.7818609E-02  0.9569870E-01
       -2   -1    0    0    0  501  0.00000000000E+00  0.00000000000E+00  0.12271740899E+03  0.12271740902E+03  0.25500000920E-02 0.  1.
        2   -1    0    0  501    0  0.00000000000E+00  0.00000000000E+00 -0.12818308863E+04  0.12818308863E+04  0.25500000920E-02 0. -1.
    10030    2    1    2    0    0  0.00000000000E+00  0.00000000000E+00 -0.11591134773E+04  0.14045482954E+04  0.79322875681E+03 0.  0.
        3    1    3    3  502    0  0.26895918559E+03  0.28986490380E+02 -0.65989399716E+02  0.27844904599E+03  0.10100000352E+00 0. -1.
       -3    1    3    3    0  502 -0.26895918559E+03 -0.28986490380E+02 -0.10931240776E+04  0.11260992494E+04  0.10100000352E+00 0.  1.
</event>
<event>
 5   0  0.3860515E-03  0.8019846E+03  0.7818609E-02  0.9557149E-01
       -1   -1    0    0    0  501  0.00000000000E+00  0.00000000000E+00  0.26713014280E+03  0.26713014284E+03  0.50400001928E-02 0. -1.
        1   -1    0    0  501    0  0.00000000000E+00  0.00000000000E+00 -0.60193448383E+03  0.60193448385E+03  0.50400001928E-02 0.  1.
    10030    2    1    2    0    0  0.00000000000E+00  0.00000000000E+00 -0.33480434103E+03  0.86906462670E+03  0.80198464985E+03 0.  0.
        4    1    3    3  502    0  0.27283712160E+03 -0.15471562054E+03  0.10332679700E+03  0.33023485285E+03  0.12699999809E+01 0. -1.
       -4    1    3    3    0  502 -0.27283712160E+03  0.15471562054E+03 -0.43813113804E+03  0.53882977384E+03  0.12699999809E+01 0.  1.
</event>
<event>
 5   0  0.3714448E-03  0.7999113E+03  0.7818609E-02  0.9560146E-01
       -1   -1    0    0    0  501  0.00000000000E+00  0.00000000000E+00  0.57246299696E+03  0.57246299699E+03  0.50400001928E-02 0. -1.
        1   -1    0    0  501    0  0.00000000000E+00  0.00000000000E+00 -0.27943206985E+03  0.27943206989E+03  0.50400001928E-02 0.  1.
    10030    2    1    2    0    0  0.00000000000E+00  0.00000000000E+00  0.29303092712E+03  0.85189506688E+03  0.79991129554E+03 0.  0.
        1    1    3    3  502    0  0.75354128501E+02  0.16593981478E+03  0.52567212617E+03  0.55636808955E+03  0.50400001928E-02 0. -1.
       -1    1    3    3    0  502 -0.75354128501E+02 -0.16593981478E+03 -0.23264119905E+03  0.29552697733E+03  0.50400001928E-02 0.  1.
</event>
<event>
 5   0  0.6153659E-03  0.7988500E+03  0.7818609E-02  0.9561683E-01
        2   -1    0    0  501    0  0.00000000000E+00  0.00000000000E+00  0.55522165179E+03  0.55522165180E+03  0.25500000920E-02 0.  1.
       -2   -1    0    0    0  501  0.00000000000E+00  0.00000000000E+00 -0.28734528967E+03  0.28734528969E+03  0.25500000920E-02 0. -1.
    10030    2    1    2    0    0  0.00000000000E+00  0.00000000000E+00  0.26787636212E+03  0.84256694148E+03  0.79884998936E+03 0.  0.
        2    1    3    3  502    0 -0.30180097056E+03 -0.18491089890E+03 -0.61298370241E+02  0.35921213310E+03  0.25500000920E-02 0. -1.
       -2    1    3    3    0  502  0.30180097056E+03  0.18491089890E+03  0.32917473236E+03  0.48335480839E+03  0.25500000920E-02 0.  1.
</event>
<event>
 5   0  0.6337108E-03  0.7986640E+03  0.7818609E-02  0.9561953E-01
        2   -1    0    0  501    0  0.00000000000E+00  0.00000000000E+00  0.50195104172E+03  0.50195104173E+03  0.25500000920E-02 0. -1.
       -2   -1    0    0    0  501  0.00000000000E+00  0.00000000000E+00 -0.31769244817E+03  0.31769244818E+03  0.25500000920E-02 0.  1.
    10030    2    1    2    0    0  0.00000000000E+00  0.00000000000E+00  0.18425859355E+03  0.81964348991E+03  0.79866402276E+03 0.  0.
        4    1    3    3  502    0 -0.44251881147E+02  0.19153111361E+03 -0.26459604712E+03  0.32962869644E+03  0.12699999809E+01 0.  1.
       -4    1    3    3    0  502  0.44251881147E+02 -0.19153111361E+03  0.44885464067E+03  0.49001479347E+03  0.12699999809E+01 0. -1.
</event>
<event>
 5   0  0.3753450E-03  0.8006952E+03  0.7818609E-02  0.9559011E-01
       -1   -1    0    0    0  501  0.00000000000E+00  0.00000000000E+00  0.88171362502E+02  0.88171362646E+02  0.50400001928E-02 0. -1.
        1   -1    0    0  501    0  0.00000000000E+00  0.00000000000E+00 -0.18178033774E+04  0.18178033774E+04  0.50400001928E-02 0.  1.
    10030    2    1    2    0    0  0.00000000000E+00  0.00000000000E+00 -0.17296320149E+04  0.19059747401E+04  0.80069519967E+03 0.  0.
        5    1    3    3  502    0  0.27537790209E+03  0.27182351357E+03 -0.62049026308E+03  0.73126689249E+03  0.46999998093E+01 0.  1.
       -5    1    3    3    0  502 -0.27537790209E+03 -0.27182351357E+03 -0.11091417518E+04  0.11747078476E+04  0.46999998093E+01 0. -1.
</event>
<event>
 5   0  0.2478000E-03  0.7942697E+03  0.7818609E-02  0.9568349E-01
        3   -1    0    0  501    0  0.00000000000E+00  0.00000000000E+00  0.56872055417E+03  0.56872056314E+03  0.10100000352E+00 0.  1.
       -3   -1    0    0    0  501  0.00000000000E+00  0.00000000000E+00 -0.27731732674E+03  0.27731734513E+03  0.10100000352E+00 0. -1.
    10030    2    1    2    0    0  0.00000000000E+00  0.00000000000E+00  0.29140322743E+03  0.84603790827E+03  0.79426966533E+03 0.  0.
        2    1    3    3  502    0  0.71955645852E+02  0.12451320429E+03  0.54001132697E+03  0.55883216289E+03  0.25500000920E-02 0.  1.
       -2    1    3    3    0  502 -0.71955645852E+02 -0.12451320429E+03 -0.24860809955E+03  0.28720574538E+03  0.25500000920E-02 0. -1.
</event>
<event>
 5   0  0.6256781E-03  0.8001982E+03  0.7818609E-02  0.9559730E-01
        2   -1    0    0  501    0  0.00000000000E+00  0.00000000000E+00  0.19146937486E+04  0.19146937486E+04  0.25500000920E-02 0.  1.
       -2   -1    0    0    0  501  0.00000000000E+00  0.00000000000E+00 -0.83605689371E+02  0.83605689410E+02  0.25500000920E-02 0. -1.
    10030    2    1    2    0    0  0.00000000000E+00  0.00000000000E+00  0.18310880592E+04  0.19982994380E+04  0.80019820251E+03 0.  0.
        1    1    3    3  502    0 -0.24376029198E+03  0.11814899123E+03  0.18022616894E+03  0.32536093200E+03  0.50400001928E-02 0. -1.
       -1    1    3    3    0  502  0.24376029198E+03 -0.11814899123E+03  0.16508618903E+04  0.16729385060E+04  0.50400001928E-02 0.  1.
</event>
<event>
 5   0  0.3753450E-03  0.7967129E+03  0.7818609E-02  0.9564787E-01
        1   -1    0    0  501    0  0.00000000000E+00  0.00000000000E+00  0.81825025950E+03  0.81825025952E+03  0.50400001928E-02 0.  1.
       -1   -1    0    0    0  501  0.00000000000E+00  0.00000000000E+00 -0.19393560290E+03  0.19393560297E+03  0.50400001928E-02 0. -1.
    10030    2    1    2    0    0  0.00000000000E+00  0.00000000000E+00  0.62431465660E+03  0.10121858625E+04  0.79671289043E+03 0.  0.
        5    1    3    3  502    0  0.25477918809E+03  0.21894088822E+03  0.58410010702E+03  0.67382681175E+03  0.46999998093E+01 0.  1.
       -5    1    3    3    0  502 -0.25477918809E+03 -0.21894088822E+03  0.40214549579E+02  0.33835905073E+03  0.46999998093E+01 0. -1.
</event>
<event>
 5   0  0.3860515E-03  0.8022164E+03  0.7818609E-02  0.9556815E-01
       -1   -1    0    0    0  501  0.00000000000E+00  0.00000000000E+00  0.30053439067E+03  0.30053439071E+03  0.50400001928E-02 0. -1.
        1   -1    0    0  501    0  0.00000000000E+00  0.00000000000E+00 -0.53533899933E+03  0.53533899935E+03  0.50400001928E-02 0.  1.
    10030    2    1    2    0    0  0.00000000000E+00  0.00000000000E+00 -0.23480460866E+03  0.83587339006E+03  0.80221637976E+03 0.  0.
        4    1    3    3  502    0  0.59756113329E+02  0.15485378208E+03 -0.49787383435E+03  0.52481468609E+03  0.12699999809E+01 0.  1.
       -4    1    3    3    0  502 -0.59756113329E+02 -0.15485378208E+03  0.26306922569E+03  0.31105870397E+03  0.12699999809E+01 0. -1.
</event>
<event>
 5   0  0.3860515E-03  0.8014460E+03  0.7818609E-02  0.9557926E-01
       -1   -1    0    0    0  501  0.00000000000E+00  0.00000000000E+00  0.33737088382E+03  0.33737088386E+03  0.50400001928E-02 0. -1.
        1   -1    0    0  501    0  0.00000000000E+00  0.00000000000E+00 -0.47597153063E+03  0.47597153065E+03  0.50400001928E-02 0.  1.
    10030    2    1    2    0    0  0.00000000000E+00  0.00000000000E+00 -0.13860064680E+03  0.81334241451E+03  0.80144603309E+03 0.  0.
        4    1    3    3  502    0 -0.64478595259E+02  0.36781203408E+03 -0.21683409389E+03  0.43181224952E+03  0.12699999809E+01 0.  1.
       -4    1    3    3    0  502  0.64478595259E+02 -0.36781203408E+03  0.78233447088E+02  0.38153016500E+03  0.12699999809E+01 0. -1.
</event>
<event>
 5   0  0.3714448E-03  0.8006557E+03  0.7818609E-02  0.9559068E-01
       -1   -1    0    0    0  501  0.00000000000E+00  0.00000000000E+00  0.34906962726E+03  0.34906962730E+03  0.50400001928E-02 0.  1.
        1   -1    0    0  501    0  0.00000000000E+00  0.00000000000E+00 -0.45911300871E+03  0.45911300874E+03  0.50400001928E-02 0. -1.
    10030    2    1    2    0    0  0.00000000000E+00  0.00000000000E+00 -0.11004338145E+03  0.80818263603E+03  0.80065574836E+03 0.  0.
        1    1    3    3  502    0  0.37681650310E+02 -0.20569559398E+03 -0.39959843154E+03  0.45100941306E+03  0.50400001928E-02 0. -1.
       -1    1    3    3    0  502 -0.37681650310E+02  0.20569559398E+03  0.28955505009E+03  0.35717322298E+03  0.50400001928E-02 0.  1.
</event>
<event>
 5   0  0.3714448E-03  0.7996171E+03  0.7818609E-02  0.9560571E-01
        1   -1    0    0  501    0  0.00000000000E+00  0.00000000000E+00  0.79874768181E+03  0.79874768182E+03  0.50400001928E-02 0.  1.
       -1   -1    0    0    0  501  0.00000000000E+00  0.00000000000E+00 -0.20012187553E+03  0.20012187560E+03  0.50400001928E-02 0. -1.
    10030    2    1    2    0    0  0.00000000000E+00  0.00000000000E+00  0.59862580627E+03  0.99886955742E+03  0.79961711888E+03 0.  0.
        1    1    3    3  502    0  0.85573801273E+02  0.27780973921E+03 -0.43578104484E+02  0.29393907171E+03  0.50400001928E-02 0. -1.
       -1    1    3    3    0  502 -0.85573801273E+02 -0.27780973921E+03  0.64220391076E+03  0.70493048571E+03  0.50400001928E-02 0.  1.
</event>
<event>
 5   0  0.2478000E-03  0.8013192E+03  0.7818609E-02  0.9558110E-01
       -4   -1    0    0    0  501  0.00000000000E+00  0.00000000000E+00  0.14009231010E+03  0.14009806655E+03  0.12699999809E+01 0. -1.
        4   -1    0    0  501    0  0.00000000000E+00  0.00000000000E+00 -0.11458442665E+04  0.11458449703E+04  0.12699999809E+01 0.  1.
    10030    2    1    2    0    0  0.00000000000E+00  0.00000000000E+00 -0.10057519564E+04  0.12859430369E+04  0.80131922243E+03 0.  0.
        4    1    3    3  502    0 -0.27009137953E+03  0.28910090359E+03 -0.60434374026E+03  0.72233071031E+03  0.12699999809E+01 0. -1.
       -4    1    3    3    0  502  0.27009137953E+03 -0.28910090359E+03 -0.40140821615E+03  0.56361232656E+03  0.12699999809E+01 0.  1.
</event>
<event>
 5   0  0.3753450E-03  0.7995832E+03  0.7818609E-02  0.9560621E-01
       -1   -1    0    0    0  501  0.00000000000E+00  0.00000000000E+00  0.86668264353E+03  0.86668264354E+03  0.50400001928E-02 0.  1.
        1   -1    0    0  501    0  0.00000000000E+00  0.00000000000E+00 -0.18441965662E+03  0.18441965669E+03  0.50400001928E-02 0. -1.
    10030    2    1    2    0    0  0.00000000000E+00  0.00000000000E+00  0.68226298691E+03  0.10511023002E+04  0.79958318032E+03 0.  0.
        5    1    3    3  502    0 -0.28371046713E+03 -0.13897058238E+03  0.19112509770E+02  0.31653093049E+03  0.46999998093E+01 0. -1.
       -5    1    3    3    0  502  0.28371046713E+03  0.13897058238E+03  0.66315047714E+03  0.73457136975E+03  0.46999998093E+01 0.  1.
</event>
<event>
 5   0  0.6536209E-03  0.7971322E+03  0.7818609E-02  0.9564177E-01
       -2   -1    0    0    0  501  0.00000000000E+00  0.00000000000E+00  0.94812810639E+02  0.94812810673E+02  0.25500000920E-02 0. -1.
        2   -1    0    0  501    0  0.00000000000E+00  0.00000000000E+00 -0.16754586424E+04  0.16754586424E+04  0.25500000920E-02 0.  1.
    10030    2    1    2    0    0  0.00000000000E+00  0.00000000000E+00 -0.15806458317E+04  0.17702714530E+04  0.79713221745E+03 0.  0.
        3    1    3    3  502    0  0.64895793246E+02 -0.16552504254E+03  0.18677956233E+01  0.17780186318E+03  0.10100000352E+00 0. -1.
       -3    1    3    3    0  502 -0.64895793246E+02  0.16552504254E+03 -0.15825136273E+04  0.15924695899E+04  0.10100000352E+00 0.  1.
</event>
<event>
 5   0  0.3627496E-03  0.8014088E+03  0.7818609E-02  0.9557980E-01
        1   -1    0    0  501    0  0.00000000000E+00  0.00000000000E+00  0.56499739356E+03  0.56499739358E+03  0.50400001928E-02 0. -1.
       -1   -1    0    0    0  501  0.00000000000E+00  0.00000000000E+00 -0.28418537828E+03  0.28418537833E+03  0.50400001928E-02 0.  1.
    10030    2    1    2    0    0  0.00000000000E+00  0.00000000000E+00  0.28081201527E+03  0.84918277191E+03  0.80140875475E+03 0.  0.
        3    1    3    3  502    0 -0.35993181231E+03  0.40742961669E+02  0.32194670565E+03  0.48462417389E+03  0.10100000352E+00 0. -1.
       -3    1    3    3    0  502  0.35993181231E+03 -0.40742961669E+02 -0.41134690374E+02  0.36455859802E+03  0.10100000352E+00 0.  1.
</event>
<event>
 5   0  0.2478000E-03  0.7982408E+03  0.7818609E-02  0.9562567E-01
        3   -1    0    0  501    0  0.00000000000E+00  0.00000000000E+00  0.31356925262E+03  0.31356926888E+03  0.10100000352E+00 0.  1.
       -3   -1    0    0    0  501  0.00000000000E+00  0.00000000000E+00 -0.50801249004E+03  0.50801250008E+03  0.10100000352E+00 0. -1.
    10030    2    1    2    0    0  0.00000000000E+00  0.00000000000E+00 -0.19444323742E+03  0.82158176896E+03  0.79824083490E+03 0.  0.
        5    1    3    3  502    0 -0.21789667775E+03  0.33432503409E+03 -0.92304150191E+02  0.40962707032E+03  0.46999998093E+01 0. -1.
       -5    1    3    3    0  502  0.21789667775E+03 -0.33432503409E+03 -0.10213908723E+03  0.41195469864E+03  0.46999998093E+01 0.  1.
</event>
<event>
 5   0  0.2478000E-03  0.7971200E+03  0.7818609E-02  0.9564195E-01
       -4   -1    0    0    0  501  0.00000000000E+00  0.00000000000E+00  0.23072769755E+03  0.23073119277E+03  0.12699999809E+01 0.  1.
        4   -1    0    0  501    0  0.00000000000E+00  0.00000000000E+00 -0.68846487412E+03  0.68846604550E+03  0.12699999809E+01 0. -1.
    10030    2    1    2    0    0  0.00000000000E+00  0.00000000000E+00 -0.45773717658E+03  0.91919723827E+03  0.79711996589E+03 0.  0.
        3    1    3    3  502    0  0.61393984051E+02 -0.99497721088E+02 -0.66824826321E+03  0.67839868018E+03  0.10100000352E+00 0. -1.
       -3    1    3    3    0  502 -0.61393984051E+02  0.99497721088E+02  0.21051108664E+03  0.24079855809E+03  0.10100000352E+00 0.  1.
</event>
<event>
 5   0  0.5813850E-03  0.8024117E+03  0.7818609E-02  0.9556533E-01
       -2   -1    0    0    0  501  0.00000000000E+00  0.00000000000E+00  0.33240015645E+03  0.33240015645E+03  0.25500000920E-02 0.  1.
        2   -1    0    0  501    0  0.00000000000E+00  0.00000000000E+00 -0.48425405578E+03  0.48425405579E+03  0.25500000920E-02 0. -1.
    10030    2    1    2    0    0  0.00000000000E+00  0.00000000000E+00 -0.15185389934E+03  0.81665421224E+03  0.80241167466E+03 0.  0.
        5    1    3    3  502    0  0.16583731013E+03 -0.34284099474E+03  0.52414764737E+02  0.38446242816E+03  0.46999998093E+01 0.  1.
       -5    1    3    3    0  502 -0.16583731013E+03  0.34284099474E+03 -0.20426866407E+03  0.43219178408E+03  0.46999998093E+01 0. -1.
</event>
<event>
 5   0  0.6536209E-03  0.8050228E+03  0.7818609E-02  0.9552775E-01
        2   -1    0    0  501    0  0.00000000000E+00  0.00000000000E+00  0.55927625863E+03  0.55927625863E+03  0.25500000920E-02 0.  1.
       -2   -1    0    0    0  501  0.00000000000E+00  0.00000000000E+00 -0.28968767776E+03  0.28968767778E+03  0.25500000920E-02 0. -1.
    10030    2    1    2    0    0  0.00000000000E+00  0.00000000000E+00  0.26958858086E+03  0.84896393641E+03  0.80502283346E+03 0.  0.
        3    1    3    3  502    0  0.22136728096E+01  0.44648076054E+02  0.55665027347E+03  0.55844237679E+03  0.10100000352E+00 0.  1.
       -3    1    3    3    0  502 -0.22136728096E+01 -0.44648076054E+02 -0.28706169260E+03  0.29052155962E+03  0.10100000352E+00 0. -1.
</event>
<event>
 5   0  0.3714448E-03  0.7999823E+03  0.7818609E-02  0.9560043E-01
        1   -1    0    0  501    0  0.00000000000E+00  0.00000000000E+00  0.33437091614E+03  0.33437091617E+03  0.50400001928E-02 0. -1.
       -1   -1    0    0    0  501  0.00000000000E+00  0.00000000000E+00 -0.47848938837E+03  0.47848938840E+03  0.50400001928E-02 0.  1.
    10030    2    1    2    0    0  0.00000000000E+00  0.00000000000E+00 -0.14411847224E+03  0.81286030457E+03  0.79998233775E+03 0.  0.
        1    1    3    3  502    0 -0.33448367701E+03 -0.17846562342E+03  0.57522623851E+02  0.38345555311E+03  0.50400001928E-02 0. -1.
       -1    1    3    3    0  502  0.33448367701E+03  0.17846562342E+03 -0.20164109609E+03  0.42940475147E+03  0.50400001928E-02 0.  1.
</event>
<event>
 5   0  0.6337108E-03  0.7982845E+03  0.7818609E-02  0.9562504E-01
       -2   -1    0    0    0  501  0.00000000000E+00  0.00000000000E+00  0.35488700386E+03  0.35488700387E+03  0.25500000920E-02 0.  1.
        2   -1    0    0  501    0  0.00000000000E+00  0.00000000000E+00 -0.44891619216E+03  0.44891619217E+03  0.25500000920E-02 0. -1.
    10030    2    1    2    0    0  0.00000000000E+00  0.00000000000E+00 -0.94029188303E+02  0.80380319603E+03  0.79828446665E+03 0.  0.
        4    1    3    3  502    0  0.22638396677E+03  0.32587277763E+03 -0.90558695466E+02  0.40699540272E+03  0.12699999809E+01 0. -1.
       -4    1    3    3    0  502 -0.22638396677E+03 -0.32587277763E+03 -0.34704928365E+01  0.39680779331E+03  0.12699999809E+01 0.  1.
</event>
<event>
 5   0  0.6256781E-03  0.7914086E+03  0.7818609E-02  0.9572537E-01
       -2   -1    0    0    0  501  0.00000000000E+00  0.00000000000E+00  0.56430822100E+03  0.56430822100E+03  0.25500000920E-02 0. -1.
        2   -1    0    0  501    0  0.00000000000E+00  0.00000000000E+00 -0.27747586373E+03  0.27747586375E+03  0.25500000920E-02 0.  1.
    10030    2    1    2    0    0  0.00000000000E+00  0.00000000000E+00  0.28683235726E+03  0.84178408475E+03  0.79140864549E+03 0.  0.
        1    1    3    3  502    0 -0.35265331996E+03 -0.17925946701E+03  0.13369143424E+03  0.41757840007E+03  0.50400001928E-02 0. -1.
       -1    1    3    3    0  502  0.35265331996E+03  0.17925946701E+03  0.15314092302E+03  0.42420568468E+03  0.50400001928E-02 0.  1.
</event>
<event>
 5   0  0.6536209E-03  0.8025257E+03  0.7818609E-02  0.9556368E-01
       -2   -1    0    0    0  501  0.00000000000E+00  0.00000000000E+00  0.14538474296E+04  0.14538474296E+04  0.25500000920E-02 0.  1.
        2   -1    0    0  501    0  0.00000000000E+00  0.00000000000E+00 -0.11074880597E+03  0.11074880600E+03  0.25500000920E-02 0. -1.
    10030    2    1    2    0    0  0.00000000000E+00  0.00000000000E+00  0.13430986236E+04  0.15645962356E+04  0.80252568039E+03 0.  0.
        3    1    3    3  502    0  0.64022858527E+02  0.20101004623E+03  0.13370078690E+04  0.13535486756E+04  0.10100000352E+00 0.  1.
       -3    1    3    3    0  502 -0.64022858527E+02 -0.20101004623E+03  0.60907545911E+01  0.21104756002E+03  0.10100000352E+00 0. -1.
</event>
<event>
 5   0  0.3753450E-03  0.8071322E+03  0.7818609E-02  0.9549751E-01
        1   -1    0    0  501    0  0.00000000000E+00  0.00000000000E+00  0.32538442126E+03  0.32538442130E+03  0.50400001928E-02 0. -1.
       -1   -1    0    0    0  501  0.00000000000E+00  0.00000000000E+00 -0.50053284943E+03  0.50053284945E+03  0.50400001928E-02 0.  1.
    10030    2    1    2    0    0  0.00000000000E+00  0.00000000000E+00 -0.17514842816E+03  0.82591727075E+03  0.80713218635E+03 0.  0.
        5    1    3    3  502    0  0.26543674914E+03 -0.43164144480E+02  0.22029978070E+03  0.34766923150E+03  0.46999998093E+01 0. -1.
       -5    1    3    3    0  502 -0.26543674914E+03  0.43164144480E+02 -0.39544820886E+03  0.47824803925E+03  0.46999998093E+01 0.  1.
</event>
<event>
 5   0  0.3671128E-03  0.8006308E+03  0.7818609E-02  0.9559105E-01
       -1   -1    0    0    0  501  0.00000000000E+00  0.00000000000E+00  0.55117989177E+03  0.55117989179E+03  0.50400001928E-02 0. -1.
        1   -1    0    0  501    0  0.00000000000E+00  0.00000000000E+00 -0.29074428448E+03  0.29074428453E+03  0.50400001928E-02 0.  1.
    10030    2    1    2    0    0  0.00000000000E+00  0.00000000000E+00  0.26043560729E+03  0.84192417632E+03  0.80063075955E+03 0.  0.
        2    1    3    3  502    0 -0.12000158875E+03 -0.22818347262E+03  0.45225485198E+03  0.52057903303E+03  0.25500000920E-02 0.  1.
       -2    1    3    3    0  502  0.12000158875E+03  0.22818347262E+03 -0.19181924469E+03  0.32134514329E+03  0.25500000920E-02 0. -1.
</event>
<event>
 5   0  0.3714448E-03  0.8055289E+03  0.7818609E-02  0.9552049E-01
       -1   -1    0    0    0  501  0.00000000000E+00  0.00000000000E+00  0.80282036935E+03  0.80282036936E+03  0.50400001928E-02 0. -1.
        1   -1    0    0  501    0  0.00000000000E+00  0.00000000000E+00 -0.20206162613E+03  0.20206162619E+03  0.50400001928E-02 0.  1.
    10030    2    1    2    0    0  0.00000000000E+00  0.00000000000E+00  0.60075874322E+03  0.10048819956E+04  0.80552886816E+03 0.  0.
        1    1    3    3  502    0  0.17548539473E+03 -0.10986022155E+03  0.73135617513E+03  0.76009620902E+03  0.50400001928E-02 0. -1.
       -1    1    3    3    0  502 -0.17548539473E+03  0.10986022155E+03 -0.13059743191E+03  0.24478578654E+03  0.50400001928E-02 0.  1.
</event>
<event>
 5   0  0.6153659E-03  0.8013655E+03  0.7818609E-02  0.9558043E-01
        2   -1    0    0  501    0  0.00000000000E+00  0.00000000000E+00  0.59829381678E+03  0.59829381678E+03  0.25500000920E-02 0. -1.
       -2   -1    0    0    0  501  0.00000000000E+00  0.00000000000E+00 -0.26834086728E+03  0.26834086729E+03  0.25500000920E-02 0.  1.
    10030    2    1    2    0    0  0.00000000000E+00  0.00000000000E+00  0.32995294949E+03  0.86663468408E+03  0.80136553879E+03 0.  0.
        2    1    3    3  502    0  0.18387783822E+03  0.30794878249E+03 -0.28185804117E+02  0.35977486236E+03  0.25500000920E-02 0.  1.
       -2    1    3    3    0  502 -0.18387783822E+03 -0.30794878249E+03  0.35813875361E+03  0.50685982172E+03  0.25500000920E-02 0. -1.
</event>
<event>
 5   0  0.6337108E-03  0.7994829E+03  0.7818609E-02  0.9560766E-01
        2   -1    0    0  501    0  0.00000000000E+00  0.00000000000E+00  0.11347016397E+04  0.11347016397E+04  0.25500000920E-02 0. -1.
       -2   -1    0    0    0  501  0.00000000000E+00  0.00000000000E+00 -0.14082399288E+03  0.14082399290E+03  0.25500000920E-02 0.  1.
    10030    2    1    2    0    0  0.00000000000E+00  0.00000000000E+00  0.99387764679E+03  0.12755256326E+04  0.79948287196E+03 0.  0.
        4    1    3    3  502    0 -0.18103110228E+03 -0.33695005496E+03  0.31167550016E+03  0.49340736702E+03  0.12699999809E+01 0.  1.
       -4    1    3    3    0  502  0.18103110228E+03  0.33695005496E+03  0.68220214663E+03  0.78211826555E+03  0.12699999809E+01 0. -1.
</event>
<event>
 5   0  0.3671128E-03  0.7924555E+03  0.7818609E-02  0.9571002E-01
        1   -1    0    0  501    0  0.00000000000E+00  0.00000000000E+00  0.44870480688E+03  0.44870480691E+03  0.50400001928E-02 0. -1.
       -1   -1    0    0    0  501  0.00000000000E+00  0.00000000000E+00 -0.34988802390E+03  0.34988802394E+03  0.50400001928E-02 0.  1.
    10030    2    1    2    0    0  0.00000000000E+00  0.00000000000E+00  0.98816782979E+02  0.79859283085E+03  0.79245552107E+03 0.  0.
        2    1    3    3  502    0  0.14753500176E+03  0.60158952957E+02 -0.31618321233E+03  0.35405861115E+03  0.25500000920E-02 0.  1.
       -2    1    3    3    0  502 -0.14753500176E+03 -0.60158952957E+02  0.41499999531E+03  0.44453421969E+03  0.25500000920E-02 0. -1.
</event>
<event>
 5   0  0.2478000E-03  0.8014886E+03  0.7818609E-02  0.9557865E-01
       -3   -1    0    0    0  501  0.00000000000E+00  0.00000000000E+00  0.35845759959E+03  0.35845761382E+03  0.10100000352E+00 0. -1.
        3   -1    0    0  501    0  0.00000000000E+00  0.00000000000E+00 -0.44801942605E+03  0.44801943743E+03  0.10100000352E+00 0.  1.
    10030    2    1    2    0    0  0.00000000000E+00  0.00000000000E+00 -0.89561826459E+02  0.80647705125E+03  0.80148856101E+03 0.  0.
        3    1    3    3  502    0  0.87211940354E+02  0.39091981915E+03 -0.31594363128E+02  0.40177411754E+03  0.10100000352E+00 0.  1.
       -3    1    3    3    0  502 -0.87211940354E+02 -0.39091981915E+03 -0.57967463331E+02  0.40470293371E+03  0.10100000352E+00 0. -1.
</event>
<event>
 5   0  0.3627496E-03  0.7978107E+03  0.7818609E-02  0.9563191E-01
        1   -1    0    0  501    0  0.00000000000E+00  0.00000000000E+00  0.11029194441E+04  0.11029194441E+04  0.50400001928E-02 0. -1.
       -1   -1    0    0    0  501  0.00000000000E+00  0.00000000000E+00 -0.14427661577E+03  0.14427661586E+03  0.50400001928E-02 0.  1.
    10030    2    1    2    0    0  0.00000000000E+00  0.00000000000E+00  0.95864282828E+03  0.12471960599E+04  0.79781071670E+03 0.  0.
        3    1    3    3  502    0 -0.34402659257E+02 -0.45000606650E+02 -0.13795748058E+03  0.14913374605E+03  0.10100000352E+00 0.  1.
       -3    1    3    3    0  502  0.34402659257E+02  0.45000606650E+02  0.10966003089E+04  0.10980623139E+04  0.10100000352E+00 0. -1.
</event>
<event>
 5   0  0.3671128E-03  0.8017955E+03  0.7818609E-02  0.9557422E-01
       -1   -1    0    0    0  501  0.00000000000E+00  0.00000000000E+00  0.20110169646E+03  0.20110169652E+03  0.50400001928E-02 0. -1.
        1   -1    0    0  501    0  0.00000000000E+00  0.00000000000E+00 -0.79919262256E+03  0.79919262258E+03  0.50400001928E-02 0.  1.
    10030    2    1    2    0    0  0.00000000000E+00  0.00000000000E+00 -0.59809092611E+03  0.10002943191E+04  0.80179546577E+03 0.  0.
        2    1    3    3  502    0  0.26079074645E+03  0.10593208685E+02 -0.67867315716E+03  0.72713223265E+03  0.25500000920E-02 0.  1.
       -2    1    3    3    0  502 -0.26079074645E+03 -0.10593208685E+02  0.80582231054E+02  0.27316208645E+03  0.25500000920E-02 0. -1.
</event>
<event>
 5   0  0.3753450E-03  0.7991592E+03  0.7818609E-02  0.9561235E-01
       -1   -1    0    0    0  501  0.00000000000E+00  0.00000000000E+00  0.74894282567E+03  0.74894282568E+03  0.50400001928E-02 0.  1.
        1   -1    0    0  501    0  0.00000000000E+00  0.00000000000E+00 -0.21318564895E+03  0.21318564901E+03  0.50400001928E-02 0. -1.
    10030    2    1    2    0    0  0.00000000000E+00  0.00000000000E+00  0.53575717671E+03  0.96212847470E+03  0.79915921406E+03 0.  0.
        5    1    3    3  502    0  0.35723331365E+03 -0.16085426424E+03  0.17344874934E+03  0.42848138040E+03  0.46999998093E+01 0. -1.
       -5    1    3    3    0  502 -0.35723331365E+03  0.16085426424E+03  0.36230842738E+03  0.53364709430E+03  0.46999998093E+01 0.  1.
</event>
<event>
 5   0  0.6153659E-03  0.7976322E+03  0.7818609E-02  0.9563451E-01
       -2   -1    0    0    0  501  0.00000000000E+00  0.00000000000E+00  0.28558159243E+03  0.28558159245E+03  0.25500000920E-02 0.  1.
        2   -1    0    0  501    0  0.00000000000E+00  0.00000000000E+00 -0.55694871261E+03  0.55694871262E+03  0.25500000920E-02 0. -1.
    10030    2    1    2    0    0  0.00000000000E+00  0.00000000000E+00 -0.27136712018E+03  0.84253030506E+03  0.79763224674E+03 0.  0.
        2    1    3    3  502    0 -0.35681984996E+03 -0.17385111892E+03 -0.17672530002E+03  0.43448411772E+03  0.25500000920E-02 0.  1.
       -2    1    3    3    0  502  0.35681984996E+03  0.17385111892E+03 -0.94641820153E+02  0.40804618734E+03  0.25500000920E-02 0. -1.
</event>
<event>
 5   0  0.6536209E-03  0.8044055E+03  0.7818609E-02  0.9553662E-01
       -2   -1    0    0    0  501  0.00000000000E+00  0.00000000000E+00  0.44202266667E+03  0.44202266668E+03  0.25500000920E-02 0.  1.
        2   -1    0    0  501    0  0.00000000000E+00  0.00000000000E+00 -0.36597001093E+03  0.36597001094E+03  0.25500000920E-02 0. -1.
    10030    2    1    2    0    0  0.00000000000E+00  0.00000000000E+00  0.76052655740E+02  0.80799267763E+03  0.80440547030E+03 0.  0.
        3    1    3    3  502    0  0.62762110083E+01  0.30184096457E+03 -0.22890236235E+03  0.37887156189E+03  0.10100000352E+00 0. -1.
       -3    1    3    3    0  502 -0.62762110083E+01 -0.30184096457E+03  0.30495501809E+03  0.42912111574E+03  0.10100000352E+00 0.  1.
</event>
<event>
 5   0  0.6153659E-03  0.7902103E+03  0.7818609E-02  0.9574296E-01
        2   -1    0    0  501    0  0.00000000000E+00  0.00000000000E+00  0.15224314273E+04  0.15224314273E+04  0.25500000920E-02 0. -1.
       -2   -1    0    0    0  501  0.00000000000E+00  0.00000000000E+00 -0.10253866573E+03  0.10253866576E+03  0.25500000920E-02 0.  1.
    10030    2    1    2    0    0  0.00000000000E+00  0.00000000000E+00  0.14198927616E+04  0.16249700931E+04  0.79021031947E+03 0.  0.
        2    1    3    3  502    0  0.10816430798E+02  0.24836707159E+03  0.78451576819E+02  0.26068725964E+03  0.25500000920E-02 0.  1.
       -2    1    3    3    0  502 -0.10816430798E+02 -0.24836707159E+03  0.13414411848E+04  0.13642828334E+04  0.25500000920E-02 0. -1.
</event>
<event>
 5   0  0.3627496E-03  0.7943243E+03  0.7818609E-02  0.9568269E-01
        1   -1    0    0  501    0  0.00000000000E+00  0.00000000000E+00  0.13363501767E+04  0.13363501767E+04  0.50400001928E-02 0. -1.
       -1   -1    0    0    0  501  0.00000000000E+00  0.00000000000E+00 -0.11803626225E+03  0.11803626236E+03  0.50400001928E-02 0.  1.
    10030    2    1    2    0    0  0.00000000000E+00  0.00000000000E+00  0.12183139145E+04  0.14543864391E+04  0.79432431665E+03 0.  0.
        3    1    3    3  502    0 -0.35055491049E+03  0.10102071641E+03  0.89658963677E+03  0.96797051473E+03  0.10100000352E+00 0. -1.
       -3    1    3    3    0  502  0.35055491049E+03 -0.10102071641E+03  0.32172427771E+03  0.48641592438E+03  0.10100000352E+00 0.  1.
</event>
<event>
 5   0  0.3753450E-03  0.7979074E+03  0.7818609E-02  0.9563051E-01
       -1   -1    0    0    0  501  0.00000000000E+00  0.00000000000E+00  0.47123163364E+03  0.47123163367E+03  0.50400001928E-02 0.  1.
        1   -1    0    0  501    0  0.00000000000E+00  0.00000000000E+00 -0.33776177900E+03  0.33776177904E+03  0.50400001928E-02 0. -1.
    10030    2    1    2    0    0  0.00000000000E+00  0.00000000000E+00  0.13346985465E+03  0.80899341271E+03  0.79790735033E+03 0.  0.
        5    1    3    3  502    0  0.62987470951E+02  0.36552379368E+03 -0.82162151440E+02  0.37993127585E+03  0.46999998093E+01 0. -1.
       -5    1    3    3    0  502 -0.62987470951E+02 -0.36552379368E+03  0.21563200609E+03  0.42906213686E+03  0.46999998093E+01 0.  1.
</event>
<event>
 5   0  0.5813850E-03  0.7989440E+03  0.7818609E-02  0.9561547E-01
       -2   -1    0    0    0  501  0.00000000000E+00  0.00000000000E+00  0.14371557937E+03  0.14371557939E+03  0.25500000920E-02 0.  1.
        2   -1    0    0  501    0  0.00000000000E+00  0.00000000000E+00 -0.11103728555E+04  0.11103728555E+04  0.25500000920E-02 0. -1.
    10030    2    1    2    0    0  0.00000000000E+00  0.00000000000E+00 -0.96665727614E+03  0.12540884349E+04  0.79894399870E+03 0.  0.
        5    1    3    3  502    0  0.24938779056E+03 -0.30716771146E+03 -0.39721734788E+03  0.56066922913E+03  0.46999998093E+01 0.  1.
       -5    1    3    3    0  502 -0.24938779056E+03  0.30716771146E+03 -0.56943992826E+03  0.69341920578E+03  0.46999998093E+01 0. -1.
</event>
<event>
 5   0  0.3627496E-03  0.7993588E+03  0.7818609E-02  0.9560946E-01
       -1   -1    0    0    0  501  0.00000000000E+00  0.00000000000E+00  0.61652378413E+03  0.61652378415E+03  0.50400001928E-02 0. -1.
        1   -1    0    0  501    0  0.00000000000E+00  0.00000000000E+00 -0.25910377145E+03  0.25910377150E+03  0.50400001928E-02 0.  1.
    10030    2    1    2    0    0  0.00000000000E+00  0.00000000000E+00  0.35742001268E+03  0.87562755564E+03  0.79935883728E+03 0.  0.
        3    1    3    3  502    0 -0.23271698239E+03  0.16503304924E+03  0.48532867841E+03  0.56297161343E+03  0.10100000352E+00 0. -1.
       -3    1    3    3    0  502  0.23271698239E+03 -0.16503304924E+03 -0.12790866573E+03  0.31265594222E+03  0.10100000352E+00 0.  1.
</event>
<event>
 5   0  0.3671128E-03  0.7992888E+03  0.7818609E-02  0.9561047E-01
        1   -1    0    0  501    0  0.00000000000E+00  0.00000000000E+00  0.11464453762E+04  0.11464453762E+04  0.50400001928E-02 0. -1.
       -1   -1    0    0    0  501  0.00000000000E+00  0.00000000000E+00 -0.13931377118E+03  0.13931377127E+03  0.50400001928E-02 0.  1.
    10030    2    1    2    0    0  0.00000000000E+00  0.00000000000E+00  0.10071316050E+04  0.12857591475E+04  0.79928875603E+03 0.  0.
        2    1    3    3  502    0 -0.34809312483E+03 -0.64760183542E+02  0.20541377079E+03  0.40933790707E+03  0.25500000920E-02 0.  1.
       -2    1    3    3    0  502  0.34809312483E+03  0.64760183542E+02  0.80171783421E+03  0.87642124040E+03  0.25500000920E-02 0. -1.
</event>
<event>
 5   0  0.5813850E-03  0.7996562E+03  0.7818609E-02  0.9560515E-01
       -2   -1    0    0    0  501  0.00000000000E+00  0.00000000000E+00  0.14667533044E+03  0.14667533046E+03  0.25500000920E-02 0. -1.
        2   -1    0    0  501    0  0.00000000000E+00  0.00000000000E+00 -0.10899072932E+04  0.10899072932E+04  0.25500000920E-02 0.  1.
    10030    2    1    2    0    0  0.00000000000E+00  0.00000000000E+00 -0.94323196278E+03  0.12365826237E+04  0.79965620711E+03 0.  0.
        5    1    3    3  502    0 -0.20725083856E+02  0.38120029267E+03 -0.65522191918E+03  0.75834098241E+03  0.46999998093E+01 0.  1.
       -5    1    3    3    0  502  0.20725083856E+02 -0.38120029267E+03 -0.28801004360E+03  0.47824164127E+03  0.46999998093E+01 0. -1.
</event>
<event>
 5   0  0.3714448E-03  0.7968612E+03  0.7818609E-02  0.9564572E-01
        1   -1    0    0  501    0  0.00000000000E+00  0.00000000000E+00  0.39052237863E+03  0.39052237866E+03  0.50400001928E-02 0.  1.
       -1   -1    0    0    0  501  0.00000000000E+00  0.00000000000E+00 -0.40649896237E+03  0.40649896240E+03  0.50400001928E-02 0. -1.
    10030    2    1    2    0    0  0.00000000000E+00  0.00000000000E+00 -0.15976583743E+02  0.79702134106E+03  0.79686119675E+03 0.  0.
        1    1    3    3  502    0  0.73963088473E+02 -0.65243081427E+02  0.37812004299E+03  0.39077098801E+03  0.50400001928E-02 0.  1.
       -1    1    3    3    0  502 -0.73963088473E+02  0.65243081427E+02 -0.39409662673E+03  0.40625035306E+03  0.50400001928E-02 0. -1.
</event>
<event>
 5   0  0.6536209E-03  0.7995294E+03  0.7818609E-02  0.9560698E-01
       -2   -1    0    0    0  501  0.00000000000E+00  0.00000000000E+00  0.73164433554E+03  0.73164433555E+03  0.25500000920E-02 0.  1.
        2   -1    0    0  501    0  0.00000000000E+00  0.00000000000E+00 -0.21842829589E+03  0.21842829591E+03  0.25500000920E-02 0. -1.
    10030    2    1    2    0    0  0.00000000000E+00  0.00000000000E+00  0.51321603965E+03  0.95007263145E+03  0.79952942515E+03 0.  0.
        3    1    3    3  502    0  0.24452225560E+03  0.30409008008E+03  0.35985874184E+03  0.53081092168E+03  0.10100000352E+00 0.  1.
       -3    1    3    3    0  502 -0.24452225560E+03 -0.30409008008E+03  0.15335729781E+03  0.41926170978E+03  0.10100000352E+00 0. -1.
</event>
<event>
 5   0  0.6256781E-03  0.7983818E+03  0.7818609E-02  0.9562362E-01
       -2   -1    0    0    0  501  0.00000000000E+00  0.00000000000E+00  0.12613946897E+03  0.12613946899E+03  0.25500000920E-02 0.  1.
        2   -1    0    0  501    0  0.00000000000E+00  0.00000000000E+00 -0.12633109400E+04  0.12633109400E+04  0.25500000920E-02 0. -1.
    10030    2    1    2    0    0  0.00000000000E+00  0.00000000000E+00 -0.11371714711E+04  0.13894504090E+04  0.79838179121E+03 0.  0.
        1    1    3    3  502    0  0.11814169829E+03 -0.29874566924E+02  0.92977695943E+02  0.15328014416E+03  0.50400001928E-02 0.  1.
       -1    1    3    3    0  502 -0.11814169829E+03  0.29874566924E+02 -0.12301491670E+04  0.12361702649E+04  0.50400001928E-02 0. -1.
</event>
<event>
 5   0  0.6536209E-03  0.8023921E+03  0.7818609E-02  0.9556561E-01
        2   -1    0    0  501    0  0.00000000000E+00  0.00000000000E+00  0.43518902681E+03  0.43518902681E+03  0.25500000920E-02 0.  1.
       -2   -1    0    0    0  501  0.00000000000E+00  0.00000000000E+00 -0.36985825945E+03  0.36985825945E+03  0.25500000920E-02 0. -1.
    10030    2    1    2    0    0  0.00000000000E+00  0.00000000000E+00  0.65330767360E+02  0.80504728627E+03  0.80239206375E+03 0.  0.
        3    1    3    3  502    0 -0.31919550954E+03 -0.13638881729E+03 -0.16917329241E+03  0.38614413870E+03  0.10100000352E+00 0. -1.
       -3    1    3    3    0  502  0.31919550954E+03  0.13638881729E+03  0.23450405977E+03  0.41890314756E+03  0.10100000352E+00 0.  1.
</event>
<event>
 5   0  0.2478000E-03  0.7997786E+03  0.7818609E-02  0.9560338E-01
        4   -1    0    0  501    0  0.00000000000E+00  0.00000000000E+00  0.24291062534E+03  0.24291394527E+03  0.12699999809E+01 0.  1.
       -4   -1    0    0    0  501  0.00000000000E+00  0.00000000000E+00 -0.65830547781E+03  0.65830670284E+03  0.12699999809E+01 0. -1.
    10030    2    1    2    0    0  0.00000000000E+00  0.00000000000E+00 -0.41539485246E+03  0.90122064811E+03  0.79977857756E+03 0.  0.
        4    1    3    3  502    0 -0.18402077031E+03  0.13018442722E+03 -0.57989210658E+03  0.62216404362E+03  0.12699999809E+01 0. -1.
       -4    1    3    3    0  502  0.18402077031E+03 -0.13018442722E+03  0.16449725412E+03  0.27905660449E+03  0.12699999809E+01 0.  1.
</event>
<event>
 5   0  0.6337108E-03  0.7940843E+03  0.7818609E-02  0.9568619E-01
        2   -1    0    0  501    0  0.00000000000E+00  0.00000000000E+00  0.92193119777E+03  0.92193119777E+03  0.25500000920E-02 0.  1.
       -2   -1    0    0    0  501  0.00000000000E+00  0.00000000000E+00 -0.17099158900E+03  0.17099158902E+03  0.25500000920E-02 0. -1.
    10030    2    1    2    0    0  0.00000000000E+00  0.00000000000E+00  0.75093960877E+03  0.10929227868E+04  0.79408432919E+03 0.  0.
        4    1    3    3  502    0 -0.20132424274E+03 -0.30347474210E+03  0.15779839631E+03  0.39690089013E+03  0.12699999809E+01 0. -1.
       -4    1    3    3    0  502  0.20132424274E+03  0.30347474210E+03  0.59314121246E+03  0.69602189666E+03  0.12699999809E+01 0.  1.
</event>
<event>
 5   0  0.3627496E-03  0.7949432E+03  0.7818609E-02  0.9567366E-01
       -1   -1    0    0    0  501  0.00000000000E+00  0.00000000000E+00  0.62757754586E+03  0.62757754588E+03  0.50400001928E-02 0.  1.
        1   -1    0    0  501    0  0.00000000000E+00  0.00000000000E+00 -0.25173569870E+03  0.25173569875E+03  0.50400001928E-02 0. -1.
    10030    2    1    2    0    0  0.00000000000E+00  0.00000000000E+00  0.37584184716E+03  0.87931324463E+03  0.79494319804E+03 0.  0.
        3    1    3    3  502    0 -0.33943035402E+03 -0.12691862589E+03  0.73046811307E+01  0.36245644069E+03  0.10100000352E+00 0. -1.
       -3    1    3    3    0  502  0.33943035402E+03  0.12691862589E+03  0.36853716603E+03  0.51685680394E+03  0.10100000352E+00 0.  1.
</event>
<event>
 5   0  0.2478000E-03  0.7984744E+03  0.7818609E-02  0.9562228E-01
       -4   -1    0    0    0  501  0.00000000000E+00  0.00000000000E+00  0.16019791801E+03  0.16020295201E+03  0.12699999809E+01 0. -1.
        4   -1    0    0  501    0  0.00000000000E+00  0.00000000000E+00 -0.99493776805E+03  0.99493857860E+03  0.12699999809E+01 0.  1.
    10030    2    1    2    0    0  0.00000000000E+00  0.00000000000E+00 -0.83473985004E+03  0.11551415306E+04  0.79847438187E+03 0.  0.
        2    1    3    3  502    0  0.34232990970E+02 -0.38279630929E+03 -0.57375540302E+03  0.69057959322E+03  0.25500000920E-02 0. -1.
       -2    1    3    3    0  502 -0.34232990970E+02  0.38279630929E+03 -0.26098444702E+03  0.46456193739E+03  0.25500000920E-02 0.  1.
</event>
<event>
 5   0  0.2478000E-03  0.8001057E+03  0.7818609E-02  0.9559864E-01
        3   -1    0    0  501    0  0.00000000000E+00  0.00000000000E+00  0.65768578545E+03  0.65768579320E+03  0.10100000352E+00 0. -1.
       -3   -1    0    0    0  501  0.00000000000E+00  0.00000000000E+00 -0.24334152340E+03  0.24334154436E+03  0.10100000352E+00 0.  1.
    10030    2    1    2    0    0  0.00000000000E+00  0.00000000000E+00  0.41434426205E+03  0.90102733756E+03  0.80010567773E+03 0.  0.
        4    1    3    3  502    0 -0.11963245471E+03 -0.18963136125E+03 -0.16593181612E+03  0.27893898596E+03  0.12699999809E+01 0.  1.
       -4    1    3    3    0  502  0.11963245471E+03  0.18963136125E+03  0.58027607817E+03  0.62208835159E+03  0.12699999809E+01 0. -1.
</event>
<event>
 5   0  0.2478000E-03  0.7992536E+03  0.7818609E-02  0.9561098E-01
        3   -1    0    0  501    0  0.00000000000E+00  0.00000000000E+00  0.33154681843E+03  0.33154683382E+03  0.10100000352E+00 0.  1.
       -3   -1    0    0    0  501  0.00000000000E+00  0.00000000000E+00 -0.48168626725E+03  0.48168627784E+03  0.10100000352E+00 0. -1.
    10030    2    1    2    0    0  0.00000000000E+00  0.00000000000E+00 -0.15013944881E+03  0.81323311165E+03  0.79925355163E+03 0.  0.
        4    1    3    3  502    0 -0.31985785073E+03  0.97268449626E+02  0.14768814996E+03  0.36549090071E+03  0.12699999809E+01 0.  1.
       -4    1    3    3    0  502  0.31985785073E+03 -0.97268449626E+02 -0.29782759878E+03  0.44774221094E+03  0.12699999809E+01 0. -1.
</event>
<event>
 5   0  0.3753450E-03  0.8213588E+03  0.7818609E-02  0.9529606E-01
       -1   -1    0    0    0  501  0.00000000000E+00  0.00000000000E+00  0.39868677771E+03  0.39868677774E+03  0.50400001928E-02 0.  1.
        1   -1    0    0  501    0  0.00000000000E+00  0.00000000000E+00 -0.42303273230E+03  0.42303273233E+03  0.50400001928E-02 0. -1.
    10030    2    1    2    0    0  0.00000000000E+00  0.00000000000E+00 -0.24345954597E+02  0.82171951007E+03  0.82135876919E+03 0.  0.
        5    1    3    3  502    0  0.28716632734E+03  0.29155252432E+03  0.22019408068E+02  0.40984670100E+03  0.46999998093E+01 0.  1.
       -5    1    3    3    0  502 -0.28716632734E+03 -0.29155252432E+03 -0.46365362665E+02  0.41187280907E+03  0.46999998093E+01 0. -1.
</event>
<event>
 5   0  0.2478000E-03  0.8008115E+03  0.7818609E-02  0.9558843E-01
       -4   -1    0    0    0  501  0.00000000000E+00  0.00000000000E+00  0.10608473693E+04  0.10608481295E+04  0.12699999809E+01 0. -1.
        4   -1    0    0  501    0  0.00000000000E+00  0.00000000000E+00 -0.15112547608E+03  0.15113081228E+03  0.12699999809E+01 0.  1.
    10030    2    1    2    0    0  0.00000000000E+00  0.00000000000E+00  0.90972189325E+03  0.12119789418E+04  0.80081148365E+03 0.  0.
        3    1    3    3  502    0  0.15446871043E+03  0.14510380943E+03 -0.59282985321E+02  0.22006858150E+03  0.10100000352E+00 0.  1.
       -3    1    3    3    0  502 -0.15446871043E+03 -0.14510380943E+03  0.96900487857E+03  0.99191036032E+03  0.10100000352E+00 0. -1.
</event>
<event>
 5   0  0.3627496E-03  0.8019096E+03  0.7818609E-02  0.9557257E-01
        1   -1    0    0  501    0  0.00000000000E+00  0.00000000000E+00  0.48476655543E+03  0.48476655546E+03  0.50400001928E-02 0.  1.
       -1   -1    0    0    0  501  0.00000000000E+00  0.00000000000E+00 -0.33163337828E+03  0.33163337832E+03  0.50400001928E-02 0. -1.
    10030    2    1    2    0    0  0.00000000000E+00  0.00000000000E+00  0.15313317715E+03  0.81639993378E+03  0.80190964699E+03 0.  0.
        3    1    3    3  502    0 -0.16075870620E+03 -0.14310265228E+03  0.42097376777E+03  0.47280086089E+03  0.10100000352E+00 0.  1.
       -3    1    3    3    0  502  0.16075870620E+03  0.14310265228E+03 -0.26784059061E+03  0.34359907289E+03  0.10100000352E+00 0. -1.
</event>
<event>
 5   0  0.3627496E-03  0.7999480E+03  0.7818609E-02  0.9560092E-01
        1   -1    0    0  501    0  0.00000000000E+00  0.00000000000E+00  0.48002258732E+03  0.48002258734E+03  0.50400001928E-02 0. -1.
       -1   -1    0    0    0  501  0.00000000000E+00  0.00000000000E+00 -0.33327429698E+03  0.33327429701E+03  0.50400001928E-02 0.  1.
    10030    2    1    2    0    0  0.00000000000E+00  0.00000000000E+00  0.14674829034E+03  0.81329688436E+03  0.79994797418E+03 0.  0.
        3    1    3    3  502    0 -0.14804208434E+03 -0.36526062285E+03  0.40647136630E+01  0.39414250397E+03  0.10100000352E+00 0. -1.
       -3    1    3    3    0  502  0.14804208434E+03  0.36526062285E+03  0.14268357668E+03  0.41915438038E+03  0.10100000352E+00 0.  1.
</event>
<event>
 5   0  0.5813850E-03  0.8065686E+03  0.7818609E-02  0.9550558E-01
       -2   -1    0    0    0  501  0.00000000000E+00  0.00000000000E+00  0.99233621113E+02  0.99233621146E+02  0.25500000920E-02 0. -1.
        2   -1    0    0  501    0  0.00000000000E+00  0.00000000000E+00 -0.16389425882E+04  0.16389425882E+04  0.25500000920E-02 0.  1.
    10030    2    1    2    0    0  0.00000000000E+00  0.00000000000E+00 -0.15397089671E+04  0.17381762094E+04  0.80656855345E+03 0.  0.
        5    1    3    3  502    0  0.85898467231E+02 -0.33095827640E+03 -0.30914142077E+03  0.46097986445E+03  0.46999998093E+01 0. -1.
       -5    1    3    3    0  502 -0.85898467231E+02  0.33095827640E+03 -0.12305675463E+04  0.12771963449E+04  0.46999998093E+01 0.  1.
</event>
<event>
 5   0  0.3714448E-03  0.7968512E+03  0.7818609E-02  0.9564586E-01
       -1   -1    0    0    0  501  0.00000000000E+00  0.00000000000E+00  0.17127773936E+04  0.17127773936E+04  0.50400001928E-02 0. -1.
        1   -1    0    0  501    0  0.00000000000E+00  0.00000000000E+00 -0.92681597996E+02  0.92681598133E+02  0.50400001928E-02 0.  1.
    10030    2    1    2    0    0  0.00000000000E+00  0.00000000000E+00  0.16200957956E+04  0.18054589918E+04  0.79685116799E+03 0.  0.
        1    1    3    3  502    0 -0.30272793621E+03  0.19529978383E+03  0.42449388637E+03  0.55675961466E+03  0.50400001928E-02 0.  1.
       -1    1    3    3    0  502  0.30272793621E+03 -0.19529978383E+03  0.11956019093E+04  0.12486993771E+04  0.50400001928E-02 0. -1.
</event>
<event>
 5   0  0.3753450E-03  0.7947812E+03  0.7818609E-02  0.9567602E-01
        1   -1    0    0  501    0  0.00000000000E+00  0.00000000000E+00  0.64105836871E+03  0.64105836873E+03  0.50400001928E-02 0. -1.
       -1   -1    0    0    0  501  0.00000000000E+00  0.00000000000E+00 -0.24634150354E+03  0.24634150359E+03  0.50400001928E-02 0.  1.
    10030    2    1    2    0    0  0.00000000000E+00  0.00000000000E+00  0.39471686517E+03  0.88739987233E+03  0.79478118357E+03 0.  0.
        5    1    3    3  502    0 -0.65679968106E+02 -0.29764493182E+03  0.48199967273E+03  0.57030880947E+03  0.46999998093E+01 0. -1.
       -5    1    3    3    0  502  0.65679968106E+02  0.29764493182E+03 -0.87282807555E+02  0.31709106286E+03  0.46999998093E+01 0.  1.
</event>
<event>
 5   0  0.3860515E-03  0.8053402E+03  0.7818609E-02  0.9552319E-01
       -1   -1    0    0    0  501  0.00000000000E+00  0.00000000000E+00  0.38394550533E+03  0.38394550536E+03  0.50400001928E-02 0.  1.
        1   -1    0    0  501    0  0.00000000000E+00  0.00000000000E+00 -0.42230790400E+03  0.42230790403E+03  0.50400001928E-02 0. -1.
    10030    2    1    2    0    0  0.00000000000E+00  0.00000000000E+00 -0.38362398672E+02  0.80625340939E+03  0.80534023029E+03 0.  0.
        4    1    3    3  502    0 -0.98042137384E+02 -0.21459502608E+03  0.30749896882E+03  0.38758291325E+03  0.12699999809E+01 0.  1.
       -4    1    3    3    0  502  0.98042137384E+02  0.21459502608E+03 -0.34586136749E+03  0.41867049614E+03  0.12699999809E+01 0. -1.
</event>
<event>
 5   0  0.3671128E-03  0.8020968E+03  0.7818609E-02  0.9556987E-01
        1   -1    0    0  501    0  0.00000000000E+00  0.00000000000E+00  0.24122797961E+04  0.24122797961E+04  0.50400001928E-02 0. -1.
       -1   -1    0    0    0  501  0.00000000000E+00  0.00000000000E+00 -0.66675432743E+02  0.66675432934E+02  0.50400001928E-02 0.  1.
    10030    2    1    2    0    0  0.00000000000E+00  0.00000000000E+00  0.23456043633E+04  0.24789552290E+04  0.80209675113E+03 0.  0.
        2    1    3    3  502    0 -0.10741361100E+03 -0.19621522756E+02  0.23654555196E+04  0.23679743460E+04  0.25500000920E-02 0. -1.
       -2    1    3    3    0  502  0.10741361100E+03  0.19621522756E+02 -0.19851156288E+02  0.11098088302E+03  0.25500000920E-02 0.  1.
</event>
<event>
 5   0  0.6153659E-03  0.8096810E+03  0.7818609E-02  0.9546109E-01
        2   -1    0    0  501    0  0.00000000000E+00  0.00000000000E+00  0.55777943937E+03  0.55777943938E+03  0.25500000920E-02 0.  1.
       -2   -1    0    0    0  501  0.00000000000E+00  0.00000000000E+00 -0.29383624276E+03  0.29383624277E+03  0.25500000920E-02 0. -1.
    10030    2    1    2    0    0  0.00000000000E+00  0.00000000000E+00  0.26394319661E+03  0.85161568215E+03  0.80968096127E+03 0.  0.
        2    1    3    3  502    0  0.30614035893E+03  0.25824425270E+03  0.19405227089E+03  0.44504864595E+03  0.25500000920E-02 0.  1.
       -2    1    3    3    0  502 -0.30614035893E+03 -0.25824425270E+03  0.69890925718E+02  0.40656703620E+03  0.25500000920E-02 0. -1.
</event>
<event>
 5   0  0.6536209E-03  0.7984332E+03  0.7818609E-02  0.9562288E-01
       -2   -1    0    0    0  501  0.00000000000E+00  0.00000000000E+00  0.36626668089E+03  0.36626668090E+03  0.25500000920E-02 0. -1.
        2   -1    0    0  501    0  0.00000000000E+00  0.00000000000E+00 -0.43513078477E+03  0.43513078478E+03  0.25500000920E-02 0.  1.
    10030    2    1    2    0    0  0.00000000000E+00  0.00000000000E+00 -0.68864103883E+02  0.80139746568E+03  0.79843323653E+03 0.  0.
        3    1    3    3  502    0 -0.18843663225E+03  0.51437096255E+02 -0.38389091968E+03  0.43072774192E+03  0.10100000352E+00 0.  1.
       -3    1    3    3    0  502  0.18843663225E+03 -0.51437096255E+02  0.31502681580E+03  0.37066972376E+03  0.10100000352E+00 0. -1.
</event>
<event>
 5   0  0.6337108E-03  0.7994669E+03  0.7818609E-02  0.9560789E-01
       -2   -1    0    0    0  501  0.00000000000E+00  0.00000000000E+00  0.56514641220E+02  0.56514641277E+02  0.25500000920E-02 0.  1.
        2   -1    0    0  501    0  0.00000000000E+00  0.00000000000E+00 -0.28273525555E+04  0.28273525555E+04  0.25500000920E-02 0. -1.
    10030    2    1    2    0    0  0.00000000000E+00  0.00000000000E+00 -0.27708379143E+04  0.28838671968E+04  0.79946686076E+03 0.  0.
        4    1    3    3  502    0  0.14222276596E+03 -0.26635494298E+03 -0.23303013990E+04  0.23497826483E+04  0.12699999809E+01 0. -1.
       -4    1    3    3    0  502 -0.14222276596E+03  0.26635494298E+03 -0.44053651526E+03  0.53408454854E+03  0.12699999809E+01 0.  1.
</event>
<event>
 5   0  0.3627496E-03  0.8009599E+03  0.7818609E-02  0.9558629E-01
        1   -1    0    0  501    0  0.00000000000E+00  0.00000000000E+00  0.39753923423E+03  0.39753923426E+03  0.50400001928E-02 0. -1.
       -1   -1    0    0    0  501  0.00000000000E+00  0.00000000000E+00 -0.40344240236E+03  0.40344240239E+03  0.50400001928E-02 0.  1.
    10030    2    1    2    0    0  0.00000000000E+00  0.00000000000E+00 -0.59031681294E+01  0.80098163665E+03  0.80095988342E+03 0.  0.
        3    1    3    3  502    0 -0.20828906535E+03 -0.20753718957E+03 -0.27485629052E+03  0.40249473343E+03  0.10100000352E+00 0.  1.
       -3    1    3    3    0  502  0.20828906535E+03  0.20753718957E+03  0.26895312239E+03  0.39848690322E+03  0.10100000352E+00 0. -1.
</event>
<event>
 5   0  0.6256781E-03  0.7998856E+03  0.7818609E-02  0.9560183E-01
       -2   -1    0    0    0  501  0.00000000000E+00  0.00000000000E+00  0.31763465369E+03  0.31763465370E+03  0.25500000920E-02 0.  1.
        2   -1    0    0  501    0  0.00000000000E+00  0.00000000000E+00 -0.50357934432E+03  0.50357934432E+03  0.25500000920E-02 0. -1.
    10030    2    1    2    0    0  0.00000000000E+00  0.00000000000E+00 -0.18594469062E+03  0.82121399803E+03  0.79988561844E+03 0.  0.
        1    1    3    3  502    0 -0.26535250290E+03 -0.89188068516E+02 -0.38622438071E+03  0.47700705932E+03  0.50400001928E-02 0. -1.
       -1    1    3    3    0  502  0.26535250290E+03  0.89188068516E+02  0.20027969009E+03  0.34420693870E+03  0.50400001928E-02 0.  1.
</event>
<event>
 5   0  0.5813850E-03  0.7986419E+03  0.7818609E-02  0.9561985E-01
       -2   -1    0    0    0  501  0.00000000000E+00  0.00000000000E+00  0.10044579606E+03  0.10044579610E+03  0.25500000920E-02 0.  1.
        2   -1    0    0  501    0  0.00000000000E+00  0.00000000000E+00 -0.15874950803E+04  0.15874950803E+04  0.25500000920E-02 0. -1.
    10030    2    1    2    0    0  0.00000000000E+00  0.00000000000E+00 -0.14870492842E+04  0.16879408764E+04  0.79864186496E+03 0.  0.
        5    1    3    3  502    0 -0.26511593341E+03 -0.27857922794E+03 -0.97058997013E+03  0.10440114101E+04  0.46999998093E+01 0.  1.
       -5    1    3    3    0  502  0.26511593341E+03  0.27857922794E+03 -0.51645931410E+03  0.64392946625E+03  0.46999998093E+01 0. -1.
</event>
<event>
 5   0  0.3860515E-03  0.8021470E+03  0.7818609E-02  0.9556915E-01
       -1   -1    0    0    0  501  0.00000000000E+00  0.00000000000E+00  0.23192542537E+03  0.23192542543E+03  0.50400001928E-02 0.  1.
        1   -1    0    0  501    0  0.00000000000E+00  0.00000000000E+00 -0.69358474088E+03  0.69358474090E+03  0.50400001928E-02 0. -1.
    10030    2    1    2    0    0  0.00000000000E+00  0.00000000000E+00 -0.46165931551E+03  0.92551016633E+03  0.80214695934E+03 0.  0.
        4    1    3    3  502    0  0.22131344470E+02 -0.13591716381E+03 -0.66545082803E+03  0.67955109392E+03  0.12699999809E+01 0. -1.
       -4    1    3    3    0  502 -0.22131344470E+02  0.13591716381E+03  0.20379151252E+03  0.24595907241E+03  0.12699999809E+01 0.  1.
</event>
<event>
 5   0  0.3671128E-03  0.8011539E+03  0.7818609E-02  0.9558348E-01
        1   -1    0    0  501    0  0.00000000000E+00  0.00000000000E+00  0.93464843396E+03  0.93464843397E+03  0.50400001928E-02 0. -1.
       -1   -1    0    0    0  501  0.00000000000E+00  0.00000000000E+00 -0.17168154397E+03  0.17168154404E+03  0.50400001928E-02 0.  1.
    10030    2    1    2    0    0  0.00000000000E+00  0.00000000000E+00  0.76296688999E+03  0.11063299780E+04  0.80115388348E+03 0.  0.
        2    1    3    3  502    0 -0.17425866867E+03  0.35829497762E+03  0.43876272463E+03  0.59266694115E+03  0.25500000920E-02 0. -1.
       -2    1    3    3    0  502  0.17425866867E+03 -0.35829497762E+03  0.32420416536E+03  0.51366303687E+03  0.25500000920E-02 0.  1.
</event>
<event>
 5   0  0.3671128E-03  0.7950044E+03  0.7818609E-02  0.9567276E-01
        1   -1    0    0  501    0  0.00000000000E+00  0.00000000000E+00  0.69869464503E+03  0.69869464505E+03  0.50400001928E-02 0.  1.
       -1   -1    0    0    0  501  0.00000000000E+00  0.00000000000E+00 -0.22614744536E+03  0.22614744541E+03  0.50400001928E-02 0. -1.
    10030    2    1    2    0    0  0.00000000000E+00  0.00000000000E+00  0.47254719967E+03  0.92484209047E+03  0.79500442538E+03 0.  0.
        2    1    3    3  502    0 -0.24218648092E+03 -0.70253296343E+02 -0.12118510730E+03  0.27977785371E+03  0.25500000920E-02 0. -1.
       -2    1    3    3    0  502  0.24218648092E+03  0.70253296343E+02  0.59373230698E+03  0.64506423676E+03  0.25500000920E-02 0.  1.
</event>
<event>
 5   0  0.3627496E-03  0.7976661E+03  0.7818609E-02  0.9563401E-01
       -1   -1    0    0    0  501  0.00000000000E+00  0.00000000000E+00  0.34734807622E+03  0.34734807626E+03  0.50400001928E-02 0.  1.
        1   -1    0    0  501    0  0.00000000000E+00  0.00000000000E+00 -0.45794927463E+03  0.45794927466E+03  0.50400001928E-02 0. -1.
    10030    2    1    2    0    0  0.00000000000E+00  0.00000000000E+00 -0.11060119841E+03  0.80529735092E+03  0.79766609450E+03 0.  0.
        3    1    3    3  502    0  0.26403002669E+03 -0.65714265226E+02 -0.34970246505E+03  0.44308243467E+03  0.10100000352E+00 0. -1.
       -3    1    3    3    0  502 -0.26403002669E+03  0.65714265226E+02  0.23910126664E+03  0.36221491625E+03  0.10100000352E+00 0.  1.
</event>
<event>
 5   0  0.3671128E-03  0.7926546E+03  0.7818609E-02  0.9570711E-01
       -1   -1    0    0    0  501  0.00000000000E+00  0.00000000000E+00  0.30073970855E+03  0.30073970859E+03  0.50400001928E-02 0.  1.
        1   -1    0    0  501    0  0.00000000000E+00  0.00000000000E+00 -0.52229663830E+03  0.52229663832E+03  0.50400001928E-02 0. -1.
    10030    2    1    2    0    0  0.00000000000E+00  0.00000000000E+00 -0.22155692974E+03  0.82303634691E+03  0.79265462543E+03 0.  0.
        2    1    3    3  502    0 -0.16505681222E+03  0.12266879368E+03  0.24100515079E+03  0.31681992822E+03  0.25500000920E-02 0.  1.
       -2    1    3    3    0  502  0.16505681222E+03 -0.12266879368E+03 -0.46256208053E+03  0.50621641869E+03  0.25500000920E-02 0. -1.
</event>
<event>
 5   0  0.6153659E-03  0.8016977E+03  0.7818609E-02  0.9557563E-01
       -2   -1    0    0    0  501  0.00000000000E+00  0.00000000000E+00  0.19521173797E+03  0.19521173798E+03  0.25500000920E-02 0. -1.
        2   -1    0    0  501    0  0.00000000000E+00  0.00000000000E+00 -0.82310524394E+03  0.82310524394E+03  0.25500000920E-02 0.  1.
    10030    2    1    2    0    0  0.00000000000E+00  0.00000000000E+00 -0.62789350597E+03  0.10183169819E+04  0.80169771164E+03 0.  0.
        2    1    3    3  502    0  0.10047331621E+03  0.22192635852E+03  0.90395473561E+02  0.25984136993E+03  0.25500000920E-02 0. -1.
       -2    1    3    3    0  502 -0.10047331621E+03 -0.22192635852E+03 -0.71828897953E+03  0.75847561200E+03  0.25500000920E-02 0.  1.
</event>
<event>
 5   0  0.6153659E-03  0.8026562E+03  0.7818609E-02  0.9556180E-01
        2   -1    0    0  501    0  0.00000000000E+00  0.00000000000E+00  0.26838295909E+03  0.26838295911E+03  0.25500000920E-02 0.  1.
       -2   -1    0    0    0  501  0.00000000000E+00  0.00000000000E+00 -0.60012848714E+03  0.60012848715E+03  0.25500000920E-02 0. -1.
    10030    2    1    2    0    0  0.00000000000E+00  0.00000000000E+00 -0.33174552805E+03  0.86851144625E+03  0.80265623831E+03 0.  0.
        2    1    3    3  502    0 -0.30588445872E+03 -0.81466660632E+02  0.10107087195E+03  0.33229119767E+03  0.25500000920E-02 0.  1.
       -2    1    3    3    0  502  0.30588445872E+03  0.81466660632E+02 -0.43281639999E+03  0.53622024859E+03  0.25500000920E-02 0. -1.
</event>
<event>
 5   0  0.6536209E-03  0.7573747E+03  0.7818609E-02  0.9623851E-01
       -2   -1    0    0    0  501  0.00000000000E+00  0.00000000000E+00  0.82571244428E+02  0.82571244467E+02  0.25500000920E-02 0.  1.
        2   -1    0    0  501    0  0.00000000000E+00  0.00000000000E+00 -0.17367316838E+04  0.17367316838E+04  0.25500000920E-02 0. -1.
    10030    2    1    2    0    0  0.00000000000E+00  0.00000000000E+00 -0.16541604394E+04  0.18193029283E+04  0.75737466661E+03 0.  0.
        3    1    3    3  502    0 -0.26821173894E+03  0.20793284674E+03 -0.42347815467E+03  0.54268532627E+03  0.10100000352E+00 0. -1.
       -3    1    3    3    0  502  0.26821173894E+03 -0.20793284674E+03 -0.12306822847E+04  0.12766176020E+04  0.10100000352E+00 0.  1.
</event>
<event>
 5   0  0.2478000E-03  0.8018263E+03  0.7818609E-02  0.9557377E-01
       -3   -1    0    0    0  501  0.00000000000E+00  0.00000000000E+00  0.20692426085E+03  0.20692428550E+03  0.10100000352E+00 0. -1.
        3   -1    0    0  501    0  0.00000000000E+00  0.00000000000E+00 -0.77676403640E+03  0.77676404296E+03  0.10100000352E+00 0.  1.
    10030    2    1    2    0    0  0.00000000000E+00  0.00000000000E+00 -0.56983977555E+03  0.98368832846E+03  0.80182626407E+03 0.  0.
        1    1    3    3  502    0  0.22725463506E+03  0.35891051771E+02 -0.68771445577E+03  0.72517860521E+03  0.50400001928E-02 0.  1.
       -1    1    3    3    0  502 -0.22725463506E+03 -0.35891051771E+02  0.11787468022E+03  0.25850972325E+03  0.50400001928E-02 0. -1.
</event>
<event>
 5   0  0.3860515E-03  0.7974133E+03  0.7818609E-02  0.9563769E-01
       -1   -1    0    0    0  501  0.00000000000E+00  0.00000000000E+00  0.16001082209E+03  0.16001082217E+03  0.50400001928E-02 0. -1.
        1   -1    0    0  501    0  0.00000000000E+00  0.00000000000E+00 -0.99347643669E+03  0.99347643670E+03  0.50400001928E-02 0.  1.
    10030    2    1    2    0    0  0.00000000000E+00  0.00000000000E+00 -0.83346561459E+03  0.11534872589E+04  0.79741327157E+03 0.  0.
        4    1    3    3  502    0  0.15512167357E+03  0.35585405224E+03 -0.28518125676E+03  0.48168952886E+03  0.12699999809E+01 0.  1.
       -4    1    3    3    0  502 -0.15512167357E+03 -0.35585405224E+03 -0.54828435784E+03  0.67179773001E+03  0.12699999809E+01 0. -1.
</event>
<event>
 5   0  0.3671128E-03  0.8026714E+03  0.7818609E-02  0.9556158E-01
        1   -1    0    0  501    0  0.00000000000E+00  0.00000000000E+00  0.40111494047E+03  0.40111494050E+03  0.50400001928E-02 0.  1.
       -1   -1    0    0    0  501  0.00000000000E+00  0.00000000000E+00 -0.40155658354E+03  0.40155658357E+03  0.50400001928E-02 0. -1.
    10030    2    1    2    0    0  0.00000000000E+00  0.00000000000E+00 -0.44164306443E+00  0.80267152407E+03  0.80267140257E+03 0.  0.
        2    1    3    3  502    0  0.14867608404E+03  0.42117494465E+02  0.37017346210E+03  0.40113196501E+03  0.25500000920E-02 0.  1.
       -2    1    3    3    0  502 -0.14867608404E+03 -0.42117494465E+02 -0.37061510517E+03  0.40153955906E+03  0.25500000920E-02 0. -1.
</event>
<event>
 5   0  0.2478000E-03  0.8029257E+03  0.7818609E-02  0.9555792E-01
        3   -1    0    0  501    0  0.00000000000E+00  0.00000000000E+00  0.62911997985E+03  0.62911998796E+03  0.10100000352E+00 0. -1.
       -3   -1    0    0    0  501  0.00000000000E+00  0.00000000000E+00 -0.25618705525E+03  0.25618707516E+03  0.10100000352E+00 0.  1.
    10030    2    1    2    0    0  0.00000000000E+00  0.00000000000E+00  0.37293292460E+03  0.88530706312E+03  0.80292566889E+03 0.  0.
        5    1    3    3  502    0  0.34505132387E+02 -0.48835100373E+02 -0.25121891047E+03  0.25827989114E+03  0.46999998093E+01 0.  1.
       -5    1    3    3    0  502 -0.34505132387E+02  0.48835100373E+02  0.62415183507E+03  0.62702717198E+03  0.46999998093E+01 0. -1.
</event>
<event>
 5   0  0.3671128E-03  0.7993118E+03  0.7818609E-02  0.9561014E-01
       -1   -1    0    0    0  501  0.00000000000E+00  0.00000000000E+00  0.78567299067E+02  0.78567299229E+02  0.50400001928E-02 0.  1.
        1   -1    0    0  501    0  0.00000000000E+00  0.00000000000E+00 -0.20329684495E+04  0.20329684495E+04  0.50400001928E-02 0. -1.
    10030    2    1    2    0    0  0.00000000000E+00  0.00000000000E+00 -0.19544011504E+04  0.21115357487E+04  0.79931180485E+03 0.  0.
        2    1    3    3  502    0  0.30972992405E+03 -0.23053183791E+03 -0.70461574978E+03  0.80346805101E+03  0.25500000920E-02 0.  1.
       -2    1    3    3    0  502 -0.30972992405E+03  0.23053183791E+03 -0.12497854007E+04  0.13080676977E+04  0.25500000920E-02 0. -1.
</event>
<event>
 5   0  0.6536209E-03  0.8008420E+03  0.7818609E-02  0.9558799E-01
       -2   -1    0    0    0  501  0.00000000000E+00  0.00000000000E+00  0.16070937231E+04  0.16070937231E+04  0.25500000920E-02 0. -1.
        2   -1    0    0  501    0  0.00000000000E+00  0.00000000000E+00 -0.99768269938E+02  0.99768269971E+02  0.25500000920E-02 0.  1.
    10030    2    1    2    0    0  0.00000000000E+00  0.00000000000E+00  0.15073254531E+04  0.17068619930E+04  0.80084195796E+03 0.  0.
        3    1    3    3  502    0 -0.70117784648E+02  0.11657304315E+03 -0.49008019734E+02  0.14459451688E+03  0.10100000352E+00 0.  1.
       -3    1    3    3    0  502  0.70117784648E+02 -0.11657304315E+03  0.15563334729E+04  0.15622674762E+04  0.10100000352E+00 0. -1.
</event>
<event>
 5   0  0.6153659E-03  0.8202821E+03  0.7818609E-02  0.9531115E-01
        2   -1    0    0  501    0  0.00000000000E+00  0.00000000000E+00  0.85262629185E+03  0.85262629186E+03  0.25500000920E-02 0.  1.
       -2   -1    0    0    0  501  0.00000000000E+00  0.00000000000E+00 -0.19729122259E+03  0.19729122260E+03  0.25500000920E-02 0. -1.
    10030    2    1    2    0    0  0.00000000000E+00  0.00000000000E+00  0.65533506927E+03  0.10499175145E+04  0.82028210645E+03 0.  0.
        2    1    3    3  502    0  0.31061290383E+03 -0.10529057213E+02  0.67021643829E+03  0.73877013423E+03  0.25500000920E-02 0.  1.
       -2    1    3    3    0  502 -0.31061290383E+03  0.10529057213E+02 -0.14881369023E+02  0.31114738023E+03  0.25500000920E-02 0. -1.
</event>
<event>
 5   0  0.6153659E-03  0.7937007E+03  0.7818609E-02  0.9569180E-01
        2   -1    0    0  501    0  0.00000000000E+00  0.00000000000E+00  0.46491659299E+03  0.46491659300E+03  0.25500000920E-02 0.  1.
       -2   -1    0    0    0  501  0.00000000000E+00  0.00000000000E+00 -0.33874933489E+03  0.33874933490E+03  0.25500000920E-02 0. -1.
    10030    2    1    2    0    0  0.00000000000E+00  0.00000000000E+00  0.12616725810E+03  0.80366592790E+03  0.79370066565E+03 0.  0.
        2    1    3    3  502    0  0.38178029341E+03 -0.85730311042E+02  0.13012908358E+03  0.41235840851E+03  0.25500000920E-02 0.  1.
       -2    1    3    3    0  502 -0.38178029341E+03  0.85730311042E+02 -0.39618254759E+01  0.39130751939E+03  0.25500000920E-02 0. -1.
</event>
<event>
 5   0  0.3671128E-03  0.8003306E+03  0.7818609E-02  0.9559539E-01
       -1   -1    0    0    0  501  0.00000000000E+00  0.00000000000E+00  0.21021043918E+03  0.21021043925E+03  0.50400001928E-02 0. -1.
        1   -1    0    0  501    0  0.00000000000E+00  0.00000000000E+00 -0.76177119745E+03  0.76177119747E+03  0.50400001928E-02 0.  1.
    10030    2    1    2    0    0  0.00000000000E+00  0.00000000000E+00 -0.55156075826E+03  0.97198163671E+03  0.80033057673E+03 0.  0.
        2    1    3    3  502    0  0.25333934867E+03 -0.24552910716E+03 -0.50514227590E+03  0.61614453414E+03  0.25500000920E-02 0.  1.
       -2    1    3    3    0  502 -0.25333934867E+03  0.24552910716E+03 -0.46418482369E+02  0.35583710257E+03  0.25500000920E-02 0. -1.
</event>
<event>
 5   0  0.3753450E-03  0.7948253E+03  0.7818609E-02  0.9567538E-01
       -1   -1    0    0    0  501  0.00000000000E+00  0.00000000000E+00  0.13993102151E+03  0.13993102160E+03  0.50400001928E-02 0.  1.
        1   -1    0    0  501    0  0.00000000000E+00  0.00000000000E+00 -0.11286761884E+04  0.11286761884E+04  0.50400001928E-02 0. -1.
    10030    2    1    2    0    0  0.00000000000E+00  0.00000000000E+00 -0.98874516692E+03  0.12686072101E+04  0.79482529419E+03 0.  0.
        5    1    3    3  502    0 -0.30248343363E+03  0.23077563649E+03 -0.31126699843E+03  0.49159216463E+03  0.46999998093E+01 0.  1.
       -5    1    3    3    0  502  0.30248343363E+03 -0.23077563649E+03 -0.67747816849E+03  0.77701504542E+03  0.46999998093E+01 0. -1.
</event>
<event>
 5   0  0.6256781E-03  0.8005450E+03  0.7818609E-02  0.9559229E-01
       -2   -1    0    0    0  501  0.00000000000E+00  0.00000000000E+00  0.12429811216E+03  0.12429811219E+03  0.25500000920E-02 0. -1.
        2   -1    0    0  501    0  0.00000000000E+00  0.00000000000E+00 -0.12889824678E+04  0.12889824678E+04  0.25500000920E-02 0.  1.
    10030    2    1    2    0    0  0.00000000000E+00  0.00000000000E+00 -0.11646843557E+04  0.14132805800E+04  0.80054503279E+03 0.  0.
        1    1    3    3  502    0 -0.27342330120E+03  0.68825778269E+02 -0.80767795057E+02  0.29329290161E+03  0.50400001928E-02 0. -1.
       -1    1    3    3    0  502  0.27342330120E+03 -0.68825778269E+02 -0.10839165606E+04  0.11199876784E+04  0.50400001928E-02 0.  1.
</event>
<event>
 5   0  0.6536209E-03  0.8041882E+03  0.7818609E-02  0.9553975E-01
        2   -1    0    0  501    0  0.00000000000E+00  0.00000000000E+00  0.47808726203E+03  0.47808726203E+03  0.25500000920E-02 0.  1.
       -2   -1    0    0    0  501  0.00000000000E+00  0.00000000000E+00 -0.33818022123E+03  0.33818022124E+03  0.25500000920E-02 0. -1.
    10030    2    1    2    0    0  0.00000000000E+00  0.00000000000E+00  0.13990704080E+03  0.81626748328E+03  0.80418817710E+03 0.  0.
        3    1    3    3  502    0  0.94555812929E+01  0.40115703830E+03  0.96094356971E+02  0.41261424241E+03  0.10100000352E+00 0.  1.
       -3    1    3    3    0  502 -0.94555812929E+01 -0.40115703830E+03  0.43812683826E+02  0.40365324087E+03  0.10100000352E+00 0. -1.
</event>
<event>
 5   0  0.2478000E-03  0.7955233E+03  0.7818609E-02  0.9566520E-01
        4   -1    0    0  501    0  0.00000000000E+00  0.00000000000E+00  0.76332450879E+03  0.76332556529E+03  0.12699999809E+01 0. -1.
       -4   -1    0    0    0  501  0.00000000000E+00  0.00000000000E+00 -0.20726692580E+03  0.20727081664E+03  0.12699999809E+01 0.  1.
    10030    2    1    2    0    0  0.00000000000E+00  0.00000000000E+00  0.55605758300E+03  0.97059638193E+03  0.79552328753E+03 0.  0.
        4    1    3    3  502    0  0.23049425278E+02 -0.36877861927E+03  0.45768950904E+03  0.58822635576E+03  0.12699999809E+01 0. -1.
       -4    1    3    3    0  502 -0.23049425278E+02  0.36877861927E+03  0.98368073960E+02  0.38237002616E+03  0.12699999809E+01 0.  1.
</event>
<event>
 5   0  0.6536209E-03  0.8010742E+03  0.7818609E-02  0.9558463E-01
        2   -1    0    0  501    0  0.00000000000E+00  0.00000000000E+00  0.18911675624E+04  0.18911675624E+04  0.25500000920E-02 0. -1.
       -2   -1    0    0    0  501  0.00000000000E+00  0.00000000000E+00 -0.84831184806E+02  0.84831184845E+02  0.25500000920E-02 0.  1.
    10030    2    1    2    0    0  0.00000000000E+00  0.00000000000E+00  0.18063363776E+04  0.19759987472E+04  0.80107424131E+03 0.  0.
        3    1    3    3  502    0  0.26026847866E+03  0.22725641517E+03  0.40342940882E+03  0.53116895365E+03  0.10100000352E+00 0.  1.
       -3    1    3    3    0  502 -0.26026847866E+03 -0.22725641517E+03  0.14029069688E+04  0.14448297936E+04  0.10100000352E+00 0. -1.
</event>
<event>
 5   0  0.6153659E-03  0.7960079E+03  0.7818609E-02  0.9565813E-01
        2   -1    0    0  501    0  0.00000000000E+00  0.00000000000E+00  0.39549491703E+03  0.39549491704E+03  0.25500000920E-02 0. -1.
       -2   -1    0    0    0  501  0.00000000000E+00  0.00000000000E+00 -0.40052894760E+03  0.40052894761E+03  0.25500000920E-02 0.  1.
    10030    2    1    2    0    0  0.00000000000E+00  0.00000000000E+00 -0.50340305752E+01  0.79602386465E+03  0.79600794696E+03 0.  0.
        2    1    3    3  502    0  0.23996594897E+03  0.62987400103E+02 -0.31374035526E+03  0.39998009921E+03  0.25500000920E-02 0.  1.
       -2    1    3    3    0  502 -0.23996594897E+03 -0.62987400103E+02  0.30870632468E+03  0.39604376544E+03  0.25500000920E-02 0. -1.
</event>
<event>
 5   0  0.5813850E-03  0.7983504E+03  0.7818609E-02  0.9562408E-01
        2   -1    0    0  501    0  0.00000000000E+00  0.00000000000E+00  0.10413392483E+04  0.10413392483E+04  0.25500000920E-02 0. -1.
       -2   -1    0    0    0  501  0.00000000000E+00  0.00000000000E+00 -0.15301529923E+03  0.15301529925E+03  0.25500000920E-02 0.  1.
    10030    2    1    2    0    0  0.00000000000E+00  0.00000000000E+00  0.88832394908E+03  0.11943545476E+04  0.79835039097E+03 0.  0.
        5    1    3    3  502    0  0.95712136941E+02 -0.37525733217E+03  0.58874259986E+03  0.70471186835E+03  0.46999998093E+01 0. -1.
       -5    1    3    3    0  502 -0.95712136941E+02  0.37525733217E+03  0.29958134922E+03  0.48964267921E+03  0.46999998093E+01 0.  1.
</event>
<event>
 5   0  0.3627496E-03  0.8026586E+03  0.7818609E-02  0.9556177E-01
       -1   -1    0    0    0  501  0.00000000000E+00  0.00000000000E+00  0.53995490246E+03  0.53995490248E+03  0.50400001928E-02 0.  1.
        1   -1    0    0  501    0  0.00000000000E+00  0.00000000000E+00 -0.29829379839E+03  0.29829379844E+03  0.50400001928E-02 0. -1.
    10030    2    1    2    0    0  0.00000000000E+00  0.00000000000E+00  0.24166110406E+03  0.83824870092E+03  0.80265857958E+03 0.  0.
        3    1    3    3  502    0  0.23247200465E+03 -0.19341612752E+03  0.39637050714E+03  0.49856054844E+03  0.10100000352E+00 0.  1.
       -3    1    3    3    0  502 -0.23247200465E+03  0.19341612752E+03 -0.15470940308E+03  0.33968815247E+03  0.10100000352E+00 0. -1.
</event>
<event>
 5   0  0.3753450E-03  0.8000859E+03  0.7818609E-02  0.9559893E-01
        1   -1    0    0  501    0  0.00000000000E+00  0.00000000000E+00  0.12062539253E+04  0.12062539253E+04  0.50400001928E-02 0.  1.
       -1   -1    0    0    0  501  0.00000000000E+00  0.00000000000E+00 -0.13267054631E+03  0.13267054641E+03  0.50400001928E-02 0. -1.
    10030    2    1    2    0    0  0.00000000000E+00  0.00000000000E+00  0.10735833789E+04  0.13389244717E+04  0.80008591370E+03 0.  0.
        5    1    3    3  502    0  0.95144417550E+02 -0.13124054941E+03  0.11487800889E+04  0.11601699551E+04  0.46999998093E+01 0.  1.
       -5    1    3    3    0  502 -0.95144417550E+02  0.13124054941E+03 -0.75196709996E+02  0.17875451656E+03  0.46999998093E+01 0. -1.
</event>
<event>
 5   0  0.6256781E-03  0.8000402E+03  0.7818609E-02  0.9559959E-01
       -2   -1    0    0    0  501  0.00000000000E+00  0.00000000000E+00  0.55796534415E+03  0.55796534416E+03  0.25500000920E-02 0.  1.
        2   -1    0    0  501    0  0.00000000000E+00  0.00000000000E+00 -0.28678500742E+03  0.28678500743E+03  0.25500000920E-02 0. -1.
    10030    2    1    2    0    0  0.00000000000E+00  0.00000000000E+00  0.27118033674E+03  0.84475035159E+03  0.80004023741E+03 0.  0.
        1    1    3    3  502    0 -0.11711177571E+03 -0.15192096156E+03  0.50623574829E+03  0.54135919632E+03  0.50400001928E-02 0.  1.
       -1    1    3    3    0  502  0.11711177571E+03  0.15192096156E+03 -0.23505541155E+03  0.30339115527E+03  0.50400001928E-02 0. -1.
</event>
<event>
 5   0  0.3671128E-03  0.7994977E+03  0.7818609E-02  0.9560744E-01
        1   -1    0    0  501    0  0.00000000000E+00  0.00000000000E+00  0.88341323200E+03  0.88341323202E+03  0.50400001928E-02 0. -1.
       -1   -1    0    0    0  501  0.00000000000E+00  0.00000000000E+00 -0.18088833670E+03  0.18088833677E+03  0.50400001928E-02 0.  1.
    10030    2    1    2    0    0  0.00000000000E+00  0.00000000000E+00  0.70252489530E+03  0.10643015688E+04  0.79949771782E+03 0.  0.
        2    1    3    3  502    0  0.75687564256E+02  0.48931446881E+02 -0.16718683075E+03  0.18993243604E+03  0.25500000920E-02 0.  1.
       -2    1    3    3    0  502 -0.75687564256E+02 -0.48931446881E+02  0.86971172605E+03  0.87436913275E+03  0.25500000920E-02 0. -1.
</event>
<event>
 5   0  0.6153659E-03  0.8003480E+03  0.7818609E-02  0.9559513E-01
       -2   -1    0    0    0  501  0.00000000000E+00  0.00000000000E+00  0.15423759429E+03  0.15423759431E+03  0.25500000920E-02 0.  1.
        2   -1    0    0  501    0  0.00000000000E+00  0.00000000000E+00 -0.10382633566E+04  0.10382633566E+04  0.25500000920E-02 0. -1.
    10030    2    1    2    0    0  0.00000000000E+00  0.00000000000E+00 -0.88402576233E+03  0.11925009509E+04  0.80034803025E+03 0.  0.
        2    1    3    3  502    0 -0.28081324004E+03  0.28113453139E+03 -0.37139135310E+03  0.54389726759E+03  0.25500000920E-02 0.  1.
       -2    1    3    3    0  502  0.28081324004E+03 -0.28113453139E+03 -0.51263440922E+03  0.64860368335E+03  0.25500000920E-02 0. -1.
</event>
<event>
 5   0  0.3714448E-03  0.8181481E+03  0.7818609E-02  0.9534114E-01
       -1   -1    0    0    0  501  0.00000000000E+00  0.00000000000E+00  0.30963676723E+03  0.30963676727E+03  0.50400001928E-02 0. -1.
        1   -1    0    0  501    0  0.00000000000E+00  0.00000000000E+00 -0.54044478227E+03  0.54044478229E+03  0.50400001928E-02 0.  1.
    10030    2    1    2    0    0  0.00000000000E+00  0.00000000000E+00 -0.23080801504E+03  0.85008154956E+03  0.81814809240E+03 0.  0.
        1    1    3    3  502    0  0.20234033460E+02  0.33216008154E+03 -0.36260143131E+03  0.49215803751E+03  0.50400001928E-02 0.  1.
       -1    1    3    3    0  502 -0.20234033460E+02 -0.33216008154E+03  0.13179341627E+03  0.35792351205E+03  0.50400001928E-02 0. -1.
</event>
<event>
 5   0  0.6337108E-03  0.7818803E+03  0.7818609E-02  0.9586621E-01
       -2   -1    0    0    0  501  0.00000000000E+00  0.00000000000E+00  0.33359059622E+03  0.33359059623E+03  0.25500000920E-02 0. -1.
        2   -1    0    0  501    0  0.00000000000E+00  0.00000000000E+00 -0.45814900392E+03  0.45814900392E+03  0.25500000920E-02 0.  1.
    10030    2    1    2    0    0  0.00000000000E+00  0.00000000000E+00 -0.12455840770E+03  0.79173960015E+03  0.78188029616E+03 0.  0.
        4    1    3    3  502    0 -0.38436113065E+03 -0.61837987195E+02 -0.26119378499E+02  0.39018104803E+03  0.12699999809E+01 0. -1.
       -4    1    3    3    0  502  0.38436113065E+03  0.61837987195E+02 -0.98439029199E+02  0.40155855212E+03  0.12699999809E+01 0.  1.
</event>
<event>
 5   0  0.3860515E-03  0.8002851E+03  0.7818609E-02  0.9559605E-01
        1   -1    0    0  501    0  0.00000000000E+00  0.00000000000E+00  0.77282286483E+03  0.77282286484E+03  0.50400001928E-02 0.  1.
       -1   -1    0    0    0  501  0.00000000000E+00  0.00000000000E+00 -0.20718080291E+03  0.20718080298E+03  0.50400001928E-02 0. -1.
    10030    2    1    2    0    0  0.00000000000E+00  0.00000000000E+00  0.56564206191E+03  0.98000366782E+03  0.80028510341E+03 0.  0.
        4    1    3    3  502    0  0.37389921476E+03 -0.94402278743E+02  0.15207272372E+03  0.41453605299E+03  0.12699999809E+01 0.  1.
       -4    1    3    3    0  502 -0.37389921476E+03  0.94402278743E+02  0.41356933819E+03  0.56546761483E+03  0.12699999809E+01 0. -1.
</event>
<event>
 5   0  0.5813850E-03  0.7981841E+03  0.7818609E-02  0.9562649E-01
        2   -1    0    0  501    0  0.00000000000E+00  0.00000000000E+00  0.13262169740E+04  0.13262169740E+04  0.25500000920E-02 0. -1.
       -2   -1    0    0    0  501  0.00000000000E+00  0.00000000000E+00 -0.12009683823E+03  0.12009683826E+03  0.25500000920E-02 0.  1.
    10030    2    1    2    0    0  0.00000000000E+00  0.00000000000E+00  0.12061201358E+04  0.14463138123E+04  0.79818410260E+03 0.  0.
        5    1    3    3  502    0 -0.24000238893E+03  0.12801162764E+03  0.11321663927E+04  0.11643929553E+04  0.46999998093E+01 0. -1.
       -5    1    3    3    0  502  0.24000238893E+03 -0.12801162764E+03  0.73953743071E+02  0.28192085700E+03  0.46999998093E+01 0.  1.
</event>
<event>
 5   0  0.3671128E-03  0.7992997E+03  0.7818609E-02  0.9561031E-01
        1   -1    0    0  501    0  0.00000000000E+00  0.00000000000E+00  0.24433316208E+03  0.24433316213E+03  0.50400001928E-02 0.  1.
       -1   -1    0    0    0  501  0.00000000000E+00  0.00000000000E+00 -0.65369760379E+03  0.65369760381E+03  0.50400001928E-02 0. -1.
    10030    2    1    2    0    0  0.00000000000E+00  0.00000000000E+00 -0.40936444170E+03  0.89803076594E+03  0.79929970002E+03 0.  0.
        2    1    3    3  502    0 -0.13262450457E+03 -0.37110711479E+03 -0.27929501519E+03  0.48302738574E+03  0.25500000920E-02 0. -1.
       -2    1    3    3    0  502  0.13262450457E+03  0.37110711479E+03 -0.13006942651E+03  0.41500338020E+03  0.25500000920E-02 0.  1.
</event>
<event>
 5   0  0.3627496E-03  0.8045869E+03  0.7818609E-02  0.9553401E-01
        1   -1    0    0  501    0  0.00000000000E+00  0.00000000000E+00  0.85016061164E+03  0.85016061165E+03  0.50400001928E-02 0. -1.
       -1   -1    0    0    0  501  0.00000000000E+00  0.00000000000E+00 -0.19036406493E+03  0.19036406500E+03  0.50400001928E-02 0.  1.
    10030    2    1    2    0    0  0.00000000000E+00  0.00000000000E+00  0.65979654671E+03  0.10405246767E+04  0.80458692487E+03 0.  0.
        3    1    3    3  502    0  0.85245900383E+02 -0.15477412193E+03 -0.13749358186E+03  0.22388923066E+03  0.10100000352E+00 0.  1.
       -3    1    3    3    0  502 -0.85245900383E+02  0.15477412193E+03  0.79729012856E+03  0.81663544599E+03  0.10100000352E+00 0. -1.
</event>
<event>
 5   0  0.6256781E-03  0.7986421E+03  0.7818609E-02  0.9561985E-01
       -2   -1    0    0    0  501  0.00000000000E+00  0.00000000000E+00  0.22289669408E+03  0.22289669410E+03  0.25500000920E-02 0.  1.
        2   -1    0    0  501    0  0.00000000000E+00  0.00000000000E+00 -0.71538650839E+03  0.71538650840E+03  0.25500000920E-02 0. -1.
    10030    2    1    2    0    0  0.00000000000E+00  0.00000000000E+00 -0.49248981431E+03  0.93828320250E+03  0.79864206682E+03 0.  0.
        1    1    3    3  502    0  0.17445038392E+03 -0.47300081300E+02 -0.66457510320E+03  0.68871641621E+03  0.50400001928E-02 0. -1.
       -1    1    3    3    0  502 -0.17445038392E+03  0.47300081300E+02  0.17208528889E+03  0.24956678629E+03  0.50400001928E-02 0.  1.
</event>
<event>
 5   0  0.3627496E-03  0.8007041E+03  0.7818609E-02  0.9558999E-01
       -1   -1    0    0    0  501  0.00000000000E+00  0.00000000000E+00  0.62449175127E+03  0.62449175130E+03  0.50400001928E-02 0.  1.
        1   -1    0    0  501    0  0.00000000000E+00  0.00000000000E+00 -0.25665952445E+03  0.25665952450E+03  0.50400001928E-02 0. -1.
    10030    2    1    2    0    0  0.00000000000E+00  0.00000000000E+00  0.36783222683E+03  0.88115127579E+03  0.80070408000E+03 0.  0.
        3    1    3    3  502    0  0.28083565927E+03  0.28527180787E+03  0.19024490543E+03  0.44321756071E+03  0.10100000352E+00 0.  1.
       -3    1    3    3    0  502 -0.28083565927E+03 -0.28527180787E+03  0.17758732139E+03  0.43793371508E+03  0.10100000352E+00 0. -1.
</event>
<event>
 5   0  0.6256781E-03  0.8009716E+03  0.7818609E-02  0.9558612E-01
        2   -1    0    0  501    0  0.00000000000E+00  0.00000000000E+00  0.13019839664E+04  0.13019839664E+04  0.25500000920E-02 0. -1.
       -2   -1    0    0    0  501  0.00000000000E+00  0.00000000000E+00 -0.12318806585E+03  0.12318806587E+03  0.25500000920E-02 0.  1.
    10030    2    1    2    0    0  0.00000000000E+00  0.00000000000E+00  0.11787959006E+04  0.14251720323E+04  0.80097162648E+03 0.  0.
        1    1    3    3  502    0  0.34726213487E+02  0.40183204553E+02 -0.11689450264E+03  0.12839363148E+03  0.50400001928E-02 0.  1.
       -1    1    3    3    0  502 -0.34726213487E+02 -0.40183204553E+02  0.12956904032E+04  0.12967784008E+04  0.50400001928E-02 0. -1.
</event>
<event>
 5   0  0.3627496E-03  0.7968810E+03  0.7818609E-02  0.9564543E-01
       -1   -1    0    0    0  501  0.00000000000E+00  0.00000000000E+00  0.19078219872E+03  0.19078219879E+03  0.50400001928E-02 0. -1.
        1   -1    0    0  501    0  0.00000000000E+00  0.00000000000E+00 -0.83212595355E+03  0.83212595356E+03  0.50400001928E-02 0.  1.
    10030    2    1    2    0    0  0.00000000000E+00  0.00000000000E+00 -0.64134375482E+03  0.10229081524E+04  0.79688096746E+03 0.  0.
        3    1    3    3  502    0  0.23349641006E+03 -0.21312035467E+03 -0.93688395924E+01  0.31627305361E+03  0.10100000352E+00 0. -1.
       -3    1    3    3    0  502 -0.23349641006E+03  0.21312035467E+03 -0.63197491523E+03  0.70663509874E+03  0.10100000352E+00 0.  1.
</event>
<event>
 5   0  0.3753450E-03  0.8000363E+03  0.7818609E-02  0.9559965E-01
        1   -1    0    0  501    0  0.00000000000E+00  0.00000000000E+00  0.93248394716E+03  0.93248394717E+03  0.50400001928E-02 0.  1.
       -1   -1    0    0    0  501  0.00000000000E+00  0.00000000000E+00 -0.17160029826E+03  0.17160029834E+03  0.50400001928E-02 0. -1.
    10030    2    1    2    0    0  0.00000000000E+00  0.00000000000E+00  0.76088364889E+03  0.11040842455E+04  0.80003630795E+03 0.  0.
        5    1    3    3  502    0  0.28745131634E+03 -0.16747748391E+03  0.73974561784E+02  0.34083910086E+03  0.46999998093E+01 0. -1.
       -5    1    3    3    0  502 -0.28745131634E+03  0.16747748391E+03  0.68690908711E+03  0.76324514465E+03  0.46999998093E+01 0.  1.
</event>
<event>
 5   0  0.6337108E-03  0.8052435E+03  0.7818609E-02  0.9552458E-01
       -2   -1    0    0    0  501  0.00000000000E+00  0.00000000000E+00  0.94006900868E+02  0.94006900903E+02  0.25500000920E-02 0. -1.
        2   -1    0    0  501    0  0.00000000000E+00  0.00000000000E+00 -0.17243869705E+04  0.17243869705E+04  0.25500000920E-02 0.  1.
    10030    2    1    2    0    0  0.00000000000E+00  0.00000000000E+00 -0.16303800696E+04  0.18183938714E+04  0.80524350361E+03 0.  0.
        4    1    3    3  502    0 -0.14139718861E+02 -0.19701318705E+03 -0.22926750662E+02  0.19885013532E+03  0.12699999809E+01 0. -1.
       -4    1    3    3    0  502  0.14139718861E+02  0.19701318705E+03 -0.16074533190E+04  0.16195437361E+04  0.12699999809E+01 0.  1.
</event>
<event>
 5   0  0.6153659E-03  0.8015094E+03  0.7818609E-02  0.9557835E-01
       -2   -1    0    0    0  501  0.00000000000E+00  0.00000000000E+00  0.39322641476E+03  0.39322641477E+03  0.25500000920E-02 0.  1.
        2   -1    0    0  501    0  0.00000000000E+00  0.00000000000E+00 -0.40842712016E+03  0.40842712017E+03  0.25500000920E-02 0. -1.
    10030    2    1    2    0    0  0.00000000000E+00  0.00000000000E+00 -0.15200705402E+02  0.80165353494E+03  0.80150940645E+03 0.  0.
        2    1    3    3  502    0 -0.63932563639E+02 -0.35059916439E+02 -0.40173689610E+03  0.40830026222E+03  0.25500000920E-02 0. -1.
       -2    1    3    3    0  502  0.63932563639E+02  0.35059916439E+02  0.38653619070E+03  0.39335327272E+03  0.25500000920E-02 0.  1.
</event>
<event>
 5   0  0.3860515E-03  0.8110927E+03  0.7818609E-02  0.9544098E-01
       -1   -1    0    0    0  501  0.00000000000E+00  0.00000000000E+00  0.57848768001E+03  0.57848768004E+03  0.50400001928E-02 0. -1.
        1   -1    0    0  501    0  0.00000000000E+00  0.00000000000E+00 -0.28430656367E+03  0.28430656371E+03  0.50400001928E-02 0.  1.
    10030    2    1    2    0    0  0.00000000000E+00  0.00000000000E+00  0.29418111635E+03  0.86279424375E+03  0.81109270606E+03 0.  0.
        4    1    3    3  502    0 -0.26439808019E+03  0.25421386442E+03  0.33113716278E+03  0.49415024754E+03  0.12699999809E+01 0. -1.
       -4    1    3    3    0  502  0.26439808019E+03 -0.25421386442E+03 -0.36956046431E+02  0.36864399621E+03  0.12699999809E+01 0.  1.
</event>
<event>
 5   0  0.2478000E-03  0.8028258E+03  0.7818609E-02  0.9555936E-01
       -3   -1    0    0    0  501  0.00000000000E+00  0.00000000000E+00  0.81139835010E+03  0.81139835639E+03  0.10100000352E+00 0. -1.
        3   -1    0    0  501    0  0.00000000000E+00  0.00000000000E+00 -0.19858592785E+03  0.19858595353E+03  0.10100000352E+00 0.  1.
    10030    2    1    2    0    0  0.00000000000E+00  0.00000000000E+00  0.61281242226E+03  0.10099843099E+04  0.80282578522E+03 0.  0.
        4    1    3    3  502    0  0.31275595588E+03 -0.16583863678E+03  0.68334750831E+02  0.36054124931E+03  0.12699999809E+01 0.  1.
       -4    1    3    3    0  502 -0.31275595588E+03  0.16583863678E+03  0.54447767143E+03  0.64944306060E+03  0.12699999809E+01 0. -1.
</event>
<event>
 5   0  0.5813850E-03  0.7997086E+03  0.7818609E-02  0.9560439E-01
       -2   -1    0    0    0  501  0.00000000000E+00  0.00000000000E+00  0.15384514694E+03  0.15384514696E+03  0.25500000920E-02 0. -1.
        2   -1    0    0  501    0  0.00000000000E+00  0.00000000000E+00 -0.10392492114E+04  0.10392492114E+04  0.25500000920E-02 0.  1.
    10030    2    1    2    0    0  0.00000000000E+00  0.00000000000E+00 -0.88540406448E+03  0.11930943584E+04  0.79970856604E+03 0.  0.
        5    1    3    3  502    0 -0.23824214014E+02 -0.38410111651E+03 -0.60449084645E+03  0.71661184355E+03  0.46999998093E+01 0.  1.
       -5    1    3    3    0  502  0.23824214014E+02  0.38410111651E+03 -0.28091321803E+03  0.47648251483E+03  0.46999998093E+01 0. -1.
</event>
<event>
 5   0  0.3860515E-03  0.7919017E+03  0.7818609E-02  0.9571814E-01
        1   -1    0    0  501    0  0.00000000000E+00  0.00000000000E+00  0.23443765440E+04  0.23443765440E+04  0.50400001928E-02 0. -1.
       -1   -1    0    0    0  501  0.00000000000E+00  0.00000000000E+00 -0.66873671000E+02  0.66873671190E+02  0.50400001928E-02 0.  1.
    10030    2    1    2    0    0  0.00000000000E+00  0.00000000000E+00  0.22775028730E+04  0.24112502152E+04  0.79190167556E+03 0.  0.
        4    1    3    3  502    0  0.17999373760E+03 -0.35126124993E+03  0.10427896105E+04  0.11149860967E+04  0.12699999809E+01 0. -1.
       -4    1    3    3    0  502 -0.17999373760E+03  0.35126124993E+03  0.12347132625E+04  0.12962641184E+04  0.12699999809E+01 0.  1.
</event>
<event>
 5   0  0.6337108E-03  0.7984851E+03  0.7818609E-02  0.9562212E-01
        2   -1    0    0  501    0  0.00000000000E+00  0.00000000000E+00  0.20427464989E+03  0.20427464990E+03  0.25500000920E-02 0.  1.
       -2   -1    0    0    0  501  0.00000000000E+00  0.00000000000E+00 -0.78029566451E+03  0.78029566451E+03  0.25500000920E-02 0. -1.
    10030    2    1    2    0    0  0.00000000000E+00  0.00000000000E+00 -0.57602101462E+03  0.98457031441E+03  0.79848512493E+03 0.  0.
        4    1    3    3  502    0 -0.23723581273E+03 -0.29351543838E+03 -0.12742589173E+03  0.39833542924E+03  0.12699999809E+01 0.  1.
       -4    1    3    3    0  502  0.23723581273E+03  0.29351543838E+03 -0.44859512289E+03  0.58623488517E+03  0.12699999809E+01 0. -1.
</event>
<event>
 5   0  0.3671128E-03  0.8001167E+03  0.7818609E-02  0.9559848E-01
        1   -1    0    0  501    0  0.00000000000E+00  0.00000000000E+00  0.16506984609E+04  0.16506984610E+04  0.50400001928E-02 0. -1.
       -1   -1    0    0    0  501  0.00000000000E+00  0.00000000000E+00 -0.96956948864E+02  0.96956948995E+02  0.50400001928E-02 0.  1.
    10030    2    1    2    0    0  0.00000000000E+00  0.00000000000E+00  0.15537415121E+04  0.17476554099E+04  0.80011670746E+03 0.  0.
        2    1    3    3  502    0 -0.22341537325E+03 -0.52555481135E+02  0.61148858472E+02  0.23751987391E+03  0.25500000920E-02 0.  1.
       -2    1    3    3    0  502  0.22341537325E+03  0.52555481135E+02  0.14925926536E+04  0.15101355360E+04  0.25500000920E-02 0. -1.
</event>
<event>
 5   0  0.3671128E-03  0.7987895E+03  0.7818609E-02  0.9561771E-01
       -1   -1    0    0    0  501  0.00000000000E+00  0.00000000000E+00  0.23731996358E+03  0.23731996364E+03  0.50400001928E-02 0. -1.
        1   -1    0    0  501    0  0.00000000000E+00  0.00000000000E+00 -0.67215660602E+03  0.67215660604E+03  0.50400001928E-02 0.  1.
    10030    2    1    2    0    0  0.00000000000E+00  0.00000000000E+00 -0.43483664243E+03  0.90947656968E+03  0.79878953748E+03 0.  0.
        2    1    3    3  502    0 -0.30998423208E+02 -0.39495555619E+03 -0.15975022025E+03  0.42716615793E+03  0.25500000920E-02 0. -1.
       -2    1    3    3    0  502  0.30998423208E+02  0.39495555619E+03 -0.27508642218E+03  0.48231041175E+03  0.25500000920E-02 0.  1.
</event>
<event>
 5   0  0.6153659E-03  0.8012440E+03  0.7818609E-02  0.9558218E-01
        2   -1    0    0  501    0  0.00000000000E+00  0.00000000000E+00  0.85423167023E+03  0.85423167024E+03  0.25500000920E-02 0.  1.
       -2   -1    0    0    0  501  0.00000000000E+00  0.00000000000E+00 -0.18788578754E+03  0.18788578756E+03  0.25500000920E-02 0. -1.
    10030    2    1    2    0    0  0.00000000000E+00  0.00000000000E+00  0.66634588269E+03  0.10421174578E+04  0.80124400807E+03 0.  0.
        2    1    3    3  502    0 -0.47467822324E+02 -0.52721965226E+02  0.84599707858E+03  0.84896634606E+03  0.25500000920E-02 0.  1.
       -2    1    3    3    0  502  0.47467822324E+02  0.52721965226E+02 -0.17965119589E+03  0.19315111173E+03  0.25500000920E-02 0. -1.
</event>
<event>
 5   0  0.3753450E-03  0.7992121E+03  0.7818609E-02  0.9561158E-01
        1   -1    0    0  501    0  0.00000000000E+00  0.00000000000E+00  0.17997680993E+03  0.17997681000E+03  0.50400001928E-02 0. -1.
       -1   -1    0    0    0  501  0.00000000000E+00  0.00000000000E+00 -0.88725314307E+03  0.88725314308E+03  0.50400001928E-02 0.  1.
    10030    2    1    2    0    0  0.00000000000E+00  0.00000000000E+00 -0.70727633314E+03  0.10672299531E+04  0.79921208782E+03 0.  0.
        5    1    3    3  502    0  0.17059701964E+02  0.39358973778E+03 -0.44280718341E+03  0.59270920930E+03  0.46999998093E+01 0.  1.
       -5    1    3    3    0  502 -0.17059701964E+02 -0.39358973778E+03 -0.26446914973E+03  0.47452074377E+03  0.46999998093E+01 0. -1.
</event>
<event>
 5   0  0.3860515E-03  0.7901741E+03  0.7818609E-02  0.9574350E-01
       -1   -1    0    0    0  501  0.00000000000E+00  0.00000000000E+00  0.64304879824E+03  0.64304879826E+03  0.50400001928E-02 0. -1.
        1   -1    0    0  501    0  0.00000000000E+00  0.00000000000E+00 -0.24274019031E+03  0.24274019036E+03  0.50400001928E-02 0.  1.
    10030    2    1    2    0    0  0.00000000000E+00  0.00000000000E+00  0.40030860793E+03  0.88578898863E+03  0.79017412688E+03 0.  0.
        4    1    3    3  502    0 -0.36911997575E+03  0.18660278466E+02  0.35667167534E+03  0.51362832805E+03  0.12699999809E+01 0. -1.
       -4    1    3    3    0  502  0.36911997575E+03 -0.18660278466E+02  0.43636932593E+02  0.37216066057E+03  0.12699999809E+01 0.  1.
</event>
<event>
 5   0  0.3753450E-03  0.8006105E+03  0.7818609E-02  0.9559134E-01
        1   -1    0    0  501    0  0.00000000000E+00  0.00000000000E+00  0.49012029536E+03  0.49012029538E+03  0.50400001928E-02 0. -1.
       -1   -1    0    0    0  501  0.00000000000E+00  0.00000000000E+00 -0.32694886306E+03  0.32694886309E+03  0.50400001928E-02 0.  1.
    10030    2    1    2    0    0  0.00000000000E+00  0.00000000000E+00  0.16317143230E+03  0.81706915848E+03  0.80061045048E+03 0.  0.
        5    1    3    3  502    0  0.16896916780E+03 -0.33238715575E+03 -0.66976017853E+02  0.37886630615E+03  0.46999998093E+01 0. -1.
       -5    1    3    3    0  502 -0.16896916780E+03  0.33238715575E+03  0.23014745015E+03  0.43820285232E+03  0.46999998093E+01 0.  1.
</event>
<event>
 5   0  0.6153659E-03  0.8034167E+03  0.7818609E-02  0.9555085E-01
        2   -1    0    0  501    0  0.00000000000E+00  0.00000000000E+00  0.62344476607E+03  0.62344476608E+03  0.25500000920E-02 0. -1.
       -2   -1    0    0    0  501  0.00000000000E+00  0.00000000000E+00 -0.25883540634E+03  0.25883540635E+03  0.25500000920E-02 0.  1.
    10030    2    1    2    0    0  0.00000000000E+00  0.00000000000E+00  0.36460935974E+03  0.88228017243E+03  0.80341665246E+03 0.  0.
        2    1    3    3  502    0  0.19487045891E+03 -0.19403384560E+03 -0.13926307935E+03  0.30824962980E+03  0.25500000920E-02 0.  1.
       -2    1    3    3    0  502 -0.19487045891E+03  0.19403384560E+03  0.50387243909E+03  0.57403054263E+03  0.25500000920E-02 0. -1.
</event>
<event>
 5   0  0.6153659E-03  0.7977556E+03  0.7818609E-02  0.9563271E-01
        2   -1    0    0  501    0  0.00000000000E+00  0.00000000000E+00  0.89544309868E+03  0.89544309868E+03  0.25500000920E-02 0.  1.
       -2   -1    0    0    0  501  0.00000000000E+00  0.00000000000E+00 -0.17768131779E+03  0.17768131781E+03  0.25500000920E-02 0. -1.
    10030    2    1    2    0    0  0.00000000000E+00  0.00000000000E+00  0.71776178089E+03  0.10731244165E+04  0.79775562621E+03 0.  0.
        2    1    3    3  502    0 -0.24130259870E+02  0.19681399998E+03 -0.10668623568E+03  0.22516654485E+03  0.25500000920E-02 0. -1.
       -2    1    3    3    0  502  0.24130259870E+02 -0.19681399998E+03  0.82444801657E+03  0.84795787163E+03  0.25500000920E-02 0.  1.
</event>
<event>
 5   0  0.3860515E-03  0.7993758E+03  0.7818609E-02  0.9560921E-01
       -1   -1    0    0    0  501  0.00000000000E+00  0.00000000000E+00  0.12269451130E+04  0.12269451130E+04  0.50400001928E-02 0.  1.
        1   -1    0    0  501    0  0.00000000000E+00  0.00000000000E+00 -0.13020177763E+03  0.13020177773E+03  0.50400001928E-02 0. -1.
    10030    2    1    2    0    0  0.00000000000E+00  0.00000000000E+00  0.10967433353E+04  0.13571468907E+04  0.79937584362E+03 0.  0.
        4    1    3    3  502    0 -0.11663408597E+03  0.74850182367E+02  0.11848448042E+04  0.11929228318E+04  0.12699999809E+01 0.  1.
       -4    1    3    3    0  502  0.11663408597E+03 -0.74850182367E+02 -0.88101468827E+02  0.16422405890E+03  0.12699999809E+01 0. -1.
</event>
<event>
 5   0  0.6536209E-03  0.8004048E+03  0.7818609E-02  0.9559431E-01
       -2   -1    0    0    0  501  0.00000000000E+00  0.00000000000E+00  0.99467468375E+02  0.99467468408E+02  0.25500000920E-02 0.  1.
        2   -1    0    0  501    0  0.00000000000E+00  0.00000000000E+00 -0.16101943526E+04  0.16101943526E+04  0.25500000920E-02 0. -1.
    10030    2    1    2    0    0  0.00000000000E+00  0.00000000000E+00 -0.15107268842E+04  0.17096618210E+04  0.80040478727E+03 0.  0.
        3    1    3    3  502    0 -0.89747095333E+02  0.37168526170E+03 -0.50301309892E+03  0.63184385949E+03  0.10100000352E+00 0.  1.
       -3    1    3    3    0  502  0.89747095333E+02 -0.37168526170E+03 -0.10077137853E+04  0.10778179615E+04  0.10100000352E+00 0. -1.
</event>
<event>
 5   0  0.6536209E-03  0.8017610E+03  0.7818609E-02  0.9557472E-01
        2   -1    0    0  501    0  0.00000000000E+00  0.00000000000E+00  0.70709866287E+03  0.70709866287E+03  0.25500000920E-02 0. -1.
       -2   -1    0    0    0  501  0.00000000000E+00  0.00000000000E+00 -0.22727402393E+03  0.22727402395E+03  0.25500000920E-02 0.  1.
    10030    2    1    2    0    0  0.00000000000E+00  0.00000000000E+00  0.47982463894E+03  0.93437268682E+03  0.80176095799E+03 0.  0.
        3    1    3    3  502    0 -0.25440946785E+03  0.21264967859E+03  0.50247964418E+03  0.60202148313E+03  0.10100000352E+00 0. -1.
       -3    1    3    3    0  502  0.25440946785E+03 -0.21264967859E+03 -0.22655005242E+02  0.33235120369E+03  0.10100000352E+00 0.  1.
</event>
<event>
 5   0  0.6337108E-03  0.7993491E+03  0.7818609E-02  0.9560960E-01
        2   -1    0    0  501    0  0.00000000000E+00  0.00000000000E+00  0.15023157634E+03  0.15023157636E+03  0.25500000920E-02 0.  1.
       -2   -1    0    0    0  501  0.00000000000E+00  0.00000000000E+00 -0.10632902023E+04  0.10632902023E+04  0.25500000920E-02 0. -1.
    10030    2    1    2    0    0  0.00000000000E+00  0.00000000000E+00 -0.91305862598E+03  0.12135217787E+04  0.79934914327E+03 0.  0.
        4    1    3    3  502    0  0.14130003268E+03  0.37210404717E+03 -0.40156038903E+03  0.56540205173E+03  0.12699999809E+01 0.  1.
       -4    1    3    3    0  502 -0.14130003268E+03 -0.37210404717E+03 -0.51149823695E+03  0.64811972695E+03  0.12699999809E+01 0. -1.
</event>
<event>
 5   0  0.3860515E-03  0.8011911E+03  0.7818609E-02  0.9558295E-01
        1   -1    0    0  501    0  0.00000000000E+00  0.00000000000E+00  0.13955475757E+04  0.13955475758E+04  0.50400001928E-02 0.  1.
       -1   -1    0    0    0  501  0.00000000000E+00  0.00000000000E+00 -0.11499198564E+03  0.11499198575E+03  0.50400001928E-02 0. -1.
    10030    2    1    2    0    0  0.00000000000E+00  0.00000000000E+00  0.12805555901E+04  0.15105395615E+04  0.80119108052E+03 0.  0.
        4    1    3    3  502    0 -0.12885370845E+03  0.37706981495E+03  0.56276533358E+03  0.68955881337E+03  0.12699999809E+01 0.  1.
       -4    1    3    3    0  502  0.12885370845E+03 -0.37706981495E+03  0.71779025653E+03  0.82098074813E+03  0.12699999809E+01 0. -1.
</event>
<event>
 5   0  0.3860515E-03  0.8042758E+03  0.7818609E-02  0.9553849E-01
       -1   -1    0    0    0  501  0.00000000000E+00  0.00000000000E+00  0.39062768231E+03  0.39062768234E+03  0.50400001928E-02 0.  1.
        1   -1    0    0  501    0  0.00000000000E+00  0.00000000000E+00 -0.41398731614E+03  0.41398731617E+03  0.50400001928E-02 0. -1.
    10030    2    1    2    0    0  0.00000000000E+00  0.00000000000E+00 -0.23359633829E+02  0.80461499851E+03  0.80427583784E+03 0.  0.
        4    1    3    3  502    0 -0.23909845822E+02 -0.58282972906E+01 -0.41323124452E+03  0.41396536585E+03  0.12699999809E+01 0. -1.
       -4    1    3    3    0  502  0.23909845822E+02  0.58282972906E+01  0.38987161069E+03  0.39064963266E+03  0.12699999809E+01 0.  1.
</event>
<event>
 5   0  0.5813850E-03  0.8031277E+03  0.7818609E-02  0.9555501E-01
       -2   -1    0    0    0  501  0.00000000000E+00  0.00000000000E+00  0.28010895486E+03  0.28010895487E+03  0.25500000920E-02 0. -1.
        2   -1    0    0  501    0  0.00000000000E+00  0.00000000000E+00 -0.57568141555E+03  0.57568141555E+03  0.25500000920E-02 0.  1.
    10030    2    1    2    0    0  0.00000000000E+00  0.00000000000E+00 -0.29557246068E+03  0.85579037043E+03  0.80312768512E+03 0.  0.
        5    1    3    3  502    0 -0.75147350533E+02 -0.32070123684E+03 -0.39248532601E+03  0.51240923951E+03  0.46999998093E+01 0.  1.
       -5    1    3    3    0  502  0.75147350533E+02  0.32070123684E+03  0.96912865326E+02  0.34338113092E+03  0.46999998093E+01 0. -1.
</event>
<event>
 5   0  0.3860515E-03  0.8014947E+03  0.7818609E-02  0.9557856E-01
        1   -1    0    0  501    0  0.00000000000E+00  0.00000000000E+00  0.31228703082E+03  0.31228703086E+03  0.50400001928E-02 0.  1.
       -1   -1    0    0    0  501  0.00000000000E+00  0.00000000000E+00 -0.51426553155E+03  0.51426553158E+03  0.50400001928E-02 0. -1.
    10030    2    1    2    0    0  0.00000000000E+00  0.00000000000E+00 -0.20197850073E+03  0.82655256244E+03  0.80149474342E+03 0.  0.
        4    1    3    3  502    0 -0.64061127402E+02 -0.15128600826E+03 -0.47793778724E+03  0.50538839095E+03  0.12699999809E+01 0. -1.
       -4    1    3    3    0  502  0.64061127402E+02  0.15128600826E+03  0.27595928651E+03  0.32116417149E+03  0.12699999809E+01 0.  1.
</event>
<event>
 5   0  0.6536209E-03  0.7994061E+03  0.7818609E-02  0.9560877E-01
       -2   -1    0    0    0  501  0.00000000000E+00  0.00000000000E+00  0.23681367399E+03  0.23681367400E+03  0.25500000920E-02 0.  1.
        2   -1    0    0  501    0  0.00000000000E+00  0.00000000000E+00 -0.67463383131E+03  0.67463383132E+03  0.25500000920E-02 0. -1.
    10030    2    1    2    0    0  0.00000000000E+00  0.00000000000E+00 -0.43782015732E+03  0.91144750532E+03  0.79940607003E+03 0.  0.
        3    1    3    3  502    0 -0.79422531458E+02 -0.38142884305E+02  0.22560404763E+03  0.24219829610E+03  0.10100000352E+00 0.  1.
       -3    1    3    3    0  502  0.79422531458E+02  0.38142884305E+02 -0.66342420495E+03  0.66924920922E+03  0.10100000352E+00 0. -1.
</event>
<event>
 5   0  0.6536209E-03  0.8020692E+03  0.7818609E-02  0.9557027E-01
        2   -1    0    0  501    0  0.00000000000E+00  0.00000000000E+00  0.45427922381E+03  0.45427922382E+03  0.25500000920E-02 0.  1.
       -2   -1    0    0    0  501  0.00000000000E+00  0.00000000000E+00 -0.35403062090E+03  0.35403062091E+03  0.25500000920E-02 0. -1.
    10030    2    1    2    0    0  0.00000000000E+00  0.00000000000E+00  0.10024860290E+03  0.80830984473E+03  0.80206921316E+03 0.  0.
        3    1    3    3  502    0 -0.56343352784E+02  0.15393591219E+03  0.41897465018E+03  0.44990066254E+03  0.10100000352E+00 0.  1.
       -3    1    3    3    0  502  0.56343352784E+02 -0.15393591219E+03 -0.31872604727E+03  0.35840918219E+03  0.10100000352E+00 0. -1.
</event>
<event>
 5   0  0.3860515E-03  0.8003266E+03  0.7818609E-02  0.9559544E-01
        1   -1    0    0  501    0  0.00000000000E+00  0.00000000000E+00  0.11485114191E+04  0.11485114191E+04  0.50400001928E-02 0.  1.
       -1   -1    0    0    0  501  0.00000000000E+00  0.00000000000E+00 -0.13942453299E+03  0.13942453308E+03  0.50400001928E-02 0. -1.
    10030    2    1    2    0    0  0.00000000000E+00  0.00000000000E+00  0.10090868861E+04  0.12879359522E+04  0.80032660410E+03 0.  0.
        4    1    3    3  502    0  0.28914815602E+03 -0.52876096165E+02  0.94150061662E+03  0.98632021255E+03  0.12699999809E+01 0.  1.
       -4    1    3    3    0  502 -0.28914815602E+03  0.52876096165E+02  0.67586269478E+02  0.30161573964E+03  0.12699999809E+01 0. -1.
</event>
<event>
 5   0  0.3627496E-03  0.7976654E+03  0.7818609E-02  0.9563402E-01
       -1   -1    0    0    0  501  0.00000000000E+00  0.00000000000E+00  0.98453789066E+02  0.98453789195E+02  0.50400001928E-02 0. -1.
        1   -1    0    0  501    0  0.00000000000E+00  0.00000000000E+00 -0.16156568799E+04  0.16156568799E+04  0.50400001928E-02 0.  1.
    10030    2    1    2    0    0  0.00000000000E+00  0.00000000000E+00 -0.15172030908E+04  0.17141106691E+04  0.79766544809E+03 0.  0.
        3    1    3    3  502    0 -0.31198123245E+03  0.22478161233E+03 -0.53109639980E+03  0.65568472510E+03  0.10100000352E+00 0. -1.
       -3    1    3    3    0  502  0.31198123245E+03 -0.22478161233E+03 -0.98610669099E+03  0.10584259440E+04  0.10100000352E+00 0.  1.
</event>
<event>
 5   0  0.3860515E-03  0.7988617E+03  0.7818609E-02  0.9561666E-01
       -1   -1    0    0    0  501  0.00000000000E+00  0.00000000000E+00  0.46135871782E+03  0.46135871785E+03  0.50400001928E-02 0.  1.
        1   -1    0    0  501    0  0.00000000000E+00  0.00000000000E+00 -0.34581552952E+03  0.34581552956E+03  0.50400001928E-02 0. -1.
    10030    2    1    2    0    0  0.00000000000E+00  0.00000000000E+00  0.11554318830E+03  0.80717424741E+03  0.79886171351E+03 0.  0.
        4    1    3    3  502    0 -0.19586291261E+02  0.38691427287E+03  0.15603122279E+03  0.41765252632E+03  0.12699999809E+01 0.  1.
       -4    1    3    3    0  502  0.19586291261E+02 -0.38691427287E+03 -0.40488034497E+02  0.38952172108E+03  0.12699999809E+01 0. -1.
</event>
<event>
 5   0  0.5813850E-03  0.8012095E+03  0.7818609E-02  0.9558268E-01
       -2   -1    0    0    0  501  0.00000000000E+00  0.00000000000E+00  0.36704378997E+03  0.36704378998E+03  0.25500000920E-02 0. -1.
        2   -1    0    0  501    0  0.00000000000E+00  0.00000000000E+00 -0.43723441653E+03  0.43723441653E+03  0.25500000920E-02 0.  1.
    10030    2    1    2    0    0  0.00000000000E+00  0.00000000000E+00 -0.70190626552E+02  0.80427820652E+03  0.80120952904E+03 0.  0.
        5    1    3    3  502    0  0.28525842357E+03 -0.90089938491E+02  0.23233360888E+03  0.37880015978E+03  0.46999998093E+01 0. -1.
       -5    1    3    3    0  502 -0.28525842357E+03  0.90089938491E+02 -0.30252423543E+03  0.42547804674E+03  0.46999998093E+01 0.  1.
</event>
<event>
 5   0  0.3860515E-03  0.7970592E+03  0.7818609E-02  0.9564284E-01
        1   -1    0    0  501    0  0.00000000000E+00  0.00000000000E+00  0.19647130391E+04  0.19647130391E+04  0.50400001928E-02 0.  1.
       -1   -1    0    0    0  501  0.00000000000E+00  0.00000000000E+00 -0.80839204266E+02  0.80839204423E+02  0.50400001928E-02 0. -1.
    10030    2    1    2    0    0  0.00000000000E+00  0.00000000000E+00  0.18838738348E+04  0.20455522435E+04  0.79705919192E+03 0.  0.
        4    1    3    3  502    0 -0.32836705574E+03  0.18675040123E+03  0.12678117930E+04  0.13228941723E+04  0.12699999809E+01 0.  1.
       -4    1    3    3    0  502  0.32836705574E+03 -0.18675040123E+03  0.61606204175E+03  0.72265807118E+03  0.12699999809E+01 0. -1.
</event>
<event>
 5   0  0.2478000E-03  0.8005656E+03  0.7818609E-02  0.9559199E-01
        3   -1    0    0  501    0  0.00000000000E+00  0.00000000000E+00  0.53385586503E+03  0.53385587458E+03  0.10100000352E+00 0.  1.
       -3   -1    0    0    0  501  0.00000000000E+00  0.00000000000E+00 -0.30013025077E+03  0.30013026776E+03  0.10100000352E+00 0. -1.
    10030    2    1    2    0    0  0.00000000000E+00  0.00000000000E+00  0.23372561426E+03  0.83398614235E+03  0.80056556437E+03 0.  0.
        2    1    3    3  502    0 -0.18307921868E+03  0.33427947710E+03  0.24430348577E+03  0.45270847385E+03  0.25500000920E-02 0. -1.
       -2    1    3    3    0  502  0.18307921868E+03 -0.33427947710E+03 -0.10577871511E+02  0.38127766850E+03  0.25500000920E-02 0.  1.
</event>
<event>
 5   0  0.3671128E-03  0.7969755E+03  0.7818609E-02  0.9564405E-01
       -1   -1    0    0    0  501  0.00000000000E+00  0.00000000000E+00  0.36415456101E+03  0.36415456104E+03  0.50400001928E-02 0.  1.
        1   -1    0    0  501    0  0.00000000000E+00  0.00000000000E+00 -0.43605798385E+03  0.43605798388E+03  0.50400001928E-02 0. -1.
    10030    2    1    2    0    0  0.00000000000E+00  0.00000000000E+00 -0.71903422844E+02  0.80021254492E+03  0.79697554218E+03 0.  0.
        2    1    3    3  502    0  0.18067066390E+03 -0.29525709351E+03  0.16226811539E+03  0.38229514951E+03  0.25500000920E-02 0. -1.
       -2    1    3    3    0  502 -0.18067066390E+03  0.29525709351E+03 -0.23417153823E+03  0.41791739541E+03  0.25500000920E-02 0.  1.
</event>
<event>
 5   0  0.3753450E-03  0.8016415E+03  0.7818609E-02  0.9557644E-01
        1   -1    0    0  501    0  0.00000000000E+00  0.00000000000E+00  0.30997270948E+03  0.30997270952E+03  0.50400001928E-02 0.  1.
       -1   -1    0    0    0  501  0.00000000000E+00  0.00000000000E+00 -0.51829483486E+03  0.51829483488E+03  0.50400001928E-02 0. -1.
    10030    2    1    2    0    0  0.00000000000E+00  0.00000000000E+00 -0.20832212538E+03  0.82826754441E+03  0.80164145177E+03 0.  0.
        5    1    3    3  502    0 -0.22448460236E+03  0.13272438688E+03 -0.41861503453E+03  0.49322382009E+03  0.46999998093E+01 0. -1.
       -5    1    3    3    0  502  0.22448460236E+03 -0.13272438688E+03  0.21029290915E+03  0.33504372432E+03  0.46999998093E+01 0.  1.
</event>
<event>
 5   0  0.6153659E-03  0.7946631E+03  0.7818609E-02  0.9567774E-01
        2   -1    0    0  501    0  0.00000000000E+00  0.00000000000E+00  0.75768238320E+03  0.75768238320E+03  0.25500000920E-02 0. -1.
       -2   -1    0    0    0  501  0.00000000000E+00  0.00000000000E+00 -0.20836219449E+03  0.20836219451E+03  0.25500000920E-02 0.  1.
    10030    2    1    2    0    0  0.00000000000E+00  0.00000000000E+00  0.54932018871E+03  0.96604457771E+03  0.79466310874E+03 0.  0.
        2    1    3    3  502    0 -0.22082736553E+03  0.37802169217E+01  0.67618570547E+03  0.71134107409E+03  0.25500000920E-02 0. -1.
       -2    1    3    3    0  502  0.22082736553E+03 -0.37802169217E+01 -0.12686551676E+03  0.25470350362E+03  0.25500000920E-02 0.  1.
</event>
<event>
 5   0  0.6337108E-03  0.7994683E+03  0.7818609E-02  0.9560787E-01
       -2   -1    0    0    0  501  0.00000000000E+00  0.00000000000E+00  0.18078508613E+03  0.18078508614E+03  0.25500000920E-02 0. -1.
        2   -1    0    0  501    0  0.00000000000E+00  0.00000000000E+00 -0.88385265304E+03  0.88385265304E+03  0.25500000920E-02 0.  1.
    10030    2    1    2    0    0  0.00000000000E+00  0.00000000000E+00 -0.70306756691E+03  0.10646377392E+04  0.79946826832E+03 0.  0.
        4    1    3    3  502    0 -0.16959610424E+03 -0.31052633452E+03 -0.59922784361E+03  0.69589156085E+03  0.12699999809E+01 0. -1.
       -4    1    3    3    0  502  0.16959610424E+03  0.31052633452E+03 -0.10383972330E+03  0.36874617833E+03  0.12699999809E+01 0.  1.
</event>
<event>
 5   0  0.6536209E-03  0.8023869E+03  0.7818609E-02  0.9556569E-01
       -2   -1    0    0    0  501  0.00000000000E+00  0.00000000000E+00  0.13218328346E+03  0.13218328348E+03  0.25500000920E-02 0.  1.
        2   -1    0    0  501    0  0.00000000000E+00  0.00000000000E+00 -0.12176742190E+04  0.12176742190E+04  0.25500000920E-02 0. -1.
    10030    2    1    2    0    0  0.00000000000E+00  0.00000000000E+00 -0.10854909355E+04  0.13498575024E+04  0.80238688041E+03 0.  0.
        3    1    3    3  502    0  0.26374653305E+03  0.24034776035E+03 -0.23425096061E+03  0.42685220200E+03  0.10100000352E+00 0.  1.
       -3    1    3    3    0  502 -0.26374653305E+03 -0.24034776035E+03 -0.85123997489E+03  0.92300530045E+03  0.10100000352E+00 0. -1.
</event>
<event>
 5   0  0.3860515E-03  0.7999214E+03  0.7818609E-02  0.9560131E-01
        1   -1    0    0  501    0  0.00000000000E+00  0.00000000000E+00  0.88453128156E+03  0.88453128158E+03  0.50400001928E-02 0.  1.
       -1   -1    0    0    0  501  0.00000000000E+00  0.00000000000E+00 -0.18085120522E+03  0.18085120529E+03  0.50400001928E-02 0. -1.
    10030    2    1    2    0    0  0.00000000000E+00  0.00000000000E+00  0.70368007634E+03  0.10653824869E+04  0.79992136706E+03 0.  0.
        4    1    3    3  502    0 -0.35676672293E+03 -0.13570945231E+03  0.19275459107E+03  0.42761606063E+03  0.12699999809E+01 0.  1.
       -4    1    3    3    0  502  0.35676672293E+03  0.13570945231E+03  0.51092548527E+03  0.63776642624E+03  0.12699999809E+01 0. -1.
</event>
<event>
 5   0  0.3627496E-03  0.7995969E+03  0.7818609E-02  0.9560601E-01
        1   -1    0    0  501    0  0.00000000000E+00  0.00000000000E+00  0.17135889366E+03  0.17135889374E+03  0.50400001928E-02 0. -1.
       -1   -1    0    0    0  501  0.00000000000E+00  0.00000000000E+00 -0.93277218818E+03  0.93277218819E+03  0.50400001928E-02 0.  1.
    10030    2    1    2    0    0  0.00000000000E+00  0.00000000000E+00 -0.76141329452E+03  0.11041310819E+04  0.79959692409E+03 0.  0.
        3    1    3    3  502    0 -0.21454183920E+03 -0.33415693929E+03 -0.31668270534E+03  0.50791436966E+03  0.10100000352E+00 0. -1.
       -3    1    3    3    0  502  0.21454183920E+03  0.33415693929E+03 -0.44473058918E+03  0.59621671227E+03  0.10100000352E+00 0.  1.
</event>
<event>
 5   0  0.3753450E-03  0.7997472E+03  0.7818609E-02  0.9560383E-01
       -1   -1    0    0    0  501  0.00000000000E+00  0.00000000000E+00  0.17181181655E+04  0.17181181655E+04  0.50400001928E-02 0. -1.
        1   -1    0    0  501    0  0.00000000000E+00  0.00000000000E+00 -0.93066304753E+02  0.93066304890E+02  0.50400001928E-02 0.  1.
    10030    2    1    2    0    0  0.00000000000E+00  0.00000000000E+00  0.16250518607E+04  0.18111844704E+04  0.79974723237E+03 0.  0.
        5    1    3    3  502    0 -0.28762944377E+03 -0.23510742269E+03  0.11474454851E+04  0.12060926285E+04  0.46999998093E+01 0. -1.
       -5    1    3    3    0  502  0.28762944377E+03  0.23510742269E+03  0.47760637561E+03  0.60509184191E+03  0.46999998093E+01 0.  1.
</event>
<event>
 5   0  0.3753450E-03  0.7921056E+03  0.7818609E-02  0.9571515E-01
        1   -1    0    0  501    0  0.00000000000E+00  0.00000000000E+00  0.20379914743E+03  0.20379914749E+03  0.50400001928E-02 0.  1.
       -1   -1    0    0    0  501  0.00000000000E+00  0.00000000000E+00 -0.76966858783E+03  0.76966858785E+03  0.50400001928E-02 0. -1.
    10030    2    1    2    0    0  0.00000000000E+00  0.00000000000E+00 -0.56586944040E+03  0.97346773533E+03  0.79210555367E+03 0.  0.
        5    1    3    3  502    0  0.63989096111E+02  0.11764955598E+02 -0.76302134096E+03  0.76580459346E+03  0.46999998093E+01 0. -1.
       -5    1    3    3    0  502 -0.63989096111E+02 -0.11764955598E+02  0.19715190056E+03  0.20766314188E+03  0.46999998093E+01 0.  1.
</event>
<event>
 5   0  0.6153659E-03  0.8006297E+03  0.7818609E-02  0.9559106E-01
        2   -1    0    0  501    0  0.00000000000E+00  0.00000000000E+00  0.13696490242E+04  0.13696490242E+04  0.25500000920E-02 0.  1.
       -2   -1    0    0    0  501  0.00000000000E+00  0.00000000000E+00 -0.11700222687E+03  0.11700222690E+03  0.25500000920E-02 0. -1.
    10030    2    1    2    0    0  0.00000000000E+00  0.00000000000E+00  0.12526467973E+04  0.14866512511E+04  0.80062971687E+03 0.  0.
        2    1    3    3  502    0  0.21411994071E+03 -0.32600822680E+03  0.79368002689E+03  0.88433969607E+03  0.25500000920E-02 0.  1.
       -2    1    3    3    0  502 -0.21411994071E+03  0.32600822680E+03  0.45896677041E+03  0.60231155500E+03  0.25500000920E-02 0. -1.
</event>
<event>
 5   0  0.6153659E-03  0.8061855E+03  0.7818609E-02  0.9551107E-01
        2   -1    0    0  501    0  0.00000000000E+00  0.00000000000E+00  0.32992699386E+03  0.32992699387E+03  0.25500000920E-02 0. -1.
       -2   -1    0    0    0  501  0.00000000000E+00  0.00000000000E+00 -0.49248397301E+03  0.49248397301E+03  0.25500000920E-02 0.  1.
    10030    2    1    2    0    0  0.00000000000E+00  0.00000000000E+00 -0.16255697914E+03  0.82241096689E+03  0.80618547927E+03 0.  0.
        2    1    3    3  502    0 -0.16349553356E+03 -0.17910403657E+03 -0.40974442691E+03  0.47612975206E+03  0.25500000920E-02 0.  1.
       -2    1    3    3    0  502  0.16349553356E+03  0.17910403657E+03  0.24718744776E+03  0.34628121483E+03  0.25500000920E-02 0. -1.
</event>
<event>
 5   0  0.3714448E-03  0.8061988E+03  0.7818609E-02  0.9551088E-01
        1   -1    0    0  501    0  0.00000000000E+00  0.00000000000E+00  0.23146733243E+03  0.23146733248E+03  0.50400001928E-02 0. -1.
       -1   -1    0    0    0  501  0.00000000000E+00  0.00000000000E+00 -0.70199596546E+03  0.70199596548E+03  0.50400001928E-02 0.  1.
    10030    2    1    2    0    0  0.00000000000E+00  0.00000000000E+00 -0.47052863303E+03  0.93346329796E+03  0.80619881800E+03 0.  0.
        1    1    3    3  502    0 -0.21611902168E+03 -0.28720398867E+03 -0.44653941979E+03  0.57322858973E+03  0.50400001928E-02 0.  1.
       -1    1    3    3    0  502  0.21611902168E+03  0.28720398867E+03 -0.23989213241E+02  0.36023470823E+03  0.50400001928E-02 0. -1.
</event>
<event>
 5   0  0.3714448E-03  0.8004493E+03  0.7818609E-02  0.9559367E-01
        1   -1    0    0  501    0  0.00000000000E+00  0.00000000000E+00  0.25260517345E+03  0.25260517350E+03  0.50400001928E-02 0. -1.
       -1   -1    0    0    0  501  0.00000000000E+00  0.00000000000E+00 -0.63411115577E+03  0.63411115579E+03  0.50400001928E-02 0.  1.
    10030    2    1    2    0    0  0.00000000000E+00  0.00000000000E+00 -0.38150598232E+03  0.88671632929E+03  0.80044927015E+03 0.  0.
        1    1    3    3  502    0 -0.29378042084E+03  0.27156431422E+03 -0.17833574336E+03  0.43801569585E+03  0.50400001928E-02 0. -1.
       -1    1    3    3    0  502  0.29378042084E+03 -0.27156431422E+03 -0.20317023895E+03  0.44870063344E+03  0.50400001928E-02 0.  1.
</event>
<event>
 5   0  0.6256781E-03  0.7999681E+03  0.7818609E-02  0.9560063E-01
        2   -1    0    0  501    0  0.00000000000E+00  0.00000000000E+00  0.84987538809E+03  0.84987538809E+03  0.25500000920E-02 0. -1.
       -2   -1    0    0    0  501  0.00000000000E+00  0.00000000000E+00 -0.18824789016E+03  0.18824789018E+03  0.25500000920E-02 0.  1.
    10030    2    1    2    0    0  0.00000000000E+00  0.00000000000E+00  0.66162749792E+03  0.10381232783E+04  0.79996812116E+03 0.  0.
        1    1    3    3  502    0 -0.75097638771E+02  0.12468005767E+01 -0.17901461436E+03  0.19413253731E+03  0.50400001928E-02 0.  1.
       -1    1    3    3    0  502  0.75097638771E+02 -0.12468005767E+01  0.84064211229E+03  0.84399074096E+03  0.50400001928E-02 0. -1.
</event>
<event>
 5   0  0.5813850E-03  0.7994144E+03  0.7818609E-02  0.9560865E-01
        2   -1    0    0  501    0  0.00000000000E+00  0.00000000000E+00  0.88774738440E+03  0.88774738440E+03  0.25500000920E-02 0. -1.
       -2   -1    0    0    0  501  0.00000000000E+00  0.00000000000E+00 -0.17996771024E+03  0.17996771026E+03  0.25500000920E-02 0.  1.
    10030    2    1    2    0    0  0.00000000000E+00  0.00000000000E+00  0.70777967416E+03  0.10677150947E+04  0.79941444583E+03 0.  0.
        5    1    3    3  502    0  0.32806933801E+03  0.21485103487E+03  0.45694336649E+03  0.60217089593E+03  0.46999998093E+01 0. -1.
       -5    1    3    3    0  502 -0.32806933801E+03 -0.21485103487E+03  0.25083630767E+03  0.46554419873E+03  0.46999998093E+01 0.  1.
</event>
<event>
 5   0  0.3671128E-03  0.8001765E+03  0.7818609E-02  0.9559762E-01
       -1   -1    0    0    0  501  0.00000000000E+00  0.00000000000E+00  0.11741546957E+03  0.11741546968E+03  0.50400001928E-02 0. -1.
        1   -1    0    0  501    0  0.00000000000E+00  0.00000000000E+00 -0.13632837916E+04  0.13632837916E+04  0.50400001928E-02 0.  1.
    10030    2    1    2    0    0  0.00000000000E+00  0.00000000000E+00 -0.12458683220E+04  0.14806992613E+04  0.80017649712E+03 0.  0.
        2    1    3    3  502    0 -0.28816140515E+03 -0.27689007667E+03 -0.65831130506E+03  0.77011614991E+03  0.25500000920E-02 0. -1.
       -2    1    3    3    0  502  0.28816140515E+03  0.27689007667E+03 -0.58755701695E+03  0.71058311136E+03  0.25500000920E-02 0.  1.
</event>
<event>
 5   0  0.3671128E-03  0.8003682E+03  0.7818609E-02  0.9559484E-01
       -1   -1    0    0    0  501  0.00000000000E+00  0.00000000000E+00  0.86303562686E+03  0.86303562688E+03  0.50400001928E-02 0.  1.
        1   -1    0    0  501    0  0.00000000000E+00  0.00000000000E+00 -0.18556280389E+03  0.18556280395E+03  0.50400001928E-02 0. -1.
    10030    2    1    2    0    0  0.00000000000E+00  0.00000000000E+00  0.67747282298E+03  0.10485984308E+04  0.80036819231E+03 0.  0.
        2    1    3    3  502    0 -0.26570798151E+03  0.90206365659E+02 -0.35078512117E+02  0.28278688417E+03  0.25500000920E-02 0. -1.
       -2    1    3    3    0  502  0.26570798151E+03 -0.90206365659E+02  0.71255133509E+03  0.76581154666E+03  0.25500000920E-02 0.  1.
</event>
<event>
 5   0  0.3627496E-03  0.7982196E+03  0.7818609E-02  0.9562598E-01
       -1   -1    0    0    0  501  0.00000000000E+00  0.00000000000E+00  0.20988982339E+03  0.20988982345E+03  0.50400001928E-02 0.  1.
        1   -1    0    0  501    0  0.00000000000E+00  0.00000000000E+00 -0.75891551894E+03  0.75891551896E+03  0.50400001928E-02 0. -1.
    10030    2    1    2    0    0  0.00000000000E+00  0.00000000000E+00 -0.54902569555E+03  0.96880534240E+03  0.79821962961E+03 0.  0.
        3    1    3    3  502    0 -0.11482453924E+03  0.27367945902E+03  0.49352760295E+02  0.30086679154E+03  0.10100000352E+00 0.  1.
       -3    1    3    3    0  502  0.11482453924E+03 -0.27367945902E+03 -0.59837845585E+03  0.66793855086E+03  0.10100000352E+00 0. -1.
</event>
<event>
 5   0  0.6536209E-03  0.8019410E+03  0.7818609E-02  0.9557212E-01
        2   -1    0    0  501    0  0.00000000000E+00  0.00000000000E+00  0.15322826613E+04  0.15322826613E+04  0.25500000920E-02 0.  1.
       -2   -1    0    0    0  501  0.00000000000E+00  0.00000000000E+00 -0.10492669432E+03  0.10492669435E+03  0.25500000920E-02 0. -1.
    10030    2    1    2    0    0  0.00000000000E+00  0.00000000000E+00  0.14273559669E+04  0.16372093556E+04  0.80194103135E+03 0.  0.
        3    1    3    3  502    0  0.88648074861E+01 -0.39123014086E+03  0.89209822095E+03  0.97415545677E+03  0.10100000352E+00 0. -1.
       -3    1    3    3    0  502 -0.88648074861E+01  0.39123014086E+03  0.53525774599E+03  0.66305389884E+03  0.10100000352E+00 0.  1.
</event>
<event>
 5   0  0.3627496E-03  0.7993000E+03  0.7818609E-02  0.9561031E-01
        1   -1    0    0  501    0  0.00000000000E+00  0.00000000000E+00  0.43382280160E+03  0.43382280162E+03  0.50400001928E-02 0. -1.
       -1   -1    0    0    0  501  0.00000000000E+00  0.00000000000E+00 -0.36816906832E+03  0.36816906835E+03  0.50400001928E-02 0.  1.
    10030    2    1    2    0    0  0.00000000000E+00  0.00000000000E+00  0.65653733276E+02  0.80199186998E+03  0.79930003554E+03 0.  0.
        3    1    3    3  502    0  0.25126305640E+03  0.18691545129E+03 -0.21630273015E+03  0.38060135406E+03  0.10100000352E+00 0.  1.
       -3    1    3    3    0  502 -0.25126305640E+03 -0.18691545129E+03  0.28195646342E+03  0.42139051592E+03  0.10100000352E+00 0. -1.
</event>
<event>
 5   0  0.3671128E-03  0.8004200E+03  0.7818609E-02  0.9559409E-01
       -1   -1    0    0    0  501  0.00000000000E+00  0.00000000000E+00  0.58038249466E+03  0.58038249468E+03  0.50400001928E-02 0. -1.
        1   -1    0    0  501    0  0.00000000000E+00  0.00000000000E+00 -0.27596979322E+03  0.27596979326E+03  0.50400001928E-02 0.  1.
    10030    2    1    2    0    0  0.00000000000E+00  0.00000000000E+00  0.30441270144E+03  0.85635228794E+03  0.80041998242E+03 0.  0.
        2    1    3    3  502    0 -0.17870286983E+03  0.18893609986E+03  0.47766139563E+03  0.54386760742E+03  0.25500000920E-02 0. -1.
       -2    1    3    3    0  502  0.17870286983E+03 -0.18893609986E+03 -0.17324869419E+03  0.31248468052E+03  0.25500000920E-02 0.  1.
</event>
<event>
 5   0  0.6536209E-03  0.7935264E+03  0.7818609E-02  0.9569435E-01
        2   -1    0    0  501    0  0.00000000000E+00  0.00000000000E+00  0.84891173473E+03  0.84891173473E+03  0.25500000920E-02 0. -1.
       -2   -1    0    0    0  501  0.00000000000E+00  0.00000000000E+00 -0.18543863272E+03  0.18543863274E+03  0.25500000920E-02 0.  1.
    10030    2    1    2    0    0  0.00000000000E+00  0.00000000000E+00  0.66347310201E+03  0.10343503675E+04  0.79352638620E+03 0.  0.
        3    1    3    3  502    0 -0.18870101841E+03 -0.27046840598E+03  0.61927200877E+03  0.70161176161E+03  0.10100000352E+00 0. -1.
       -3    1    3    3    0  502  0.18870101841E+03  0.27046840598E+03  0.44201093231E+02  0.33273860585E+03  0.10100000352E+00 0.  1.
</event>
<event>
 5   0  0.5813850E-03  0.8012301E+03  0.7818609E-02  0.9558238E-01
       -2   -1    0    0    0  501  0.00000000000E+00  0.00000000000E+00  0.71995243231E+02  0.71995243276E+02  0.25500000920E-02 0. -1.
        2   -1    0    0  501    0  0.00000000000E+00  0.00000000000E+00 -0.22292088753E+04  0.22292088753E+04  0.25500000920E-02 0.  1.
    10030    2    1    2    0    0  0.00000000000E+00  0.00000000000E+00 -0.21572136320E+04  0.23012041185E+04  0.80123014232E+03 0.  0.
        5    1    3    3  502    0 -0.23168051347E+03  0.17933818851E+03 -0.18632302479E+04  0.18861301898E+04  0.46999998093E+01 0.  1.
       -5    1    3    3    0  502  0.23168051347E+03 -0.17933818851E+03 -0.29398338415E+03  0.41507392876E+03  0.46999998093E+01 0. -1.
</event>
<event>
 5   0  0.5813850E-03  0.8031566E+03  0.7818609E-02  0.9555459E-01
        2   -1    0    0  501    0  0.00000000000E+00  0.00000000000E+00  0.13052253147E+04  0.13052253147E+04  0.25500000920E-02 0.  1.
       -2   -1    0    0    0  501  0.00000000000E+00  0.00000000000E+00 -0.12355347270E+03  0.12355347273E+03  0.25500000920E-02 0. -1.
    10030    2    1    2    0    0  0.00000000000E+00  0.00000000000E+00  0.11816718420E+04  0.14287787875E+04  0.80315657331E+03 0.  0.
        5    1    3    3  502    0 -0.68764609252E+02 -0.61225055467E+02 -0.10447341417E+03  0.13933363976E+03  0.46999998093E+01 0. -1.
       -5    1    3    3    0  502  0.68764609252E+02  0.61225055467E+02  0.12861452562E+04  0.12894451477E+04  0.46999998093E+01 0.  1.
</event>
<event>
 5   0  0.5813850E-03  0.7990674E+03  0.7818609E-02  0.9561368E-01
       -2   -1    0    0    0  501  0.00000000000E+00  0.00000000000E+00  0.51034300177E+03  0.51034300178E+03  0.25500000920E-02 0. -1.
        2   -1    0    0  501    0  0.00000000000E+00  0.00000000000E+00 -0.31278411855E+03  0.31278411856E+03  0.25500000920E-02 0.  1.
    10030    2    1    2    0    0  0.00000000000E+00  0.00000000000E+00  0.19755888323E+03  0.82312712034E+03  0.79906742137E+03 0.  0.
        5    1    3    3  502    0 -0.63029876245E+02 -0.11643532600E+03  0.48705722472E+03  0.50475417838E+03  0.46999998093E+01 0. -1.
       -5    1    3    3    0  502  0.63029876245E+02  0.11643532600E+03 -0.28949834150E+03  0.31837294195E+03  0.46999998093E+01 0.  1.
</event>
<event>
 5   0  0.6153659E-03  0.8085624E+03  0.7818609E-02  0.9547705E-01
        2   -1    0    0  501    0  0.00000000000E+00  0.00000000000E+00  0.12423871399E+04  0.12423871399E+04  0.25500000920E-02 0.  1.
       -2   -1    0    0    0  501  0.00000000000E+00  0.00000000000E+00 -0.13155585835E+03  0.13155585838E+03  0.25500000920E-02 0. -1.
    10030    2    1    2    0    0  0.00000000000E+00  0.00000000000E+00  0.11108312815E+04  0.13739429982E+04  0.80856244436E+03 0.  0.
        2    1    3    3  502    0  0.57559251871E+02  0.25853122849E+03  0.10744271470E+04  0.11065916852E+04  0.25500000920E-02 0.  1.
       -2    1    3    3    0  502 -0.57559251871E+02 -0.25853122849E+03  0.36404134555E+02  0.26735131307E+03  0.25500000920E-02 0. -1.
</event>
<event>
 5   0  0.6337108E-03  0.7883045E+03  0.7818609E-02  0.9577102E-01
       -2   -1    0    0    0  501  0.00000000000E+00  0.00000000000E+00  0.16148622594E+03  0.16148622596E+03  0.25500000920E-02 0.  1.
        2   -1    0    0  501    0  0.00000000000E+00  0.00000000000E+00 -0.96203863806E+03  0.96203863806E+03  0.25500000920E-02 0. -1.
    10030    2    1    2    0    0  0.00000000000E+00  0.00000000000E+00 -0.80055241212E+03  0.11235248640E+04  0.78830448147E+03 0.  0.
        4    1    3    3  502    0 -0.49960947248E+02 -0.26263369288E+03  0.12507573154E+02  0.26763894554E+03  0.12699999809E+01 0.  1.
       -4    1    3    3    0  502  0.49960947248E+02  0.26263369288E+03 -0.81305998528E+03  0.85588591847E+03  0.12699999809E+01 0. -1.
</event>
<event>
 5   0  0.6536209E-03  0.8027045E+03  0.7818609E-02  0.9556111E-01
        2   -1    0    0  501    0  0.00000000000E+00  0.00000000000E+00  0.14126215328E+04  0.14126215328E+04  0.25500000920E-02 0. -1.
       -2   -1    0    0    0  501  0.00000000000E+00  0.00000000000E+00 -0.11403170975E+03  0.11403170978E+03  0.25500000920E-02 0.  1.
    10030    2    1    2    0    0  0.00000000000E+00  0.00000000000E+00  0.12985898231E+04  0.15266532426E+04  0.80270454998E+03 0.  0.
        3    1    3    3  502    0  0.49694129742E+02 -0.32263182979E+03  0.10933878749E+04  0.11410774992E+04  0.10100000352E+00 0. -1.
       -3    1    3    3    0  502 -0.49694129742E+02  0.32263182979E+03  0.20520194818E+03  0.38557574335E+03  0.10100000352E+00 0.  1.
</event>
<event>
 5   0  0.5813850E-03  0.7842538E+03  0.7818609E-02  0.9583093E-01
        2   -1    0    0  501    0  0.00000000000E+00  0.00000000000E+00  0.12708510304E+04  0.12708510304E+04  0.25500000920E-02 0.  1.
       -2   -1    0    0    0  501  0.00000000000E+00  0.00000000000E+00 -0.12099255925E+03  0.12099255928E+03  0.25500000920E-02 0. -1.
    10030    2    1    2    0    0  0.00000000000E+00  0.00000000000E+00  0.11498584711E+04  0.13918435896E+04  0.78425383291E+03 0.  0.
        5    1    3    3  502    0 -0.60084597883E+02 -0.16287326095E+03  0.11988785213E+04  0.12113916200E+04  0.46999998093E+01 0.  1.
       -5    1    3    3    0  502  0.60084597883E+02  0.16287326095E+03 -0.49020050221E+02  0.18045196967E+03  0.46999998093E+01 0. -1.
</event>
<event>
 5   0  0.6337108E-03  0.7990450E+03  0.7818609E-02  0.9561400E-01
       -2   -1    0    0    0  501  0.00000000000E+00  0.00000000000E+00  0.10895799040E+03  0.10895799043E+03  0.25500000920E-02 0. -1.
        2   -1    0    0  501    0  0.00000000000E+00  0.00000000000E+00 -0.14649520002E+04  0.14649520002E+04  0.25500000920E-02 0.  1.
    10030    2    1    2    0    0  0.00000000000E+00  0.00000000000E+00 -0.13559940098E+04  0.15739099907E+04  0.79904499497E+03 0.  0.
        4    1    3    3  502    0 -0.16275937185E+03 -0.27904826282E+03 -0.11410242017E+04  0.11858736813E+04  0.12699999809E+01 0.  1.
       -4    1    3    3    0  502  0.16275937185E+03  0.27904826282E+03 -0.21496980812E+03  0.38803630940E+03  0.12699999809E+01 0. -1.
</event>
<event>
 5   0  0.3753450E-03  0.8005240E+03  0.7818609E-02  0.9559259E-01
        1   -1    0    0  501    0  0.00000000000E+00  0.00000000000E+00  0.60772764297E+03  0.60772764299E+03  0.50400001928E-02 0.  1.
       -1   -1    0    0    0  501  0.00000000000E+00  0.00000000000E+00 -0.26362082672E+03  0.26362082677E+03  0.50400001928E-02 0. -1.
    10030    2    1    2    0    0  0.00000000000E+00  0.00000000000E+00  0.34410681625E+03  0.87134846976E+03  0.80052398763E+03 0.  0.
        5    1    3    3  502    0  0.12061176543E+03  0.22325809367E+03  0.50894615606E+03  0.56871755215E+03  0.46999998093E+01 0.  1.
       -5    1    3    3    0  502 -0.12061176543E+03 -0.22325809367E+03 -0.16483933982E+03  0.30263091762E+03  0.46999998093E+01 0. -1.
</event>
<event>
 5   0  0.6256781E-03  0.8003643E+03  0.7818609E-02  0.9559490E-01
       -2   -1    0    0    0  501  0.00000000000E+00  0.00000000000E+00  0.17366259174E+03  0.17366259176E+03  0.25500000920E-02 0. -1.
        2   -1    0    0  501    0  0.00000000000E+00  0.00000000000E+00 -0.92216600000E+03  0.92216600000E+03  0.25500000920E-02 0.  1.
    10030    2    1    2    0    0  0.00000000000E+00  0.00000000000E+00 -0.74850340825E+03  0.10958285918E+04  0.80036426104E+03 0.  0.
        1    1    3    3  502    0 -0.29484644477E+03 -0.24973502206E+03 -0.23167640412E+03  0.45052853794E+03  0.50400001928E-02 0. -1.
       -1    1    3    3    0  502  0.29484644477E+03  0.24973502206E+03 -0.51682700413E+03  0.64530005382E+03  0.50400001928E-02 0.  1.
</event>
<event>
 5   0  0.3671128E-03  0.7993797E+03  0.7818609E-02  0.9560915E-01
        1   -1    0    0  501    0  0.00000000000E+00  0.00000000000E+00  0.29211317442E+03  0.29211317446E+03  0.50400001928E-02 0. -1.
       -1   -1    0    0    0  501  0.00000000000E+00  0.00000000000E+00 -0.54688383780E+03  0.54688383782E+03  0.50400001928E-02 0.  1.
    10030    2    1    2    0    0  0.00000000000E+00  0.00000000000E+00 -0.25477066338E+03  0.83899701228E+03  0.79937969433E+03 0.  0.
        2    1    3    3  502    0  0.18546727988E+03 -0.30405206570E+03 -0.31777623340E+03  0.47731279585E+03  0.25500000920E-02 0.  1.
       -2    1    3    3    0  502 -0.18546727988E+03  0.30405206570E+03  0.63005570014E+02  0.36168421644E+03  0.25500000920E-02 0. -1.
</event>
<event>
 5   0  0.6536209E-03  0.7986055E+03  0.7818609E-02  0.9562038E-01
        2   -1    0    0  501    0  0.00000000000E+00  0.00000000000E+00  0.85760049593E+03  0.85760049594E+03  0.25500000920E-02 0. -1.
       -2   -1    0    0    0  501  0.00000000000E+00  0.00000000000E+00 -0.18591720248E+03  0.18591720250E+03  0.25500000920E-02 0.  1.
    10030    2    1    2    0    0  0.00000000000E+00  0.00000000000E+00  0.67168329345E+03  0.10435176984E+04  0.79860549725E+03 0.  0.
        3    1    3    3  502    0  0.36470097408E+03 -0.88515199479E+02  0.15763048644E+03  0.40704928631E+03  0.10100000352E+00 0. -1.
       -3    1    3    3    0  502 -0.36470097408E+03  0.88515199479E+02  0.51405280701E+03  0.63646841212E+03  0.10100000352E+00 0.  1.
</event>
<event>
 5   0  0.3860515E-03  0.7979258E+03  0.7818609E-02  0.9563024E-01
       -1   -1    0    0    0  501  0.00000000000E+00  0.00000000000E+00  0.19923607496E+03  0.19923607503E+03  0.50400001928E-02 0.  1.
        1   -1    0    0  501    0  0.00000000000E+00  0.00000000000E+00 -0.79890842990E+03  0.79890842992E+03  0.50400001928E-02 0. -1.
    10030    2    1    2    0    0  0.00000000000E+00  0.00000000000E+00 -0.59967235494E+03  0.99814450495E+03  0.79792576063E+03 0.  0.
        4    1    3    3  502    0 -0.10476171642E+03  0.19563343889E+03 -0.71457419928E+03  0.74824151102E+03  0.12699999809E+01 0. -1.
       -4    1    3    3    0  502  0.10476171642E+03 -0.19563343889E+03  0.11490184434E+03  0.24990299393E+03  0.12699999809E+01 0.  1.
</event>
<event>
 5   0  0.3714448E-03  0.7960897E+03  0.7818609E-02  0.9565694E-01
        1   -1    0    0  501    0  0.00000000000E+00  0.00000000000E+00  0.11174993095E+04  0.11174993095E+04  0.50400001928E-02 0. -1.
       -1   -1    0    0    0  501  0.00000000000E+00  0.00000000000E+00 -0.14178058917E+03  0.14178058926E+03  0.50400001928E-02 0.  1.
    10030    2    1    2    0    0  0.00000000000E+00  0.00000000000E+00  0.97571872036E+03  0.12592798988E+04  0.79608971998E+03 0.  0.
        1    1    3    3  502    0  0.21188970721E+03  0.54812562760E+02  0.10137750722E+04  0.10371314102E+04  0.50400001928E-02 0. -1.
       -1    1    3    3    0  502 -0.21188970721E+03 -0.54812562760E+02 -0.38056351791E+02  0.22214848861E+03  0.50400001928E-02 0.  1.
</event>
<event>
 5   0  0.3753450E-03  0.7991172E+03  0.7818609E-02  0.9561296E-01
       -1   -1    0    0    0  501  0.00000000000E+00  0.00000000000E+00  0.53058016060E+03  0.53058016063E+03  0.50400001928E-02 0.  1.
        1   -1    0    0  501    0  0.00000000000E+00  0.00000000000E+00 -0.30089154326E+03  0.30089154330E+03  0.50400001928E-02 0. -1.
    10030    2    1    2    0    0  0.00000000000E+00  0.00000000000E+00  0.22968861734E+03  0.83147170393E+03  0.79911722138E+03 0.  0.
        5    1    3    3  502    0 -0.24204528629E+03 -0.31210294688E+03  0.17754026652E+03  0.43305520006E+03  0.46999998093E+01 0. -1.
       -5    1    3    3    0  502  0.24204528629E+03  0.31210294688E+03  0.52148350826E+02  0.39841650387E+03  0.46999998093E+01 0.  1.
</event>
<event>
 5   0  0.6337108E-03  0.8039673E+03  0.7818609E-02  0.9554292E-01
       -2   -1    0    0    0  501  0.00000000000E+00  0.00000000000E+00  0.10294914110E+03  0.10294914113E+03  0.25500000920E-02 0. -1.
        2   -1    0    0  501    0  0.00000000000E+00  0.00000000000E+00 -0.15696184201E+04  0.15696184201E+04  0.25500000920E-02 0.  1.
    10030    2    1    2    0    0  0.00000000000E+00  0.00000000000E+00 -0.14666692790E+04  0.16725675612E+04  0.80396733325E+03 0.  0.
        4    1    3    3  502    0 -0.32225463155E+03 -0.39560395953E+02 -0.12264191721E+04  0.12686680697E+04  0.12699999809E+01 0.  1.
       -4    1    3    3    0  502  0.32225463155E+03  0.39560395953E+02 -0.24025010685E+03  0.40389949149E+03  0.12699999809E+01 0. -1.
</event>
<event>
 5   0  0.3671128E-03  0.8007911E+03  0.7818609E-02  0.9558873E-01
       -1   -1    0    0    0  501  0.00000000000E+00  0.00000000000E+00  0.12825912567E+03  0.12825912577E+03  0.50400001928E-02 0. -1.
        1   -1    0    0  501    0  0.00000000000E+00  0.00000000000E+00 -0.12499431045E+04  0.12499431045E+04  0.50400001928E-02 0.  1.
    10030    2    1    2    0    0  0.00000000000E+00  0.00000000000E+00 -0.11216839788E+04  0.13782022303E+04  0.80079113331E+03 0.  0.
        2    1    3    3  502    0  0.18422048788E+03  0.16327139140E+03 -0.17355303947E+02  0.24677103150E+03  0.25500000920E-02 0. -1.
       -2    1    3    3    0  502 -0.18422048788E+03 -0.16327139140E+03 -0.11043286749E+04  0.11314311988E+04  0.25500000920E-02 0.  1.
</event>
<event>
 5   0  0.6153659E-03  0.8012220E+03  0.7818609E-02  0.9558250E-01
        2   -1    0    0  501    0  0.00000000000E+00  0.00000000000E+00  0.30820504974E+03  0.30820504975E+03  0.25500000920E-02 0.  1.
       -2   -1    0    0    0  501  0.00000000000E+00  0.00000000000E+00 -0.52072213675E+03  0.52072213675E+03  0.25500000920E-02 0. -1.
    10030    2    1    2    0    0  0.00000000000E+00  0.00000000000E+00 -0.21251708700E+03  0.82892718651E+03  0.80122204679E+03 0.  0.
        2    1    3    3  502    0 -0.58352165157E+01  0.20321967640E+03 -0.46338588464E+03  0.50602249428E+03  0.25500000920E-02 0. -1.
       -2    1    3    3    0  502  0.58352165157E+01 -0.20321967640E+03  0.25086879764E+03  0.32290469223E+03  0.25500000920E-02 0.  1.
</event>
<event>
 5   0  0.2478000E-03  0.7957147E+03  0.7818609E-02  0.9566241E-01
        3   -1    0    0  501    0  0.00000000000E+00  0.00000000000E+00  0.55868001502E+03  0.55868002415E+03  0.10100000352E+00 0.  1.
       -3   -1    0    0    0  501  0.00000000000E+00  0.00000000000E+00 -0.28332934402E+03  0.28332936202E+03  0.10100000352E+00 0. -1.
    10030    2    1    2    0    0  0.00000000000E+00  0.00000000000E+00  0.27535067100E+03  0.84200938617E+03  0.79571465638E+03 0.  0.
        3    1    3    3  502    0  0.18885492242E+03  0.34602763926E+03  0.80797447901E+02  0.40240470504E+03  0.10100000352E+00 0.  1.
       -3    1    3    3    0  502 -0.18885492242E+03 -0.34602763926E+03  0.19455322310E+03  0.43960468113E+03  0.10100000352E+00 0. -1.
</event>
<event>
 5   0  0.6256781E-03  0.8003578E+03  0.7818609E-02  0.9559499E-01
       -2   -1    0    0    0  501  0.00000000000E+00  0.00000000000E+00  0.13090914967E+03  0.13090914969E+03  0.25500000920E-02 0.  1.
        2   -1    0    0  501    0  0.00000000000E+00  0.00000000000E+00 -0.12233151741E+04  0.12233151741E+04  0.25500000920E-02 0. -1.
    10030    2    1    2    0    0  0.00000000000E+00  0.00000000000E+00 -0.10924060244E+04  0.13542243238E+04  0.80035779307E+03 0.  0.
        1    1    3    3  502    0 -0.27574646574E+03 -0.15992574219E+03 -0.13684939204E+03  0.34690072429E+03  0.50400001928E-02 0.  1.
       -1    1    3    3    0  502  0.27574646574E+03  0.15992574219E+03 -0.95555663238E+03  0.10073235995E+04  0.50400001928E-02 0. -1.
</event>
<event>
 5   0  0.5813850E-03  0.7941035E+03  0.7818609E-02  0.9568591E-01
       -2   -1    0    0    0  501  0.00000000000E+00  0.00000000000E+00  0.97683133217E+02  0.97683133250E+02  0.25500000920E-02 0. -1.
        2   -1    0    0  501    0  0.00000000000E+00  0.00000000000E+00 -0.16138927428E+04  0.16138927428E+04  0.25500000920E-02 0.  1.
    10030    2    1    2    0    0  0.00000000000E+00  0.00000000000E+00 -0.15162096096E+04  0.17115758761E+04  0.79410351926E+03 0.  0.
        5    1    3    3  502    0  0.30787859324E+03  0.13721533062E+03 -0.30593834445E+03  0.45523360567E+03  0.46999998093E+01 0. -1.
       -5    1    3    3    0  502 -0.30787859324E+03 -0.13721533062E+03 -0.12102712652E+04  0.12563422704E+04  0.46999998093E+01 0.  1.
</event>
<event>
 5   0  0.3671128E-03  0.7997952E+03  0.7818609E-02  0.9560314E-01
        1   -1    0    0  501    0  0.00000000000E+00  0.00000000000E+00  0.16012472179E+04  0.16012472179E+04  0.50400001928E-02 0. -1.
       -1   -1    0    0    0  501  0.00000000000E+00  0.00000000000E+00 -0.99870965171E+02  0.99870965299E+02  0.50400001928E-02 0.  1.
    10030    2    1    2    0    0  0.00000000000E+00  0.00000000000E+00  0.15013762527E+04  0.17011181832E+04  0.79979523689E+03 0.  0.
        2    1    3    3  502    0 -0.12004681516E+03 -0.33964307303E+03  0.38137446514E+03  0.52460950959E+03  0.25500000920E-02 0.  1.
       -2    1    3    3    0  502  0.12004681516E+03  0.33964307303E+03  0.11200017875E+04  0.11765086736E+04  0.25500000920E-02 0. -1.
</event>
<event>
 5   0  0.3860515E-03  0.8006117E+03  0.7818609E-02  0.9559132E-01
        1   -1    0    0  501    0  0.00000000000E+00  0.00000000000E+00  0.11754695435E+04  0.11754695435E+04  0.50400001928E-02 0.  1.
       -1   -1    0    0    0  501  0.00000000000E+00  0.00000000000E+00 -0.13632404164E+03  0.13632404173E+03  0.50400001928E-02 0. -1.
    10030    2    1    2    0    0  0.00000000000E+00  0.00000000000E+00  0.10391455019E+04  0.13117935853E+04  0.80061166382E+03 0.  0.
        4    1    3    3  502    0  0.33386375701E+03  0.25243806134E+02  0.87907419498E+03  0.94067811241E+03  0.12699999809E+01 0.  1.
       -4    1    3    3    0  502 -0.33386375701E+03 -0.25243806134E+02  0.16007130690E+03  0.37111547285E+03  0.12699999809E+01 0. -1.
</event>
<event>
 5   0  0.6337108E-03  0.8009211E+03  0.7818609E-02  0.9558685E-01
        2   -1    0    0  501    0  0.00000000000E+00  0.00000000000E+00  0.98773792675E+03  0.98773792675E+03  0.25500000920E-02 0. -1.
       -2   -1    0    0    0  501  0.00000000000E+00  0.00000000000E+00 -0.16235950008E+03  0.16235950010E+03  0.25500000920E-02 0.  1.
    10030    2    1    2    0    0  0.00000000000E+00  0.00000000000E+00  0.82537842667E+03  0.11500974269E+04  0.80092105982E+03 0.  0.
        4    1    3    3  502    0 -0.13613019791E+03 -0.31662563921E+03  0.70551342925E+03  0.78519681478E+03  0.12699999809E+01 0. -1.
       -4    1    3    3    0  502  0.13613019791E+03  0.31662563921E+03  0.11986499741E+03  0.36490061208E+03  0.12699999809E+01 0.  1.
</event>
<event>
 5   0  0.6536209E-03  0.8010470E+03  0.7818609E-02  0.9558503E-01
        2   -1    0    0  501    0  0.00000000000E+00  0.00000000000E+00  0.21042817359E+03  0.21042817361E+03  0.25500000920E-02 0.  1.
       -2   -1    0    0    0  501  0.00000000000E+00  0.00000000000E+00 -0.76234604744E+03  0.76234604744E+03  0.25500000920E-02 0. -1.
    10030    2    1    2    0    0  0.00000000000E+00  0.00000000000E+00 -0.55191787385E+03  0.97277422105E+03  0.80104703087E+03 0.  0.
        3    1    3    3  502    0 -0.36254174888E+03  0.13228222245E+03 -0.14582215420E+03  0.41255207782E+03  0.10100000352E+00 0.  1.
       -3    1    3    3    0  502  0.36254174888E+03 -0.13228222245E+03 -0.40609571964E+03  0.56022214323E+03  0.10100000352E+00 0. -1.
</event>
<event>
 5   0  0.3714448E-03  0.8004629E+03  0.7818609E-02  0.9559347E-01
       -1   -1    0    0    0  501  0.00000000000E+00  0.00000000000E+00  0.91050001190E+02  0.91050001330E+02  0.50400001928E-02 0. -1.
        1   -1    0    0  501    0  0.00000000000E+00  0.00000000000E+00 -0.17593105719E+04  0.17593105719E+04  0.50400001928E-02 0.  1.
    10030    2    1    2    0    0  0.00000000000E+00  0.00000000000E+00 -0.16682605707E+04  0.18503605732E+04  0.80046294056E+03 0.  0.
        1    1    3    3  502    0  0.34500633797E+03 -0.19122448433E+03 -0.67753572241E+03  0.78399670396E+03  0.50400001928E-02 0. -1.
       -1    1    3    3    0  502 -0.34500633797E+03  0.19122448433E+03 -0.99072484829E+03  0.10663638693E+04  0.50400001928E-02 0.  1.
</event>
<event>
 5   0  0.3714448E-03  0.7974364E+03  0.7818609E-02  0.9563735E-01
       -1   -1    0    0    0  501  0.00000000000E+00  0.00000000000E+00  0.24324452220E+03  0.24324452225E+03  0.50400001928E-02 0. -1.
        1   -1    0    0  501    0  0.00000000000E+00  0.00000000000E+00 -0.65356533527E+03  0.65356533529E+03  0.50400001928E-02 0.  1.
    10030    2    1    2    0    0  0.00000000000E+00  0.00000000000E+00 -0.41032081307E+03  0.89680985754E+03  0.79743636168E+03 0.  0.
        1    1    3    3  502    0  0.11472140888E+03 -0.15587768654E+03  0.18687333991E+03  0.26903624293E+03  0.50400001928E-02 0. -1.
       -1    1    3    3    0  502 -0.11472140888E+03  0.15587768654E+03 -0.59719415298E+03  0.62777361461E+03  0.50400001928E-02 0.  1.
</event>
<event>
 5   0  0.3671128E-03  0.8002174E+03  0.7818609E-02  0.9559702E-01
        1   -1    0    0  501    0  0.00000000000E+00  0.00000000000E+00  0.13865275030E+04  0.13865275030E+04  0.50400001928E-02 0. -1.
       -1   -1    0    0    0  501  0.00000000000E+00  0.00000000000E+00 -0.11545892411E+03  0.11545892422E+03  0.50400001928E-02 0.  1.
    10030    2    1    2    0    0  0.00000000000E+00  0.00000000000E+00  0.12710685789E+04  0.15019864272E+04  0.80021740502E+03 0.  0.
        2    1    3    3  502    0  0.21453490243E+03  0.12503566861E+03  0.46667621296E+02  0.25265986953E+03  0.25500000920E-02 0.  1.
       -2    1    3    3    0  502 -0.21453490243E+03 -0.12503566861E+03  0.12244009576E+04  0.12493265577E+04  0.25500000920E-02 0. -1.
</event>
<event>
 5   0  0.3671128E-03  0.8008205E+03  0.7818609E-02  0.9558830E-01
        1   -1    0    0  501    0  0.00000000000E+00  0.00000000000E+00  0.19388909168E+04  0.19388909168E+04  0.50400001928E-02 0. -1.
       -1   -1    0    0    0  501  0.00000000000E+00  0.00000000000E+00 -0.82690756706E+02  0.82690756860E+02  0.50400001928E-02 0.  1.
    10030    2    1    2    0    0  0.00000000000E+00  0.00000000000E+00  0.18562001601E+04  0.20215816737E+04  0.80082047238E+03 0.  0.
        2    1    3    3  502    0 -0.21329234496E+03 -0.12588626766E+03  0.13387053145E+03  0.28153560344E+03  0.25500000920E-02 0.  1.
       -2    1    3    3    0  502  0.21329234496E+03  0.12588626766E+03  0.17223296287E+04  0.17400460703E+04  0.25500000920E-02 0. -1.
</event>
<event>
 5   0  0.5813850E-03  0.8008733E+03  0.7818609E-02  0.9558754E-01
       -2   -1    0    0    0  501  0.00000000000E+00  0.00000000000E+00  0.78552412891E+02  0.78552412932E+02  0.25500000920E-02 0.  1.
        2   -1    0    0  501    0  0.00000000000E+00  0.00000000000E+00 -0.20413060809E+04  0.20413060809E+04  0.25500000920E-02 0. -1.
    10030    2    1    2    0    0  0.00000000000E+00  0.00000000000E+00 -0.19627536680E+04  0.21198584938E+04  0.80087331869E+03 0.  0.
        5    1    3    3  502    0  0.26554877343E+03 -0.31083782945E+02 -0.19240822023E+03  0.32943188347E+03  0.46999998093E+01 0.  1.
       -5    1    3    3    0  502 -0.26554877343E+03  0.31083782945E+02 -0.17703454477E+04  0.17904266103E+04  0.46999998093E+01 0. -1.
</event>
<event>
 5   0  0.3753450E-03  0.8015986E+03  0.7818609E-02  0.9557706E-01
        1   -1    0    0  501    0  0.00000000000E+00  0.00000000000E+00  0.20416413766E+04  0.20416413766E+04  0.50400001928E-02 0. -1.
       -1   -1    0    0    0  501  0.00000000000E+00  0.00000000000E+00 -0.78681838826E+02  0.78681838987E+02  0.50400001928E-02 0.  1.
    10030    2    1    2    0    0  0.00000000000E+00  0.00000000000E+00  0.19629595377E+04  0.21203232156E+04  0.80159864747E+03 0.  0.
        5    1    3    3  502    0 -0.49632196950E+02 -0.26194512258E+03  0.17729820967E+04  0.17929211381E+04  0.46999998093E+01 0. -1.
       -5    1    3    3    0  502  0.49632196950E+02  0.26194512258E+03  0.18997744101E+03  0.32740207744E+03  0.46999998093E+01 0.  1.
</event>
<event>
 5   0  0.3627496E-03  0.8006054E+03  0.7818609E-02  0.9559141E-01
       -1   -1    0    0    0  501  0.00000000000E+00  0.00000000000E+00  0.30727580750E+03  0.30727580754E+03  0.50400001928E-02 0.  1.
        1   -1    0    0  501    0  0.00000000000E+00  0.00000000000E+00 -0.52149323963E+03  0.52149323966E+03  0.50400001928E-02 0. -1.
    10030    2    1    2    0    0  0.00000000000E+00  0.00000000000E+00 -0.21421743214E+03  0.82876904720E+03  0.80060541178E+03 0.  0.
        3    1    3    3  502    0  0.47960081219E+02 -0.26575078540E+03  0.19878346445E+03  0.33531854298E+03  0.10100000352E+00 0.  1.
       -3    1    3    3    0  502 -0.47960081219E+02  0.26575078540E+03 -0.41300089659E+03  0.49345050422E+03  0.10100000352E+00 0. -1.
</event>
<event>
 5   0  0.3627496E-03  0.7741489E+03  0.7818609E-02  0.9598208E-01
        1   -1    0    0  501    0  0.00000000000E+00  0.00000000000E+00  0.35668957362E+03  0.35668957366E+03  0.50400001928E-02 0.  1.
       -1   -1    0    0    0  501  0.00000000000E+00  0.00000000000E+00 -0.42004771812E+03  0.42004771816E+03  0.50400001928E-02 0. -1.
    10030    2    1    2    0    0  0.00000000000E+00  0.00000000000E+00 -0.63358144505E+02  0.77673729181E+03  0.77414893013E+03 0.  0.
        3    1    3    3  502    0 -0.37973732137E+03 -0.56037105906E+02  0.18347847889E+02  0.38428797041E+03  0.10100000352E+00 0.  1.
       -3    1    3    3    0  502  0.37973732137E+03  0.56037105906E+02 -0.81705992394E+02  0.39244932140E+03  0.10100000352E+00 0. -1.
</event>
<event>
 5   0  0.3860515E-03  0.8021187E+03  0.7818609E-02  0.9556955E-01
       -1   -1    0    0    0  501  0.00000000000E+00  0.00000000000E+00  0.22071852256E+03  0.22071852261E+03  0.50400001928E-02 0.  1.
        1   -1    0    0  501    0  0.00000000000E+00  0.00000000000E+00 -0.72874986105E+03  0.72874986106E+03  0.50400001928E-02 0. -1.
    10030    2    1    2    0    0  0.00000000000E+00  0.00000000000E+00 -0.50803133849E+03  0.94946838368E+03  0.80211867621E+03 0.  0.
        4    1    3    3  502    0 -0.82474481568E+02 -0.38549093809E+03 -0.16669677402E+03  0.42801253583E+03  0.12699999809E+01 0.  1.
       -4    1    3    3    0  502  0.82474481568E+02  0.38549093809E+03 -0.34133456447E+03  0.52145584785E+03  0.12699999809E+01 0. -1.
</event>
<event>
 5   0  0.6153659E-03  0.8001871E+03  0.7818609E-02  0.9559746E-01
        2   -1    0    0  501    0  0.00000000000E+00  0.00000000000E+00  0.55744830251E+03  0.55744830251E+03  0.25500000920E-02 0. -1.
       -2   -1    0    0    0  501  0.00000000000E+00  0.00000000000E+00 -0.28715637181E+03  0.28715637183E+03  0.25500000920E-02 0.  1.
    10030    2    1    2    0    0  0.00000000000E+00  0.00000000000E+00  0.27029193069E+03  0.84460467434E+03  0.80018705820E+03 0.  0.
        2    1    3    3  502    0 -0.37953075936E+03 -0.83626622067E+02  0.34801397068E+02  0.39018988513E+03  0.25500000920E-02 0.  1.
       -2    1    3    3    0  502  0.37953075936E+03  0.83626622067E+02  0.23549053362E+03  0.45441478920E+03  0.25500000920E-02 0. -1.
</event>
<event>
 5   0  0.6256781E-03  0.7959706E+03  0.7818609E-02  0.9565868E-01
       -2   -1    0    0    0  501  0.00000000000E+00  0.00000000000E+00  0.11737984313E+04  0.11737984313E+04  0.25500000920E-02 0. -1.
        2   -1    0    0  501    0  0.00000000000E+00  0.00000000000E+00 -0.13493993652E+03  0.13493993654E+03  0.25500000920E-02 0.  1.
    10030    2    1    2    0    0  0.00000000000E+00  0.00000000000E+00  0.10388584948E+04  0.13087383678E+04  0.79597056685E+03 0.  0.
        1    1    3    3  502    0 -0.19825955530E+03 -0.11108881078E+03  0.10566205938E+04  0.10807842774E+04  0.50400001928E-02 0. -1.
       -1    1    3    3    0  502  0.19825955530E+03  0.11108881078E+03 -0.17762098991E+02  0.22795409041E+03  0.50400001928E-02 0.  1.
</event>
<event>
 5   0  0.3753450E-03  0.7937729E+03  0.7818609E-02  0.9569074E-01
       -1   -1    0    0    0  501  0.00000000000E+00  0.00000000000E+00  0.25265483238E+03  0.25265483243E+03  0.50400001928E-02 0. -1.
        1   -1    0    0  501    0  0.00000000000E+00  0.00000000000E+00 -0.62345481756E+03  0.62345481758E+03  0.50400001928E-02 0.  1.
    10030    2    1    2    0    0  0.00000000000E+00  0.00000000000E+00 -0.37079998518E+03  0.87610965000E+03  0.79377294601E+03 0.  0.
        5    1    3    3  502    0 -0.19941866593E+03  0.30261624161E+03 -0.36389162041E+03  0.51359867154E+03  0.46999998093E+01 0.  1.
       -5    1    3    3    0  502  0.19941866593E+03 -0.30261624161E+03 -0.69083647730E+01  0.36251097847E+03  0.46999998093E+01 0. -1.
</event>
<event>
 5   0  0.3671128E-03  0.7986259E+03  0.7818609E-02  0.9562008E-01
       -1   -1    0    0    0  501  0.00000000000E+00  0.00000000000E+00  0.15926665317E+03  0.15926665324E+03  0.50400001928E-02 0.  1.
        1   -1    0    0  501    0  0.00000000000E+00  0.00000000000E+00 -0.10011563512E+04  0.10011563512E+04  0.50400001928E-02 0. -1.
    10030    2    1    2    0    0  0.00000000000E+00  0.00000000000E+00 -0.84188969800E+03  0.11604230044E+04  0.79862587335E+03 0.  0.
        2    1    3    3  502    0  0.15552007924E+02 -0.99953017258E+02 -0.98223067019E+03  0.98742572383E+03  0.25500000920E-02 0. -1.
       -2    1    3    3    0  502 -0.15552007924E+02  0.99953017258E+02  0.14034097219E+03  0.17299728059E+03  0.25500000920E-02 0.  1.
</event>
<event>
 5   0  0.3627496E-03  0.8000870E+03  0.7818609E-02  0.9559891E-01
        1   -1    0    0  501    0  0.00000000000E+00  0.00000000000E+00  0.16641123216E+03  0.16641123224E+03  0.50400001928E-02 0. -1.
       -1   -1    0    0    0  501  0.00000000000E+00  0.00000000000E+00 -0.96168278540E+03  0.96168278541E+03  0.50400001928E-02 0.  1.
    10030    2    1    2    0    0  0.00000000000E+00  0.00000000000E+00 -0.79527155324E+03  0.11280940176E+04  0.80008703856E+03 0.  0.
        3    1    3    3  502    0 -0.72529743692E+02 -0.87136328759E+02  0.14328626551E+03  0.18271362181E+03  0.10100000352E+00 0. -1.
       -3    1    3    3    0  502  0.72529743692E+02  0.87136328759E+02 -0.93855781875E+03  0.94538039584E+03  0.10100000352E+00 0.  1.
</event>
<event>
 5   0  0.6153659E-03  0.7999434E+03  0.7818609E-02  0.9560099E-01
        2   -1    0    0  501    0  0.00000000000E+00  0.00000000000E+00  0.13807037740E+04  0.13807037740E+04  0.25500000920E-02 0. -1.
       -2   -1    0    0    0  501  0.00000000000E+00  0.00000000000E+00 -0.11586653173E+03  0.11586653176E+03  0.25500000920E-02 0.  1.
    10030    2    1    2    0    0  0.00000000000E+00  0.00000000000E+00  0.12648372423E+04  0.14965703058E+04  0.79994339216E+03 0.  0.
        2    1    3    3  502    0  0.25991622881E+03  0.23748192383E+03  0.98750114628E+03  0.10483857229E+04  0.25500000920E-02 0. -1.
       -2    1    3    3    0  502 -0.25991622881E+03 -0.23748192383E+03  0.27733609601E+03  0.44818458285E+03  0.25500000920E-02 0.  1.
</event>
<event>
 5   0  0.6256781E-03  0.7995294E+03  0.7818609E-02  0.9560698E-01
       -2   -1    0    0    0  501  0.00000000000E+00  0.00000000000E+00  0.29304324367E+03  0.29304324368E+03  0.25500000920E-02 0. -1.
        2   -1    0    0  501    0  0.00000000000E+00  0.00000000000E+00 -0.54535236809E+03  0.54535236810E+03  0.25500000920E-02 0.  1.
    10030    2    1    2    0    0  0.00000000000E+00  0.00000000000E+00 -0.25230912442E+03  0.83839561178E+03  0.79952942884E+03 0.  0.
        1    1    3    3  502    0  0.30462941896E+03  0.21369387880E+03  0.27056380395E+02  0.37309007556E+03  0.50400001928E-02 0. -1.
       -1    1    3    3    0  502 -0.30462941896E+03 -0.21369387880E+03 -0.27936550481E+03  0.46530553622E+03  0.50400001928E-02 0.  1.
</event>
<event>
 5   0  0.3714448E-03  0.8173461E+03  0.7818609E-02  0.9535243E-01
       -1   -1    0    0    0  501  0.00000000000E+00  0.00000000000E+00  0.17148655258E+03  0.17148655266E+03  0.50400001928E-02 0.  1.
        1   -1    0    0  501    0  0.00000000000E+00  0.00000000000E+00 -0.97391685374E+03  0.97391685375E+03  0.50400001928E-02 0. -1.
    10030    2    1    2    0    0  0.00000000000E+00  0.00000000000E+00 -0.80243030116E+03  0.11454034064E+04  0.81734605597E+03 0.  0.
        1    1    3    3  502    0 -0.31164823715E+03 -0.80267907786E+02 -0.75419905831E+03  0.81999010989E+03  0.50400001928E-02 0. -1.
       -1    1    3    3    0  502  0.31164823715E+03  0.80267907786E+02 -0.48231242844E+02  0.32541329652E+03  0.50400001928E-02 0.  1.
</event>
<event>
 5   0  0.6153659E-03  0.7980870E+03  0.7818609E-02  0.9562790E-01
        2   -1    0    0  501    0  0.00000000000E+00  0.00000000000E+00  0.53857725535E+03  0.53857725535E+03  0.25500000920E-02 0.  1.
       -2   -1    0    0    0  501  0.00000000000E+00  0.00000000000E+00 -0.29565995455E+03  0.29565995456E+03  0.25500000920E-02 0. -1.
    10030    2    1    2    0    0  0.00000000000E+00  0.00000000000E+00  0.24291730079E+03  0.83423720991E+03  0.79808702995E+03 0.  0.
        2    1    3    3  502    0 -0.41515964270E+02  0.29937719612E+03  0.39380881483E+03  0.49642286762E+03  0.25500000920E-02 0.  1.
       -2    1    3    3    0  502  0.41515964270E+02 -0.29937719612E+03 -0.15089151403E+03  0.33781434230E+03  0.25500000920E-02 0. -1.
</event>
<event>
 5   0  0.3671128E-03  0.8006465E+03  0.7818609E-02  0.9559082E-01
        1   -1    0    0  501    0  0.00000000000E+00  0.00000000000E+00  0.14726867826E+03  0.14726867835E+03  0.50400001928E-02 0. -1.
       -1   -1    0    0    0  501  0.00000000000E+00  0.00000000000E+00 -0.10882063954E+04  0.10882063954E+04  0.50400001928E-02 0.  1.
    10030    2    1    2    0    0  0.00000000000E+00  0.00000000000E+00 -0.94093771712E+03  0.12354750737E+04  0.80064653270E+03 0.  0.
        2    1    3    3  502    0  0.21952762208E+03  0.32366310055E+03 -0.33854953457E+03  0.51726779029E+03  0.25500000920E-02 0. -1.
       -2    1    3    3    0  502 -0.21952762208E+03 -0.32366310055E+03 -0.60238818255E+03  0.71820728345E+03  0.25500000920E-02 0.  1.
</event>
<event>
 5   0  0.2478000E-03  0.8009781E+03  0.7818609E-02  0.9558602E-01
        3   -1    0    0  501    0  0.00000000000E+00  0.00000000000E+00  0.28168030304E+03  0.28168032114E+03  0.10100000352E+00 0. -1.
       -3   -1    0    0    0  501  0.00000000000E+00  0.00000000000E+00 -0.56940957122E+03  0.56940958018E+03  0.10100000352E+00 0.  1.
    10030    2    1    2    0    0  0.00000000000E+00  0.00000000000E+00 -0.28772926819E+03  0.85108990132E+03  0.80097808232E+03 0.  0.
        2    1    3    3  502    0  0.30223337306E+03 -0.19936437107E+02 -0.42226635070E+03  0.51966464596E+03  0.25500000920E-02 0.  1.
       -2    1    3    3    0  502 -0.30223337306E+03  0.19936437107E+02  0.13453708251E+03  0.33142525537E+03  0.25500000920E-02 0. -1.
</event>
<event>
 5   0  0.3627496E-03  0.7938678E+03  0.7818609E-02  0.9568936E-01
        1   -1    0    0  501    0  0.00000000000E+00  0.00000000000E+00  0.38587125044E+03  0.38587125048E+03  0.50400001928E-02 0.  1.
       -1   -1    0    0    0  501  0.00000000000E+00  0.00000000000E+00 -0.40831365802E+03  0.40831365806E+03  0.50400001928E-02 0. -1.
    10030    2    1    2    0    0  0.00000000000E+00  0.00000000000E+00 -0.22442407580E+02  0.79418490853E+03  0.79386775176E+03 0.  0.
        3    1    3    3  502    0 -0.26237583503E+02 -0.34493927937E+03 -0.20593959315E+03  0.40259488753E+03  0.10100000352E+00 0. -1.
       -3    1    3    3    0  502  0.26237583503E+02  0.34493927937E+03  0.18349718557E+03  0.39159002100E+03  0.10100000352E+00 0.  1.
</event>
<event>
 5   0  0.5813850E-03  0.7826797E+03  0.7818609E-02  0.9585432E-01
       -2   -1    0    0    0  501  0.00000000000E+00  0.00000000000E+00  0.12514877633E+03  0.12514877636E+03  0.25500000920E-02 0. -1.
        2   -1    0    0  501    0  0.00000000000E+00  0.00000000000E+00 -0.12237184617E+04  0.12237184617E+04  0.25500000920E-02 0.  1.
    10030    2    1    2    0    0  0.00000000000E+00  0.00000000000E+00 -0.10985696853E+04  0.13488672380E+04  0.78267967412E+03 0.  0.
        5    1    3    3  502    0 -0.22627076949E+03 -0.13783677540E+03 -0.10455731225E+04  0.10786300025E+04  0.46999998093E+01 0.  1.
       -5    1    3    3    0  502  0.22627076949E+03  0.13783677540E+03 -0.52996562783E+02  0.27023723549E+03  0.46999998093E+01 0. -1.
</event>
<event>
 5   0  0.6153659E-03  0.8005227E+03  0.7818609E-02  0.9559261E-01
       -2   -1    0    0    0  501  0.00000000000E+00  0.00000000000E+00  0.66938522127E+03  0.66938522128E+03  0.25500000920E-02 0.  1.
        2   -1    0    0  501    0  0.00000000000E+00  0.00000000000E+00 -0.23933773153E+03  0.23933773154E+03  0.25500000920E-02 0. -1.
    10030    2    1    2    0    0  0.00000000000E+00  0.00000000000E+00  0.43004748975E+03  0.90872295282E+03  0.80052268022E+03 0.  0.
        2    1    3    3  502    0  0.34467719380E+03 -0.12704846699E+03  0.34588465059E+02  0.36897160163E+03  0.25500000920E-02 0. -1.
       -2    1    3    3    0  502 -0.34467719380E+03  0.12704846699E+03  0.39545902469E+03  0.53975135119E+03  0.25500000920E-02 0.  1.
</event>
<event>
 5   0  0.3753450E-03  0.8026185E+03  0.7818609E-02  0.9556235E-01
       -1   -1    0    0    0  501  0.00000000000E+00  0.00000000000E+00  0.27561390247E+03  0.27561390252E+03  0.50400001928E-02 0.  1.
        1   -1    0    0  501    0  0.00000000000E+00  0.00000000000E+00 -0.58432864222E+03  0.58432864225E+03  0.50400001928E-02 0. -1.
    10030    2    1    2    0    0  0.00000000000E+00  0.00000000000E+00 -0.30871473975E+03  0.85994254476E+03  0.80261845839E+03 0.  0.
        5    1    3    3  502    0 -0.15428244053E+03  0.36303931905E+03 -0.75432159811E+02  0.40163754726E+03  0.46999998093E+01 0.  1.
       -5    1    3    3    0  502  0.15428244053E+03 -0.36303931905E+03 -0.23328257994E+03  0.45830499750E+03  0.46999998093E+01 0. -1.
</event>
<event>
 5   0  0.3753450E-03  0.7984084E+03  0.7818609E-02  0.9562324E-01
        1   -1    0    0  501    0  0.00000000000E+00  0.00000000000E+00  0.13161932155E+04  0.13161932155E+04  0.50400001928E-02 0. -1.
       -1   -1    0    0    0  501  0.00000000000E+00  0.00000000000E+00 -0.12107949221E+03  0.12107949232E+03  0.50400001928E-02 0.  1.
    10030    2    1    2    0    0  0.00000000000E+00  0.00000000000E+00  0.11951137233E+04  0.14372727079E+04  0.79840843250E+03 0.  0.
        5    1    3    3  502    0 -0.11872868786E+03 -0.35634882201E+03  0.84081956763E+03  0.92091292725E+03  0.46999998093E+01 0. -1.
       -5    1    3    3    0  502  0.11872868786E+03  0.35634882201E+03  0.35429415569E+03  0.51635978060E+03  0.46999998093E+01 0.  1.
</event>
<event>
 5   0  0.3671128E-03  0.7769309E+03  0.7818609E-02  0.9594022E-01
       -1   -1    0    0    0  501  0.00000000000E+00  0.00000000000E+00  0.48100011989E+03  0.48100011992E+03  0.50400001928E-02 0. -1.
        1   -1    0    0  501    0  0.00000000000E+00  0.00000000000E+00 -0.31373257302E+03  0.31373257306E+03  0.50400001928E-02 0.  1.
    10030    2    1    2    0    0  0.00000000000E+00  0.00000000000E+00  0.16726754687E+03  0.79473269299E+03  0.77693089851E+03 0.  0.
        2    1    3    3  502    0  0.80909993699E+02 -0.31879365682E+03 -0.12781394838E+03  0.35286290272E+03  0.25500000920E-02 0.  1.
       -2    1    3    3    0  502 -0.80909993699E+02  0.31879365682E+03  0.29508149525E+03  0.44186979027E+03  0.25500000920E-02 0. -1.
</event>
<event>
 5   0  0.3714448E-03  0.7982975E+03  0.7818609E-02  0.9562485E-01
       -1   -1    0    0    0  501  0.00000000000E+00  0.00000000000E+00  0.33514615804E+03  0.33514615808E+03  0.50400001928E-02 0.  1.
        1   -1    0    0  501    0  0.00000000000E+00  0.00000000000E+00 -0.47537392131E+03  0.47537392133E+03  0.50400001928E-02 0. -1.
    10030    2    1    2    0    0  0.00000000000E+00  0.00000000000E+00 -0.14022776326E+03  0.81052007941E+03  0.79829754700E+03 0.  0.
        1    1    3    3  502    0  0.52359255110E+02  0.19046773412E+03 -0.42226764013E+03  0.46618602431E+03  0.50400001928E-02 0. -1.
       -1    1    3    3    0  502 -0.52359255110E+02 -0.19046773412E+03  0.28203987687E+03  0.34433405510E+03  0.50400001928E-02 0.  1.
</event>
<event>
 5   0  0.6153659E-03  0.7994224E+03  0.7818609E-02  0.9560853E-01
        2   -1    0    0  501    0  0.00000000000E+00  0.00000000000E+00  0.71758808523E+03  0.71758808523E+03  0.25500000920E-02 0.  1.
       -2   -1    0    0    0  501  0.00000000000E+00  0.00000000000E+00 -0.22264731760E+03  0.22264731761E+03  0.25500000920E-02 0. -1.
    10030    2    1    2    0    0  0.00000000000E+00  0.00000000000E+00  0.49494076763E+03  0.94023540284E+03  0.79942244733E+03 0.  0.
        2    1    3    3  502    0  0.35356068916E+03 -0.17495125134E+03  0.17164825119E+03  0.43020486214E+03  0.25500000920E-02 0. -1.
       -2    1    3    3    0  502 -0.35356068916E+03  0.17495125134E+03  0.32329251643E+03  0.51003054071E+03  0.25500000920E-02 0.  1.
</event>
<event>
 5   0  0.3714448E-03  0.7969718E+03  0.7818609E-02  0.9564411E-01
       -1   -1    0    0    0  501  0.00000000000E+00  0.00000000000E+00  0.22155955232E+03  0.22155955237E+03  0.50400001928E-02 0. -1.
        1   -1    0    0  501    0  0.00000000000E+00  0.00000000000E+00 -0.71669675688E+03  0.71669675689E+03  0.50400001928E-02 0.  1.
    10030    2    1    2    0    0  0.00000000000E+00  0.00000000000E+00 -0.49513720456E+03  0.93825630927E+03  0.79697180034E+03 0.  0.
        1    1    3    3  502    0  0.30353063549E+03  0.12343213562E+03  0.19402535004E+02  0.32824197960E+03  0.50400001928E-02 0. -1.
       -1    1    3    3    0  502 -0.30353063549E+03 -0.12343213562E+03 -0.51453973956E+03  0.61001432967E+03  0.50400001928E-02 0.  1.
</event>
<event>
 5   0  0.2478000E-03  0.7993197E+03  0.7818609E-02  0.9561002E-01
        3   -1    0    0  501    0  0.00000000000E+00  0.00000000000E+00  0.99918421239E+03  0.99918421749E+03  0.10100000352E+00 0. -1.
       -3   -1    0    0    0  501  0.00000000000E+00  0.00000000000E+00 -0.15985838611E+03  0.15985841802E+03  0.10100000352E+00 0.  1.
    10030    2    1    2    0    0  0.00000000000E+00  0.00000000000E+00  0.83932582628E+03  0.11590426355E+04  0.79931970342E+03 0.  0.
        1    1    3    3  502    0  0.36107690396E+03 -0.15174750379E+03  0.53497647087E+03  0.66302613816E+03  0.50400001928E-02 0. -1.
       -1    1    3    3    0  502 -0.36107690396E+03  0.15174750379E+03  0.30434935540E+03  0.49601649734E+03  0.50400001928E-02 0.  1.
</event>
<event>
 5   0  0.5813850E-03  0.8021322E+03  0.7818609E-02  0.9556936E-01
       -2   -1    0    0    0  501  0.00000000000E+00  0.00000000000E+00  0.12849704774E+03  0.12849704777E+03  0.25500000920E-02 0.  1.
        2   -1    0    0  501    0  0.00000000000E+00  0.00000000000E+00 -0.12518108346E+04  0.12518108346E+04  0.25500000920E-02 0. -1.
    10030    2    1    2    0    0  0.00000000000E+00  0.00000000000E+00 -0.11233137868E+04  0.13803078823E+04  0.80213215019E+03 0.  0.
        5    1    3    3  502    0  0.33184843054E+02  0.97792115072E+02 -0.12284910529E+04  0.12328328713E+04  0.46999998093E+01 0. -1.
       -5    1    3    3    0  502 -0.33184843054E+02 -0.97792115072E+02  0.10517726606E+03  0.14747501101E+03  0.46999998093E+01 0.  1.
</event>
<event>
 5   0  0.3627496E-03  0.7999671E+03  0.7818609E-02  0.9560065E-01
        1   -1    0    0  501    0  0.00000000000E+00  0.00000000000E+00  0.82979462390E+03  0.82979462391E+03  0.50400001928E-02 0.  1.
       -1   -1    0    0    0  501  0.00000000000E+00  0.00000000000E+00 -0.19280293317E+03  0.19280293323E+03  0.50400001928E-02 0. -1.
    10030    2    1    2    0    0  0.00000000000E+00  0.00000000000E+00  0.63699169073E+03  0.10225975571E+04  0.79996709296E+03 0.  0.
        3    1    3    3  502    0  0.39506106429E+03 -0.60748844092E+02  0.29939988665E+03  0.49940361322E+03  0.10100000352E+00 0. -1.
       -3    1    3    3    0  502 -0.39506106429E+03  0.60748844092E+02  0.33759180408E+03  0.52319394392E+03  0.10100000352E+00 0.  1.
</event>
<event>
 5   0  0.3753450E-03  0.8248605E+03  0.7818609E-02  0.9524714E-01
       -1   -1    0    0    0  501  0.00000000000E+00  0.00000000000E+00  0.14332524918E+03  0.14332524926E+03  0.50400001928E-02 0.  1.
        1   -1    0    0  501    0  0.00000000000E+00  0.00000000000E+00 -0.11868022673E+04  0.11868022673E+04  0.50400001928E-02 0. -1.
    10030    2    1    2    0    0  0.00000000000E+00  0.00000000000E+00 -0.10434770181E+04  0.13301275165E+04  0.82486054759E+03 0.  0.
        5    1    3    3  502    0  0.33023644469E+02 -0.86655782877E+02  0.12625086884E+03  0.15671999771E+03  0.46999998093E+01 0.  1.
       -5    1    3    3    0  502 -0.33023644469E+02  0.86655782877E+02 -0.11697278869E+04  0.11734075188E+04  0.46999998093E+01 0. -1.
</event>
<event>
 5   0  0.3753450E-03  0.7982440E+03  0.7818609E-02  0.9562562E-01
        1   -1    0    0  501    0  0.00000000000E+00  0.00000000000E+00  0.74433630671E+03  0.74433630673E+03  0.50400001928E-02 0. -1.
       -1   -1    0    0    0  501  0.00000000000E+00  0.00000000000E+00 -0.21401397058E+03  0.21401397064E+03  0.50400001928E-02 0.  1.
    10030    2    1    2    0    0  0.00000000000E+00  0.00000000000E+00  0.53032233613E+03  0.95835027737E+03  0.79824399399E+03 0.  0.
        5    1    3    3  502    0  0.10506799357E+03 -0.20090276458E+03  0.65948149700E+03  0.69738019686E+03  0.46999998093E+01 0. -1.
       -5    1    3    3    0  502 -0.10506799357E+03  0.20090276458E+03 -0.12915916087E+03  0.26097008051E+03  0.46999998093E+01 0.  1.
</event>
<event>
 5   0  0.6153659E-03  0.8012839E+03  0.7818609E-02  0.9558161E-01
       -2   -1    0    0    0  501  0.00000000000E+00  0.00000000000E+00  0.26596846495E+03  0.26596846496E+03  0.25500000920E-02 0. -1.
        2   -1    0    0  501    0  0.00000000000E+00  0.00000000000E+00 -0.60350755374E+03  0.60350755375E+03  0.25500000920E-02 0.  1.
    10030    2    1    2    0    0  0.00000000000E+00  0.00000000000E+00 -0.33753908880E+03  0.86947601871E+03  0.80128391388E+03 0.  0.
        2    1    3    3  502    0  0.12201428078E+03 -0.37936223345E+03 -0.21365125284E+03  0.45216152725E+03  0.25500000920E-02 0. -1.
       -2    1    3    3    0  502 -0.12201428078E+03  0.37936223345E+03 -0.12388783596E+03  0.41731449146E+03  0.25500000920E-02 0.  1.
</event>
<event>
 5   0  0.3753450E-03  0.8010328E+03  0.7818609E-02  0.9558523E-01
       -1   -1    0    0    0  501  0.00000000000E+00  0.00000000000E+00  0.66518162187E+03  0.66518162189E+03  0.50400001928E-02 0. -1.
        1   -1    0    0  501    0  0.00000000000E+00  0.00000000000E+00 -0.24115726480E+03  0.24115726485E+03  0.50400001928E-02 0.  1.
    10030    2    1    2    0    0  0.00000000000E+00  0.00000000000E+00  0.42402435707E+03  0.90633888674E+03  0.80103278474E+03 0.  0.
        5    1    3    3  502    0 -0.97065658269E+02  0.17340181768E+03  0.60543170603E+03  0.63722803850E+03  0.46999998093E+01 0. -1.
       -5    1    3    3    0  502  0.97065658269E+02 -0.17340181768E+03 -0.18140734896E+03  0.26911084824E+03  0.46999998093E+01 0.  1.
</event>
<event>
 5   0  0.3714448E-03  0.8002474E+03  0.7818609E-02  0.9559659E-01
        1   -1    0    0  501    0  0.00000000000E+00  0.00000000000E+00  0.13719049124E+04  0.13719049124E+04  0.50400001928E-02 0.  1.
       -1   -1    0    0    0  501  0.00000000000E+00  0.00000000000E+00 -0.11669828939E+03  0.11669828950E+03  0.50400001928E-02 0. -1.
    10030    2    1    2    0    0  0.00000000000E+00  0.00000000000E+00  0.12552066230E+04  0.14886032019E+04  0.80024735318E+03 0.  0.
        1    1    3    3  502    0  0.26339621849E+03 -0.28245247982E+03  0.43302126564E+03  0.58022787575E+03  0.50400001928E-02 0. -1.
       -1    1    3    3    0  502 -0.26339621849E+03  0.28245247982E+03  0.82218535734E+03  0.90837532613E+03  0.50400001928E-02 0.  1.
</event>
<event>
 5   0  0.6153659E-03  0.8042380E+03  0.7818609E-02  0.9553903E-01
       -2   -1    0    0    0  501  0.00000000000E+00  0.00000000000E+00  0.23926301395E+03  0.23926301397E+03  0.25500000920E-02 0.  1.
        2   -1    0    0  501    0  0.00000000000E+00  0.00000000000E+00 -0.67582408659E+03  0.67582408659E+03  0.25500000920E-02 0. -1.
    10030    2    1    2    0    0  0.00000000000E+00  0.00000000000E+00 -0.43656107264E+03  0.91508710056E+03  0.80423804403E+03 0.  0.
        2    1    3    3  502    0 -0.24711408257E+03  0.14701073613E+03 -0.53813493496E+03  0.61013665237E+03  0.25500000920E-02 0. -1.
       -2    1    3    3    0  502  0.24711408257E+03 -0.14701073613E+03  0.10157386232E+03  0.30495044819E+03  0.25500000920E-02 0.  1.
</event>
<event>
 5   0  0.2478000E-03  0.8039010E+03  0.7818609E-02  0.9554388E-01
       -4   -1    0    0    0  501  0.00000000000E+00  0.00000000000E+00  0.86187973597E+03  0.86188067166E+03  0.12699999809E+01 0. -1.
        4   -1    0    0  501    0  0.00000000000E+00  0.00000000000E+00 -0.18745241688E+03  0.18745671899E+03  0.12699999809E+01 0.  1.
    10030    2    1    2    0    0  0.00000000000E+00  0.00000000000E+00  0.67442731909E+03  0.10493373906E+04  0.80390095825E+03 0.  0.
        1    1    3    3  502    0  0.10691832976E+02 -0.22945404258E+03  0.76776849985E+03  0.80139374987E+03  0.50400001928E-02 0. -1.
       -1    1    3    3    0  502 -0.10691832976E+02  0.22945404258E+03 -0.93341180756E+02  0.24794364077E+03  0.50400001928E-02 0.  1.
</event>
<event>
 5   0  0.3671128E-03  0.8021952E+03  0.7818609E-02  0.9556845E-01
        1   -1    0    0  501    0  0.00000000000E+00  0.00000000000E+00  0.86775562369E+03  0.86775562370E+03  0.50400001928E-02 0.  1.
       -1   -1    0    0    0  501  0.00000000000E+00  0.00000000000E+00 -0.18539699669E+03  0.18539699676E+03  0.50400001928E-02 0. -1.
    10030    2    1    2    0    0  0.00000000000E+00  0.00000000000E+00  0.68235862700E+03  0.10531526205E+04  0.80219520451E+03 0.  0.
        2    1    3    3  502    0 -0.48751853742E+02  0.34579774778E+03  0.82159067436E+02  0.35875191704E+03  0.25500000920E-02 0. -1.
       -2    1    3    3    0  502  0.48751853742E+02 -0.34579774778E+03  0.60019955956E+03  0.69440070342E+03  0.25500000920E-02 0.  1.
</event>
<event>
 5   0  0.3671128E-03  0.7964916E+03  0.7818609E-02  0.9565109E-01
        1   -1    0    0  501    0  0.00000000000E+00  0.00000000000E+00  0.11552855869E+04  0.11552855869E+04  0.50400001928E-02 0. -1.
       -1   -1    0    0    0  501  0.00000000000E+00  0.00000000000E+00 -0.13728181903E+03  0.13728181912E+03  0.50400001928E-02 0.  1.
    10030    2    1    2    0    0  0.00000000000E+00  0.00000000000E+00  0.10180037679E+04  0.12925674060E+04  0.79649157419E+03 0.  0.
        2    1    3    3  502    0  0.90085663028E+02  0.23644272429E+03  0.99224829542E+01  0.25321738532E+03  0.25500000920E-02 0.  1.
       -2    1    3    3    0  502 -0.90085663028E+02 -0.23644272429E+03  0.10080812849E+04  0.10393500207E+04  0.25500000920E-02 0. -1.
</event>
<event>
 5   0  0.3860515E-03  0.8011931E+03  0.7818609E-02  0.9558292E-01
       -1   -1    0    0    0  501  0.00000000000E+00  0.00000000000E+00  0.15780782745E+03  0.15780782753E+03  0.50400001928E-02 0.  1.
        1   -1    0    0  501    0  0.00000000000E+00  0.00000000000E+00 -0.10169179132E+04  0.10169179132E+04  0.50400001928E-02 0. -1.
    10030    2    1    2    0    0  0.00000000000E+00  0.00000000000E+00 -0.85911008575E+03  0.11747257407E+04  0.80119312686E+03 0.  0.
        4    1    3    3  502    0 -0.39654594788E+02  0.39751615810E+03 -0.38595104490E+03  0.55547403612E+03  0.12699999809E+01 0. -1.
       -4    1    3    3    0  502  0.39654594788E+02 -0.39751615810E+03 -0.47315904085E+03  0.61925170463E+03  0.12699999809E+01 0.  1.
</event>
<event>
 5   0  0.3753450E-03  0.7974085E+03  0.7818609E-02  0.9563776E-01
        1   -1    0    0  501    0  0.00000000000E+00  0.00000000000E+00  0.78599534985E+03  0.78599534986E+03  0.50400001928E-02 0.  1.
       -1   -1    0    0    0  501  0.00000000000E+00  0.00000000000E+00 -0.20224685152E+03  0.20224685158E+03  0.50400001928E-02 0. -1.
    10030    2    1    2    0    0  0.00000000000E+00  0.00000000000E+00  0.58374849833E+03  0.98824220144E+03  0.79740851476E+03 0.  0.
        5    1    3    3  502    0 -0.21276163512E+03  0.30743295769E+03  0.12032632385E+03  0.39278881229E+03  0.46999998093E+01 0.  1.
       -5    1    3    3    0  502  0.21276163512E+03 -0.30743295769E+03  0.46342217448E+03  0.59545338915E+03  0.46999998093E+01 0. -1.
</event>
<event>
 5   0  0.3627496E-03  0.7997685E+03  0.7818609E-02  0.9560352E-01
       -1   -1    0    0    0  501  0.00000000000E+00  0.00000000000E+00  0.26679198268E+03  0.26679198273E+03  0.50400001928E-02 0. -1.
        1   -1    0    0  501    0  0.00000000000E+00  0.00000000000E+00 -0.59937115867E+03  0.59937115869E+03  0.50400001928E-02 0.  1.
    10030    2    1    2    0    0  0.00000000000E+00  0.00000000000E+00 -0.33257917598E+03  0.86616314142E+03  0.79976851604E+03 0.  0.
        3    1    3    3  502    0  0.23062204846E+03  0.16548295243E+03  0.13876059665E+03  0.31595197446E+03  0.10100000352E+00 0. -1.
       -3    1    3    3    0  502 -0.23062204846E+03 -0.16548295243E+03 -0.47133977263E+03  0.55021116696E+03  0.10100000352E+00 0.  1.
</event>
<event>
 5   0  0.5813850E-03  0.8017846E+03  0.7818609E-02  0.9557438E-01
       -2   -1    0    0    0  501  0.00000000000E+00  0.00000000000E+00  0.23315357772E+03  0.23315357774E+03  0.25500000920E-02 0. -1.
        2   -1    0    0  501    0  0.00000000000E+00  0.00000000000E+00 -0.68930796587E+03  0.68930796587E+03  0.25500000920E-02 0.  1.
    10030    2    1    2    0    0  0.00000000000E+00  0.00000000000E+00 -0.45615438814E+03  0.92246154361E+03  0.80178455561E+03 0.  0.
        5    1    3    3  502    0 -0.22464805772E+03  0.79759757921E+01  0.15378512843E+03  0.27240103111E+03  0.46999998093E+01 0. -1.
       -5    1    3    3    0  502  0.22464805772E+03 -0.79759757921E+01 -0.60993951657E+03  0.65006051249E+03  0.46999998093E+01 0.  1.
</event>
<event>
 5   0  0.3753450E-03  0.8005215E+03  0.7818609E-02  0.9559263E-01
       -1   -1    0    0    0  501  0.00000000000E+00  0.00000000000E+00  0.20815590592E+03  0.20815590598E+03  0.50400001928E-02 0. -1.
        1   -1    0    0  501    0  0.00000000000E+00  0.00000000000E+00 -0.76965710222E+03  0.76965710224E+03  0.50400001928E-02 0.  1.
    10030    2    1    2    0    0  0.00000000000E+00  0.00000000000E+00 -0.56150119630E+03  0.97781300822E+03  0.80052150852E+03 0.  0.
        5    1    3    3  502    0 -0.14706327725E+03  0.30414489262E+03 -0.54288289332E+03  0.63943385044E+03  0.46999998093E+01 0.  1.
       -5    1    3    3    0  502  0.14706327725E+03 -0.30414489262E+03 -0.18618302972E+02  0.33837915779E+03  0.46999998093E+01 0. -1.
</event>
<event>
 5   0  0.6256781E-03  0.7942105E+03  0.7818609E-02  0.9568435E-01
       -2   -1    0    0    0  501  0.00000000000E+00  0.00000000000E+00  0.34720688328E+03  0.34720688329E+03  0.25500000920E-02 0. -1.
        2   -1    0    0  501    0  0.00000000000E+00  0.00000000000E+00 -0.45417474839E+03  0.45417474840E+03  0.25500000920E-02 0.  1.
    10030    2    1    2    0    0  0.00000000000E+00  0.00000000000E+00 -0.10696786511E+03  0.80138163169E+03  0.79421054856E+03 0.  0.
        1    1    3    3  502    0  0.25134529401E+03 -0.85820427304E+02 -0.35136636675E+03  0.44045195683E+03  0.50400001928E-02 0.  1.
       -1    1    3    3    0  502 -0.25134529401E+03  0.85820427304E+02  0.24439850165E+03  0.36092967486E+03  0.50400001928E-02 0. -1.
</event>
<event>
 5   0  0.3627496E-03  0.8024658E+03  0.7818609E-02  0.9556455E-01
       -1   -1    0    0    0  501  0.00000000000E+00  0.00000000000E+00  0.17692176459E+03  0.17692176466E+03  0.50400001928E-02 0.  1.
        1   -1    0    0  501    0  0.00000000000E+00  0.00000000000E+00 -0.90993796908E+03  0.90993796910E+03  0.50400001928E-02 0. -1.
    10030    2    1    2    0    0  0.00000000000E+00  0.00000000000E+00 -0.73301620450E+03  0.10868597338E+04  0.80246577797E+03 0.  0.
        3    1    3    3  502    0 -0.10996858646E+03  0.38542854056E+03 -0.39146624988E+03  0.56026251426E+03  0.10100000352E+00 0.  1.
       -3    1    3    3    0  502  0.10996858646E+03 -0.38542854056E+03 -0.34154995462E+03  0.52659721950E+03  0.10100000352E+00 0. -1.
</event>
<event>
 5   0  0.3671128E-03  0.7941220E+03  0.7818609E-02  0.9568565E-01
       -1   -1    0    0    0  501  0.00000000000E+00  0.00000000000E+00  0.18765468348E+03  0.18765468355E+03  0.50400001928E-02 0.  1.
        1   -1    0    0  501    0  0.00000000000E+00  0.00000000000E+00 -0.84014646668E+03  0.84014646669E+03  0.50400001928E-02 0. -1.
    10030    2    1    2    0    0  0.00000000000E+00  0.00000000000E+00 -0.65249178320E+03  0.10278011502E+04  0.79412195367E+03 0.  0.
        2    1    3    3  502    0 -0.41685086381E+01 -0.32742886973E+03 -0.35597442919E+02  0.32938460672E+03  0.25500000920E-02 0.  1.
       -2    1    3    3    0  502  0.41685086381E+01  0.32742886973E+03 -0.61689434028E+03  0.69841654352E+03  0.25500000920E-02 0. -1.
</event>
<event>
 5   0  0.2478000E-03  0.8015009E+03  0.7818609E-02  0.9557847E-01
        3   -1    0    0  501    0  0.00000000000E+00  0.00000000000E+00  0.59199639583E+03  0.59199640445E+03  0.10100000352E+00 0. -1.
       -3   -1    0    0    0  501  0.00000000000E+00  0.00000000000E+00 -0.27128696684E+03  0.27128698564E+03  0.10100000352E+00 0.  1.
    10030    2    1    2    0    0  0.00000000000E+00  0.00000000000E+00  0.32070942899E+03  0.86328339009E+03  0.80150088818E+03 0.  0.
        4    1    3    3  502    0  0.18001487477E+03  0.58744237753E+02 -0.22006024097E+03  0.29031769351E+03  0.12699999809E+01 0.  1.
       -4    1    3    3    0  502 -0.18001487477E+03 -0.58744237753E+02  0.54076966996E+03  0.57296569658E+03  0.12699999809E+01 0. -1.
</event>
<event>
 5   0  0.6256781E-03  0.8012334E+03  0.7818609E-02  0.9558234E-01
        2   -1    0    0  501    0  0.00000000000E+00  0.00000000000E+00  0.19187820393E+03  0.19187820394E+03  0.25500000920E-02 0. -1.
       -2   -1    0    0    0  501  0.00000000000E+00  0.00000000000E+00 -0.83643548791E+03  0.83643548791E+03  0.25500000920E-02 0.  1.
    10030    2    1    2    0    0  0.00000000000E+00  0.00000000000E+00 -0.64455728398E+03  0.10283136919E+04  0.80123339704E+03 0.  0.
        1    1    3    3  502    0  0.13118767380E+03 -0.37051831386E+03 -0.42168903552E+03  0.57646827264E+03  0.50400001928E-02 0.  1.
       -1    1    3    3    0  502 -0.13118767380E+03  0.37051831386E+03 -0.22286824846E+03  0.45184541921E+03  0.50400001928E-02 0. -1.
</event>
<event>
 5   0  0.6536209E-03  0.8014189E+03  0.7818609E-02  0.9557966E-01
       -2   -1    0    0    0  501  0.00000000000E+00  0.00000000000E+00  0.94638617424E+03  0.94638617425E+03  0.25500000920E-02 0.  1.
        2   -1    0    0  501    0  0.00000000000E+00  0.00000000000E+00 -0.16966443938E+03  0.16966443940E+03  0.25500000920E-02 0. -1.
    10030    2    1    2    0    0  0.00000000000E+00  0.00000000000E+00  0.77672173487E+03  0.11160506136E+04  0.80141894088E+03 0.  0.
        3    1    3    3  502    0  0.48379954797E+02  0.25053911810E+03 -0.41897716196E+02  0.25858441280E+03  0.10100000352E+00 0. -1.
       -3    1    3    3    0  502 -0.48379954797E+02 -0.25053911810E+03  0.81861945106E+03  0.85746620084E+03  0.10100000352E+00 0.  1.
</event>
<event>
 5   0  0.6256781E-03  0.8070523E+03  0.7818609E-02  0.9549865E-01
        2   -1    0    0  501    0  0.00000000000E+00  0.00000000000E+00  0.13206962780E+04  0.13206962780E+04  0.25500000920E-02 0. -1.
       -2   -1    0    0    0  501  0.00000000000E+00  0.00000000000E+00 -0.12329356018E+03  0.12329356021E+03  0.25500000920E-02 0.  1.
    10030    2    1    2    0    0  0.00000000000E+00  0.00000000000E+00  0.11974027178E+04  0.14439898382E+04  0.80705228097E+03 0.  0.
        1    1    3    3  502    0  0.25690283591E+03 -0.16424132839E+03  0.12579641754E+03  0.32984696412E+03  0.50400001928E-02 0.  1.
       -1    1    3    3    0  502 -0.25690283591E+03  0.16424132839E+03  0.10716063003E+04  0.11141428741E+04  0.50400001928E-02 0. -1.
</event>
<event>
 5   0  0.6536209E-03  0.7962505E+03  0.7818609E-02  0.9565460E-01
        2   -1    0    0  501    0  0.00000000000E+00  0.00000000000E+00  0.70336707587E+03  0.70336707587E+03  0.25500000920E-02 0. -1.
       -2   -1    0    0    0  501  0.00000000000E+00  0.00000000000E+00 -0.22534993985E+03  0.22534993987E+03  0.25500000920E-02 0.  1.
    10030    2    1    2    0    0  0.00000000000E+00  0.00000000000E+00  0.47801713602E+03  0.92871701574E+03  0.79625053406E+03 0.  0.
        3    1    3    3  502    0 -0.29599729109E+03  0.24963918575E+03  0.34698125452E+03  0.51993280391E+03  0.10100000352E+00 0.  1.
       -3    1    3    3    0  502  0.29599729109E+03 -0.24963918575E+03  0.13103588150E+03  0.40878421183E+03  0.10100000352E+00 0. -1.
</event>
<event>
 5   0  0.6153659E-03  0.8018867E+03  0.7818609E-02  0.9557290E-01
        2   -1    0    0  501    0  0.00000000000E+00  0.00000000000E+00  0.12745567245E+04  0.12745567245E+04  0.25500000920E-02 0.  1.
       -2   -1    0    0    0  501  0.00000000000E+00  0.00000000000E+00 -0.12612665246E+03  0.12612665249E+03  0.25500000920E-02 0. -1.
    10030    2    1    2    0    0  0.00000000000E+00  0.00000000000E+00  0.11484300720E+04  0.14006833770E+04  0.80188670785E+03 0.  0.
        2    1    3    3  502    0 -0.22147133751E+03  0.17901546559E+03  0.81216418864E+02  0.29612868311E+03  0.25500000920E-02 0. -1.
       -2    1    3    3    0  502  0.22147133751E+03 -0.17901546559E+03  0.10672136532E+04  0.11045546939E+04  0.25500000920E-02 0.  1.
</event>
<event>
 5   0  0.6256781E-03  0.8020307E+03  0.7818609E-02  0.9557082E-01
        2   -1    0    0  501    0  0.00000000000E+00  0.00000000000E+00  0.18501585552E+04  0.18501585552E+04  0.25500000920E-02 0. -1.
       -2   -1    0    0    0  501  0.00000000000E+00  0.00000000000E+00 -0.86918670734E+02  0.86918670771E+02  0.25500000920E-02 0.  1.
    10030    2    1    2    0    0  0.00000000000E+00  0.00000000000E+00  0.17632398844E+04  0.19370772259E+04  0.80203072834E+03 0.  0.
        1    1    3    3  502    0  0.23900767361E+03 -0.30611076149E+03  0.64028132010E+03  0.74885822105E+03  0.50400001928E-02 0.  1.
       -1    1    3    3    0  502 -0.23900767361E+03  0.30611076149E+03  0.11229585643E+04  0.11882190049E+04  0.50400001928E-02 0. -1.
</event>
<event>
 5   0  0.3753450E-03  0.7993543E+03  0.7818609E-02  0.9560952E-01
       -1   -1    0    0    0  501  0.00000000000E+00  0.00000000000E+00  0.19880103156E+03  0.19880103163E+03  0.50400001928E-02 0.  1.
        1   -1    0    0  501    0  0.00000000000E+00  0.00000000000E+00 -0.80352618839E+03  0.80352618840E+03  0.50400001928E-02 0. -1.
    10030    2    1    2    0    0  0.00000000000E+00  0.00000000000E+00 -0.60472515682E+03  0.10023272200E+04  0.79935432739E+03 0.  0.
        5    1    3    3  502    0 -0.36985213658E+03  0.12758330436E+03 -0.20009578227E+03  0.43946389449E+03  0.46999998093E+01 0.  1.
       -5    1    3    3    0  502  0.36985213658E+03 -0.12758330436E+03 -0.40462937456E+03  0.56286332554E+03  0.46999998093E+01 0. -1.
</event>
<event>
 5   0  0.3627496E-03  0.8010748E+03  0.7818609E-02  0.9558463E-01
       -1   -1    0    0    0  501  0.00000000000E+00  0.00000000000E+00  0.28322752700E+03  0.28322752704E+03  0.50400001928E-02 0.  1.
        1   -1    0    0  501    0  0.00000000000E+00  0.00000000000E+00 -0.56643584693E+03  0.56643584696E+03  0.50400001928E-02 0. -1.
    10030    2    1    2    0    0  0.00000000000E+00  0.00000000000E+00 -0.28320831993E+03  0.84966337400E+03  0.80107483835E+03 0.  0.
        3    1    3    3  502    0  0.29683972900E+03 -0.24787125948E+03 -0.30989431397E+02  0.38796177781E+03  0.10100000352E+00 0. -1.
       -3    1    3    3    0  502 -0.29683972900E+03  0.24787125948E+03 -0.25221888854E+03  0.46170159619E+03  0.10100000352E+00 0.  1.
</event>
<event>
 5   0  0.6153659E-03  0.7941641E+03  0.7818609E-02  0.9568503E-01
        2   -1    0    0  501    0  0.00000000000E+00  0.00000000000E+00  0.79739701550E+03  0.79739701551E+03  0.25500000920E-02 0.  1.
       -2   -1    0    0    0  501  0.00000000000E+00  0.00000000000E+00 -0.19773609530E+03  0.19773609532E+03  0.25500000920E-02 0. -1.
    10030    2    1    2    0    0  0.00000000000E+00  0.00000000000E+00  0.59966092020E+03  0.99513311082E+03  0.79416414490E+03 0.  0.
        2    1    3    3  502    0  0.34095537788E+03  0.51156262935E+02  0.52985696880E+02  0.34881946193E+03  0.25500000920E-02 0. -1.
       -2    1    3    3    0  502 -0.34095537788E+03 -0.51156262935E+02  0.54667522332E+03  0.64631364889E+03  0.25500000920E-02 0.  1.
</event>
<event>
 5   0  0.3627496E-03  0.8004580E+03  0.7818609E-02  0.9559354E-01
       -1   -1    0    0    0  501  0.00000000000E+00  0.00000000000E+00  0.86941683739E+03  0.86941683740E+03  0.50400001928E-02 0.  1.
        1   -1    0    0  501    0  0.00000000000E+00  0.00000000000E+00 -0.18424219300E+03  0.18424219307E+03  0.50400001928E-02 0. -1.
    10030    2    1    2    0    0  0.00000000000E+00  0.00000000000E+00  0.68517464439E+03  0.10536590305E+04  0.80045803087E+03 0.  0.
        3    1    3    3  502    0  0.27751317696E+03 -0.27707193632E+03  0.23727485521E+03  0.45834679926E+03  0.10100000352E+00 0. -1.
       -3    1    3    3    0  502 -0.27751317696E+03  0.27707193632E+03  0.44789978918E+03  0.59531223121E+03  0.10100000352E+00 0.  1.
</event>
<event>
 5   0  0.3627496E-03  0.8016752E+03  0.7818609E-02  0.9557595E-01
       -1   -1    0    0    0  501  0.00000000000E+00  0.00000000000E+00  0.42501892969E+03  0.42501892972E+03  0.50400001928E-02 0. -1.
        1   -1    0    0  501    0  0.00000000000E+00  0.00000000000E+00 -0.37803210597E+03  0.37803210601E+03  0.50400001928E-02 0.  1.
    10030    2    1    2    0    0  0.00000000000E+00  0.00000000000E+00  0.46986823721E+02  0.80305103573E+03  0.80167524870E+03 0.  0.
        3    1    3    3  502    0  0.11839290231E+03 -0.18868194402E+03  0.35731151768E+03  0.42105734311E+03  0.10100000352E+00 0. -1.
       -3    1    3    3    0  502 -0.11839290231E+03  0.18868194402E+03 -0.31032469396E+03  0.38199369262E+03  0.10100000352E+00 0.  1.
</event>
<event>
 5   0  0.5813850E-03  0.8006483E+03  0.7818609E-02  0.9559079E-01
       -2   -1    0    0    0  501  0.00000000000E+00  0.00000000000E+00  0.13821008434E+03  0.13821008437E+03  0.25500000920E-02 0.  1.
        2   -1    0    0  501    0  0.00000000000E+00  0.00000000000E+00 -0.11595349385E+04  0.11595349385E+04  0.25500000920E-02 0. -1.
    10030    2    1    2    0    0  0.00000000000E+00  0.00000000000E+00 -0.10213248541E+04  0.12977450229E+04  0.80064829149E+03 0.  0.
        5    1    3    3  502    0 -0.35012459943E+03  0.13863429045E+03 -0.73071055680E+03  0.82205030833E+03  0.46999998093E+01 0. -1.
       -5    1    3    3    0  502  0.35012459943E+03 -0.13863429045E+03 -0.29061429734E+03  0.47569471453E+03  0.46999998093E+01 0.  1.
</event>
<event>
 5   0  0.6536209E-03  0.8383976E+03  0.7818609E-02  0.9506043E-01
        2   -1    0    0  501    0  0.00000000000E+00  0.00000000000E+00  0.41586909331E+03  0.41586909332E+03  0.25500000920E-02 0. -1.
       -2   -1    0    0    0  501  0.00000000000E+00  0.00000000000E+00 -0.42255517111E+03  0.42255517112E+03  0.25500000920E-02 0.  1.
    10030    2    1    2    0    0  0.00000000000E+00  0.00000000000E+00 -0.66860777966E+01  0.83842426443E+03  0.83839760469E+03 0.  0.
        3    1    3    3  502    0 -0.40613646336E+03 -0.10377119900E+03 -0.68555683717E+01  0.41924014315E+03  0.10100000352E+00 0.  1.
       -3    1    3    3    0  502  0.40613646336E+03  0.10377119900E+03  0.16949057505E+00  0.41918412128E+03  0.10100000352E+00 0. -1.
</event>
<event>
 5   0  0.3753450E-03  0.7985306E+03  0.7818609E-02  0.9562146E-01
        1   -1    0    0  501    0  0.00000000000E+00  0.00000000000E+00  0.17234389438E+04  0.17234389438E+04  0.50400001928E-02 0.  1.
       -1   -1    0    0    0  501  0.00000000000E+00  0.00000000000E+00 -0.92496912241E+02  0.92496912378E+02  0.50400001928E-02 0. -1.
    10030    2    1    2    0    0  0.00000000000E+00  0.00000000000E+00  0.16309420316E+04  0.18159358562E+04  0.79853060272E+03 0.  0.
        5    1    3    3  502    0 -0.21404096809E+03  0.16849434458E+03  0.15173540525E+03  0.31184868668E+03  0.46999998093E+01 0. -1.
       -5    1    3    3    0  502  0.21404096809E+03 -0.16849434458E+03  0.14792066263E+04  0.15040871695E+04  0.46999998093E+01 0.  1.
</event>
<event>
 5   0  0.6153659E-03  0.8003330E+03  0.7818609E-02  0.9559535E-01
        2   -1    0    0  501    0  0.00000000000E+00  0.00000000000E+00  0.12511441824E+04  0.12511441824E+04  0.25500000920E-02 0. -1.
       -2   -1    0    0    0  501  0.00000000000E+00  0.00000000000E+00 -0.12798943200E+03  0.12798943203E+03  0.25500000920E-02 0.  1.
    10030    2    1    2    0    0  0.00000000000E+00  0.00000000000E+00  0.11231547504E+04  0.13791336145E+04  0.80033301389E+03 0.  0.
        2    1    3    3  502    0 -0.59999341142E+00  0.24737604826E+03  0.19555147937E+02  0.24814848995E+03  0.25500000920E-02 0.  1.
       -2    1    3    3    0  502  0.59999341142E+00 -0.24737604826E+03  0.11035996025E+04  0.11309851245E+04  0.25500000920E-02 0. -1.
</event>
<event>
 5   0  0.3714448E-03  0.8002893E+03  0.7818609E-02  0.9559598E-01
       -1   -1    0    0    0  501  0.00000000000E+00  0.00000000000E+00  0.97836564604E+02  0.97836564734E+02  0.50400001928E-02 0.  1.
        1   -1    0    0  501    0  0.00000000000E+00  0.00000000000E+00 -0.16365633167E+04  0.16365633167E+04  0.50400001928E-02 0. -1.
    10030    2    1    2    0    0  0.00000000000E+00  0.00000000000E+00 -0.15387267521E+04  0.17343998815E+04  0.80028927966E+03 0.  0.
        1    1    3    3  502    0 -0.16458673434E+03 -0.40322984127E+02  0.16236787877E+02  0.17023034241E+03  0.50400001928E-02 0.  1.
       -1    1    3    3    0  502  0.16458673434E+03  0.40322984127E+02 -0.15549635400E+04  0.15641695391E+04  0.50400001928E-02 0. -1.
</event>
<event>
 5   0  0.3753450E-03  0.7981916E+03  0.7818609E-02  0.9562638E-01
        1   -1    0    0  501    0  0.00000000000E+00  0.00000000000E+00  0.12686401584E+04  0.12686401584E+04  0.50400001928E-02 0. -1.
       -1   -1    0    0    0  501  0.00000000000E+00  0.00000000000E+00 -0.12554976504E+03  0.12554976514E+03  0.50400001928E-02 0.  1.
    10030    2    1    2    0    0  0.00000000000E+00  0.00000000000E+00  0.11430903934E+04  0.13941899236E+04  0.79819164085E+03 0.  0.
        5    1    3    3  502    0 -0.14877607256E+03 -0.29829461726E+02  0.12162385054E+04  0.12256762658E+04  0.46999998093E+01 0. -1.
       -5    1    3    3    0  502  0.14877607256E+03  0.29829461726E+02 -0.73148112036E+02  0.16851365774E+03  0.46999998093E+01 0.  1.
</event>
<event>
 5   0  0.6256781E-03  0.8012014E+03  0.7818609E-02  0.9558280E-01
        2   -1    0    0  501    0  0.00000000000E+00  0.00000000000E+00  0.75780828539E+03  0.75780828539E+03  0.25500000920E-02 0.  1.
       -2   -1    0    0    0  501  0.00000000000E+00  0.00000000000E+00 -0.21176981496E+03  0.21176981497E+03  0.25500000920E-02 0. -1.
    10030    2    1    2    0    0  0.00000000000E+00  0.00000000000E+00  0.54603847043E+03  0.96957810036E+03  0.80120139884E+03 0.  0.
        1    1    3    3  502    0  0.33844837120E+03 -0.21093258580E+03  0.22708009857E+03  0.45891745108E+03  0.50400001928E-02 0. -1.
       -1    1    3    3    0  502 -0.33844837120E+03  0.21093258580E+03  0.31895837186E+03  0.51066064928E+03  0.50400001928E-02 0.  1.
</event>
<event>
 5   0  0.3671128E-03  0.8001496E+03  0.7818609E-02  0.9559801E-01
       -1   -1    0    0    0  501  0.00000000000E+00  0.00000000000E+00  0.24136237074E+03  0.24136237080E+03  0.50400001928E-02 0.  1.
        1   -1    0    0  501    0  0.00000000000E+00  0.00000000000E+00 -0.66315165748E+03  0.66315165750E+03  0.50400001928E-02 0. -1.
    10030    2    1    2    0    0  0.00000000000E+00  0.00000000000E+00 -0.42178928674E+03  0.90451402830E+03  0.80014962662E+03 0.  0.
        2    1    3    3  502    0 -0.38480819452E+02 -0.24806045775E+03 -0.56304723436E+03  0.61647137184E+03  0.25500000920E-02 0. -1.
       -2    1    3    3    0  502  0.38480819452E+02  0.24806045775E+03  0.14125794763E+03  0.28804265646E+03  0.25500000920E-02 0.  1.
</event>
<event>
 5   0  0.3627496E-03  0.7982921E+03  0.7818609E-02  0.9562492E-01
        1   -1    0    0  501    0  0.00000000000E+00  0.00000000000E+00  0.36642768481E+03  0.36642768485E+03  0.50400001928E-02 0. -1.
       -1   -1    0    0    0  501  0.00000000000E+00  0.00000000000E+00 -0.43478585481E+03  0.43478585484E+03  0.50400001928E-02 0.  1.
    10030    2    1    2    0    0  0.00000000000E+00  0.00000000000E+00 -0.68358169999E+02  0.80121353969E+03  0.79829211243E+03 0.  0.
        3    1    3    3  502    0  0.13860279425E+03  0.28825399968E+02  0.34038356460E+03  0.36864972468E+03  0.10100000352E+00 0. -1.
       -3    1    3    3    0  502 -0.13860279425E+03 -0.28825399968E+02 -0.40874173460E+03  0.43256381501E+03  0.10100000352E+00 0.  1.
</event>
<event>
 5   0  0.3753450E-03  0.8006891E+03  0.7818609E-02  0.9559020E-01
       -1   -1    0    0    0  501  0.00000000000E+00  0.00000000000E+00  0.13229778993E+03  0.13229779002E+03  0.50400001928E-02 0.  1.
        1   -1    0    0  501    0  0.00000000000E+00  0.00000000000E+00 -0.12114770927E+04  0.12114770927E+04  0.50400001928E-02 0. -1.
    10030    2    1    2    0    0  0.00000000000E+00  0.00000000000E+00 -0.10791793028E+04  0.13437748827E+04  0.80068905820E+03 0.  0.
        5    1    3    3  502    0 -0.61027955646E+02  0.28171928056E+03 -0.10057856586E+04  0.10462872672E+04  0.46999998093E+01 0. -1.
       -5    1    3    3    0  502  0.61027955646E+02 -0.28171928056E+03 -0.73393644184E+02  0.29748761557E+03  0.46999998093E+01 0.  1.
</event>
<event>
 5   0  0.3671128E-03  0.7983442E+03  0.7818609E-02  0.9562417E-01
        1   -1    0    0  501    0  0.00000000000E+00  0.00000000000E+00  0.11019640149E+04  0.11019640149E+04  0.50400001928E-02 0. -1.
       -1   -1    0    0    0  501  0.00000000000E+00  0.00000000000E+00 -0.14459488769E+03  0.14459488777E+03  0.50400001928E-02 0.  1.
    10030    2    1    2    0    0  0.00000000000E+00  0.00000000000E+00  0.95736912720E+03  0.12465589027E+04  0.79834419401E+03 0.  0.
        2    1    3    3  502    0  0.20827858292E+02  0.27114067344E+03  0.93495178554E+03  0.97369702976E+03  0.25500000920E-02 0. -1.
       -2    1    3    3    0  502 -0.20827858292E+02 -0.27114067344E+03  0.22417341660E+02  0.27286187291E+03  0.25500000920E-02 0.  1.
</event>
<event>
 5   0  0.2478000E-03  0.7747104E+03  0.7818609E-02  0.9597362E-01
        3   -1    0    0  501    0  0.00000000000E+00  0.00000000000E+00  0.30009309390E+03  0.30009311090E+03  0.10100000352E+00 0.  1.
       -3   -1    0    0    0  501  0.00000000000E+00  0.00000000000E+00 -0.49999160655E+03  0.49999161675E+03  0.10100000352E+00 0. -1.
    10030    2    1    2    0    0  0.00000000000E+00  0.00000000000E+00 -0.19989851265E+03  0.80008472765E+03  0.77471036914E+03 0.  0.
        3    1    3    3  502    0 -0.22489318502E+02  0.31989395302E+03 -0.32433525613E+03  0.45610446084E+03  0.10100000352E+00 0. -1.
       -3    1    3    3    0  502  0.22489318502E+02 -0.31989395302E+03  0.12443674348E+03  0.34398026681E+03  0.10100000352E+00 0.  1.
</event>
<event>
 5   0  0.6337108E-03  0.8006963E+03  0.7818609E-02  0.9559010E-01
        2   -1    0    0  501    0  0.00000000000E+00  0.00000000000E+00  0.16708211663E+04  0.16708211663E+04  0.25500000920E-02 0.  1.
       -2   -1    0    0    0  501  0.00000000000E+00  0.00000000000E+00 -0.95928075012E+02  0.95928075046E+02  0.25500000920E-02 0. -1.
    10030    2    1    2    0    0  0.00000000000E+00  0.00000000000E+00  0.15748930912E+04  0.17667492413E+04  0.80069634244E+03 0.  0.
        4    1    3    3  502    0 -0.91252120669E+02 -0.71710662348E+02 -0.57990845992E+02  0.12974559622E+03  0.12699999809E+01 0. -1.
       -4    1    3    3    0  502  0.91252120669E+02  0.71710662348E+02  0.16328839372E+04  0.16370036451E+04  0.12699999809E+01 0.  1.
</event>
<event>
 5   0  0.3860515E-03  0.7974331E+03  0.7818609E-02  0.9563740E-01
       -1   -1    0    0    0  501  0.00000000000E+00  0.00000000000E+00  0.13517210118E+03  0.13517210128E+03  0.50400001928E-02 0. -1.
        1   -1    0    0  501    0  0.00000000000E+00  0.00000000000E+00 -0.11760925141E+04  0.11760925141E+04  0.50400001928E-02 0.  1.
    10030    2    1    2    0    0  0.00000000000E+00  0.00000000000E+00 -0.10409204130E+04  0.13112646154E+04  0.79743312295E+03 0.  0.
        4    1    3    3  502    0 -0.13071513719E+03  0.21343518012E+03 -0.10093957715E+02  0.25048857077E+03  0.12699999809E+01 0. -1.
       -4    1    3    3    0  502  0.13071513719E+03 -0.21343518012E+03 -0.10308264552E+04  0.10607760447E+04  0.12699999809E+01 0.  1.
</event>
<event>
 5   0  0.3627496E-03  0.7990455E+03  0.7818609E-02  0.9561400E-01
       -1   -1    0    0    0  501  0.00000000000E+00  0.00000000000E+00  0.50221679907E+03  0.50221679910E+03  0.50400001928E-02 0. -1.
        1   -1    0    0  501    0  0.00000000000E+00  0.00000000000E+00 -0.31782774141E+03  0.31782774145E+03  0.50400001928E-02 0.  1.
    10030    2    1    2    0    0  0.00000000000E+00  0.00000000000E+00  0.18438905767E+03  0.82004454054E+03  0.79904550802E+03 0.  0.
        3    1    3    3  502    0 -0.32277996000E+03  0.10757633578E+03 -0.12273423862E+03  0.36169500152E+03  0.10100000352E+00 0.  1.
       -3    1    3    3    0  502  0.32277996000E+03 -0.10757633578E+03  0.30712329628E+03  0.45834953902E+03  0.10100000352E+00 0. -1.
</event>
<event>
 5   0  0.2478000E-03  0.8023306E+03  0.7818609E-02  0.9556650E-01
        4   -1    0    0  501    0  0.00000000000E+00  0.00000000000E+00  0.10916261987E+03  0.10917000722E+03  0.12699999809E+01 0. -1.
       -4   -1    0    0    0  501  0.00000000000E+00  0.00000000000E+00 -0.14741981716E+04  0.14741987187E+04  0.12699999809E+01 0.  1.
    10030    2    1    2    0    0  0.00000000000E+00  0.00000000000E+00 -0.13650355517E+04  0.15833687259E+04  0.80233064540E+03 0.  0.
        2    1    3    3  502    0  0.12900425762E+03 -0.32277303157E+03 -0.10777479323E+04  0.11324156189E+04  0.25500000920E-02 0. -1.
       -2    1    3    3    0  502 -0.12900425762E+03  0.32277303157E+03 -0.28728761950E+03  0.45095310700E+03  0.25500000920E-02 0.  1.
</event>
<event>
 5   0  0.6256781E-03  0.8002699E+03  0.7818609E-02  0.9559626E-01
       -2   -1    0    0    0  501  0.00000000000E+00  0.00000000000E+00  0.25771543248E+03  0.25771543250E+03  0.25500000920E-02 0.  1.
        2   -1    0    0  501    0  0.00000000000E+00  0.00000000000E+00 -0.62125883420E+03  0.62125883421E+03  0.25500000920E-02 0. -1.
    10030    2    1    2    0    0  0.00000000000E+00  0.00000000000E+00 -0.36354340172E+03  0.87897426671E+03  0.80026992733E+03 0.  0.
        1    1    3    3  502    0 -0.38687567289E+03 -0.42284589009E+02 -0.79635940418E+02  0.39724382408E+03  0.50400001928E-02 0.  1.
       -1    1    3    3    0  502  0.38687567289E+03  0.42284589009E+02 -0.28390746130E+03  0.48173044262E+03  0.50400001928E-02 0. -1.
</event>
<event>
 5   0  0.6536209E-03  0.8034854E+03  0.7818609E-02  0.9554986E-01
        2   -1    0    0  501    0  0.00000000000E+00  0.00000000000E+00  0.94987013962E+03  0.94987013962E+03  0.25500000920E-02 0.  1.
       -2   -1    0    0    0  501  0.00000000000E+00  0.00000000000E+00 -0.16991503355E+03  0.16991503357E+03  0.25500000920E-02 0. -1.
    10030    2    1    2    0    0  0.00000000000E+00  0.00000000000E+00  0.77995510607E+03  0.11197851732E+04  0.80348544890E+03 0.  0.
        3    1    3    3  502    0 -0.14424183142E+03 -0.18642318819E+03  0.84337314593E+03  0.87569263129E+03  0.10100000352E+00 0.  1.
       -3    1    3    3    0  502  0.14424183142E+03  0.18642318819E+03 -0.63418039861E+02  0.24409254189E+03  0.10100000352E+00 0. -1.
</event>
<event>
 5   0  0.6536209E-03  0.8025508E+03  0.7818609E-02  0.9556332E-01
       -2   -1    0    0    0  501  0.00000000000E+00  0.00000000000E+00  0.13838933985E+03  0.13838933988E+03  0.25500000920E-02 0. -1.
        2   -1    0    0  501    0  0.00000000000E+00  0.00000000000E+00 -0.11635428871E+04  0.11635428871E+04  0.25500000920E-02 0.  1.
    10030    2    1    2    0    0  0.00000000000E+00  0.00000000000E+00 -0.10251535473E+04  0.13019322270E+04  0.80255076364E+03 0.  0.
        3    1    3    3  502    0 -0.18594530939E+03 -0.89255467925E+02  0.45813550463E+02  0.21128437766E+03  0.10100000352E+00 0. -1.
       -3    1    3    3    0  502  0.18594530939E+03  0.89255467925E+02 -0.10709670977E+04  0.10906478493E+04  0.10100000352E+00 0.  1.
</event>
<event>
 5   0  0.3860515E-03  0.8059346E+03  0.7818609E-02  0.9551466E-01
       -1   -1    0    0    0  501  0.00000000000E+00  0.00000000000E+00  0.67126791597E+02  0.67126791786E+02  0.50400001928E-02 0.  1.
        1   -1    0    0  501    0  0.00000000000E+00  0.00000000000E+00 -0.24190439264E+04  0.24190439264E+04  0.50400001928E-02 0. -1.
    10030    2    1    2    0    0  0.00000000000E+00  0.00000000000E+00 -0.23519171348E+04  0.24861707182E+04  0.80593463198E+03 0.  0.
        4    1    3    3  502    0 -0.37585670372E+03 -0.49637161172E+01 -0.16239299949E+04  0.16668662638E+04  0.12699999809E+01 0. -1.
       -4    1    3    3    0  502  0.37585670372E+03  0.49637161172E+01 -0.72798713997E+03  0.81930445444E+03  0.12699999809E+01 0.  1.
</event>
<event>
 5   0  0.6256781E-03  0.7970609E+03  0.7818609E-02  0.9564281E-01
        2   -1    0    0  501    0  0.00000000000E+00  0.00000000000E+00  0.20294607331E+04  0.20294607331E+04  0.25500000920E-02 0. -1.
       -2   -1    0    0    0  501  0.00000000000E+00  0.00000000000E+00 -0.78260445687E+02  0.78260445729E+02  0.25500000920E-02 0.  1.
    10030    2    1    2    0    0  0.00000000000E+00  0.00000000000E+00  0.19512002874E+04  0.21077211788E+04  0.79706085469E+03 0.  0.
        1    1    3    3  502    0 -0.22381993753E+03  0.13652225688E+01  0.10364343899E+03  0.24665601703E+03  0.50400001928E-02 0.  1.
       -1    1    3    3    0  502  0.22381993753E+03 -0.13652225688E+01  0.18475568484E+04  0.18610651618E+04  0.50400001928E-02 0. -1.
</event>
<event>
 5   0  0.3671128E-03  0.7943552E+03  0.7818609E-02  0.9568224E-01
        1   -1    0    0  501    0  0.00000000000E+00  0.00000000000E+00  0.56371027061E+03  0.56371027063E+03  0.50400001928E-02 0.  1.
       -1   -1    0    0    0  501  0.00000000000E+00  0.00000000000E+00 -0.27984240894E+03  0.27984240898E+03  0.50400001928E-02 0. -1.
    10030    2    1    2    0    0  0.00000000000E+00  0.00000000000E+00  0.28386786167E+03  0.84355267961E+03  0.79435518529E+03 0.  0.
        2    1    3    3  502    0 -0.13473358262E+03 -0.24840725287E+03  0.43830812445E+03  0.52151060730E+03  0.25500000920E-02 0.  1.
       -2    1    3    3    0  502  0.13473358262E+03  0.24840725287E+03 -0.15444026278E+03  0.32204207231E+03  0.25500000920E-02 0. -1.
</event>
<event>
 5   0  0.3714448E-03  0.8020736E+03  0.7818609E-02  0.9557020E-01
       -1   -1    0    0    0  501  0.00000000000E+00  0.00000000000E+00  0.11150427859E+04  0.11150427859E+04  0.50400001928E-02 0. -1.
        1   -1    0    0  501    0  0.00000000000E+00  0.00000000000E+00 -0.14423709213E+03  0.14423709222E+03  0.50400001928E-02 0.  1.
    10030    2    1    2    0    0  0.00000000000E+00  0.00000000000E+00  0.97080569373E+03  0.12592798781E+04  0.80207363526E+03 0.  0.
        1    1    3    3  502    0 -0.37136483241E+03 -0.14797741205E+03  0.53557939880E+03  0.66832211221E+03  0.50400001928E-02 0. -1.
       -1    1    3    3    0  502  0.37136483241E+03  0.14797741205E+03  0.43522629493E+03  0.59095776588E+03  0.50400001928E-02 0.  1.
</event>
<event>
 5   0  0.3753450E-03  0.8022789E+03  0.7818609E-02  0.9556724E-01
        1   -1    0    0  501    0  0.00000000000E+00  0.00000000000E+00  0.17543260392E+03  0.17543260399E+03  0.50400001928E-02 0.  1.
       -1   -1    0    0    0  501  0.00000000000E+00  0.00000000000E+00 -0.91723453637E+03  0.91723453638E+03  0.50400001928E-02 0. -1.
    10030    2    1    2    0    0  0.00000000000E+00  0.00000000000E+00 -0.74180193245E+03  0.10926671404E+04  0.80227886215E+03 0.  0.
        5    1    3    3  502    0 -0.10825985191E+03 -0.37127604052E+03 -0.22596535487E+03  0.44793808210E+03  0.46999998093E+01 0. -1.
       -5    1    3    3    0  502  0.10825985191E+03  0.37127604052E+03 -0.51583657758E+03  0.64472905826E+03  0.46999998093E+01 0.  1.
</event>
<event>
 5   0  0.6153659E-03  0.7976445E+03  0.7818609E-02  0.9563433E-01
       -2   -1    0    0    0  501  0.00000000000E+00  0.00000000000E+00  0.25010123955E+03  0.25010123956E+03  0.25500000920E-02 0.  1.
        2   -1    0    0  501    0  0.00000000000E+00  0.00000000000E+00 -0.63597919152E+03  0.63597919153E+03  0.25500000920E-02 0. -1.
    10030    2    1    2    0    0  0.00000000000E+00  0.00000000000E+00 -0.38587795198E+03  0.88608043109E+03  0.79764449257E+03 0.  0.
        2    1    3    3  502    0  0.33841038932E+03 -0.21094527665E+03 -0.19993682935E+03  0.44608770111E+03  0.25500000920E-02 0. -1.
       -2    1    3    3    0  502 -0.33841038932E+03  0.21094527665E+03 -0.18594112263E+03  0.43999272998E+03  0.25500000920E-02 0.  1.
</event>
<event>
 5   0  0.6256781E-03  0.7998538E+03  0.7818609E-02  0.9560229E-01
       -2   -1    0    0    0  501  0.00000000000E+00  0.00000000000E+00  0.33846482140E+03  0.33846482141E+03  0.25500000920E-02 0.  1.
        2   -1    0    0  501    0  0.00000000000E+00  0.00000000000E+00 -0.47254993510E+03  0.47254993511E+03  0.25500000920E-02 0. -1.
    10030    2    1    2    0    0  0.00000000000E+00  0.00000000000E+00 -0.13408511370E+03  0.81101475652E+03  0.79985381013E+03 0.  0.
        1    1    3    3  502    0  0.30247391544E+03 -0.19296140867E+02 -0.33160233967E+03  0.44924706151E+03  0.50400001928E-02 0. -1.
       -1    1    3    3    0  502 -0.30247391544E+03  0.19296140867E+02  0.19751722597E+03  0.36176769501E+03  0.50400001928E-02 0.  1.
</event>
<event>
 5   0  0.5813850E-03  0.7996855E+03  0.7818609E-02  0.9560472E-01
       -2   -1    0    0    0  501  0.00000000000E+00  0.00000000000E+00  0.59281971517E+03  0.59281971517E+03  0.25500000920E-02 0. -1.
        2   -1    0    0  501    0  0.00000000000E+00  0.00000000000E+00 -0.26968442085E+03  0.26968442087E+03  0.25500000920E-02 0.  1.
    10030    2    1    2    0    0  0.00000000000E+00  0.00000000000E+00  0.32313529431E+03  0.86250413604E+03  0.79968554210E+03 0.  0.
        5    1    3    3  502    0 -0.33014355000E+03 -0.15554124941E+02 -0.81084156571E+02  0.34034309873E+03  0.46999998093E+01 0. -1.
       -5    1    3    3    0  502  0.33014355000E+03  0.15554124941E+02  0.40421945088E+03  0.52216103731E+03  0.46999998093E+01 0.  1.
</event>
<event>
 5   0  0.3753450E-03  0.8006246E+03  0.7818609E-02  0.9559113E-01
       -1   -1    0    0    0  501  0.00000000000E+00  0.00000000000E+00  0.38030463676E+03  0.38030463679E+03  0.50400001928E-02 0.  1.
        1   -1    0    0  501    0  0.00000000000E+00  0.00000000000E+00 -0.42137254973E+03  0.42137254976E+03  0.50400001928E-02 0. -1.
    10030    2    1    2    0    0  0.00000000000E+00  0.00000000000E+00 -0.41067912974E+02  0.80167718655E+03  0.80062459240E+03 0.  0.
        5    1    3    3  502    0 -0.37663492235E+03 -0.54088957686E+02 -0.14498881396E+03  0.40721410369E+03  0.46999998093E+01 0. -1.
       -5    1    3    3    0  502  0.37663492235E+03  0.54088957686E+02  0.10392090099E+03  0.39446308285E+03  0.46999998093E+01 0.  1.
</event>
<event>
 5   0  0.2478000E-03  0.8015189E+03  0.7818609E-02  0.9557821E-01
       -4   -1    0    0    0  501  0.00000000000E+00  0.00000000000E+00  0.27968014337E+03  0.27968302683E+03  0.12699999809E+01 0. -1.
        4   -1    0    0  501    0  0.00000000000E+00  0.00000000000E+00 -0.57424996682E+03  0.57425137117E+03  0.12699999809E+01 0.  1.
    10030    2    1    2    0    0  0.00000000000E+00  0.00000000000E+00 -0.29456982345E+03  0.85393439800E+03  0.80151891755E+03 0.  0.
        2    1    3    3  502    0 -0.71685021806E+02  0.33273720158E+03  0.78104359639E+02  0.34921780978E+03  0.25500000920E-02 0. -1.
       -2    1    3    3    0  502  0.71685021806E+02 -0.33273720158E+03 -0.37267418309E+03  0.50471658821E+03  0.25500000920E-02 0.  1.
</event>
<event>
 5   0  0.6337108E-03  0.7980939E+03  0.7818609E-02  0.9562780E-01
       -2   -1    0    0    0  501  0.00000000000E+00  0.00000000000E+00  0.80729732769E+03  0.80729732770E+03  0.25500000920E-02 0. -1.
        2   -1    0    0  501    0  0.00000000000E+00  0.00000000000E+00 -0.19724882893E+03  0.19724882895E+03  0.25500000920E-02 0.  1.
    10030    2    1    2    0    0  0.00000000000E+00  0.00000000000E+00  0.61004849876E+03  0.10045461566E+04  0.79809386039E+03 0.  0.
        4    1    3    3  502    0 -0.19073397163E+03 -0.23383824431E+03 -0.23626845885E+02  0.30268731916E+03  0.12699999809E+01 0.  1.
       -4    1    3    3    0  502  0.19073397163E+03  0.23383824431E+03  0.63367534465E+03  0.70185883748E+03  0.12699999809E+01 0. -1.
</event>
<event>
 5   0  0.6256781E-03  0.8086403E+03  0.7818609E-02  0.9547594E-01
        2   -1    0    0  501    0  0.00000000000E+00  0.00000000000E+00  0.14274360372E+04  0.14274360372E+04  0.25500000920E-02 0. -1.
       -2   -1    0    0    0  501  0.00000000000E+00  0.00000000000E+00 -0.11452335659E+03  0.11452335662E+03  0.25500000920E-02 0.  1.
    10030    2    1    2    0    0  0.00000000000E+00  0.00000000000E+00  0.13129126806E+04  0.15419593938E+04  0.80864025702E+03 0.  0.
        1    1    3    3  502    0 -0.16751835006E+03 -0.30259604873E+02 -0.42859609307E+02  0.17554198196E+03  0.50400001928E-02 0.  1.
       -1    1    3    3    0  502  0.16751835006E+03  0.30259604873E+02  0.13557722899E+04  0.13664174119E+04  0.50400001928E-02 0. -1.
</event>
<event>
 5   0  0.3860515E-03  0.8083987E+03  0.7818609E-02  0.9547939E-01
       -1   -1    0    0    0  501  0.00000000000E+00  0.00000000000E+00  0.57616848803E+03  0.57616848805E+03  0.50400001928E-02 0.  1.
        1   -1    0    0  501    0  0.00000000000E+00  0.00000000000E+00 -0.28355785457E+03  0.28355785461E+03  0.50400001928E-02 0. -1.
    10030    2    1    2    0    0  0.00000000000E+00  0.00000000000E+00  0.29261063346E+03  0.85972634266E+03  0.80839866493E+03 0.  0.
        4    1    3    3  502    0  0.21234289657E+03 -0.33601496974E+03  0.22431035066E+03  0.45641243621E+03  0.12699999809E+01 0.  1.
       -4    1    3    3    0  502 -0.21234289657E+03  0.33601496974E+03  0.68300282800E+02  0.40331390646E+03  0.12699999809E+01 0. -1.
</event>
<event>
 5   0  0.3753450E-03  0.8177386E+03  0.7818609E-02  0.9534690E-01
       -1   -1    0    0    0  501  0.00000000000E+00  0.00000000000E+00  0.13241222308E+03  0.13241222317E+03  0.50400001928E-02 0. -1.
        1   -1    0    0  501    0  0.00000000000E+00  0.00000000000E+00 -0.12625278267E+04  0.12625278267E+04  0.50400001928E-02 0.  1.
    10030    2    1    2    0    0  0.00000000000E+00  0.00000000000E+00 -0.11301156036E+04  0.13949400498E+04  0.81773862890E+03 0.  0.
        5    1    3    3  502    0  0.27455339871E+03  0.23377915944E+03 -0.23640024521E+03  0.43120694575E+03  0.46999998093E+01 0. -1.
       -5    1    3    3    0  502 -0.27455339871E+03 -0.23377915944E+03 -0.89371535837E+03  0.96373310408E+03  0.46999998093E+01 0.  1.
</event>
<event>
 5   0  0.5813850E-03  0.8020328E+03  0.7818609E-02  0.9557079E-01
       -2   -1    0    0    0  501  0.00000000000E+00  0.00000000000E+00  0.46910827530E+02  0.46910827600E+02  0.25500000920E-02 0. -1.
        2   -1    0    0  501    0  0.00000000000E+00  0.00000000000E+00 -0.34280821095E+04  0.34280821095E+04  0.25500000920E-02 0.  1.
    10030    2    1    2    0    0  0.00000000000E+00  0.00000000000E+00 -0.33811712819E+04  0.34749929371E+04  0.80203283903E+03 0.  0.
        5    1    3    3  502    0 -0.14209204522E+03  0.24881583152E+03 -0.29060122898E+04  0.29201077011E+04  0.46999998093E+01 0.  1.
       -5    1    3    3    0  502  0.14209204522E+03 -0.24881583152E+03 -0.47515899212E+03  0.55488523599E+03  0.46999998093E+01 0. -1.
</event>
<event>
 5   0  0.5813850E-03  0.8010505E+03  0.7818609E-02  0.9558498E-01
        2   -1    0    0  501    0  0.00000000000E+00  0.00000000000E+00  0.85354827438E+03  0.85354827438E+03  0.25500000920E-02 0. -1.
       -2   -1    0    0    0  501  0.00000000000E+00  0.00000000000E+00 -0.18794541263E+03  0.18794541265E+03  0.25500000920E-02 0.  1.
    10030    2    1    2    0    0  0.00000000000E+00  0.00000000000E+00  0.66560286175E+03  0.10414936870E+04  0.80105051685E+03 0.  0.
        5    1    3    3  502    0 -0.30473811232E+03  0.24954662086E+03  0.23851017383E+03  0.46048672739E+03  0.46999998093E+01 0. -1.
       -5    1    3    3    0  502  0.30473811232E+03 -0.24954662086E+03  0.42709268792E+03  0.58100695964E+03  0.46999998093E+01 0.  1.
</event>
<event>
 5   0  0.5813850E-03  0.7986101E+03  0.7818609E-02  0.9562031E-01
       -2   -1    0    0    0  501  0.00000000000E+00  0.00000000000E+00  0.92250762010E+03  0.92250762010E+03  0.25500000920E-02 0.  1.
        2   -1    0    0  501    0  0.00000000000E+00  0.00000000000E+00 -0.17283815088E+03  0.17283815089E+03  0.25500000920E-02 0. -1.
    10030    2    1    2    0    0  0.00000000000E+00  0.00000000000E+00  0.74966946922E+03  0.10953457710E+04  0.79861007066E+03 0.  0.
        5    1    3    3  502    0  0.16907792210E+03  0.13380546702E+03  0.83575242373E+03  0.86313118963E+03  0.46999998093E+01 0.  1.
       -5    1    3    3    0  502 -0.16907792210E+03 -0.13380546702E+03 -0.86082954504E+02  0.23221458137E+03  0.46999998093E+01 0. -1.
</event>
<event>
 5   0  0.6337108E-03  0.7867911E+03  0.7818609E-02  0.9579336E-01
       -2   -1    0    0    0  501  0.00000000000E+00  0.00000000000E+00  0.52756848542E+02  0.52756848604E+02  0.25500000920E-02 0. -1.
        2   -1    0    0  501    0  0.00000000000E+00  0.00000000000E+00 -0.29334592635E+04  0.29334592635E+04  0.25500000920E-02 0.  1.
    10030    2    1    2    0    0  0.00000000000E+00  0.00000000000E+00 -0.28807024149E+04  0.29862161121E+04  0.78679111881E+03 0.  0.
        4    1    3    3  502    0  0.36262125162E+03 -0.14764280940E+03 -0.12950359263E+04  0.13529272836E+04  0.12699999809E+01 0. -1.
       -4    1    3    3    0  502 -0.36262125162E+03  0.14764280940E+03 -0.15856664886E+04  0.16332888285E+04  0.12699999809E+01 0.  1.
</event>
<event>
 5   0  0.6337108E-03  0.8022276E+03  0.7818609E-02  0.9556798E-01
       -2   -1    0    0    0  501  0.00000000000E+00  0.00000000000E+00  0.92336034615E+02  0.92336034650E+02  0.25500000920E-02 0. -1.
        2   -1    0    0  501    0  0.00000000000E+00  0.00000000000E+00 -0.17424644879E+04  0.17424644879E+04  0.25500000920E-02 0.  1.
    10030    2    1    2    0    0  0.00000000000E+00  0.00000000000E+00 -0.16501284533E+04  0.18348005226E+04  0.80222755203E+03 0.  0.
        4    1    3    3  502    0 -0.28605595968E+03  0.13770524304E+03 -0.26436731376E+03  0.41313730830E+03  0.12699999809E+01 0. -1.
       -4    1    3    3    0  502  0.28605595968E+03 -0.13770524304E+03 -0.13857611396E+04  0.14216632143E+04  0.12699999809E+01 0.  1.
</event>
<event>
 5   0  0.3753450E-03  0.8245818E+03  0.7818609E-02  0.9525102E-01
       -1   -1    0    0    0  501  0.00000000000E+00  0.00000000000E+00  0.29245294399E+03  0.29245294404E+03  0.50400001928E-02 0. -1.
        1   -1    0    0  501    0  0.00000000000E+00  0.00000000000E+00 -0.58123461673E+03  0.58123461675E+03  0.50400001928E-02 0.  1.
    10030    2    1    2    0    0  0.00000000000E+00  0.00000000000E+00 -0.28878167273E+03  0.87368756079E+03  0.82458177240E+03 0.  0.
        5    1    3    3  502    0 -0.21220693545E+03 -0.26303864799E+03 -0.39454522644E+03  0.51952780435E+03  0.46999998093E+01 0. -1.
       -5    1    3    3    0  502  0.21220693545E+03  0.26303864799E+03  0.10576355371E+03  0.35415975644E+03  0.46999998093E+01 0.  1.
</event>
<event>
 5   0  0.6536209E-03  0.7763980E+03  0.7818609E-02  0.9594823E-01
        2   -1    0    0  501    0  0.00000000000E+00  0.00000000000E+00  0.79411610056E+03  0.79411610057E+03  0.25500000920E-02 0. -1.
       -2   -1    0    0    0  501  0.00000000000E+00  0.00000000000E+00 -0.18976880380E+03  0.18976880381E+03  0.25500000920E-02 0.  1.
    10030    2    1    2    0    0  0.00000000000E+00  0.00000000000E+00  0.60434729677E+03  0.98388490438E+03  0.77639799714E+03 0.  0.
        3    1    3    3  502    0  0.38675709757E+03 -0.32046520431E+02  0.29012348705E+03  0.48454068965E+03  0.10100000352E+00 0.  1.
       -3    1    3    3    0  502 -0.38675709757E+03  0.32046520431E+02  0.31422380972E+03  0.49934421473E+03  0.10100000352E+00 0. -1.
</event>
<event>
 5   0  0.6153659E-03  0.8010661E+03  0.7818609E-02  0.9558475E-01
       -2   -1    0    0    0  501  0.00000000000E+00  0.00000000000E+00  0.71029885890E+03  0.71029885891E+03  0.25500000920E-02 0.  1.
        2   -1    0    0  501    0  0.00000000000E+00  0.00000000000E+00 -0.22585805977E+03  0.22585805979E+03  0.25500000920E-02 0. -1.
    10030    2    1    2    0    0  0.00000000000E+00  0.00000000000E+00  0.48444079913E+03  0.93615691869E+03  0.80106609500E+03 0.  0.
        2    1    3    3  502    0  0.58211586232E+02  0.38311703053E+03  0.12385007073E+03  0.40682439440E+03  0.25500000920E-02 0. -1.
       -2    1    3    3    0  502 -0.58211586232E+02 -0.38311703053E+03  0.36059072840E+03  0.52933252429E+03  0.25500000920E-02 0.  1.
</event>
<event>
 5   0  0.3714448E-03  0.7971885E+03  0.7818609E-02  0.9564096E-01
        1   -1    0    0  501    0  0.00000000000E+00  0.00000000000E+00  0.26987068280E+03  0.26987068285E+03  0.50400001928E-02 0. -1.
       -1   -1    0    0    0  501  0.00000000000E+00  0.00000000000E+00 -0.58871670719E+03  0.58871670721E+03  0.50400001928E-02 0.  1.
    10030    2    1    2    0    0  0.00000000000E+00  0.00000000000E+00 -0.31884602439E+03  0.85858739006E+03  0.79718850914E+03 0.  0.
        1    1    3    3  502    0  0.23499715103E+03 -0.89686221669E+01  0.18719198212E+03  0.30057434251E+03  0.50400001928E-02 0. -1.
       -1    1    3    3    0  502 -0.23499715103E+03  0.89686221669E+01 -0.50603800651E+03  0.55801304755E+03  0.50400001928E-02 0.  1.
</event>
<event>
 5   0  0.5813850E-03  0.7996896E+03  0.7818609E-02  0.9560466E-01
       -2   -1    0    0    0  501  0.00000000000E+00  0.00000000000E+00  0.80163915001E+02  0.80163915042E+02  0.25500000920E-02 0.  1.
        2   -1    0    0  501    0  0.00000000000E+00  0.00000000000E+00 -0.19943620882E+04  0.19943620882E+04  0.25500000920E-02 0. -1.
    10030    2    1    2    0    0  0.00000000000E+00  0.00000000000E+00 -0.19141981732E+04  0.20745260033E+04  0.79968962221E+03 0.  0.
        5    1    3    3  502    0  0.12393375942E+03 -0.37760670594E+03 -0.84380265062E+03  0.93272257627E+03  0.46999998093E+01 0.  1.
       -5    1    3    3    0  502 -0.12393375942E+03  0.37760670594E+03 -0.10703955226E+04  0.11418034270E+04  0.46999998093E+01 0. -1.
</event>
<event>
 5   0  0.6153659E-03  0.8091152E+03  0.7818609E-02  0.9546916E-01
       -2   -1    0    0    0  501  0.00000000000E+00  0.00000000000E+00  0.40889938108E+03  0.40889938108E+03  0.25500000920E-02 0. -1.
        2   -1    0    0  501    0  0.00000000000E+00  0.00000000000E+00 -0.40026190804E+03  0.40026190804E+03  0.25500000920E-02 0.  1.
    10030    2    1    2    0    0  0.00000000000E+00  0.00000000000E+00  0.86374730404E+01  0.80916128913E+03  0.80911518703E+03 0.  0.
        2    1    3    3  502    0 -0.24188772917E+03 -0.29882684495E+02  0.32723680672E+03  0.40802766577E+03  0.25500000920E-02 0. -1.
       -2    1    3    3    0  502  0.24188772917E+03  0.29882684495E+02 -0.31859933368E+03  0.40113362335E+03  0.25500000920E-02 0.  1.
</event>
<event>
 5   0  0.3714448E-03  0.8062221E+03  0.7818609E-02  0.9551054E-01
        1   -1    0    0  501    0  0.00000000000E+00  0.00000000000E+00  0.44490393359E+03  0.44490393362E+03  0.50400001928E-02 0. -1.
       -1   -1    0    0    0  501  0.00000000000E+00  0.00000000000E+00 -0.36524404496E+03  0.36524404499E+03  0.50400001928E-02 0.  1.
    10030    2    1    2    0    0  0.00000000000E+00  0.00000000000E+00  0.79659888636E+02  0.81014797862E+03  0.80622208441E+03 0.  0.
        1    1    3    3  502    0  0.36060878074E+02 -0.22248103234E+03 -0.29601349015E+03  0.37205131778E+03  0.50400001928E-02 0.  1.
       -1    1    3    3    0  502 -0.36060878074E+02  0.22248103234E+03  0.37567337879E+03  0.43809666084E+03  0.50400001928E-02 0. -1.
</event>
<event>
 5   0  0.5813850E-03  0.8051023E+03  0.7818609E-02  0.9552661E-01
       -2   -1    0    0    0  501  0.00000000000E+00  0.00000000000E+00  0.19165365590E+03  0.19165365592E+03  0.25500000920E-02 0.  1.
        2   -1    0    0  501    0  0.00000000000E+00  0.00000000000E+00 -0.84552224712E+03  0.84552224713E+03  0.25500000920E-02 0. -1.
    10030    2    1    2    0    0  0.00000000000E+00  0.00000000000E+00 -0.65386859122E+03  0.10371759030E+04  0.80510230361E+03 0.  0.
        5    1    3    3  502    0 -0.49362809026E+02  0.39368682128E+03 -0.23956696019E+03  0.46350881175E+03  0.46999998093E+01 0. -1.
       -5    1    3    3    0  502  0.49362809026E+02 -0.39368682128E+03 -0.41430163103E+03  0.57366709129E+03  0.46999998093E+01 0.  1.
</event>
<event>
 5   0  0.5813850E-03  0.7962457E+03  0.7818609E-02  0.9565467E-01
        2   -1    0    0  501    0  0.00000000000E+00  0.00000000000E+00  0.92059141584E+03  0.92059141585E+03  0.25500000920E-02 0. -1.
       -2   -1    0    0    0  501  0.00000000000E+00  0.00000000000E+00 -0.17217390390E+03  0.17217390391E+03  0.25500000920E-02 0.  1.
    10030    2    1    2    0    0  0.00000000000E+00  0.00000000000E+00  0.74841751195E+03  0.10927653198E+04  0.79624573586E+03 0.  0.
        5    1    3    3  502    0  0.39592577372E+02 -0.27759628926E+03 -0.13605637092E+02  0.28077477692E+03  0.46999998093E+01 0.  1.
       -5    1    3    3    0  502 -0.39592577372E+02  0.27759628926E+03  0.76202314904E+03  0.81199054284E+03  0.46999998093E+01 0. -1.
</event>
<event>
 5   0  0.6536209E-03  0.7983514E+03  0.7818609E-02  0.9562406E-01
        2   -1    0    0  501    0  0.00000000000E+00  0.00000000000E+00  0.58769796666E+03  0.58769796667E+03  0.25500000920E-02 0. -1.
       -2   -1    0    0    0  501  0.00000000000E+00  0.00000000000E+00 -0.27112777778E+03  0.27112777779E+03  0.25500000920E-02 0.  1.
    10030    2    1    2    0    0  0.00000000000E+00  0.00000000000E+00  0.31657018888E+03  0.85882574446E+03  0.79835141063E+03 0.  0.
        3    1    3    3  502    0  0.38004317378E+03 -0.89335181593E+02  0.68747841281E+02  0.39640870890E+03  0.10100000352E+00 0.  1.
       -3    1    3    3    0  502 -0.38004317378E+03  0.89335181593E+02  0.24782234760E+03  0.46241703556E+03  0.10100000352E+00 0. -1.
</event>
<event>
 5   0  0.2478000E-03  0.8009269E+03  0.7818609E-02  0.9558676E-01
        4   -1    0    0  501    0  0.00000000000E+00  0.00000000000E+00  0.28062847263E+03  0.28063134635E+03  0.12699999809E+01 0. -1.
       -4   -1    0    0    0  501  0.00000000000E+00  0.00000000000E+00 -0.57146426159E+03  0.57146567279E+03  0.12699999809E+01 0.  1.
    10030    2    1    2    0    0  0.00000000000E+00  0.00000000000E+00 -0.29083578896E+03  0.85209701914E+03  0.80092688423E+03 0.  0.
        1    1    3    3  502    0  0.10220518971E+03 -0.14017072415E+03 -0.52941720264E+03  0.55711426762E+03  0.50400001928E-02 0.  1.
       -1    1    3    3    0  502 -0.10220518971E+03  0.14017072415E+03  0.23858141368E+03  0.29498275151E+03  0.50400001928E-02 0. -1.
</event>
<event>
 5   0  0.3753450E-03  0.8034757E+03  0.7818609E-02  0.9555000E-01
       -1   -1    0    0    0  501  0.00000000000E+00  0.00000000000E+00  0.56746418187E+02  0.56746418411E+02  0.50400001928E-02 0.  1.
        1   -1    0    0  501    0  0.00000000000E+00  0.00000000000E+00 -0.28441139789E+04  0.28441139789E+04  0.50400001928E-02 0. -1.
    10030    2    1    2    0    0  0.00000000000E+00  0.00000000000E+00 -0.27873675607E+04  0.29008603973E+04  0.80347565377E+03 0.  0.
        5    1    3    3  502    0 -0.29495063018E+03  0.11547778305E+03 -0.50168948369E+03  0.59333415599E+03  0.46999998093E+01 0.  1.
       -5    1    3    3    0  502  0.29495063018E+03 -0.11547778305E+03 -0.22856780770E+04  0.23075262413E+04  0.46999998093E+01 0. -1.
</event>
<event>
 5   0  0.6153659E-03  0.8432144E+03  0.7818609E-02  0.9499490E-01
        2   -1    0    0  501    0  0.00000000000E+00  0.00000000000E+00  0.40169069715E+03  0.40169069716E+03  0.25500000920E-02 0.  1.
       -2   -1    0    0    0  501  0.00000000000E+00  0.00000000000E+00 -0.44251119652E+03  0.44251119653E+03  0.25500000920E-02 0. -1.
    10030    2    1    2    0    0  0.00000000000E+00  0.00000000000E+00 -0.40820499367E+02  0.84420189369E+03  0.84321439986E+03 0.  0.
        2    1    3    3  502    0 -0.58373744083E+02 -0.31749228151E+03 -0.29191742139E+03  0.43522939208E+03  0.25500000920E-02 0. -1.
       -2    1    3    3    0  502  0.58373744083E+02  0.31749228151E+03  0.25109692202E+03  0.40897250161E+03  0.25500000920E-02 0.  1.
</event>
<event>
 5   0  0.6256781E-03  0.7995661E+03  0.7818609E-02  0.9560645E-01
        2   -1    0    0  501    0  0.00000000000E+00  0.00000000000E+00  0.16071106245E+04  0.16071106245E+04  0.25500000920E-02 0. -1.
       -2   -1    0    0    0  501  0.00000000000E+00  0.00000000000E+00 -0.99449593539E+02  0.99449593572E+02  0.25500000920E-02 0.  1.
    10030    2    1    2    0    0  0.00000000000E+00  0.00000000000E+00  0.15076610310E+04  0.17065602181E+04  0.79956612837E+03 0.  0.
        1    1    3    3  502    0 -0.33564041739E+03  0.17288678870E+03  0.10344167280E+04  0.11011640653E+04  0.50400001928E-02 0. -1.
       -1    1    3    3    0  502  0.33564041739E+03 -0.17288678870E+03  0.47324430296E+03  0.60539615279E+03  0.50400001928E-02 0.  1.
</event>
<event>
 5   0  0.3671128E-03  0.7975358E+03  0.7818609E-02  0.9563591E-01
        1   -1    0    0  501    0  0.00000000000E+00  0.00000000000E+00  0.49192516662E+03  0.49192516665E+03  0.50400001928E-02 0. -1.
       -1   -1    0    0    0  501  0.00000000000E+00  0.00000000000E+00 -0.32325207941E+03  0.32325207945E+03  0.50400001928E-02 0.  1.
    10030    2    1    2    0    0  0.00000000000E+00  0.00000000000E+00  0.16867308721E+03  0.81517724610E+03  0.79753578742E+03 0.  0.
        2    1    3    3  502    0 -0.34794969767E+03 -0.73158134737E+02  0.26887018473E+03  0.44577155700E+03  0.25500000920E-02 0. -1.
       -2    1    3    3    0  502  0.34794969767E+03  0.73158134737E+02 -0.10019709752E+03  0.36940568910E+03  0.25500000920E-02 0.  1.
</event>
<event>
 5   0  0.3627496E-03  0.7995046E+03  0.7818609E-02  0.9560734E-01
       -1   -1    0    0    0  501  0.00000000000E+00  0.00000000000E+00  0.46537890054E+03  0.46537890056E+03  0.50400001928E-02 0. -1.
        1   -1    0    0  501    0  0.00000000000E+00  0.00000000000E+00 -0.34338019696E+03  0.34338019700E+03  0.50400001928E-02 0.  1.
    10030    2    1    2    0    0  0.00000000000E+00  0.00000000000E+00  0.12199870357E+03  0.80875909756E+03  0.79950459299E+03 0.  0.
        3    1    3    3  502    0 -0.26374969339E+03  0.28064284384E+03  0.16937293033E+03  0.42072735386E+03  0.10100000352E+00 0. -1.
       -3    1    3    3    0  502  0.26374969339E+03 -0.28064284384E+03 -0.47374226754E+02  0.38803174370E+03  0.10100000352E+00 0.  1.
</event>
<event>
 5   0  0.6153659E-03  0.7971506E+03  0.7818609E-02  0.9564151E-01
       -2   -1    0    0    0  501  0.00000000000E+00  0.00000000000E+00  0.10412796854E+04  0.10412796854E+04  0.25500000920E-02 0.  1.
        2   -1    0    0  501    0  0.00000000000E+00  0.00000000000E+00 -0.15256447248E+03  0.15256447250E+03  0.25500000920E-02 0. -1.
    10030    2    1    2    0    0  0.00000000000E+00  0.00000000000E+00  0.88871521291E+03  0.11938441579E+04  0.79715064052E+03 0.  0.
        2    1    3    3  502    0  0.54705638992E+02 -0.37260134359E+03  0.24887225334E+03  0.45139989662E+03  0.25500000920E-02 0. -1.
       -2    1    3    3    0  502 -0.54705638992E+02  0.37260134359E+03  0.63984295958E+03  0.74244426128E+03  0.25500000920E-02 0.  1.
</event>
<event>
 5   0  0.3714448E-03  0.7990641E+03  0.7818609E-02  0.9561373E-01
       -1   -1    0    0    0  501  0.00000000000E+00  0.00000000000E+00  0.24135387693E+03  0.24135387698E+03  0.50400001928E-02 0. -1.
        1   -1    0    0  501    0  0.00000000000E+00  0.00000000000E+00 -0.66137683176E+03  0.66137683178E+03  0.50400001928E-02 0.  1.
    10030    2    1    2    0    0  0.00000000000E+00  0.00000000000E+00 -0.42002295483E+03  0.90273070877E+03  0.79906410880E+03 0.  0.
        1    1    3    3  502    0  0.13036961807E+03 -0.29701736005E+03 -0.47353367548E+03  0.57397708258E+03  0.50400001928E-02 0.  1.
       -1    1    3    3    0  502 -0.13036961807E+03  0.29701736005E+03  0.53510720644E+02  0.32875362619E+03  0.50400001928E-02 0. -1.
</event>
<event>
 5   0  0.3714448E-03  0.7941458E+03  0.7818609E-02  0.9568530E-01
        1   -1    0    0  501    0  0.00000000000E+00  0.00000000000E+00  0.22786029834E+04  0.22786029834E+04  0.50400001928E-02 0. -1.
       -1   -1    0    0    0  501  0.00000000000E+00  0.00000000000E+00 -0.69194547339E+02  0.69194547523E+02  0.50400001928E-02 0.  1.
    10030    2    1    2    0    0  0.00000000000E+00  0.00000000000E+00  0.22094084361E+04  0.23477975309E+04  0.79414583604E+03 0.  0.
        1    1    3    3  502    0  0.98486862437E+02  0.16924333418E+03  0.21259356188E+04  0.21349344776E+04  0.50400001928E-02 0. -1.
       -1    1    3    3    0  502 -0.98486862437E+02 -0.16924333418E+03  0.83472817262E+02  0.21286305335E+03  0.50400001928E-02 0.  1.
</event>
<event>
 5   0  0.3671128E-03  0.7988220E+03  0.7818609E-02  0.9561724E-01
       -1   -1    0    0    0  501  0.00000000000E+00  0.00000000000E+00  0.32459701493E+03  0.32459701497E+03  0.50400001928E-02 0. -1.
        1   -1    0    0  501    0  0.00000000000E+00  0.00000000000E+00 -0.49146831372E+03  0.49146831375E+03  0.50400001928E-02 0.  1.
    10030    2    1    2    0    0  0.00000000000E+00  0.00000000000E+00 -0.16687129879E+03  0.81606532872E+03  0.79882200168E+03 0.  0.
        2    1    3    3  502    0 -0.19525587839E+02  0.33188047046E+03  0.14270954395E+03  0.36178986884E+03  0.25500000920E-02 0. -1.
       -2    1    3    3    0  502  0.19525587839E+02 -0.33188047046E+03 -0.30958084273E+03  0.45427545988E+03  0.25500000920E-02 0.  1.
</event>
<event>
 5   0  0.6337108E-03  0.7956951E+03  0.7818609E-02  0.9566269E-01
        2   -1    0    0  501    0  0.00000000000E+00  0.00000000000E+00  0.86018070771E+03  0.86018070771E+03  0.25500000920E-02 0. -1.
       -2   -1    0    0    0  501  0.00000000000E+00  0.00000000000E+00 -0.18401095241E+03  0.18401095242E+03  0.25500000920E-02 0.  1.
    10030    2    1    2    0    0  0.00000000000E+00  0.00000000000E+00  0.67616975530E+03  0.10441916601E+04  0.79569509557E+03 0.  0.
        4    1    3    3  502    0 -0.26914874452E+03  0.28645094473E+03  0.41882999514E+03  0.57438259735E+03  0.12699999809E+01 0. -1.
       -4    1    3    3    0  502  0.26914874452E+03 -0.28645094473E+03  0.25733976016E+03  0.46980906278E+03  0.12699999809E+01 0.  1.
</event>
<event>
 5   0  0.5813850E-03  0.8017295E+03  0.7818609E-02  0.9557517E-01
       -2   -1    0    0    0  501  0.00000000000E+00  0.00000000000E+00  0.10538725766E+03  0.10538725769E+03  0.25500000920E-02 0. -1.
        2   -1    0    0  501    0  0.00000000000E+00  0.00000000000E+00 -0.15247816197E+04  0.15247816197E+04  0.25500000920E-02 0.  1.
    10030    2    1    2    0    0  0.00000000000E+00  0.00000000000E+00 -0.14193943620E+04  0.16301688774E+04  0.80172951414E+03 0.  0.
        5    1    3    3  502    0  0.25648926119E+03 -0.26301925334E+03 -0.10356915560E+04  0.10989290049E+04  0.46999998093E+01 0. -1.
       -5    1    3    3    0  502 -0.25648926119E+03  0.26301925334E+03 -0.38370280606E+03  0.53123987248E+03  0.46999998093E+01 0.  1.
</event>
<event>
 5   0  0.6337108E-03  0.7917018E+03  0.7818609E-02  0.9572107E-01
       -2   -1    0    0    0  501  0.00000000000E+00  0.00000000000E+00  0.16570307227E+03  0.16570307229E+03  0.25500000920E-02 0. -1.
        2   -1    0    0  501    0  0.00000000000E+00  0.00000000000E+00 -0.94565495795E+03  0.94565495795E+03  0.25500000920E-02 0.  1.
    10030    2    1    2    0    0  0.00000000000E+00  0.00000000000E+00 -0.77995188568E+03  0.11113580302E+04  0.79170179197E+03 0.  0.
        4    1    3    3  502    0 -0.36378394722E+03 -0.13248244577E+03 -0.50578354470E+03  0.63695287555E+03  0.12699999809E+01 0. -1.
       -4    1    3    3    0  502  0.36378394722E+03  0.13248244577E+03 -0.27416834098E+03  0.47440515468E+03  0.12699999809E+01 0.  1.
</event>
<event>
 5   0  0.6256781E-03  0.8035922E+03  0.7818609E-02  0.9554832E-01
       -2   -1    0    0    0  501  0.00000000000E+00  0.00000000000E+00  0.19385673301E+03  0.19385673303E+03  0.25500000920E-02 0.  1.
        2   -1    0    0  501    0  0.00000000000E+00  0.00000000000E+00 -0.83278054150E+03  0.83278054150E+03  0.25500000920E-02 0. -1.
    10030    2    1    2    0    0  0.00000000000E+00  0.00000000000E+00 -0.63892380848E+03  0.10266372745E+04  0.80359222271E+03 0.  0.
        1    1    3    3  502    0  0.37934197980E+03  0.10463681651E+03 -0.42317990290E+03  0.57786713979E+03  0.50400001928E-02 0. -1.
       -1    1    3    3    0  502 -0.37934197980E+03 -0.10463681651E+03 -0.21574390559E+03  0.44877013474E+03  0.50400001928E-02 0.  1.
</event>
<event>
 5   0  0.5813850E-03  0.7995576E+03  0.7818609E-02  0.9560658E-01
        2   -1    0    0  501    0  0.00000000000E+00  0.00000000000E+00  0.32044549192E+03  0.32044549193E+03  0.25500000920E-02 0. -1.
       -2   -1    0    0    0  501  0.00000000000E+00  0.00000000000E+00 -0.49875279225E+03  0.49875279226E+03  0.25500000920E-02 0.  1.
    10030    2    1    2    0    0  0.00000000000E+00  0.00000000000E+00 -0.17830730033E+03  0.81919828419E+03  0.79955758734E+03 0.  0.
        5    1    3    3  502    0  0.97074689452E+00  0.37283763002E+03  0.58583262123E+02  0.37744261724E+03  0.46999998093E+01 0.  1.
       -5    1    3    3    0  502 -0.97074689452E+00 -0.37283763002E+03 -0.23689056245E+03  0.44175566695E+03  0.46999998093E+01 0. -1.
</event>
<event>
 5   0  0.6536209E-03  0.8051811E+03  0.7818609E-02  0.9552548E-01
       -2   -1    0    0    0  501  0.00000000000E+00  0.00000000000E+00  0.35138125943E+04  0.35138125943E+04  0.25500000920E-02 0.  1.
        2   -1    0    0  501    0  0.00000000000E+00  0.00000000000E+00 -0.46126294160E+02  0.46126294230E+02  0.25500000920E-02 0. -1.
    10030    2    1    2    0    0  0.00000000000E+00  0.00000000000E+00  0.34676863001E+04  0.35599388885E+04  0.80518110627E+03 0.  0.
        3    1    3    3  502    0  0.13786253182E+03 -0.13716890792E+03  0.17532910331E+03  0.26184287588E+03  0.10100000352E+00 0. -1.
       -3    1    3    3    0  502 -0.13786253182E+03  0.13716890792E+03  0.32923571968E+04  0.32980960127E+04  0.10100000352E+00 0.  1.
</event>
<event>
 5   0  0.6337108E-03  0.8004320E+03  0.7818609E-02  0.9559392E-01
        2   -1    0    0  501    0  0.00000000000E+00  0.00000000000E+00  0.16716730019E+04  0.16716730019E+04  0.25500000920E-02 0.  1.
       -2   -1    0    0    0  501  0.00000000000E+00  0.00000000000E+00 -0.95815907910E+02  0.95815907944E+02  0.25500000920E-02 0. -1.
    10030    2    1    2    0    0  0.00000000000E+00  0.00000000000E+00  0.15758570940E+04  0.17674889099E+04  0.80043204943E+03 0.  0.
        4    1    3    3  502    0 -0.35560482311E+03 -0.14809999490E+03  0.54823436567E+03  0.67003800736E+03  0.12699999809E+01 0.  1.
       -4    1    3    3    0  502  0.35560482311E+03  0.14809999490E+03  0.10276227283E+04  0.10974509025E+04  0.12699999809E+01 0. -1.
</event>
<event>
 5   0  0.3627496E-03  0.7988278E+03  0.7818609E-02  0.9561715E-01
       -1   -1    0    0    0  501  0.00000000000E+00  0.00000000000E+00  0.72733351134E+03  0.72733351136E+03  0.50400001928E-02 0.  1.
        1   -1    0    0  501    0  0.00000000000E+00  0.00000000000E+00 -0.21933743606E+03  0.21933743612E+03  0.50400001928E-02 0. -1.
    10030    2    1    2    0    0  0.00000000000E+00  0.00000000000E+00  0.50799607528E+03  0.94667094748E+03  0.79882781017E+03 0.  0.
        3    1    3    3  502    0 -0.38916969143E+03 -0.64441830478E+02  0.17974706164E+03  0.43349142392E+03  0.10100000352E+00 0. -1.
       -3    1    3    3    0  502  0.38916969143E+03  0.64441830478E+02  0.32824901364E+03  0.51317952356E+03  0.10100000352E+00 0.  1.
</event>
<event>
 5   0  0.3671128E-03  0.8007099E+03  0.7818609E-02  0.9558990E-01
       -1   -1    0    0    0  501  0.00000000000E+00  0.00000000000E+00  0.18835468942E+03  0.18835468949E+03  0.50400001928E-02 0.  1.
        1   -1    0    0  501    0  0.00000000000E+00  0.00000000000E+00 -0.85096953870E+03  0.85096953872E+03  0.50400001928E-02 0. -1.
    10030    2    1    2    0    0  0.00000000000E+00  0.00000000000E+00 -0.66261484928E+03  0.10393242282E+04  0.80070994302E+03 0.  0.
        2    1    3    3  502    0 -0.37375940150E+03  0.13731101604E+03 -0.27726155151E+03  0.48520549594E+03  0.25500000920E-02 0. -1.
       -2    1    3    3    0  502  0.37375940150E+03 -0.13731101604E+03 -0.38535329778E+03  0.55411873227E+03  0.25500000920E-02 0.  1.
</event>
<event>
 5   0  0.3627496E-03  0.8010333E+03  0.7818609E-02  0.9558523E-01
        1   -1    0    0  501    0  0.00000000000E+00  0.00000000000E+00  0.11571412975E+03  0.11571412986E+03  0.50400001928E-02 0. -1.
       -1   -1    0    0    0  501  0.00000000000E+00  0.00000000000E+00 -0.13862922493E+04  0.13862922493E+04  0.50400001928E-02 0.  1.
    10030    2    1    2    0    0  0.00000000000E+00  0.00000000000E+00 -0.12705781195E+04  0.15020063792E+04  0.80103333589E+03 0.  0.
        3    1    3    3  502    0 -0.38536324385E+02 -0.18432321898E+03  0.27530611339E+02  0.19031038362E+03  0.10100000352E+00 0. -1.
       -3    1    3    3    0  502  0.38536324385E+02  0.18432321898E+03 -0.12981087309E+04  0.13116959956E+04  0.10100000352E+00 0.  1.
</event>
<event>
 5   0  0.6337108E-03  0.8030896E+03  0.7818609E-02  0.9555556E-01
        2   -1    0    0  501    0  0.00000000000E+00  0.00000000000E+00  0.26190864751E+03  0.26190864752E+03  0.25500000920E-02 0. -1.
       -2   -1    0    0    0  501  0.00000000000E+00  0.00000000000E+00 -0.61562767203E+03  0.61562767203E+03  0.25500000920E-02 0.  1.
    10030    2    1    2    0    0  0.00000000000E+00  0.00000000000E+00 -0.35371902451E+03  0.87753631956E+03  0.80308956153E+03 0.  0.
        4    1    3    3  502    0 -0.24233840945E+02 -0.46272278772E+01  0.26107746898E+03  0.26224368056E+03  0.12699999809E+01 0. -1.
       -4    1    3    3    0  502  0.24233840945E+02  0.46272278772E+01 -0.61479649350E+03  0.61529263899E+03  0.12699999809E+01 0.  1.
</event>
<event>
 5   0  0.3714448E-03  0.8016314E+03  0.7818609E-02  0.9557659E-01
        1   -1    0    0  501    0  0.00000000000E+00  0.00000000000E+00  0.67644563800E+03  0.67644563801E+03  0.50400001928E-02 0.  1.
       -1   -1    0    0    0  501  0.00000000000E+00  0.00000000000E+00 -0.23749614016E+03  0.23749614022E+03  0.50400001928E-02 0. -1.
    10030    2    1    2    0    0  0.00000000000E+00  0.00000000000E+00  0.43894949783E+03  0.91394177823E+03  0.80163140679E+03 0.  0.
        1    1    3    3  502    0 -0.92309777027E+02  0.18155585953E+03 -0.17409938884E+03  0.26794443880E+03  0.50400001928E-02 0. -1.
       -1    1    3    3    0  502  0.92309777027E+02 -0.18155585953E+03  0.61304888668E+03  0.64599733943E+03  0.50400001928E-02 0.  1.
</event>
<event>
 5   0  0.3753450E-03  0.8000446E+03  0.7818609E-02  0.9559952E-01
        1   -1    0    0  501    0  0.00000000000E+00  0.00000000000E+00  0.14640026230E+03  0.14640026239E+03  0.50400001928E-02 0. -1.
       -1   -1    0    0    0  501  0.00000000000E+00  0.00000000000E+00 -0.10930162125E+04  0.10930162125E+04  0.50400001928E-02 0.  1.
    10030    2    1    2    0    0  0.00000000000E+00  0.00000000000E+00 -0.94661595019E+03  0.12394164749E+04  0.80004464942E+03 0.  0.
        5    1    3    3  502    0 -0.14184771123E+03 -0.10343182307E+03  0.83487110120E+02  0.19445077207E+03  0.46999998093E+01 0. -1.
       -5    1    3    3    0  502  0.14184771123E+03  0.10343182307E+03 -0.10301030603E+04  0.10449657028E+04  0.46999998093E+01 0.  1.
</event>
<event>
 5   0  0.3714448E-03  0.8023867E+03  0.7818609E-02  0.9556569E-01
       -1   -1    0    0    0  501  0.00000000000E+00  0.00000000000E+00  0.40420841838E+03  0.40420841841E+03  0.50400001928E-02 0.  1.
        1   -1    0    0  501    0  0.00000000000E+00  0.00000000000E+00 -0.39820081364E+03  0.39820081367E+03  0.50400001928E-02 0. -1.
    10030    2    1    2    0    0  0.00000000000E+00  0.00000000000E+00  0.60076047451E+01  0.80240923208E+03  0.80238674242E+03 0.  0.
        1    1    3    3  502    0  0.12641103924E+03 -0.30637655916E+03  0.22908484830E+03  0.40289727548E+03  0.50400001928E-02 0. -1.
       -1    1    3    3    0  502 -0.12641103924E+03  0.30637655916E+03 -0.22307724355E+03  0.39951195660E+03  0.50400001928E-02 0.  1.
</event>
<event>
 5   0  0.3671128E-03  0.7943705E+03  0.7818609E-02  0.9568201E-01
        1   -1    0    0  501    0  0.00000000000E+00  0.00000000000E+00  0.14322549066E+04  0.14322549066E+04  0.50400001928E-02 0.  1.
       -1   -1    0    0    0  501  0.00000000000E+00  0.00000000000E+00 -0.11014528657E+03  0.11014528668E+03  0.50400001928E-02 0. -1.
    10030    2    1    2    0    0  0.00000000000E+00  0.00000000000E+00  0.13221096200E+04  0.15424001933E+04  0.79437051108E+03 0.  0.
        2    1    3    3  502    0  0.22448225660E+03  0.34047159904E+02  0.12938245345E+04  0.13135956070E+04  0.25500000920E-02 0.  1.
       -2    1    3    3    0  502 -0.22448225660E+03 -0.34047159904E+02  0.28285085495E+02  0.22880458626E+03  0.25500000920E-02 0. -1.
</event>
<event>
 5   0  0.5813850E-03  0.7996393E+03  0.7818609E-02  0.9560539E-01
        2   -1    0    0  501    0  0.00000000000E+00  0.00000000000E+00  0.12658361790E+04  0.12658361790E+04  0.25500000920E-02 0.  1.
       -2   -1    0    0    0  501  0.00000000000E+00  0.00000000000E+00 -0.12628472068E+03  0.12628472071E+03  0.25500000920E-02 0. -1.
    10030    2    1    2    0    0  0.00000000000E+00  0.00000000000E+00  0.11395514583E+04  0.13921208997E+04  0.79963933948E+03 0.  0.
        5    1    3    3  502    0  0.31171100800E+02  0.23871046500E+03  0.11254571731E+04  0.11509258282E+04  0.46999998093E+01 0.  1.
       -5    1    3    3    0  502 -0.31171100800E+02 -0.23871046500E+03  0.14094285220E+02  0.24119507147E+03  0.46999998093E+01 0. -1.
</event>
<event>
 5   0  0.6337108E-03  0.7916296E+03  0.7818609E-02  0.9572213E-01
       -2   -1    0    0    0  501  0.00000000000E+00  0.00000000000E+00  0.24872156771E+03  0.24872156772E+03  0.25500000920E-02 0. -1.
        2   -1    0    0  501    0  0.00000000000E+00  0.00000000000E+00 -0.62989858747E+03  0.62989858747E+03  0.25500000920E-02 0.  1.
    10030    2    1    2    0    0  0.00000000000E+00  0.00000000000E+00 -0.38117701975E+03  0.87862015520E+03  0.79162962093E+03 0.  0.
        4    1    3    3  502    0 -0.20654501960E+03 -0.67398339753E+02  0.17662234984E+03  0.28000080123E+03  0.12699999809E+01 0. -1.
       -4    1    3    3    0  502  0.20654501960E+03  0.67398339753E+02 -0.55779936960E+03  0.59861935397E+03  0.12699999809E+01 0.  1.
</event>
<event>
 5   0  0.3627496E-03  0.8039552E+03  0.7818609E-02  0.9554310E-01
       -1   -1    0    0    0  501  0.00000000000E+00  0.00000000000E+00  0.22405539961E+03  0.22405539967E+03  0.50400001928E-02 0.  1.
        1   -1    0    0  501    0  0.00000000000E+00  0.00000000000E+00 -0.72118772541E+03  0.72118772542E+03  0.50400001928E-02 0. -1.
    10030    2    1    2    0    0  0.00000000000E+00  0.00000000000E+00 -0.49713232579E+03  0.94524312509E+03  0.80395523270E+03 0.  0.
        3    1    3    3  502    0  0.47138134894E+02  0.12547458611E+03  0.19700728320E+03  0.23828083296E+03  0.10100000352E+00 0.  1.
       -3    1    3    3    0  502 -0.47138134894E+02 -0.12547458611E+03 -0.69413960899E+03  0.70696229213E+03  0.10100000352E+00 0. -1.
</event>
<event>
 5   0  0.2478000E-03  0.8010485E+03  0.7818609E-02  0.9558501E-01
        4   -1    0    0  501    0  0.00000000000E+00  0.00000000000E+00  0.29175108108E+03  0.29175384524E+03  0.12699999809E+01 0.  1.
       -4   -1    0    0    0  501  0.00000000000E+00  0.00000000000E+00 -0.54984512912E+03  0.54984659580E+03  0.12699999809E+01 0. -1.
    10030    2    1    2    0    0  0.00000000000E+00  0.00000000000E+00 -0.25809404804E+03  0.84160044104E+03  0.80104854081E+03 0.  0.
        3    1    3    3  502    0 -0.16417026133E+03 -0.36532109328E+03 -0.13207476739E+03  0.42172874017E+03  0.10100000352E+00 0.  1.
       -3    1    3    3    0  502  0.16417026133E+03  0.36532109328E+03 -0.12601928065E+03  0.41987170088E+03  0.10100000352E+00 0. -1.
</event>
<event>
 5   0  0.6337108E-03  0.8056083E+03  0.7818609E-02  0.9551935E-01
        2   -1    0    0  501    0  0.00000000000E+00  0.00000000000E+00  0.61283357901E+03  0.61283357902E+03  0.25500000920E-02 0. -1.
       -2   -1    0    0    0  501  0.00000000000E+00  0.00000000000E+00 -0.26475572212E+03  0.26475572213E+03  0.25500000920E-02 0.  1.
    10030    2    1    2    0    0  0.00000000000E+00  0.00000000000E+00  0.34807785689E+03  0.87758930115E+03  0.80560833352E+03 0.  0.
        4    1    3    3  502    0  0.10363223227E+03 -0.26250598766E+03  0.48712146333E+03  0.56297243810E+03  0.12699999809E+01 0. -1.
       -4    1    3    3    0  502 -0.10363223227E+03  0.26250598766E+03 -0.13904360644E+03  0.31461686305E+03  0.12699999809E+01 0.  1.
</event>
<event>
 5   0  0.3860515E-03  0.7966080E+03  0.7818609E-02  0.9564940E-01
        1   -1    0    0  501    0  0.00000000000E+00  0.00000000000E+00  0.13956409858E+03  0.13956409867E+03  0.50400001928E-02 0.  1.
       -1   -1    0    0    0  501  0.00000000000E+00  0.00000000000E+00 -0.11367255674E+04  0.11367255674E+04  0.50400001928E-02 0. -1.
    10030    2    1    2    0    0  0.00000000000E+00  0.00000000000E+00 -0.99716146880E+03  0.12762896661E+04  0.79660800701E+03 0.  0.
        4    1    3    3  502    0  0.22990676089E+03  0.18177662479E+03 -0.93070134820E+03  0.97575943371E+03  0.12699999809E+01 0. -1.
       -4    1    3    3    0  502 -0.22990676089E+03 -0.18177662479E+03 -0.66460120591E+02  0.30053023235E+03  0.12699999809E+01 0.  1.
</event>
<event>
 5   0  0.6256781E-03  0.8005389E+03  0.7818609E-02  0.9559237E-01
        2   -1    0    0  501    0  0.00000000000E+00  0.00000000000E+00  0.85181725973E+03  0.85181725973E+03  0.25500000920E-02 0. -1.
       -2   -1    0    0    0  501  0.00000000000E+00  0.00000000000E+00 -0.18808685985E+03  0.18808685986E+03  0.25500000920E-02 0.  1.
    10030    2    1    2    0    0  0.00000000000E+00  0.00000000000E+00  0.66373039988E+03  0.10399041196E+04  0.80053890238E+03 0.  0.
        1    1    3    3  502    0 -0.71936792631E+02  0.27948684217E+03  0.69215553855E+03  0.74991138586E+03  0.50400001928E-02 0. -1.
       -1    1    3    3    0  502  0.71936792631E+02 -0.27948684217E+03 -0.28425138668E+02  0.28999273373E+03  0.50400001928E-02 0.  1.
</event>
<event>
 5   0  0.3860515E-03  0.8053485E+03  0.7818609E-02  0.9552308E-01
       -1   -1    0    0    0  501  0.00000000000E+00  0.00000000000E+00  0.22633164584E+03  0.22633164590E+03  0.50400001928E-02 0. -1.
        1   -1    0    0  501    0  0.00000000000E+00  0.00000000000E+00 -0.71641124812E+03  0.71641124814E+03  0.50400001928E-02 0.  1.
    10030    2    1    2    0    0  0.00000000000E+00  0.00000000000E+00 -0.49007960228E+03  0.94274289404E+03  0.80534846351E+03 0.  0.
        4    1    3    3  502    0 -0.48399102982E+02 -0.39131728560E+03 -0.34066614961E+03  0.52108226756E+03  0.12699999809E+01 0. -1.
       -4    1    3    3    0  502  0.48399102982E+02  0.39131728560E+03 -0.14941345267E+03  0.42166062647E+03  0.12699999809E+01 0.  1.
</event>
<event>
 5   0  0.3714448E-03  0.7989436E+03  0.7818609E-02  0.9561547E-01
        1   -1    0    0  501    0  0.00000000000E+00  0.00000000000E+00  0.67426211857E+03  0.67426211859E+03  0.50400001928E-02 0. -1.
       -1   -1    0    0    0  501  0.00000000000E+00  0.00000000000E+00 -0.23667017182E+03  0.23667017187E+03  0.50400001928E-02 0.  1.
    10030    2    1    2    0    0  0.00000000000E+00  0.00000000000E+00  0.43759194675E+03  0.91093229047E+03  0.79894363127E+03 0.  0.
        1    1    3    3  502    0 -0.93612898342E+02 -0.14424225435E+03 -0.19231198094E+03  0.25797887649E+03  0.50400001928E-02 0.  1.
       -1    1    3    3    0  502  0.93612898342E+02  0.14424225435E+03  0.62990392770E+03  0.65295341398E+03  0.50400001928E-02 0. -1.
</event>
<event>
 5   0  0.6536209E-03  0.7975167E+03  0.7818609E-02  0.9563619E-01
       -2   -1    0    0    0  501  0.00000000000E+00  0.00000000000E+00  0.68383927801E+03  0.68383927802E+03  0.25500000920E-02 0. -1.
        2   -1    0    0  501    0  0.00000000000E+00  0.00000000000E+00 -0.23252280472E+03  0.23252280474E+03  0.25500000920E-02 0.  1.
    10030    2    1    2    0    0  0.00000000000E+00  0.00000000000E+00  0.45131647329E+03  0.91636208275E+03  0.79751671308E+03 0.  0.
        3    1    3    3  502    0  0.13091795753E+03 -0.36277031479E+03  0.10923585245E+03  0.40084198203E+03  0.10100000352E+00 0. -1.
       -3    1    3    3    0  502 -0.13091795753E+03  0.36277031479E+03  0.34208062084E+03  0.51552010072E+03  0.10100000352E+00 0.  1.
</event>
<event>
 5   0  0.3753450E-03  0.8179290E+03  0.7818609E-02  0.9534422E-01
        1   -1    0    0  501    0  0.00000000000E+00  0.00000000000E+00  0.83360925852E+03  0.83360925853E+03  0.50400001928E-02 0. -1.
       -1   -1    0    0    0  501  0.00000000000E+00  0.00000000000E+00 -0.20063591666E+03  0.20063591673E+03  0.50400001928E-02 0.  1.
    10030    2    1    2    0    0  0.00000000000E+00  0.00000000000E+00  0.63297334185E+03  0.10342451753E+04  0.81792898900E+03 0.  0.
        5    1    3    3  502    0 -0.37218394886E+03  0.82141231835E+01  0.53048274890E+03  0.64809135196E+03  0.46999998093E+01 0. -1.
       -5    1    3    3    0  502  0.37218394886E+03 -0.82141231835E+01  0.10249059296E+03  0.38615382330E+03  0.46999998093E+01 0.  1.
</event>
<event>
 5   0  0.6536209E-03  0.7989512E+03  0.7818609E-02  0.9561536E-01
        2   -1    0    0  501    0  0.00000000000E+00  0.00000000000E+00  0.66475962534E+03  0.66475962534E+03  0.25500000920E-02 0.  1.
       -2   -1    0    0    0  501  0.00000000000E+00  0.00000000000E+00 -0.24005782232E+03  0.24005782234E+03  0.25500000920E-02 0. -1.
    10030    2    1    2    0    0  0.00000000000E+00  0.00000000000E+00  0.42470180301E+03  0.90481744768E+03  0.79895118258E+03 0.  0.
        3    1    3    3  502    0 -0.39278016607E+03 -0.60811530295E+01  0.29454543504E+03  0.49098906585E+03  0.10100000352E+00 0.  1.
       -3    1    3    3    0  502  0.39278016607E+03  0.60811530295E+01  0.13015636797E+03  0.41382838183E+03  0.10100000352E+00 0. -1.
</event>
<event>
 5   0  0.6337108E-03  0.7867946E+03  0.7818609E-02  0.9579330E-01
        2   -1    0    0  501    0  0.00000000000E+00  0.00000000000E+00  0.16707932991E+04  0.16707932991E+04  0.25500000920E-02 0. -1.
       -2   -1    0    0    0  501  0.00000000000E+00  0.00000000000E+00 -0.92627529006E+02  0.92627529041E+02  0.25500000920E-02 0.  1.
    10030    2    1    2    0    0  0.00000000000E+00  0.00000000000E+00  0.15781657701E+04  0.17634208281E+04  0.78679464871E+03 0.  0.
        4    1    3    3  502    0 -0.37241562363E+03  0.92043887939E+02  0.59376573265E+03  0.70691218139E+03  0.12699999809E+01 0.  1.
       -4    1    3    3    0  502  0.37241562363E+03 -0.92043887939E+02  0.98440003745E+03  0.10565086468E+04  0.12699999809E+01 0. -1.
</event>
<event>
 5   0  0.6536209E-03  0.8010308E+03  0.7818609E-02  0.9558526E-01
        2   -1    0    0  501    0  0.00000000000E+00  0.00000000000E+00  0.19685940117E+03  0.19685940119E+03  0.25500000920E-02 0.  1.
       -2   -1    0    0    0  501  0.00000000000E+00  0.00000000000E+00 -0.81485872048E+03  0.81485872049E+03  0.25500000920E-02 0. -1.
    10030    2    1    2    0    0  0.00000000000E+00  0.00000000000E+00 -0.61799931931E+03  0.10117181217E+04  0.80103083527E+03 0.  0.
        3    1    3    3  502    0  0.73876547222E+02 -0.23972369319E+03  0.85352778521E+02  0.26497226328E+03  0.10100000352E+00 0.  1.
       -3    1    3    3    0  502 -0.73876547222E+02  0.23972369319E+03 -0.70335209783E+03  0.74674585840E+03  0.10100000352E+00 0. -1.
</event>
<event>
 5   0  0.6256781E-03  0.7995409E+03  0.7818609E-02  0.9560682E-01
       -2   -1    0    0    0  501  0.00000000000E+00  0.00000000000E+00  0.11319234082E+03  0.11319234085E+03  0.25500000920E-02 0. -1.
        2   -1    0    0  501    0  0.00000000000E+00  0.00000000000E+00 -0.14119011686E+04  0.14119011686E+04  0.25500000920E-02 0.  1.
    10030    2    1    2    0    0  0.00000000000E+00  0.00000000000E+00 -0.12987088278E+04  0.15250935095E+04  0.79954086400E+03 0.  0.
        1    1    3    3  502    0 -0.12443691396E+03 -0.25344101192E+03 -0.10950737073E+03  0.30283453625E+03  0.50400001928E-02 0. -1.
       -1    1    3    3    0  502  0.12443691396E+03  0.25344101192E+03 -0.11892014571E+04  0.12222589732E+04  0.50400001928E-02 0.  1.
</event>
<event>
 5   0  0.2478000E-03  0.7984368E+03  0.7818609E-02  0.9562282E-01
       -4   -1    0    0    0  501  0.00000000000E+00  0.00000000000E+00  0.21907231169E+03  0.21907599287E+03  0.12699999809E+01 0. -1.
        4   -1    0    0  501    0  0.00000000000E+00  0.00000000000E+00 -0.72749072069E+03  0.72749182923E+03  0.12699999809E+01 0.  1.
    10030    2    1    2    0    0  0.00000000000E+00  0.00000000000E+00 -0.50841840900E+03  0.94656782210E+03  0.79843682482E+03 0.  0.
        5    1    3    3  502    0 -0.22293984045E+02 -0.76091507801E+02  0.20961241340E+03  0.22415707246E+03  0.46999998093E+01 0. -1.
       -5    1    3    3    0  502  0.22293984045E+02  0.76091507801E+02 -0.71803082240E+03  0.72241074964E+03  0.46999998093E+01 0.  1.
</event>
<event>
 5   0  0.3860515E-03  0.7926656E+03  0.7818609E-02  0.9570694E-01
       -1   -1    0    0    0  501  0.00000000000E+00  0.00000000000E+00  0.32278851927E+03  0.32278851931E+03  0.50400001928E-02 0. -1.
        1   -1    0    0  501    0  0.00000000000E+00  0.00000000000E+00 -0.48663339460E+03  0.48663339463E+03  0.50400001928E-02 0.  1.
    10030    2    1    2    0    0  0.00000000000E+00  0.00000000000E+00 -0.16384487533E+03  0.80942191394E+03  0.79266556100E+03 0.  0.
        4    1    3    3  502    0  0.14082720600E+03 -0.11423380088E+03  0.27794244354E+03  0.33186635568E+03  0.12699999809E+01 0. -1.
       -4    1    3    3    0  502 -0.14082720600E+03  0.11423380088E+03 -0.44178731886E+03  0.47755555826E+03  0.12699999809E+01 0.  1.
</event>
<event>
 5   0  0.5813850E-03  0.7956334E+03  0.7818609E-02  0.9566359E-01
       -2   -1    0    0    0  501  0.00000000000E+00  0.00000000000E+00  0.11442322087E+03  0.11442322090E+03  0.25500000920E-02 0. -1.
        2   -1    0    0  501    0  0.00000000000E+00  0.00000000000E+00 -0.13830946052E+04  0.13830946052E+04  0.25500000920E-02 0.  1.
    10030    2    1    2    0    0  0.00000000000E+00  0.00000000000E+00 -0.12686713843E+04  0.14975178261E+04  0.79563343195E+03 0.  0.
        5    1    3    3  502    0  0.65709355196E+02 -0.31873073473E+03 -0.10648924379E+04  0.11135191937E+04  0.46999998093E+01 0.  1.
       -5    1    3    3    0  502 -0.65709355196E+02  0.31873073473E+03 -0.20377894645E+03  0.38399863233E+03  0.46999998093E+01 0. -1.
</event>
<event>
 5   0  0.3714448E-03  0.7941735E+03  0.7818609E-02  0.9568489E-01
       -1   -1    0    0    0  501  0.00000000000E+00  0.00000000000E+00  0.17226524586E+03  0.17226524594E+03  0.50400001928E-02 0.  1.
        1   -1    0    0  501    0  0.00000000000E+00  0.00000000000E+00 -0.91532036241E+03  0.91532036242E+03  0.50400001928E-02 0. -1.
    10030    2    1    2    0    0  0.00000000000E+00  0.00000000000E+00 -0.74305511654E+03  0.10875856084E+04  0.79417350075E+03 0.  0.
        1    1    3    3  502    0 -0.48731499928E+02  0.79489007472E+02 -0.90011736946E+03  0.90493344519E+03  0.50400001928E-02 0. -1.
       -1    1    3    3    0  502  0.48731499928E+02 -0.79489007472E+02  0.15706225292E+03  0.18265216317E+03  0.50400001928E-02 0.  1.
</event>
<event>
 5   0  0.2478000E-03  0.8022683E+03  0.7818609E-02  0.9556740E-01
        3   -1    0    0  501    0  0.00000000000E+00  0.00000000000E+00  0.17150917702E+03  0.17150920676E+03  0.10100000352E+00 0. -1.
       -3   -1    0    0    0  501  0.00000000000E+00  0.00000000000E+00 -0.93819229875E+03  0.93819230419E+03  0.10100000352E+00 0.  1.
    10030    2    1    2    0    0  0.00000000000E+00  0.00000000000E+00 -0.76668312173E+03  0.11097015109E+04  0.80226830564E+03 0.  0.
        5    1    3    3  502    0 -0.98139592026E+02 -0.21745306267E+03  0.62662806646E+02  0.24671021730E+03  0.46999998093E+01 0. -1.
       -5    1    3    3    0  502  0.98139592026E+02  0.21745306267E+03 -0.82934592838E+03  0.86299129364E+03  0.46999998093E+01 0.  1.
</event>
<event>
 5   0  0.3860515E-03  0.7974663E+03  0.7818609E-02  0.9563692E-01
        1   -1    0    0  501    0  0.00000000000E+00  0.00000000000E+00  0.37416268124E+03  0.37416268128E+03  0.50400001928E-02 0. -1.
       -1   -1    0    0    0  501  0.00000000000E+00  0.00000000000E+00 -0.42491712809E+03  0.42491712812E+03  0.50400001928E-02 0.  1.
    10030    2    1    2    0    0  0.00000000000E+00  0.00000000000E+00 -0.50754446844E+02  0.79907980939E+03  0.79746631772E+03 0.  0.
        4    1    3    3  502    0  0.12912715434E+03 -0.36319584314E+03 -0.12757120190E+03  0.40603086941E+03  0.12699999809E+01 0.  1.
       -4    1    3    3    0  502 -0.12912715434E+03  0.36319584314E+03  0.76816755056E+02  0.39304893998E+03  0.12699999809E+01 0. -1.
</event>
<event>
 5   0  0.3753450E-03  0.7986328E+03  0.7818609E-02  0.9561998E-01
       -1   -1    0    0    0  501  0.00000000000E+00  0.00000000000E+00  0.13584649551E+03  0.13584649561E+03  0.50400001928E-02 0.  1.
        1   -1    0    0  501    0  0.00000000000E+00  0.00000000000E+00 -0.11737778019E+04  0.11737778019E+04  0.50400001928E-02 0. -1.
    10030    2    1    2    0    0  0.00000000000E+00  0.00000000000E+00 -0.10379313064E+04  0.13096242975E+04  0.79863283422E+03 0.  0.
        5    1    3    3  502    0 -0.34578959078E+02  0.54153943319E+02 -0.11651995059E+04  0.11669791483E+04  0.46999998093E+01 0. -1.
       -5    1    3    3    0  502  0.34578959078E+02 -0.54153943319E+02  0.12726819952E+03  0.14264514922E+03  0.46999998093E+01 0.  1.
</event>
<event>
 5   0  0.6337108E-03  0.7995421E+03  0.7818609E-02  0.9560680E-01
        2   -1    0    0  501    0  0.00000000000E+00  0.00000000000E+00  0.50213621816E+03  0.50213621817E+03  0.25500000920E-02 0.  1.
       -2   -1    0    0    0  501  0.00000000000E+00  0.00000000000E+00 -0.31827400984E+03  0.31827400985E+03  0.25500000920E-02 0. -1.
    10030    2    1    2    0    0  0.00000000000E+00  0.00000000000E+00  0.18386220832E+03  0.82041022801E+03  0.79954213809E+03 0.  0.
        4    1    3    3  502    0  0.31110511701E+03 -0.35598102243E+02  0.34693642676E+03  0.46735437927E+03  0.12699999809E+01 0.  1.
       -4    1    3    3    0  502 -0.31110511701E+03  0.35598102243E+02 -0.16307421844E+03  0.35305584874E+03  0.12699999809E+01 0. -1.
</event>
<event>
 5   0  0.3714448E-03  0.8022303E+03  0.7818609E-02  0.9556794E-01
       -1   -1    0    0    0  501  0.00000000000E+00  0.00000000000E+00  0.31987255941E+03  0.31987255945E+03  0.50400001928E-02 0.  1.
        1   -1    0    0  501    0  0.00000000000E+00  0.00000000000E+00 -0.50299211552E+03  0.50299211554E+03  0.50400001928E-02 0. -1.
    10030    2    1    2    0    0  0.00000000000E+00  0.00000000000E+00 -0.18311955611E+03  0.82286467499E+03  0.80223032947E+03 0.  0.
        1    1    3    3  502    0 -0.54207590607E+02 -0.16863333050E+03 -0.46070217178E+03  0.49358094994E+03  0.50400001928E-02 0. -1.
       -1    1    3    3    0  502  0.54207590607E+02  0.16863333050E+03  0.27758261567E+03  0.32928372505E+03  0.50400001928E-02 0.  1.
</event>
<event>
 5   0  0.6153659E-03  0.8006644E+03  0.7818609E-02  0.9559056E-01
       -2   -1    0    0    0  501  0.00000000000E+00  0.00000000000E+00  0.45571808385E+03  0.45571808386E+03  0.25500000920E-02 0. -1.
        2   -1    0    0  501    0  0.00000000000E+00  0.00000000000E+00 -0.35167764816E+03  0.35167764817E+03  0.25500000920E-02 0.  1.
    10030    2    1    2    0    0  0.00000000000E+00  0.00000000000E+00  0.10404043569E+03  0.80739573202E+03  0.80066438401E+03 0.  0.
        2    1    3    3  502    0  0.26936597821E+03 -0.12357473902E+03  0.32342438997E+03  0.43867081322E+03  0.25500000920E-02 0. -1.
       -2    1    3    3    0  502 -0.26936597821E+03  0.12357473902E+03 -0.21938395428E+03  0.36872491880E+03  0.25500000920E-02 0.  1.
</event>
<event>
 5   0  0.5813850E-03  0.7915930E+03  0.7818609E-02  0.9572266E-01
       -2   -1    0    0    0  501  0.00000000000E+00  0.00000000000E+00  0.21065275678E+03  0.21065275680E+03  0.25500000920E-02 0. -1.
        2   -1    0    0  501    0  0.00000000000E+00  0.00000000000E+00 -0.74366390710E+03  0.74366390710E+03  0.25500000920E-02 0.  1.
    10030    2    1    2    0    0  0.00000000000E+00  0.00000000000E+00 -0.53301115032E+03  0.95431666390E+03  0.79159295641E+03 0.  0.
        5    1    3    3  502    0 -0.27005896424E+03  0.57022272780E+02 -0.60844716972E+03  0.66814177545E+03  0.46999998093E+01 0.  1.
       -5    1    3    3    0  502  0.27005896424E+03 -0.57022272780E+02  0.75436019404E+02  0.28617488845E+03  0.46999998093E+01 0. -1.
</event>
<event>
 5   0  0.3627496E-03  0.8010701E+03  0.7818609E-02  0.9558469E-01
        1   -1    0    0  501    0  0.00000000000E+00  0.00000000000E+00  0.30255018260E+03  0.30255018265E+03  0.50400001928E-02 0.  1.
       -1   -1    0    0    0  501  0.00000000000E+00  0.00000000000E+00 -0.53025365487E+03  0.53025365489E+03  0.50400001928E-02 0. -1.
    10030    2    1    2    0    0  0.00000000000E+00  0.00000000000E+00 -0.22770347226E+03  0.83280383754E+03  0.80107013459E+03 0.  0.
        3    1    3    3  502    0 -0.29324905610E+03  0.10678855054E+02 -0.39726680196E+03  0.49389266950E+03  0.10100000352E+00 0. -1.
       -3    1    3    3    0  502  0.29324905610E+03 -0.10678855054E+02  0.16956332969E+03  0.33891116804E+03  0.10100000352E+00 0.  1.
</event>
<event>
 5   0  0.2478000E-03  0.8078623E+03  0.7818609E-02  0.9548706E-01
        3   -1    0    0  501    0  0.00000000000E+00  0.00000000000E+00  0.36083917186E+03  0.36083918600E+03  0.10100000352E+00 0.  1.
       -3   -1    0    0    0  501  0.00000000000E+00  0.00000000000E+00 -0.45216918792E+03  0.45216919920E+03  0.10100000352E+00 0. -1.
    10030    2    1    2    0    0  0.00000000000E+00  0.00000000000E+00 -0.91330016051E+02  0.81300838520E+03  0.80786227946E+03 0.  0.
        4    1    3    3  502    0 -0.11778057136E+03  0.38044637760E+03  0.22196303666E+02  0.39888093213E+03  0.12699999809E+01 0.  1.
       -4    1    3    3    0  502  0.11778057136E+03 -0.38044637760E+03 -0.11352631972E+03  0.41412745307E+03  0.12699999809E+01 0. -1.
</event>
<event>
 5   0  0.3753450E-03  0.8020042E+03  0.7818609E-02  0.9557121E-01
        1   -1    0    0  501    0  0.00000000000E+00  0.00000000000E+00  0.59665326151E+03  0.59665326154E+03  0.50400001928E-02 0.  1.
       -1   -1    0    0    0  501  0.00000000000E+00  0.00000000000E+00 -0.26950777064E+03  0.26950777068E+03  0.50400001928E-02 0. -1.
    10030    2    1    2    0    0  0.00000000000E+00  0.00000000000E+00  0.32714549088E+03  0.86616103222E+03  0.80200421541E+03 0.  0.
        5    1    3    3  502    0 -0.84411077585E+02 -0.15251232524E+02  0.58659858932E+03  0.59285565284E+03  0.46999998093E+01 0.  1.
       -5    1    3    3    0  502  0.84411077585E+02  0.15251232524E+02 -0.25945309844E+03  0.27330537938E+03  0.46999998093E+01 0. -1.
</event>
<event>
 5   0  0.6153659E-03  0.8026229E+03  0.7818609E-02  0.9556228E-01
       -2   -1    0    0    0  501  0.00000000000E+00  0.00000000000E+00  0.98575903027E+02  0.98575903060E+02  0.25500000920E-02 0.  1.
        2   -1    0    0  501    0  0.00000000000E+00  0.00000000000E+00 -0.16337752409E+04  0.16337752409E+04  0.25500000920E-02 0. -1.
    10030    2    1    2    0    0  0.00000000000E+00  0.00000000000E+00 -0.15351993379E+04  0.17323511440E+04  0.80262287470E+03 0.  0.
        2    1    3    3  502    0  0.19261246932E+03  0.22150822488E+03 -0.13582398766E+04  0.13895974307E+04  0.25500000920E-02 0. -1.
       -2    1    3    3    0  502 -0.19261246932E+03 -0.22150822488E+03 -0.17695946132E+03  0.34275371331E+03  0.25500000920E-02 0.  1.
</event>
<event>
 5   0  0.3860515E-03  0.7986755E+03  0.7818609E-02  0.9561936E-01
       -1   -1    0    0    0  501  0.00000000000E+00  0.00000000000E+00  0.77063249214E+02  0.77063249378E+02  0.50400001928E-02 0.  1.
        1   -1    0    0  501    0  0.00000000000E+00  0.00000000000E+00 -0.20693475004E+04  0.20693475004E+04  0.50400001928E-02 0. -1.
    10030    2    1    2    0    0  0.00000000000E+00  0.00000000000E+00 -0.19922842512E+04  0.21464107498E+04  0.79867550937E+03 0.  0.
        4    1    3    3  502    0 -0.43896428565E+02  0.29510719796E+03 -0.28280486667E+03  0.41109045263E+03  0.12699999809E+01 0.  1.
       -4    1    3    3    0  502  0.43896428565E+02 -0.29510719796E+03 -0.17094793845E+04  0.17353202971E+04  0.12699999809E+01 0. -1.
</event>
<event>
 5   0  0.6536209E-03  0.8022324E+03  0.7818609E-02  0.9556791E-01
       -2   -1    0    0    0  501  0.00000000000E+00  0.00000000000E+00  0.54040455188E+03  0.54040455189E+03  0.25500000920E-02 0.  1.
        2   -1    0    0  501    0  0.00000000000E+00  0.00000000000E+00 -0.29772914799E+03  0.29772914800E+03  0.25500000920E-02 0. -1.
    10030    2    1    2    0    0  0.00000000000E+00  0.00000000000E+00  0.24267540390E+03  0.83813369989E+03  0.80223235240E+03 0.  0.
        3    1    3    3  502    0 -0.33547887555E+03  0.16040982419E+03  0.27845666488E+03  0.46455948172E+03  0.10100000352E+00 0.  1.
       -3    1    3    3    0  502  0.33547887555E+03 -0.16040982419E+03 -0.35781260987E+02  0.37357421817E+03  0.10100000352E+00 0. -1.
</event>
<event>
 5   0  0.5813850E-03  0.8005494E+03  0.7818609E-02  0.9559222E-01
       -2   -1    0    0    0  501  0.00000000000E+00  0.00000000000E+00  0.47028043452E+03  0.47028043452E+03  0.25500000920E-02 0. -1.
        2   -1    0    0  501    0  0.00000000000E+00  0.00000000000E+00 -0.34068997487E+03  0.34068997488E+03  0.25500000920E-02 0.  1.
    10030    2    1    2    0    0  0.00000000000E+00  0.00000000000E+00  0.12959045965E+03  0.81097040940E+03  0.80054938492E+03 0.  0.
        5    1    3    3  502    0 -0.53433736411E+02  0.35861038249E+03  0.23653429420E+03  0.43292855409E+03  0.46999998093E+01 0. -1.
       -5    1    3    3    0  502  0.53433736411E+02 -0.35861038249E+03 -0.10694383455E+03  0.37804185531E+03  0.46999998093E+01 0.  1.
</event>
<event>
 5   0  0.6256781E-03  0.8013896E+03  0.7818609E-02  0.9558008E-01
       -2   -1    0    0    0  501  0.00000000000E+00  0.00000000000E+00  0.19866704311E+03  0.19866704313E+03  0.25500000920E-02 0. -1.
        2   -1    0    0  501    0  0.00000000000E+00  0.00000000000E+00 -0.80816787941E+03  0.80816787941E+03  0.25500000920E-02 0.  1.
    10030    2    1    2    0    0  0.00000000000E+00  0.00000000000E+00 -0.60950083629E+03  0.10068349225E+04  0.80138960051E+03 0.  0.
        1    1    3    3  502    0  0.30739854858E+03  0.61002645364E+02 -0.61844131239E+03  0.69331439283E+03  0.50400001928E-02 0.  1.
       -1    1    3    3    0  502 -0.30739854858E+03 -0.61002645364E+02  0.89404760942E+01  0.31352052971E+03  0.50400001928E-02 0. -1.
</event>
<event>
 5   0  0.3860515E-03  0.8014159E+03  0.7818609E-02  0.9557970E-01
       -1   -1    0    0    0  501  0.00000000000E+00  0.00000000000E+00  0.15573030993E+03  0.15573031002E+03  0.50400001928E-02 0. -1.
        1   -1    0    0  501    0  0.00000000000E+00  0.00000000000E+00 -0.10310572752E+04  0.10310572752E+04  0.50400001928E-02 0.  1.
    10030    2    1    2    0    0  0.00000000000E+00  0.00000000000E+00 -0.87532696522E+03  0.11867875852E+04  0.80141591967E+03 0.  0.
        4    1    3    3  502    0 -0.34966462671E+02  0.38131059275E+03 -0.61253606033E+03  0.72237279833E+03  0.12699999809E+01 0.  1.
       -4    1    3    3    0  502  0.34966462671E+02 -0.38131059275E+03 -0.26279090489E+03  0.46441478686E+03  0.12699999809E+01 0. -1.
</event>
<event>
 5   0  0.6256781E-03  0.8051721E+03  0.7818609E-02  0.9552561E-01
        2   -1    0    0  501    0  0.00000000000E+00  0.00000000000E+00  0.82797354883E+03  0.82797354884E+03  0.25500000920E-02 0. -1.
       -2   -1    0    0    0  501  0.00000000000E+00  0.00000000000E+00 -0.19574962555E+03  0.19574962556E+03  0.25500000920E-02 0.  1.
    10030    2    1    2    0    0  0.00000000000E+00  0.00000000000E+00  0.63222392329E+03  0.10237231744E+04  0.80517206151E+03 0.  0.
        1    1    3    3  502    0  0.11357443585E+03 -0.14271509127E+02 -0.17462317935E+03  0.20879675103E+03  0.50400001928E-02 0.  1.
       -1    1    3    3    0  502 -0.11357443585E+03  0.14271509127E+02  0.80684710263E+03  0.81492642337E+03  0.50400001928E-02 0. -1.
</event>
<event>
 5   0  0.3860515E-03  0.8052384E+03  0.7818609E-02  0.9552466E-01
        1   -1    0    0  501    0  0.00000000000E+00  0.00000000000E+00  0.28881218657E+03  0.28881218662E+03  0.50400001928E-02 0. -1.
       -1   -1    0    0    0  501  0.00000000000E+00  0.00000000000E+00 -0.56127207182E+03  0.56127207184E+03  0.50400001928E-02 0.  1.
    10030    2    1    2    0    0  0.00000000000E+00  0.00000000000E+00 -0.27245988525E+03  0.85008425846E+03  0.80523838545E+03 0.  0.
        4    1    3    3  502    0 -0.12248867369E+02 -0.30077928080E+03  0.14602206516E+03  0.33457774421E+03  0.12699999809E+01 0. -1.
       -4    1    3    3    0  502  0.12248867369E+02  0.30077928080E+03 -0.41848195041E+03  0.51550651424E+03  0.12699999809E+01 0.  1.
</event>
<event>
 5   0  0.6337108E-03  0.7962588E+03  0.7818609E-02  0.9565448E-01
       -2   -1    0    0    0  501  0.00000000000E+00  0.00000000000E+00  0.35056953304E+03  0.35056953305E+03  0.25500000920E-02 0. -1.
        2   -1    0    0  501    0  0.00000000000E+00  0.00000000000E+00 -0.45214142664E+03  0.45214142665E+03  0.25500000920E-02 0.  1.
    10030    2    1    2    0    0  0.00000000000E+00  0.00000000000E+00 -0.10157189360E+03  0.80271095970E+03  0.79625877405E+03 0.  0.
        4    1    3    3  502    0  0.73520012336E+02 -0.14915797456E+02  0.34337815078E+03  0.35147950233E+03  0.12699999809E+01 0. -1.
       -4    1    3    3    0  502 -0.73520012336E+02  0.14915797456E+02 -0.44495004438E+03  0.45123145737E+03  0.12699999809E+01 0.  1.
</event>
<event>
 5   0  0.3714448E-03  0.7975791E+03  0.7818609E-02  0.9563528E-01
       -1   -1    0    0    0  501  0.00000000000E+00  0.00000000000E+00  0.14237667605E+03  0.14237667614E+03  0.50400001928E-02 0. -1.
        1   -1    0    0  501    0  0.00000000000E+00  0.00000000000E+00 -0.11169885509E+04  0.11169885509E+04  0.50400001928E-02 0.  1.
    10030    2    1    2    0    0  0.00000000000E+00  0.00000000000E+00 -0.97461187487E+03  0.12593652271E+04  0.79757912994E+03 0.  0.
        1    1    3    3  502    0  0.17152736092E+03 -0.75096239200E+02 -0.10432611210E+04  0.10599315295E+04  0.50400001928E-02 0.  1.
       -1    1    3    3    0  502 -0.17152736092E+03  0.75096239200E+02  0.68649246140E+02  0.19943369752E+03  0.50400001928E-02 0. -1.
</event>
<event>
 5   0  0.5813850E-03  0.8046595E+03  0.7818609E-02  0.9553297E-01
       -2   -1    0    0    0  501  0.00000000000E+00  0.00000000000E+00  0.53320702742E+03  0.53320702742E+03  0.25500000920E-02 0. -1.
        2   -1    0    0  501    0  0.00000000000E+00  0.00000000000E+00 -0.30357669530E+03  0.30357669531E+03  0.25500000920E-02 0.  1.
    10030    2    1    2    0    0  0.00000000000E+00  0.00000000000E+00  0.22963033212E+03  0.83678372273E+03  0.80465949892E+03 0.  0.
        5    1    3    3  502    0 -0.30196504922E+03  0.26571682246E+03  0.12279054073E+03  0.42058046504E+03  0.46999998093E+01 0. -1.
       -5    1    3    3    0  502  0.30196504922E+03 -0.26571682246E+03  0.10683979139E+03  0.41620325769E+03  0.46999998093E+01 0.  1.
</event>
<event>
 5   0  0.5813850E-03  0.7992240E+03  0.7818609E-02  0.9561141E-01
        2   -1    0    0  501    0  0.00000000000E+00  0.00000000000E+00  0.16199357530E+04  0.16199357530E+04  0.25500000920E-02 0. -1.
       -2   -1    0    0    0  501  0.00000000000E+00  0.00000000000E+00 -0.98577831245E+02  0.98577831278E+02  0.25500000920E-02 0.  1.
    10030    2    1    2    0    0  0.00000000000E+00  0.00000000000E+00  0.15213579218E+04  0.17185135843E+04  0.79922400694E+03 0.  0.
        5    1    3    3  502    0  0.55416606337E+02 -0.10359788837E+02 -0.89923872878E+02  0.10623896834E+03  0.46999998093E+01 0.  1.
       -5    1    3    3    0  502 -0.55416606337E+02  0.10359788837E+02  0.16112817946E+04  0.16122746159E+04  0.46999998093E+01 0. -1.
</event>
<event>
 5   0  0.6153659E-03  0.8016309E+03  0.7818609E-02  0.9557659E-01
        2   -1    0    0  501    0  0.00000000000E+00  0.00000000000E+00  0.85891274713E+03  0.85891274714E+03  0.25500000920E-02 0. -1.
       -2   -1    0    0    0  501  0.00000000000E+00  0.00000000000E+00 -0.18704230711E+03  0.18704230712E+03  0.25500000920E-02 0.  1.
    10030    2    1    2    0    0  0.00000000000E+00  0.00000000000E+00  0.67187044003E+03  0.10459550543E+04  0.80163089222E+03 0.  0.
        2    1    3    3  502    0 -0.36957255047E+03 -0.18415140547E+00  0.53836232519E+03  0.65300681249E+03  0.25500000920E-02 0. -1.
       -2    1    3    3    0  502  0.36957255047E+03  0.18415140547E+00  0.13350811484E+03  0.39294824177E+03  0.25500000920E-02 0.  1.
</event>
<event>
 5   0  0.6153659E-03  0.7986624E+03  0.7818609E-02  0.9561955E-01
       -2   -1    0    0    0  501  0.00000000000E+00  0.00000000000E+00  0.14806442878E+03  0.14806442880E+03  0.25500000920E-02 0.  1.
        2   -1    0    0  501    0  0.00000000000E+00  0.00000000000E+00 -0.10769999847E+04  0.10769999847E+04  0.25500000920E-02 0. -1.
    10030    2    1    2    0    0  0.00000000000E+00  0.00000000000E+00 -0.92893555587E+03  0.12250644135E+04  0.79866235052E+03 0.  0.
        2    1    3    3  502    0  0.27600389687E+03 -0.53549111672E+02 -0.89945551650E+03  0.94237247658E+03  0.25500000920E-02 0. -1.
       -2    1    3    3    0  502 -0.27600389687E+03  0.53549111672E+02 -0.29480039373E+02  0.28269193687E+03  0.25500000920E-02 0.  1.
</event>
<event>
 5   0  0.6256781E-03  0.7991095E+03  0.7818609E-02  0.9561307E-01
       -2   -1    0    0    0  501  0.00000000000E+00  0.00000000000E+00  0.10187288282E+03  0.10187288285E+03  0.25500000920E-02 0. -1.
        2   -1    0    0  501    0  0.00000000000E+00  0.00000000000E+00 -0.15670902781E+04  0.15670902781E+04  0.25500000920E-02 0.  1.
    10030    2    1    2    0    0  0.00000000000E+00  0.00000000000E+00 -0.14652173953E+04  0.16689631610E+04  0.79910951513E+03 0.  0.
        1    1    3    3  502    0 -0.12719321766E+03 -0.55073872890E+02  0.50054046962E+02  0.14736571425E+03  0.50400001928E-02 0. -1.
       -1    1    3    3    0  502  0.12719321766E+03  0.55073872890E+02 -0.15152714423E+04  0.15215974467E+04  0.50400001928E-02 0.  1.
</event>
<event>
 5   0  0.3627496E-03  0.7993735E+03  0.7818609E-02  0.9560924E-01
       -1   -1    0    0    0  501  0.00000000000E+00  0.00000000000E+00  0.75911506515E+03  0.75911506516E+03  0.50400001928E-02 0. -1.
        1   -1    0    0  501    0  0.00000000000E+00  0.00000000000E+00 -0.21044172521E+03  0.21044172527E+03  0.50400001928E-02 0.  1.
    10030    2    1    2    0    0  0.00000000000E+00  0.00000000000E+00  0.54867333994E+03  0.96955679043E+03  0.79937346460E+03 0.  0.
        3    1    3    3  502    0  0.38315383453E+03  0.47416620952E+02  0.14890730094E+03  0.41379776622E+03  0.10100000352E+00 0. -1.
       -3    1    3    3    0  502 -0.38315383453E+03 -0.47416620952E+02  0.39976603900E+03  0.55575902421E+03  0.10100000352E+00 0.  1.
</event>
<event>
 5   0  0.3627496E-03  0.8010030E+03  0.7818609E-02  0.9558567E-01
       -1   -1    0    0    0  501  0.00000000000E+00  0.00000000000E+00  0.12436758092E+03  0.12436758103E+03  0.50400001928E-02 0. -1.
        1   -1    0    0  501    0  0.00000000000E+00  0.00000000000E+00 -0.12897366951E+04  0.12897366951E+04  0.50400001928E-02 0.  1.
    10030    2    1    2    0    0  0.00000000000E+00  0.00000000000E+00 -0.11653691142E+04  0.14141042761E+04  0.80100295350E+03 0.  0.
        3    1    3    3  502    0 -0.30610529185E+03 -0.21304060601E+03 -0.84042742520E+03  0.91945908921E+03  0.10100000352E+00 0.  1.
       -3    1    3    3    0  502  0.30610529185E+03  0.21304060601E+03 -0.32494168898E+03  0.49464518692E+03  0.10100000352E+00 0. -1.
</event>
<event>
 5   0  0.3753450E-03  0.8013763E+03  0.7818609E-02  0.9558027E-01
       -1   -1    0    0    0  501  0.00000000000E+00  0.00000000000E+00  0.56506065232E+03  0.56506065234E+03  0.50400001928E-02 0. -1.
        1   -1    0    0  501    0  0.00000000000E+00  0.00000000000E+00 -0.28413051438E+03  0.28413051442E+03  0.50400001928E-02 0.  1.
    10030    2    1    2    0    0  0.00000000000E+00  0.00000000000E+00  0.28093013794E+03  0.84919116676E+03  0.80137625077E+03 0.  0.
        5    1    3    3  502    0  0.35544775362E+03  0.42724734647E+02 -0.50158139586E+02  0.36153345277E+03  0.46999998093E+01 0. -1.
       -5    1    3    3    0  502 -0.35544775362E+03 -0.42724734647E+02  0.33108827753E+03  0.48765771400E+03  0.46999998093E+01 0.  1.
</event>
<event>
 5   0  0.6536209E-03  0.8053227E+03  0.7818609E-02  0.9552344E-01
        2   -1    0    0  501    0  0.00000000000E+00  0.00000000000E+00  0.12948730255E+03  0.12948730258E+03  0.25500000920E-02 0.  1.
       -2   -1    0    0    0  501  0.00000000000E+00  0.00000000000E+00 -0.12521395603E+04  0.12521395603E+04  0.25500000920E-02 0. -1.
    10030    2    1    2    0    0  0.00000000000E+00  0.00000000000E+00 -0.11226522577E+04  0.13816268628E+04  0.80532272810E+03 0.  0.
        3    1    3    3  502    0 -0.23430943264E+02  0.57598204756E+02  0.12120044814E+03  0.13622085421E+03  0.10100000352E+00 0.  1.
       -3    1    3    3    0  502  0.23430943264E+02 -0.57598204756E+02 -0.12438527058E+04  0.12454060086E+04  0.10100000352E+00 0. -1.
</event>
<event>
 5   0  0.3860515E-03  0.8027826E+03  0.7818609E-02  0.9555998E-01
        1   -1    0    0  501    0  0.00000000000E+00  0.00000000000E+00  0.27905802355E+03  0.27905802359E+03  0.50400001928E-02 0. -1.
       -1   -1    0    0    0  501  0.00000000000E+00  0.00000000000E+00 -0.57735302997E+03  0.57735302999E+03  0.50400001928E-02 0.  1.
    10030    2    1    2    0    0  0.00000000000E+00  0.00000000000E+00 -0.29829500642E+03  0.85641105359E+03  0.80278264920E+03 0.  0.
        4    1    3    3  502    0 -0.30387968908E+03  0.18380349476E+03 -0.34869043598E+03  0.49770796977E+03  0.12699999809E+01 0.  1.
       -4    1    3    3    0  502  0.30387968908E+03 -0.18380349476E+03  0.50395429561E+02  0.35870308382E+03  0.12699999809E+01 0. -1.
</event>
<event>
 5   0  0.6153659E-03  0.8005200E+03  0.7818609E-02  0.9559265E-01
       -2   -1    0    0    0  501  0.00000000000E+00  0.00000000000E+00  0.10611568704E+03  0.10611568707E+03  0.25500000920E-02 0.  1.
        2   -1    0    0  501    0  0.00000000000E+00  0.00000000000E+00 -0.15097492928E+04  0.15097492928E+04  0.25500000920E-02 0. -1.
    10030    2    1    2    0    0  0.00000000000E+00  0.00000000000E+00 -0.14036336058E+04  0.16158649799E+04  0.80052003972E+03 0.  0.
        2    1    3    3  502    0 -0.28975123209E+03 -0.95341227373E+02 -0.17870342568E+03  0.35352601105E+03  0.25500000920E-02 0.  1.
       -2    1    3    3    0  502  0.28975123209E+03  0.95341227373E+02 -0.12249301801E+04  0.12623389689E+04  0.25500000920E-02 0. -1.
</event>
<event>
 5   0  0.3860515E-03  0.8037486E+03  0.7818609E-02  0.9554607E-01
        1   -1    0    0  501    0  0.00000000000E+00  0.00000000000E+00  0.45167350738E+03  0.45167350741E+03  0.50400001928E-02 0. -1.
       -1   -1    0    0    0  501  0.00000000000E+00  0.00000000000E+00 -0.35756570832E+03  0.35756570836E+03  0.50400001928E-02 0.  1.
    10030    2    1    2    0    0  0.00000000000E+00  0.00000000000E+00  0.94107799062E+02  0.80923921577E+03  0.80374861151E+03 0.  0.
        4    1    3    3  502    0 -0.93000169931E+02  0.38965331836E+03  0.14857259139E+02  0.40087540604E+03  0.12699999809E+01 0.  1.
       -4    1    3    3    0  502  0.93000169931E+02 -0.38965331836E+03  0.79250539923E+02  0.40836380973E+03  0.12699999809E+01 0. -1.
</event>
<event>
 5   0  0.3714448E-03  0.8009508E+03  0.7818609E-02  0.9558642E-01
        1   -1    0    0  501    0  0.00000000000E+00  0.00000000000E+00  0.23232402649E+03  0.23232402654E+03  0.50400001928E-02 0. -1.
       -1   -1    0    0    0  501  0.00000000000E+00  0.00000000000E+00 -0.69033125303E+03  0.69033125305E+03  0.50400001928E-02 0.  1.
    10030    2    1    2    0    0  0.00000000000E+00  0.00000000000E+00 -0.45800722654E+03  0.92265527959E+03  0.80095077589E+03 0.  0.
        1    1    3    3  502    0 -0.22581515317E+03 -0.29475574777E+03 -0.56183838389E+02  0.37553968894E+03  0.50400001928E-02 0. -1.
       -1    1    3    3    0  502  0.22581515317E+03  0.29475574777E+03 -0.40182338815E+03  0.54711559065E+03  0.50400001928E-02 0.  1.
</event>
<event>
 5   0  0.3671128E-03  0.7987615E+03  0.7818609E-02  0.9561811E-01
       -1   -1    0    0    0  501  0.00000000000E+00  0.00000000000E+00  0.81641099058E+03  0.81641099060E+03  0.50400001928E-02 0.  1.
        1   -1    0    0  501    0  0.00000000000E+00  0.00000000000E+00 -0.19537341473E+03  0.19537341480E+03  0.50400001928E-02 0. -1.
    10030    2    1    2    0    0  0.00000000000E+00  0.00000000000E+00  0.62103757585E+03  0.10117844054E+04  0.79876154914E+03 0.  0.
        2    1    3    3  502    0  0.73630606285E+02 -0.35019877944E+03  0.53513554559E+03  0.64376292489E+03  0.25500000920E-02 0.  1.
       -2    1    3    3    0  502 -0.73630606285E+02  0.35019877944E+03  0.85902030264E+02  0.36802148051E+03  0.25500000920E-02 0. -1.
</event>
<event>
 5   0  0.3627496E-03  0.8001665E+03  0.7818609E-02  0.9559776E-01
       -1   -1    0    0    0  501  0.00000000000E+00  0.00000000000E+00  0.34731473392E+03  0.34731473396E+03  0.50400001928E-02 0.  1.
        1   -1    0    0  501    0  0.00000000000E+00  0.00000000000E+00 -0.46086903412E+03  0.46086903415E+03  0.50400001928E-02 0. -1.
    10030    2    1    2    0    0  0.00000000000E+00  0.00000000000E+00 -0.11355430020E+03  0.80818376811E+03  0.80016649764E+03 0.  0.
        3    1    3    3  502    0 -0.10438878361E+03  0.35980243995E+03 -0.19858252808E+03  0.42401632586E+03  0.10100000352E+00 0. -1.
       -3    1    3    3    0  502  0.10438878361E+03 -0.35980243995E+03  0.85028227885E+02  0.38416744224E+03  0.10100000352E+00 0.  1.
</event>
<event>
 5   0  0.6337108E-03  0.7996820E+03  0.7818609E-02  0.9560478E-01
        2   -1    0    0  501    0  0.00000000000E+00  0.00000000000E+00  0.64915199647E+03  0.64915199647E+03  0.25500000920E-02 0.  1.
       -2   -1    0    0    0  501  0.00000000000E+00  0.00000000000E+00 -0.24627946470E+03  0.24627946471E+03  0.25500000920E-02 0. -1.
    10030    2    1    2    0    0  0.00000000000E+00  0.00000000000E+00  0.40287253177E+03  0.89543146119E+03  0.79968195229E+03 0.  0.
        4    1    3    3  502    0  0.26558176377E+03  0.39262226006E+02  0.53321795497E+03  0.59699095139E+03  0.12699999809E+01 0.  1.
       -4    1    3    3    0  502 -0.26558176377E+03 -0.39262226006E+02 -0.13034542320E+03  0.29844050980E+03  0.12699999809E+01 0. -1.
</event>
<event>
 5   0  0.6337108E-03  0.7996274E+03  0.7818609E-02  0.9560557E-01
       -2   -1    0    0    0  501  0.00000000000E+00  0.00000000000E+00  0.30916024606E+03  0.30916024607E+03  0.25500000920E-02 0.  1.
        2   -1    0    0  501    0  0.00000000000E+00  0.00000000000E+00 -0.51704905247E+03  0.51704905247E+03  0.25500000920E-02 0. -1.
    10030    2    1    2    0    0  0.00000000000E+00  0.00000000000E+00 -0.20788880640E+03  0.82620929855E+03  0.79962744399E+03 0.  0.
        4    1    3    3  502    0 -0.26668358096E+03 -0.15902560130E+03 -0.36419060683E+03  0.47858717621E+03  0.12699999809E+01 0. -1.
       -4    1    3    3    0  502  0.26668358096E+03  0.15902560130E+03  0.15630180043E+03  0.34762212234E+03  0.12699999809E+01 0.  1.
</event>
<event>
 5   0  0.3671128E-03  0.7968865E+03  0.7818609E-02  0.9564535E-01
        1   -1    0    0  501    0  0.00000000000E+00  0.00000000000E+00  0.33417300303E+03  0.33417300307E+03  0.50400001928E-02 0.  1.
       -1   -1    0    0    0  501  0.00000000000E+00  0.00000000000E+00 -0.47507436186E+03  0.47507436188E+03  0.50400001928E-02 0. -1.
    10030    2    1    2    0    0  0.00000000000E+00  0.00000000000E+00 -0.14090135883E+03  0.80924736496E+03  0.79688650683E+03 0.  0.
        2    1    3    3  502    0  0.44348265756E+02  0.32038984847E+03  0.16583987590E+03  0.36348217030E+03  0.25500000920E-02 0.  1.
       -2    1    3    3    0  502 -0.44348265756E+02 -0.32038984847E+03 -0.30674123472E+03  0.44576519466E+03  0.25500000920E-02 0. -1.
</event>
<event>
 5   0  0.6337108E-03  0.8198548E+03  0.7818609E-02  0.9531715E-01
        2   -1    0    0  501    0  0.00000000000E+00  0.00000000000E+00  0.44811197590E+03  0.44811197591E+03  0.25500000920E-02 0. -1.
       -2   -1    0    0    0  501  0.00000000000E+00  0.00000000000E+00 -0.37499662984E+03  0.37499662985E+03  0.25500000920E-02 0.  1.
    10030    2    1    2    0    0  0.00000000000E+00  0.00000000000E+00  0.73115346060E+02  0.82310860576E+03  0.81985481827E+03 0.  0.
        4    1    3    3  502    0  0.20214047750E+03 -0.20409347319E+03 -0.25704774328E+03  0.38547383006E+03  0.12699999809E+01 0.  1.
       -4    1    3    3    0  502 -0.20214047750E+03  0.20409347319E+03  0.33016308933E+03  0.43763477570E+03  0.12699999809E+01 0. -1.
</event>
<event>
 5   0  0.6256781E-03  0.8316137E+03  0.7818609E-02  0.9515352E-01
        2   -1    0    0  501    0  0.00000000000E+00  0.00000000000E+00  0.14494862211E+04  0.14494862211E+04  0.25500000920E-02 0.  1.
       -2   -1    0    0    0  501  0.00000000000E+00  0.00000000000E+00 -0.11928043931E+03  0.11928043933E+03  0.25500000920E-02 0. -1.
    10030    2    1    2    0    0  0.00000000000E+00  0.00000000000E+00  0.13302057818E+04  0.15687666604E+04  0.83161374026E+03 0.  0.
        1    1    3    3  502    0 -0.38160062816E+02 -0.13289003579E+03  0.14048542599E+04  0.14116414005E+04  0.50400001928E-02 0.  1.
       -1    1    3    3    0  502  0.38160062816E+02  0.13289003579E+03 -0.74648478098E+02  0.15712525995E+03  0.50400001928E-02 0. -1.
</event>
<event>
 5   0  0.2478000E-03  0.7998138E+03  0.7818609E-02  0.9560287E-01
        3   -1    0    0  501    0  0.00000000000E+00  0.00000000000E+00  0.15191431796E+03  0.15191435153E+03  0.10100000352E+00 0.  1.
       -3   -1    0    0    0  501  0.00000000000E+00  0.00000000000E+00 -0.10527350202E+04  0.10527350251E+04  0.10100000352E+00 0. -1.
    10030    2    1    2    0    0  0.00000000000E+00  0.00000000000E+00 -0.90082070226E+03  0.12046493766E+04  0.79981384266E+03 0.  0.
        3    1    3    3  502    0  0.25192938316E+02  0.29715272273E+03 -0.85171457381E+03  0.90241462211E+03  0.10100000352E+00 0. -1.
       -3    1    3    3    0  502 -0.25192938316E+02 -0.29715272273E+03 -0.49106128453E+02  0.30223475448E+03  0.10100000352E+00 0.  1.
</event>
<event>
 5   0  0.6337108E-03  0.8073111E+03  0.7818609E-02  0.9549495E-01
        2   -1    0    0  501    0  0.00000000000E+00  0.00000000000E+00  0.86486428557E+03  0.86486428557E+03  0.25500000920E-02 0.  1.
       -2   -1    0    0    0  501  0.00000000000E+00  0.00000000000E+00 -0.18839694418E+03  0.18839694419E+03  0.25500000920E-02 0. -1.
    10030    2    1    2    0    0  0.00000000000E+00  0.00000000000E+00  0.67646734139E+03  0.10532612298E+04  0.80731106406E+03 0.  0.
        4    1    3    3  502    0 -0.36093412579E+03 -0.17161693543E+03  0.26431195161E+03  0.47915366675E+03  0.12699999809E+01 0. -1.
       -4    1    3    3    0  502  0.36093412579E+03  0.17161693543E+03  0.41215538978E+03  0.57410756302E+03  0.12699999809E+01 0.  1.
</event>
<event>
 5   0  0.3627496E-03  0.8002584E+03  0.7818609E-02  0.9559643E-01
       -1   -1    0    0    0  501  0.00000000000E+00  0.00000000000E+00  0.37721551494E+03  0.37721551497E+03  0.50400001928E-02 0.  1.
        1   -1    0    0  501    0  0.00000000000E+00  0.00000000000E+00 -0.42443478078E+03  0.42443478081E+03  0.50400001928E-02 0. -1.
    10030    2    1    2    0    0  0.00000000000E+00  0.00000000000E+00 -0.47219265840E+02  0.80165029578E+03  0.80025841930E+03 0.  0.
        3    1    3    3  502    0  0.16811104642E+03 -0.18369878164E+03 -0.33735848317E+03  0.41930576275E+03  0.10100000352E+00 0. -1.
       -3    1    3    3    0  502 -0.16811104642E+03  0.18369878164E+03  0.29013921733E+03  0.38234453303E+03  0.10100000352E+00 0.  1.
</event>
<event>
 5   0  0.5813850E-03  0.7985640E+03  0.7818609E-02  0.9562098E-01
       -2   -1    0    0    0  501  0.00000000000E+00  0.00000000000E+00  0.79105601179E+03  0.79105601179E+03  0.25500000920E-02 0. -1.
        2   -1    0    0  501    0  0.00000000000E+00  0.00000000000E+00 -0.20153579180E+03  0.20153579182E+03  0.25500000920E-02 0.  1.
    10030    2    1    2    0    0  0.00000000000E+00  0.00000000000E+00  0.58952021998E+03  0.99259180361E+03  0.79856396038E+03 0.  0.
        5    1    3    3  502    0 -0.32678205982E+03  0.29075987347E+02  0.57757924761E+03  0.66426787137E+03  0.46999998093E+01 0. -1.
       -5    1    3    3    0  502  0.32678205982E+03 -0.29075987347E+02  0.11940972372E+02  0.32832393224E+03  0.46999998093E+01 0.  1.
</event>
<event>
 5   0  0.3627496E-03  0.8046016E+03  0.7818609E-02  0.9553380E-01
       -1   -1    0    0    0  501  0.00000000000E+00  0.00000000000E+00  0.36994431553E+03  0.36994431556E+03  0.50400001928E-02 0. -1.
        1   -1    0    0  501    0  0.00000000000E+00  0.00000000000E+00 -0.43748726283E+03  0.43748726286E+03  0.50400001928E-02 0.  1.
    10030    2    1    2    0    0  0.00000000000E+00  0.00000000000E+00 -0.67542947303E+02  0.80743157842E+03  0.80460158097E+03 0.  0.
        3    1    3    3  502    0 -0.55026590429E+02 -0.12040691161E+03 -0.41500260554E+03  0.43560638519E+03  0.10100000352E+00 0.  1.
       -3    1    3    3    0  502  0.55026590429E+02  0.12040691161E+03  0.34745965823E+03  0.37182519323E+03  0.10100000352E+00 0. -1.
</event>
<event>
 5   0  0.3627496E-03  0.8124496E+03  0.7818609E-02  0.9542170E-01
        1   -1    0    0  501    0  0.00000000000E+00  0.00000000000E+00  0.58237249110E+03  0.58237249112E+03  0.50400001928E-02 0.  1.
       -1   -1    0    0    0  501  0.00000000000E+00  0.00000000000E+00 -0.28335571739E+03  0.28335571744E+03  0.50400001928E-02 0. -1.
    10030    2    1    2    0    0  0.00000000000E+00  0.00000000000E+00  0.29901677370E+03  0.86572820856E+03  0.81244956775E+03 0.  0.
        3    1    3    3  502    0  0.42158954477E+02 -0.34811774403E+01 -0.28100227174E+03  0.28416858194E+03  0.10100000352E+00 0. -1.
       -3    1    3    3    0  502 -0.42158954477E+02  0.34811774403E+01  0.58001904544E+03  0.58155962662E+03  0.10100000352E+00 0.  1.
</event>
<event>
 5   0  0.6536209E-03  0.8023030E+03  0.7818609E-02  0.9556690E-01
        2   -1    0    0  501    0  0.00000000000E+00  0.00000000000E+00  0.34388132951E+03  0.34388132951E+03  0.25500000920E-02 0.  1.
       -2   -1    0    0    0  501  0.00000000000E+00  0.00000000000E+00 -0.46795942133E+03  0.46795942133E+03  0.25500000920E-02 0. -1.
    10030    2    1    2    0    0  0.00000000000E+00  0.00000000000E+00 -0.12407809182E+03  0.81184075085E+03  0.80230295516E+03 0.  0.
        3    1    3    3  502    0  0.39143723212E+03 -0.76913615826E+02 -0.10477483743E+03  0.41245192174E+03  0.10100000352E+00 0. -1.
       -3    1    3    3    0  502 -0.39143723212E+03  0.76913615826E+02 -0.19303254388E+02  0.39938882911E+03  0.10100000352E+00 0.  1.
</event>
<event>
 5   0  0.3714448E-03  0.7681861E+03  0.7818609E-02  0.9607244E-01
       -1   -1    0    0    0  501  0.00000000000E+00  0.00000000000E+00  0.42697452125E+03  0.42697452128E+03  0.50400001928E-02 0. -1.
        1   -1    0    0  501    0  0.00000000000E+00  0.00000000000E+00 -0.34551816385E+03  0.34551816389E+03  0.50400001928E-02 0.  1.
    10030    2    1    2    0    0  0.00000000000E+00  0.00000000000E+00  0.81456357394E+02  0.77249268517E+03  0.76818605199E+03 0.  0.
        1    1    3    3  502    0 -0.16527489909E+03  0.63626633223E+02 -0.30200997357E+03  0.35010593380E+03  0.50400001928E-02 0.  1.
       -1    1    3    3    0  502  0.16527489909E+03 -0.63626633223E+02  0.38346633096E+03  0.42238675137E+03  0.50400001928E-02 0. -1.
</event>
<event>
 5   0  0.3860515E-03  0.8034919E+03  0.7818609E-02  0.9554976E-01
       -1   -1    0    0    0  501  0.00000000000E+00  0.00000000000E+00  0.98908353819E+02  0.98908353948E+02  0.50400001928E-02 0.  1.
        1   -1    0    0  501    0  0.00000000000E+00  0.00000000000E+00 -0.16318118824E+04  0.16318118824E+04  0.50400001928E-02 0. -1.
    10030    2    1    2    0    0  0.00000000000E+00  0.00000000000E+00 -0.15329035286E+04  0.17307202364E+04  0.80349194682E+03 0.  0.
        4    1    3    3  502    0  0.19102537964E+03 -0.31433347013E+03 -0.11144540828E+04  0.11735866997E+04  0.12699999809E+01 0.  1.
       -4    1    3    3    0  502 -0.19102537964E+03  0.31433347013E+03 -0.41844944577E+03  0.55713353666E+03  0.12699999809E+01 0. -1.
</event>
<event>
 5   0  0.3753450E-03  0.7978842E+03  0.7818609E-02  0.9563085E-01
       -1   -1    0    0    0  501  0.00000000000E+00  0.00000000000E+00  0.29016833844E+03  0.29016833848E+03  0.50400001928E-02 0.  1.
        1   -1    0    0  501    0  0.00000000000E+00  0.00000000000E+00 -0.54849126359E+03  0.54849126362E+03  0.50400001928E-02 0. -1.
    10030    2    1    2    0    0  0.00000000000E+00  0.00000000000E+00 -0.25832292515E+03  0.83865960210E+03  0.79788419870E+03 0.  0.
        5    1    3    3  502    0  0.27940178358E+03 -0.13928918184E+03 -0.39017817256E+03  0.49972785512E+03  0.46999998093E+01 0. -1.
       -5    1    3    3    0  502 -0.27940178358E+03  0.13928918184E+03  0.13185524741E+03  0.33893174698E+03  0.46999998093E+01 0.  1.
</event>
<event>
 5   0  0.2478000E-03  0.7974552E+03  0.7818609E-02  0.9563708E-01
       -3   -1    0    0    0  501  0.00000000000E+00  0.00000000000E+00  0.10678119083E+03  0.10678123860E+03  0.10100000352E+00 0.  1.
        3   -1    0    0  501    0  0.00000000000E+00  0.00000000000E+00 -0.14888732206E+04  0.14888732240E+04  0.10100000352E+00 0. -1.
    10030    2    1    2    0    0  0.00000000000E+00  0.00000000000E+00 -0.13820920298E+04  0.15956544626E+04  0.79745519332E+03 0.  0.
        5    1    3    3  502    0 -0.57530774059E+02 -0.11977943338E+03 -0.14432071164E+04  0.14493190724E+04  0.46999998093E+01 0. -1.
       -5    1    3    3    0  502  0.57530774059E+02  0.11977943338E+03  0.61115086667E+02  0.14633539025E+03  0.46999998093E+01 0.  1.
</event>
<event>
 5   0  0.3860515E-03  0.7981095E+03  0.7818609E-02  0.9562758E-01
       -1   -1    0    0    0  501  0.00000000000E+00  0.00000000000E+00  0.35865167416E+03  0.35865167420E+03  0.50400001928E-02 0. -1.
        1   -1    0    0  501    0  0.00000000000E+00  0.00000000000E+00 -0.44400936481E+03  0.44400936484E+03  0.50400001928E-02 0.  1.
    10030    2    1    2    0    0  0.00000000000E+00  0.00000000000E+00 -0.85357690645E+02  0.80266103903E+03  0.79810952145E+03 0.  0.
        4    1    3    3  502    0  0.14076028862E+03 -0.12998056226E+03  0.30936698762E+03  0.36389277452E+03  0.12699999809E+01 0. -1.
       -4    1    3    3    0  502 -0.14076028862E+03  0.12998056226E+03 -0.39472467826E+03  0.43876826452E+03  0.12699999809E+01 0.  1.
</event>
<event>
 5   0  0.3714448E-03  0.8081421E+03  0.7818609E-02  0.9548306E-01
       -1   -1    0    0    0  501  0.00000000000E+00  0.00000000000E+00  0.62492017987E+03  0.62492017989E+03  0.50400001928E-02 0.  1.
        1   -1    0    0  501    0  0.00000000000E+00  0.00000000000E+00 -0.26127080010E+03  0.26127080015E+03  0.50400001928E-02 0. -1.
    10030    2    1    2    0    0  0.00000000000E+00  0.00000000000E+00  0.36364937977E+03  0.88619098005E+03  0.80814205540E+03 0.  0.
        1    1    3    3  502    0  0.31841448493E+03  0.24001358507E+03  0.11009229399E+03  0.41366002762E+03  0.50400001928E-02 0.  1.
       -1    1    3    3    0  502 -0.31841448493E+03 -0.24001358507E+03  0.25355708578E+03  0.47253095243E+03  0.50400001928E-02 0. -1.
</event>
<event>
 5   0  0.6337108E-03  0.8040356E+03  0.7818609E-02  0.9554194E-01
       -2   -1    0    0    0  501  0.00000000000E+00  0.00000000000E+00  0.34589182732E+03  0.34589182733E+03  0.25500000920E-02 0. -1.
        2   -1    0    0  501    0  0.00000000000E+00  0.00000000000E+00 -0.46725101806E+03  0.46725101807E+03  0.25500000920E-02 0.  1.
    10030    2    1    2    0    0  0.00000000000E+00  0.00000000000E+00 -0.12135919074E+03  0.81314284540E+03  0.80403559240E+03 0.  0.
        4    1    3    3  502    0  0.18400062566E+03 -0.11850629713E+03 -0.40171835390E+03  0.45747045966E+03  0.12699999809E+01 0.  1.
       -4    1    3    3    0  502 -0.18400062566E+03  0.11850629713E+03  0.28035916317E+03  0.35567238573E+03  0.12699999809E+01 0. -1.
</event>
<event>
 5   0  0.3860515E-03  0.8341593E+03  0.7818609E-02  0.9511848E-01
       -1   -1    0    0    0  501  0.00000000000E+00  0.00000000000E+00  0.46334715300E+03  0.46334715302E+03  0.50400001928E-02 0.  1.
        1   -1    0    0  501    0  0.00000000000E+00  0.00000000000E+00 -0.37543215013E+03  0.37543215016E+03  0.50400001928E-02 0. -1.
    10030    2    1    2    0    0  0.00000000000E+00  0.00000000000E+00  0.87915002867E+02  0.83877930319E+03  0.83415926041E+03 0.  0.
        4    1    3    3  502    0  0.32427823014E+03  0.51829674508E+00 -0.21978735822E+03  0.39174575289E+03  0.12699999809E+01 0. -1.
       -4    1    3    3    0  502 -0.32427823014E+03 -0.51829674508E+00  0.30770236109E+03  0.44703355030E+03  0.12699999809E+01 0.  1.
</event>
<event>
 5   0  0.3860515E-03  0.7986153E+03  0.7818609E-02  0.9562024E-01
       -1   -1    0    0    0  501  0.00000000000E+00  0.00000000000E+00  0.20615062007E+03  0.20615062013E+03  0.50400001928E-02 0. -1.
        1   -1    0    0  501    0  0.00000000000E+00  0.00000000000E+00 -0.77344711671E+03  0.77344711673E+03  0.50400001928E-02 0.  1.
    10030    2    1    2    0    0  0.00000000000E+00  0.00000000000E+00 -0.56729649664E+03  0.97959773686E+03  0.79861530848E+03 0.  0.
        4    1    3    3  502    0 -0.54039100044E+02  0.11784784789E+03 -0.74690921367E+03  0.75807870696E+03  0.12699999809E+01 0.  1.
       -4    1    3    3    0  502  0.54039100044E+02 -0.11784784789E+03  0.17961271703E+03  0.22151902989E+03  0.12699999809E+01 0. -1.
</event>
<event>
 5   0  0.3627496E-03  0.7962441E+03  0.7818609E-02  0.9565470E-01
       -1   -1    0    0    0  501  0.00000000000E+00  0.00000000000E+00  0.26627580158E+03  0.26627580163E+03  0.50400001928E-02 0.  1.
        1   -1    0    0  501    0  0.00000000000E+00  0.00000000000E+00 -0.59525189904E+03  0.59525189906E+03  0.50400001928E-02 0. -1.
    10030    2    1    2    0    0  0.00000000000E+00  0.00000000000E+00 -0.32897609746E+03  0.86152770068E+03  0.79624412484E+03 0.  0.
        3    1    3    3  502    0 -0.32445750639E+03 -0.21020599783E+02  0.84102699957E+02  0.33583896946E+03  0.10100000352E+00 0.  1.
       -3    1    3    3    0  502  0.32445750639E+03  0.21020599783E+02 -0.41307879741E+03  0.52568873123E+03  0.10100000352E+00 0. -1.
</event>
<event>
 5   0  0.3627496E-03  0.7999708E+03  0.7818609E-02  0.9560059E-01
        1   -1    0    0  501    0  0.00000000000E+00  0.00000000000E+00  0.79564504593E+03  0.79564504595E+03  0.50400001928E-02 0. -1.
       -1   -1    0    0    0  501  0.00000000000E+00  0.00000000000E+00 -0.20108001373E+03  0.20108001379E+03  0.50400001928E-02 0.  1.
    10030    2    1    2    0    0  0.00000000000E+00  0.00000000000E+00  0.59456503220E+03  0.99672505974E+03  0.79997079147E+03 0.  0.
        3    1    3    3  502    0  0.59883058073E+02 -0.37298151143E+03  0.13346416644E+03  0.40064183810E+03  0.10100000352E+00 0.  1.
       -3    1    3    3    0  502 -0.59883058073E+02  0.37298151143E+03  0.46110086576E+03  0.59608322164E+03  0.10100000352E+00 0. -1.
</event>
<event>
 5   0  0.2478000E-03  0.7997681E+03  0.7818609E-02  0.9560353E-01
       -3   -1    0    0    0  501  0.00000000000E+00  0.00000000000E+00  0.12523508914E+04  0.12523508955E+04  0.10100000352E+00 0.  1.
        3   -1    0    0  501    0  0.00000000000E+00  0.00000000000E+00 -0.12768563693E+03  0.12768567688E+03  0.10100000352E+00 0. -1.
    10030    2    1    2    0    0  0.00000000000E+00  0.00000000000E+00  0.11246652545E+04  0.13800365723E+04  0.79976809540E+03 0.  0.
        3    1    3    3  502    0 -0.27079770078E+03  0.22441641756E+03  0.23396564503E+03  0.42241455524E+03  0.10100000352E+00 0. -1.
       -3    1    3    3    0  502  0.27079770078E+03 -0.22441641756E+03  0.89069960943E+03  0.95762201711E+03  0.10100000352E+00 0.  1.
</event>
<event>
 5   0  0.6337108E-03  0.8010079E+03  0.7818609E-02  0.9558559E-01
        2   -1    0    0  501    0  0.00000000000E+00  0.00000000000E+00  0.46967224943E+03  0.46967224944E+03  0.25500000920E-02 0. -1.
       -2   -1    0    0    0  501  0.00000000000E+00  0.00000000000E+00 -0.34152200406E+03  0.34152200407E+03  0.25500000920E-02 0.  1.
    10030    2    1    2    0    0  0.00000000000E+00  0.00000000000E+00  0.12815024537E+03  0.81119425351E+03  0.80100788482E+03 0.  0.
        4    1    3    3  502    0  0.23807611048E+03  0.31119672015E+03  0.14806448302E+03  0.41886553576E+03  0.12699999809E+01 0. -1.
       -4    1    3    3    0  502 -0.23807611048E+03 -0.31119672015E+03 -0.19914237650E+02  0.39232871775E+03  0.12699999809E+01 0.  1.
</event>
<event>
 5   0  0.3671128E-03  0.8007536E+03  0.7818609E-02  0.9558927E-01
       -1   -1    0    0    0  501  0.00000000000E+00  0.00000000000E+00  0.34318800482E+03  0.34318800486E+03  0.50400001928E-02 0.  1.
        1   -1    0    0  501    0  0.00000000000E+00  0.00000000000E+00 -0.46709550645E+03  0.46709550648E+03  0.50400001928E-02 0. -1.
    10030    2    1    2    0    0  0.00000000000E+00  0.00000000000E+00 -0.12390750163E+03  0.81028351134E+03  0.80075358244E+03 0.  0.
        2    1    3    3  502    0  0.33211760483E+03  0.74729654692E+02 -0.27521045887E+03  0.43775269435E+03  0.25500000920E-02 0. -1.
       -2    1    3    3    0  502 -0.33211760483E+03 -0.74729654692E+02  0.15130295724E+03  0.37253081699E+03  0.25500000920E-02 0.  1.
</event>
<event>
 5   0  0.3860515E-03  0.8046307E+03  0.7818609E-02  0.9553338E-01
        1   -1    0    0  501    0  0.00000000000E+00  0.00000000000E+00  0.56014630621E+03  0.56014630623E+03  0.50400001928E-02 0. -1.
       -1   -1    0    0    0  501  0.00000000000E+00  0.00000000000E+00 -0.28895600575E+03  0.28895600579E+03  0.50400001928E-02 0.  1.
    10030    2    1    2    0    0  0.00000000000E+00  0.00000000000E+00  0.27119030046E+03  0.84910231202E+03  0.80463069616E+03 0.  0.
        4    1    3    3  502    0 -0.31328256787E+03 -0.25188390665E+03  0.11843098207E+03  0.41906918304E+03  0.12699999809E+01 0. -1.
       -4    1    3    3    0  502  0.31328256787E+03  0.25188390665E+03  0.15275931839E+03  0.43003312898E+03  0.12699999809E+01 0.  1.
</event>
<event>
 5   0  0.6337108E-03  0.8004406E+03  0.7818609E-02  0.9559380E-01
        2   -1    0    0  501    0  0.00000000000E+00  0.00000000000E+00  0.40414924197E+03  0.40414924198E+03  0.25500000920E-02 0.  1.
       -2   -1    0    0    0  501  0.00000000000E+00  0.00000000000E+00 -0.39632958305E+03  0.39632958306E+03  0.25500000920E-02 0. -1.
    10030    2    1    2    0    0  0.00000000000E+00  0.00000000000E+00  0.78196589233E+01  0.80047882504E+03  0.80044063007E+03 0.  0.
        4    1    3    3  502    0  0.28940466007E+03  0.61108683289E+02 -0.26570525933E+03  0.39760561639E+03  0.12699999809E+01 0. -1.
       -4    1    3    3    0  502 -0.28940466007E+03 -0.61108683289E+02  0.27352491825E+03  0.40287320865E+03  0.12699999809E+01 0.  1.
</event>
<event>
 5   0  0.5813850E-03  0.8010447E+03  0.7818609E-02  0.9558506E-01
       -2   -1    0    0    0  501  0.00000000000E+00  0.00000000000E+00  0.73318422947E+02  0.73318422991E+02  0.25500000920E-02 0.  1.
        2   -1    0    0  501    0  0.00000000000E+00  0.00000000000E+00 -0.21879653231E+04  0.21879653231E+04  0.25500000920E-02 0. -1.
    10030    2    1    2    0    0  0.00000000000E+00  0.00000000000E+00 -0.21146469002E+04  0.22612837461E+04  0.80104473534E+03 0.  0.
        5    1    3    3  502    0 -0.32032342531E+03  0.77293774932E+02 -0.16998995759E+04  0.17315490413E+04  0.46999998093E+01 0. -1.
       -5    1    3    3    0  502  0.32032342531E+03 -0.77293774932E+02 -0.41474732429E+03  0.52973470478E+03  0.46999998093E+01 0.  1.
</event>
<event>
 5   0  0.3860515E-03  0.7997664E+03  0.7818609E-02  0.9560355E-01
        1   -1    0    0  501    0  0.00000000000E+00  0.00000000000E+00  0.59859126691E+03  0.59859126693E+03  0.50400001928E-02 0.  1.
       -1   -1    0    0    0  501  0.00000000000E+00  0.00000000000E+00 -0.26713819744E+03  0.26713819749E+03  0.50400001928E-02 0. -1.
    10030    2    1    2    0    0  0.00000000000E+00  0.00000000000E+00  0.33145306947E+03  0.86572946443E+03  0.79976644611E+03 0.  0.
        4    1    3    3  502    0 -0.30666565718E+02 -0.26779268232E+03  0.48547301263E+03  0.55528282690E+03  0.12699999809E+01 0.  1.
       -4    1    3    3    0  502  0.30666565718E+02  0.26779268232E+03 -0.15401994317E+03  0.31044663752E+03  0.12699999809E+01 0. -1.
</event>
<event>
 5   0  0.6337108E-03  0.7983174E+03  0.7818609E-02  0.9562456E-01
       -2   -1    0    0    0  501  0.00000000000E+00  0.00000000000E+00  0.39129228369E+03  0.39129228370E+03  0.25500000920E-02 0.  1.
        2   -1    0    0  501    0  0.00000000000E+00  0.00000000000E+00 -0.40718326473E+03  0.40718326474E+03  0.25500000920E-02 0. -1.
    10030    2    1    2    0    0  0.00000000000E+00  0.00000000000E+00 -0.15890981044E+02  0.79847554844E+03  0.79831740440E+03 0.  0.
        4    1    3    3  502    0 -0.59503733388E+02 -0.65881498518E+02 -0.39718191990E+03  0.40698422147E+03  0.12699999809E+01 0. -1.
       -4    1    3    3    0  502  0.59503733388E+02  0.65881498518E+02  0.38129093886E+03  0.39149132696E+03  0.12699999809E+01 0.  1.
</event>
<event>
 5   0  0.6536209E-03  0.8002894E+03  0.7818609E-02  0.9559598E-01
        2   -1    0    0  501    0  0.00000000000E+00  0.00000000000E+00  0.41782787156E+03  0.41782787157E+03  0.25500000920E-02 0. -1.
       -2   -1    0    0    0  501  0.00000000000E+00  0.00000000000E+00 -0.38320992931E+03  0.38320992932E+03  0.25500000920E-02 0.  1.
    10030    2    1    2    0    0  0.00000000000E+00  0.00000000000E+00  0.34617942251E+02  0.80103780089E+03  0.80028942048E+03 0.  0.
        3    1    3    3  502    0  0.26759621418E+03 -0.21380097228E+03 -0.18975930084E+03  0.39157016235E+03  0.10100000352E+00 0.  1.
       -3    1    3    3    0  502 -0.26759621418E+03  0.21380097228E+03  0.22437724309E+03  0.40946763853E+03  0.10100000352E+00 0. -1.
</event>
<event>
 5   0  0.3753450E-03  0.8038120E+03  0.7818609E-02  0.9554516E-01
        1   -1    0    0  501    0  0.00000000000E+00  0.00000000000E+00  0.63344541345E+03  0.63344541347E+03  0.50400001928E-02 0.  1.
       -1   -1    0    0    0  501  0.00000000000E+00  0.00000000000E+00 -0.25499976817E+03  0.25499976822E+03  0.50400001928E-02 0. -1.
    10030    2    1    2    0    0  0.00000000000E+00  0.00000000000E+00  0.37844564528E+03  0.88844518169E+03  0.80381200192E+03 0.  0.
        5    1    3    3  502    0 -0.39173621963E+03  0.36249538960E+02  0.27993101705E+03  0.48286101432E+03  0.46999998093E+01 0.  1.
       -5    1    3    3    0  502  0.39173621963E+03 -0.36249538960E+02  0.98514628232E+02  0.40558416737E+03  0.46999998093E+01 0. -1.
</event>
<event>
 5   0  0.6153659E-03  0.7997871E+03  0.7818609E-02  0.9560325E-01
        2   -1    0    0  501    0  0.00000000000E+00  0.00000000000E+00  0.47255403885E+03  0.47255403886E+03  0.25500000920E-02 0.  1.
       -2   -1    0    0    0  501  0.00000000000E+00  0.00000000000E+00 -0.33840544252E+03  0.33840544253E+03  0.25500000920E-02 0. -1.
    10030    2    1    2    0    0  0.00000000000E+00  0.00000000000E+00  0.13414859633E+03  0.81095948139E+03  0.79978711827E+03 0.  0.
        2    1    3    3  502    0  0.26210806980E+03  0.14761071350E+03 -0.20009319763E+03  0.36128499932E+03  0.25500000920E-02 0. -1.
       -2    1    3    3    0  502 -0.26210806980E+03 -0.14761071350E+03  0.33424179395E+03  0.44967448207E+03  0.25500000920E-02 0.  1.
</event>
<event>
 5   0  0.3753450E-03  0.7965259E+03  0.7818609E-02  0.9565059E-01
        1   -1    0    0  501    0  0.00000000000E+00  0.00000000000E+00  0.95057816756E+03  0.95057816758E+03  0.50400001928E-02 0. -1.
       -1   -1    0    0    0  501  0.00000000000E+00  0.00000000000E+00 -0.16685990499E+03  0.16685990506E+03  0.50400001928E-02 0.  1.
    10030    2    1    2    0    0  0.00000000000E+00  0.00000000000E+00  0.78371826258E+03  0.11174380726E+04  0.79652591364E+03 0.  0.
        5    1    3    3  502    0 -0.53889528466E+02 -0.22685080682E+03  0.84476863060E+03  0.87636835810E+03  0.46999998093E+01 0. -1.
       -5    1    3    3    0  502  0.53889528466E+02  0.22685080682E+03 -0.61050368027E+02  0.24106971454E+03  0.46999998093E+01 0.  1.
</event>
<event>
 5   0  0.6153659E-03  0.7978863E+03  0.7818609E-02  0.9563082E-01
       -2   -1    0    0    0  501  0.00000000000E+00  0.00000000000E+00  0.24416366528E+03  0.24416366529E+03  0.25500000920E-02 0.  1.
        2   -1    0    0  501    0  0.00000000000E+00  0.00000000000E+00 -0.65183996148E+03  0.65183996148E+03  0.25500000920E-02 0. -1.
    10030    2    1    2    0    0  0.00000000000E+00  0.00000000000E+00 -0.40767629620E+03  0.89600362677E+03  0.79788629309E+03 0.  0.
        2    1    3    3  502    0  0.50536887557E+02  0.17523852506E+03 -0.60228440887E+03  0.62929248116E+03  0.25500000920E-02 0. -1.
       -2    1    3    3    0  502 -0.50536887557E+02 -0.17523852506E+03  0.19460811267E+03  0.26671114561E+03  0.25500000920E-02 0.  1.
</event>
<event>
 5   0  0.3627496E-03  0.8048693E+03  0.7818609E-02  0.9552996E-01
        1   -1    0    0  501    0  0.00000000000E+00  0.00000000000E+00  0.21327117259E+04  0.21327117259E+04  0.50400001928E-02 0. -1.
       -1   -1    0    0    0  501  0.00000000000E+00  0.00000000000E+00 -0.75937897423E+02  0.75937897590E+02  0.50400001928E-02 0.  1.
    10030    2    1    2    0    0  0.00000000000E+00  0.00000000000E+00  0.20567738284E+04  0.22086496235E+04  0.80486929240E+03 0.  0.
        3    1    3    3  502    0 -0.33098472926E+03 -0.10975475007E+03  0.47712377071E+03  0.59096878001E+03  0.10100000352E+00 0.  1.
       -3    1    3    3    0  502  0.33098472926E+03  0.10975475007E+03  0.15796500577E+04  0.16176808435E+04  0.10100000352E+00 0. -1.
</event>
<event>
 5   0  0.6536209E-03  0.8092804E+03  0.7818609E-02  0.9546680E-01
       -2   -1    0    0    0  501  0.00000000000E+00  0.00000000000E+00  0.52898601669E+03  0.52898601669E+03  0.25500000920E-02 0.  1.
        2   -1    0    0  501    0  0.00000000000E+00  0.00000000000E+00 -0.30952366269E+03  0.30952366270E+03  0.25500000920E-02 0. -1.
    10030    2    1    2    0    0  0.00000000000E+00  0.00000000000E+00  0.21946235400E+03  0.83850967939E+03  0.80928039492E+03 0.  0.
        3    1    3    3  502    0 -0.19651841827E+03  0.31423043865E+03  0.27799560050E+03  0.46329452985E+03  0.10100000352E+00 0. -1.
       -3    1    3    3    0  502  0.19651841827E+03 -0.31423043865E+03 -0.58533246503E+02  0.37521514953E+03  0.10100000352E+00 0.  1.
</event>
<event>
 5   0  0.3671128E-03  0.8024644E+03  0.7818609E-02  0.9556457E-01
        1   -1    0    0  501    0  0.00000000000E+00  0.00000000000E+00  0.79322185411E+03  0.79322185412E+03  0.50400001928E-02 0. -1.
       -1   -1    0    0    0  501  0.00000000000E+00  0.00000000000E+00 -0.20295365848E+03  0.20295365855E+03  0.50400001928E-02 0.  1.
    10030    2    1    2    0    0  0.00000000000E+00  0.00000000000E+00  0.59026819563E+03  0.99617551267E+03  0.80246439751E+03 0.  0.
        2    1    3    3  502    0  0.36182898502E+03  0.17245435155E+03  0.31756730054E+03  0.51138019921E+03  0.25500000920E-02 0. -1.
       -2    1    3    3    0  502 -0.36182898502E+03 -0.17245435155E+03  0.27270089509E+03  0.48479531346E+03  0.25500000920E-02 0.  1.
</event>
<event>
 5   0  0.3714448E-03  0.7957110E+03  0.7818609E-02  0.9566246E-01
       -1   -1    0    0    0  501  0.00000000000E+00  0.00000000000E+00  0.24666505049E+03  0.24666505054E+03  0.50400001928E-02 0.  1.
        1   -1    0    0  501    0  0.00000000000E+00  0.00000000000E+00 -0.64171644019E+03  0.64171644021E+03  0.50400001928E-02 0. -1.
    10030    2    1    2    0    0  0.00000000000E+00  0.00000000000E+00 -0.39505138970E+03  0.88838149075E+03  0.79571104844E+03 0.  0.
        1    1    3    3  502    0 -0.15268375437E+03 -0.12970252849E+03 -0.58129322193E+03  0.61484704166E+03  0.50400001928E-02 0. -1.
       -1    1    3    3    0  502  0.15268375437E+03  0.12970252849E+03  0.18624183223E+03  0.27353444910E+03  0.50400001928E-02 0.  1.
</event>
<event>
 5   0  0.6153659E-03  0.7987971E+03  0.7818609E-02  0.9561760E-01
       -2   -1    0    0    0  501  0.00000000000E+00  0.00000000000E+00  0.15167387014E+03  0.15167387016E+03  0.25500000920E-02 0.  1.
        2   -1    0    0  501    0  0.00000000000E+00  0.00000000000E+00 -0.10517250385E+04  0.10517250385E+04  0.25500000920E-02 0. -1.
    10030    2    1    2    0    0  0.00000000000E+00  0.00000000000E+00 -0.90005116838E+03  0.12033989087E+04  0.79879711300E+03 0.  0.
        2    1    3    3  502    0 -0.15876018515E+03  0.15236396173E+03 -0.95217092830E+03  0.97726611009E+03  0.25500000920E-02 0. -1.
       -2    1    3    3    0  502  0.15876018515E+03 -0.15236396173E+03  0.52119759921E+02  0.22613279860E+03  0.25500000920E-02 0.  1.
</event>
<event>
 5   0  0.3627496E-03  0.7997215E+03  0.7818609E-02  0.9560420E-01
        1   -1    0    0  501    0  0.00000000000E+00  0.00000000000E+00  0.33188822432E+03  0.33188822436E+03  0.50400001928E-02 0. -1.
       -1   -1    0    0    0  501  0.00000000000E+00  0.00000000000E+00 -0.48175440080E+03  0.48175440083E+03  0.50400001928E-02 0.  1.
    10030    2    1    2    0    0  0.00000000000E+00  0.00000000000E+00 -0.14986617648E+03  0.81364262519E+03  0.79972148319E+03 0.  0.
        3    1    3    3  502    0 -0.84741373713E+02 -0.57075108324E+02 -0.46825015664E+03  0.47926703183E+03  0.10100000352E+00 0.  1.
       -3    1    3    3    0  502  0.84741373713E+02  0.57075108324E+02  0.31838398016E+03  0.33437559336E+03  0.10100000352E+00 0. -1.
</event>
<event>
 5   0  0.6337108E-03  0.8018564E+03  0.7818609E-02  0.9557334E-01
        2   -1    0    0  501    0  0.00000000000E+00  0.00000000000E+00  0.95308825648E+03  0.95308825648E+03  0.25500000920E-02 0.  1.
       -2   -1    0    0    0  501  0.00000000000E+00  0.00000000000E+00 -0.16865533638E+03  0.16865533640E+03  0.25500000920E-02 0. -1.
    10030    2    1    2    0    0  0.00000000000E+00  0.00000000000E+00  0.78443292010E+03  0.11217435929E+04  0.80185639738E+03 0.  0.
        4    1    3    3  502    0 -0.22568333853E+03 -0.47786804088E+02  0.85094129090E+03  0.88165709967E+03  0.12699999809E+01 0.  1.
       -4    1    3    3    0  502  0.22568333853E+03  0.47786804088E+02 -0.66508370803E+02  0.24008649321E+03  0.12699999809E+01 0. -1.
</event>
<event>
 5   0  0.6536209E-03  0.8006061E+03  0.7818609E-02  0.9559140E-01
        2   -1    0    0  501    0  0.00000000000E+00  0.00000000000E+00  0.72071151484E+03  0.72071151485E+03  0.25500000920E-02 0. -1.
       -2   -1    0    0    0  501  0.00000000000E+00  0.00000000000E+00 -0.22233934483E+03  0.22233934484E+03  0.25500000920E-02 0.  1.
    10030    2    1    2    0    0  0.00000000000E+00  0.00000000000E+00  0.49837217001E+03  0.94305085969E+03  0.80060608548E+03 0.  0.
        3    1    3    3  502    0 -0.33233761988E+03 -0.60763614327E+02  0.50210198747E+03  0.60518338248E+03  0.10100000352E+00 0. -1.
       -3    1    3    3    0  502  0.33233761988E+03  0.60763614327E+02 -0.37298174560E+01  0.33786747720E+03  0.10100000352E+00 0.  1.
</event>
<event>
 5   0  0.5813850E-03  0.8013306E+03  0.7818609E-02  0.9558093E-01
       -2   -1    0    0    0  501  0.00000000000E+00  0.00000000000E+00  0.85293967111E+03  0.85293967111E+03  0.25500000920E-02 0.  1.
        2   -1    0    0  501    0  0.00000000000E+00  0.00000000000E+00 -0.18821104314E+03  0.18821104316E+03  0.25500000920E-02 0. -1.
    10030    2    1    2    0    0  0.00000000000E+00  0.00000000000E+00  0.66472862796E+03  0.10411507143E+04  0.80133055664E+03 0.  0.
        5    1    3    3  502    0  0.89262272031E+01  0.21197733378E+03  0.77392085634E+03  0.80248965690E+03  0.46999998093E+01 0.  1.
       -5    1    3    3    0  502 -0.89262272031E+01 -0.21197733378E+03 -0.10919222838E+03  0.23866105737E+03  0.46999998093E+01 0. -1.
</event>
<event>
 5   0  0.3860515E-03  0.8026301E+03  0.7818609E-02  0.9556218E-01
        1   -1    0    0  501    0  0.00000000000E+00  0.00000000000E+00  0.92343494482E+03  0.92343494483E+03  0.50400001928E-02 0. -1.
       -1   -1    0    0    0  501  0.00000000000E+00  0.00000000000E+00 -0.17440725997E+03  0.17440726005E+03  0.50400001928E-02 0.  1.
    10030    2    1    2    0    0  0.00000000000E+00  0.00000000000E+00  0.74902768485E+03  0.10978422049E+04  0.80263007304E+03 0.  0.
        4    1    3    3  502    0  0.39514420674E+02 -0.28555459854E+03 -0.73694699303E+01  0.28837257182E+03  0.12699999809E+01 0.  1.
       -4    1    3    3    0  502 -0.39514420674E+02  0.28555459854E+03  0.75639715478E+03  0.80946963306E+03  0.12699999809E+01 0. -1.
</event>
<event>
 5   0  0.3714448E-03  0.8045358E+03  0.7818609E-02  0.9553475E-01
       -1   -1    0    0    0  501  0.00000000000E+00  0.00000000000E+00  0.94537697686E+02  0.94537697820E+02  0.50400001928E-02 0. -1.
        1   -1    0    0  501    0  0.00000000000E+00  0.00000000000E+00 -0.17116923153E+04  0.17116923153E+04  0.50400001928E-02 0.  1.
    10030    2    1    2    0    0  0.00000000000E+00  0.00000000000E+00 -0.16171546176E+04  0.18062300131E+04  0.80453576866E+03 0.  0.
        1    1    3    3  502    0 -0.33401199155E+03 -0.76632593876E+02 -0.33560527114E+03  0.47965348220E+03  0.50400001928E-02 0. -1.
       -1    1    3    3    0  502  0.33401199155E+03  0.76632593876E+02 -0.12815493465E+04  0.13265765309E+04  0.50400001928E-02 0.  1.
</event>
<event>
 5   0  0.3753450E-03  0.7990894E+03  0.7818609E-02  0.9561336E-01
       -1   -1    0    0    0  501  0.00000000000E+00  0.00000000000E+00  0.39308811886E+03  0.39308811889E+03  0.50400001928E-02 0.  1.
        1   -1    0    0  501    0  0.00000000000E+00  0.00000000000E+00 -0.40610734308E+03  0.40610734311E+03  0.50400001928E-02 0. -1.
    10030    2    1    2    0    0  0.00000000000E+00  0.00000000000E+00 -0.13019224220E+02  0.79919546201E+03  0.79908941070E+03 0.  0.
        5    1    3    3  502    0 -0.23307385178E+03 -0.32399863320E+03 -0.24269977746E+02  0.39988705470E+03  0.46999998093E+01 0. -1.
       -5    1    3    3    0  502  0.23307385178E+03  0.32399863320E+03  0.11250753526E+02  0.39930840731E+03  0.46999998093E+01 0.  1.
</event>
<event>
 5   0  0.6337108E-03  0.7994791E+03  0.7818609E-02  0.9560771E-01
        2   -1    0    0  501    0  0.00000000000E+00  0.00000000000E+00  0.70988455440E+03  0.70988455440E+03  0.25500000920E-02 0.  1.
       -2   -1    0    0    0  501  0.00000000000E+00  0.00000000000E+00 -0.22509535868E+03  0.22509535870E+03  0.25500000920E-02 0. -1.
    10030    2    1    2    0    0  0.00000000000E+00  0.00000000000E+00  0.48478919571E+03  0.93497991310E+03  0.79947912644E+03 0.  0.
        4    1    3    3  502    0 -0.13133724987E+03 -0.12355743048E+03  0.65961479945E+03  0.68381957297E+03  0.12699999809E+01 0.  1.
       -4    1    3    3    0  502  0.13133724987E+03  0.12355743048E+03 -0.17482560373E+03  0.25116034013E+03  0.12699999809E+01 0. -1.
</event>
<event>
 5   0  0.6256781E-03  0.8008229E+03  0.7818609E-02  0.9558827E-01
        2   -1    0    0  501    0  0.00000000000E+00  0.00000000000E+00  0.63627995161E+03  0.63627995161E+03  0.25500000920E-02 0.  1.
       -2   -1    0    0    0  501  0.00000000000E+00  0.00000000000E+00 -0.25197921949E+03  0.25197921950E+03  0.25500000920E-02 0. -1.
    10030    2    1    2    0    0  0.00000000000E+00  0.00000000000E+00  0.38430073212E+03  0.88825917111E+03  0.80082289075E+03 0.  0.
        1    1    3    3  502    0 -0.10434528545E+03  0.38635863428E+03  0.20654381380E+03  0.45035683621E+03  0.50400001928E-02 0.  1.
       -1    1    3    3    0  502  0.10434528545E+03 -0.38635863428E+03  0.17775691832E+03  0.43790233490E+03  0.50400001928E-02 0. -1.
</event>
<event>
 5   0  0.5813850E-03  0.8011236E+03  0.7818609E-02  0.9558392E-01
       -2   -1    0    0    0  501  0.00000000000E+00  0.00000000000E+00  0.79413681947E+02  0.79413681988E+02  0.25500000920E-02 0. -1.
        2   -1    0    0  501    0  0.00000000000E+00  0.00000000000E+00 -0.20204297392E+04  0.20204297392E+04  0.25500000920E-02 0.  1.
    10030    2    1    2    0    0  0.00000000000E+00  0.00000000000E+00 -0.19410160572E+04  0.20998434212E+04  0.80112362279E+03 0.  0.
        5    1    3    3  502    0 -0.33987814541E+03 -0.13405963279E+03 -0.54030410410E+03  0.65225742907E+03  0.46999998093E+01 0.  1.
       -5    1    3    3    0  502  0.33987814541E+03  0.13405963279E+03 -0.14007119531E+04  0.14475859921E+04  0.46999998093E+01 0. -1.
</event>
<event>
 5   0  0.6337108E-03  0.8028560E+03  0.7818609E-02  0.9555892E-01
        2   -1    0    0  501    0  0.00000000000E+00  0.00000000000E+00  0.48731637282E+03  0.48731637282E+03  0.25500000920E-02 0.  1.
       -2   -1    0    0    0  501  0.00000000000E+00  0.00000000000E+00 -0.33067723031E+03  0.33067723032E+03  0.25500000920E-02 0. -1.
    10030    2    1    2    0    0  0.00000000000E+00  0.00000000000E+00  0.15663914250E+03  0.81799360315E+03  0.80285597328E+03 0.  0.
        4    1    3    3  502    0  0.37640841352E+03  0.34876952225E+02  0.21593331881E+03  0.43534871842E+03  0.12699999809E+01 0.  1.
       -4    1    3    3    0  502 -0.37640841352E+03 -0.34876952225E+02 -0.59294176304E+02  0.38264488473E+03  0.12699999809E+01 0. -1.
</event>
<event>
 5   0  0.6153659E-03  0.7984087E+03  0.7818609E-02  0.9562323E-01
       -2   -1    0    0    0  501  0.00000000000E+00  0.00000000000E+00  0.71971127455E+02  0.71971127500E+02  0.25500000920E-02 0.  1.
        2   -1    0    0  501    0  0.00000000000E+00  0.00000000000E+00 -0.22142785710E+04  0.22142785710E+04  0.25500000920E-02 0. -1.
    10030    2    1    2    0    0  0.00000000000E+00  0.00000000000E+00 -0.21423074435E+04  0.22862496985E+04  0.79840873067E+03 0.  0.
        2    1    3    3  502    0  0.15607604672E+03 -0.36282276035E+03 -0.12372381052E+04  0.12987525618E+04  0.25500000920E-02 0. -1.
       -2    1    3    3    0  502 -0.15607604672E+03  0.36282276035E+03 -0.90506933833E+03  0.98749713670E+03  0.25500000920E-02 0.  1.
</event>
<event>
 5   0  0.5813850E-03  0.7884761E+03  0.7818609E-02  0.9576849E-01
        2   -1    0    0  501    0  0.00000000000E+00  0.00000000000E+00  0.11039235338E+04  0.11039235338E+04  0.25500000920E-02 0. -1.
       -2   -1    0    0    0  501  0.00000000000E+00  0.00000000000E+00 -0.14079202036E+03  0.14079202038E+03  0.25500000920E-02 0.  1.
    10030    2    1    2    0    0  0.00000000000E+00  0.00000000000E+00  0.96313151344E+03  0.12447155542E+04  0.78847606092E+03 0.  0.
        5    1    3    3  502    0  0.11887452466E+03 -0.25594895168E+02 -0.11040174843E+03  0.16430729542E+03  0.46999998093E+01 0.  1.
       -5    1    3    3    0  502 -0.11887452466E+03  0.25594895168E+02  0.10735332619E+04  0.10804082588E+04  0.46999998093E+01 0. -1.
</event>
<event>
 5   0  0.5813850E-03  0.7984214E+03  0.7818609E-02  0.9562305E-01
       -2   -1    0    0    0  501  0.00000000000E+00  0.00000000000E+00  0.13011482419E+03  0.13011482421E+03  0.25500000920E-02 0. -1.
        2   -1    0    0  501    0  0.00000000000E+00  0.00000000000E+00 -0.12248350004E+04  0.12248350004E+04  0.25500000920E-02 0.  1.
    10030    2    1    2    0    0  0.00000000000E+00  0.00000000000E+00 -0.10947201762E+04  0.13549498246E+04  0.79842141944E+03 0.  0.
        5    1    3    3  502    0  0.32834050348E+03  0.13652000974E+03 -0.23953675779E+03  0.42877167305E+03  0.46999998093E+01 0. -1.
       -5    1    3    3    0  502 -0.32834050348E+03 -0.13652000974E+03 -0.85518341845E+03  0.92617815158E+03  0.46999998093E+01 0.  1.
</event>
<event>
 5   0  0.2478000E-03  0.8010593E+03  0.7818609E-02  0.9558485E-01
        4   -1    0    0  501    0  0.00000000000E+00  0.00000000000E+00  0.22649301588E+03  0.22649657645E+03  0.12699999809E+01 0.  1.
       -4   -1    0    0    0  501  0.00000000000E+00  0.00000000000E+00 -0.70828583820E+03  0.70828697679E+03  0.12699999809E+01 0. -1.
    10030    2    1    2    0    0  0.00000000000E+00  0.00000000000E+00 -0.48179282232E+03  0.93478355323E+03  0.80105927856E+03 0.  0.
        5    1    3    3  502    0 -0.36149885111E+03  0.14076625717E+03 -0.12475658372E+03  0.40753264126E+03  0.46999998093E+01 0.  1.
       -5    1    3    3    0  502  0.36149885111E+03 -0.14076625717E+03 -0.35703623860E+03  0.52725091198E+03  0.46999998093E+01 0. -1.
</event>
<event>
 5   0  0.3671128E-03  0.8072454E+03  0.7818609E-02  0.9549588E-01
        1   -1    0    0  501    0  0.00000000000E+00  0.00000000000E+00  0.43092998664E+03  0.43092998667E+03  0.50400001928E-02 0.  1.
       -1   -1    0    0    0  501  0.00000000000E+00  0.00000000000E+00 -0.37804585570E+03  0.37804585573E+03  0.50400001928E-02 0. -1.
    10030    2    1    2    0    0  0.00000000000E+00  0.00000000000E+00  0.52884130939E+02  0.80897584240E+03  0.80724542878E+03 0.  0.
        2    1    3    3  502    0 -0.13102236988E+03  0.29088621212E+02 -0.35502898304E+03  0.37955050797E+03  0.25500000920E-02 0. -1.
       -2    1    3    3    0  502  0.13102236988E+03 -0.29088621212E+02  0.40791311398E+03  0.42942533444E+03  0.25500000920E-02 0.  1.
</event>
<event>
 5   0  0.2478000E-03  0.7872624E+03  0.7818609E-02  0.9578639E-01
       -4   -1    0    0    0  501  0.00000000000E+00  0.00000000000E+00  0.30952648948E+03  0.30952909490E+03  0.12699999809E+01 0.  1.
        4   -1    0    0  501    0  0.00000000000E+00  0.00000000000E+00 -0.50058341200E+03  0.50058502301E+03  0.12699999809E+01 0. -1.
    10030    2    1    2    0    0  0.00000000000E+00  0.00000000000E+00 -0.19105692251E+03  0.81011411792E+03  0.78726243173E+03 0.  0.
        2    1    3    3  502    0 -0.12632477388E+03 -0.31460676846E+03 -0.30135996864E+03  0.45360026230E+03  0.25500000920E-02 0. -1.
       -2    1    3    3    0  502  0.12632477388E+03  0.31460676846E+03  0.11030304612E+03  0.35651385562E+03  0.25500000920E-02 0.  1.
</event>
<event>
 5   0  0.3627496E-03  0.7994744E+03  0.7818609E-02  0.9560778E-01
        1   -1    0    0  501    0  0.00000000000E+00  0.00000000000E+00  0.12384809157E+04  0.12384809157E+04  0.50400001928E-02 0.  1.
       -1   -1    0    0    0  501  0.00000000000E+00  0.00000000000E+00 -0.12902081741E+03  0.12902081751E+03  0.50400001928E-02 0. -1.
    10030    2    1    2    0    0  0.00000000000E+00  0.00000000000E+00  0.11094600983E+04  0.13675017332E+04  0.79947437774E+03 0.  0.
        3    1    3    3  502    0  0.37321734757E+03 -0.85965581830E+02  0.35889045494E+03  0.52486535286E+03  0.10100000352E+00 0. -1.
       -3    1    3    3    0  502 -0.37321734757E+03  0.85965581830E+02  0.75056964337E+03  0.84263638038E+03  0.10100000352E+00 0.  1.
</event>
<event>
 5   0  0.6536209E-03  0.8037205E+03  0.7818609E-02  0.9554647E-01
        2   -1    0    0  501    0  0.00000000000E+00  0.00000000000E+00  0.12533099115E+04  0.12533099115E+04  0.25500000920E-02 0.  1.
       -2   -1    0    0    0  501  0.00000000000E+00  0.00000000000E+00 -0.12885212655E+03  0.12885212657E+03  0.25500000920E-02 0. -1.
    10030    2    1    2    0    0  0.00000000000E+00  0.00000000000E+00  0.11244577849E+04  0.13821620380E+04  0.80372046716E+03 0.  0.
        3    1    3    3  502    0 -0.34696449097E+03 -0.14678634936E+02  0.21447489101E+03  0.40816578665E+03  0.10100000352E+00 0. -1.
       -3    1    3    3    0  502  0.34696449097E+03  0.14678634936E+02  0.90998289391E+03  0.97399625139E+03  0.10100000352E+00 0.  1.
</event>
<event>
 5   0  0.3714448E-03  0.7889840E+03  0.7818609E-02  0.9576101E-01
       -1   -1    0    0    0  501  0.00000000000E+00  0.00000000000E+00  0.11262507298E+04  0.11262507298E+04  0.50400001928E-02 0. -1.
        1   -1    0    0  501    0  0.00000000000E+00  0.00000000000E+00 -0.13817878453E+03  0.13817878463E+03  0.50400001928E-02 0.  1.
    10030    2    1    2    0    0  0.00000000000E+00  0.00000000000E+00  0.98807194524E+03  0.12644295144E+04  0.78898404797E+03 0.  0.
        1    1    3    3  502    0 -0.35869520467E+03 -0.15504041308E+03  0.58069788368E+03  0.69993557680E+03  0.50400001928E-02 0.  1.
       -1    1    3    3    0  502  0.35869520467E+03  0.15504041308E+03  0.40737406156E+03  0.56449393760E+03  0.50400001928E-02 0. -1.
</event>
<event>
 5   0  0.3671128E-03  0.7978671E+03  0.7818609E-02  0.9563109E-01
       -1   -1    0    0    0  501  0.00000000000E+00  0.00000000000E+00  0.14853231467E+03  0.14853231475E+03  0.50400001928E-02 0.  1.
        1   -1    0    0  501    0  0.00000000000E+00  0.00000000000E+00 -0.10714704739E+04  0.10714704739E+04  0.50400001928E-02 0. -1.
    10030    2    1    2    0    0  0.00000000000E+00  0.00000000000E+00 -0.92293815927E+03  0.12200027887E+04  0.79786713092E+03 0.  0.
        2    1    3    3  502    0  0.29383581570E+03 -0.88142374517E+02 -0.71510396324E+02  0.31499571674E+03  0.25500000920E-02 0.  1.
       -2    1    3    3    0  502 -0.29383581570E+03  0.88142374517E+02 -0.85142776295E+03  0.90500707196E+03  0.25500000920E-02 0. -1.
</event>
<event>
 5   0  0.3753450E-03  0.7972908E+03  0.7818609E-02  0.9563947E-01
       -1   -1    0    0    0  501  0.00000000000E+00  0.00000000000E+00  0.78429838581E+03  0.78429838583E+03  0.50400001928E-02 0. -1.
        1   -1    0    0  501    0  0.00000000000E+00  0.00000000000E+00 -0.20262461388E+03  0.20262461394E+03  0.50400001928E-02 0.  1.
    10030    2    1    2    0    0  0.00000000000E+00  0.00000000000E+00  0.58167377193E+03  0.98692299977E+03  0.79729080675E+03 0.  0.
        5    1    3    3  502    0  0.40040422076E+02 -0.32486065829E+03  0.92211802680E+01  0.32748252300E+03  0.46999998093E+01 0.  1.
       -5    1    3    3    0  502 -0.40040422076E+02  0.32486065829E+03  0.57245259166E+03  0.65944047677E+03  0.46999998093E+01 0. -1.
</event>
<event>
 5   0  0.6153659E-03  0.7962720E+03  0.7818609E-02  0.9565429E-01
        2   -1    0    0  501    0  0.00000000000E+00  0.00000000000E+00  0.11723206563E+04  0.11723206563E+04  0.25500000920E-02 0. -1.
       -2   -1    0    0    0  501  0.00000000000E+00  0.00000000000E+00 -0.13521239464E+03  0.13521239467E+03  0.25500000920E-02 0.  1.
    10030    2    1    2    0    0  0.00000000000E+00  0.00000000000E+00  0.10371082617E+04  0.13075330510E+04  0.79627202199E+03 0.  0.
        2    1    3    3  502    0 -0.34248497041E+03  0.86902131446E+02  0.81983830647E+03  0.89273892273E+03  0.25500000920E-02 0. -1.
       -2    1    3    3    0  502  0.34248497041E+03 -0.86902131446E+02  0.21726995524E+03  0.41479412828E+03  0.25500000920E-02 0.  1.
</event>
<event>
 5   0  0.6337108E-03  0.7979391E+03  0.7818609E-02  0.9563005E-01
        2   -1    0    0  501    0  0.00000000000E+00  0.00000000000E+00  0.10324513047E+04  0.10324513047E+04  0.25500000920E-02 0. -1.
       -2   -1    0    0    0  501  0.00000000000E+00  0.00000000000E+00 -0.15417357772E+03  0.15417357774E+03  0.25500000920E-02 0.  1.
    10030    2    1    2    0    0  0.00000000000E+00  0.00000000000E+00  0.87827772703E+03  0.11866248825E+04  0.79793912420E+03 0.  0.
        4    1    3    3  502    0 -0.23405763843E+03  0.27960622636E+02  0.91781878062E+03  0.94760630089E+03  0.12699999809E+01 0. -1.
       -4    1    3    3    0  502  0.23405763843E+03 -0.27960622636E+02 -0.39541053594E+02  0.23901858159E+03  0.12699999809E+01 0.  1.
</event>
<event>
 5   0  0.3627496E-03  0.8009735E+03  0.7818609E-02  0.9558609E-01
       -1   -1    0    0    0  501  0.00000000000E+00  0.00000000000E+00  0.14660942761E+03  0.14660942770E+03  0.50400001928E-02 0.  1.
        1   -1    0    0  501    0  0.00000000000E+00  0.00000000000E+00 -0.10939926523E+04  0.10939926523E+04  0.50400001928E-02 0. -1.
    10030    2    1    2    0    0  0.00000000000E+00  0.00000000000E+00 -0.94738322465E+03  0.12406020800E+04  0.80097349923E+03 0.  0.
        3    1    3    3  502    0 -0.24020030311E+03  0.31951699947E+03 -0.43567872743E+03  0.59127257868E+03  0.10100000352E+00 0. -1.
       -3    1    3    3    0  502  0.24020030311E+03 -0.31951699947E+03 -0.51170449722E+03  0.64932950129E+03  0.10100000352E+00 0.  1.
</event>
<event>
 5   0  0.6153659E-03  0.7976052E+03  0.7818609E-02  0.9563490E-01
        2   -1    0    0  501    0  0.00000000000E+00  0.00000000000E+00  0.91115365181E+03  0.91115365181E+03  0.25500000920E-02 0. -1.
       -2   -1    0    0    0  501  0.00000000000E+00  0.00000000000E+00 -0.17455180815E+03  0.17455180816E+03  0.25500000920E-02 0.  1.
    10030    2    1    2    0    0  0.00000000000E+00  0.00000000000E+00  0.73660184366E+03  0.10857054600E+04  0.79760520920E+03 0.  0.
        2    1    3    3  502    0 -0.87062586371E+02 -0.28955041814E+02 -0.15998969893E+03  0.18443153788E+03  0.25500000920E-02 0.  1.
       -2    1    3    3    0  502  0.87062586371E+02  0.28955041814E+02  0.89659154260E+03  0.90127392210E+03  0.25500000920E-02 0. -1.
</event>
<event>
 5   0  0.3753450E-03  0.7981892E+03  0.7818609E-02  0.9562642E-01
        1   -1    0    0  501    0  0.00000000000E+00  0.00000000000E+00  0.27047781669E+03  0.27047781674E+03  0.50400001928E-02 0.  1.
       -1   -1    0    0    0  501  0.00000000000E+00  0.00000000000E+00 -0.58887087509E+03  0.58887087511E+03  0.50400001928E-02 0. -1.
    10030    2    1    2    0    0  0.00000000000E+00  0.00000000000E+00 -0.31839305839E+03  0.85934869185E+03  0.79818922227E+03 0.  0.
        5    1    3    3  502    0 -0.11620930380E+03 -0.37387312140E+03 -0.24237360237E+03  0.46049187432E+03  0.46999998093E+01 0. -1.
       -5    1    3    3    0  502  0.11620930380E+03  0.37387312140E+03 -0.76019456024E+02  0.39885681753E+03  0.46999998093E+01 0.  1.
</event>
<event>
 5   0  0.2478000E-03  0.7991313E+03  0.7818609E-02  0.9561275E-01
       -3   -1    0    0    0  501  0.00000000000E+00  0.00000000000E+00  0.24750437537E+03  0.24750439598E+03  0.10100000352E+00 0.  1.
        3   -1    0    0  501    0  0.00000000000E+00  0.00000000000E+00 -0.64504994149E+03  0.64504994940E+03  0.10100000352E+00 0. -1.
    10030    2    1    2    0    0  0.00000000000E+00  0.00000000000E+00 -0.39754556612E+03  0.89255434538E+03  0.79913126726E+03 0.  0.
        2    1    3    3  502    0 -0.89615566275E+01 -0.39187198723E+03 -0.28535086326E+03  0.48483923010E+03  0.25500000920E-02 0. -1.
       -2    1    3    3    0  502  0.89615566275E+01  0.39187198723E+03 -0.11219470286E+03  0.40771511528E+03  0.25500000920E-02 0.  1.
</event>
<event>
 5   0  0.3860515E-03  0.8005254E+03  0.7818609E-02  0.9559257E-01
        1   -1    0    0  501    0  0.00000000000E+00  0.00000000000E+00  0.62450338331E+03  0.62450338333E+03  0.50400001928E-02 0.  1.
       -1   -1    0    0    0  501  0.00000000000E+00  0.00000000000E+00 -0.25654021830E+03  0.25654021835E+03  0.50400001928E-02 0. -1.
    10030    2    1    2    0    0  0.00000000000E+00  0.00000000000E+00  0.36796316500E+03  0.88104360168E+03  0.80052541326E+03 0.  0.
        4    1    3    3  502    0 -0.16227360127E+02 -0.47646174333E+02 -0.25304100660E+03  0.25800164547E+03  0.12699999809E+01 0. -1.
       -4    1    3    3    0  502  0.16227360127E+02  0.47646174333E+02  0.62100417161E+03  0.62304195621E+03  0.12699999809E+01 0.  1.
</event>
<event>
 5   0  0.3671128E-03  0.8002071E+03  0.7818609E-02  0.9559717E-01
        1   -1    0    0  501    0  0.00000000000E+00  0.00000000000E+00  0.21310344744E+03  0.21310344750E+03  0.50400001928E-02 0.  1.
       -1   -1    0    0    0  501  0.00000000000E+00  0.00000000000E+00 -0.75119783943E+03  0.75119783945E+03  0.50400001928E-02 0. -1.
    10030    2    1    2    0    0  0.00000000000E+00  0.00000000000E+00 -0.53809439200E+03  0.96430128694E+03  0.80020709651E+03 0.  0.
        2    1    3    3  502    0  0.15841075065E+03  0.25811599250E+02  0.17260964822E+03  0.23569958686E+03  0.25500000920E-02 0.  1.
       -2    1    3    3    0  502 -0.15841075065E+03 -0.25811599250E+02 -0.71070404022E+03  0.72860170009E+03  0.25500000920E-02 0. -1.
</event>
<event>
 5   0  0.3753450E-03  0.7752493E+03  0.7818609E-02  0.9596550E-01
        1   -1    0    0  501    0  0.00000000000E+00  0.00000000000E+00  0.62297845103E+03  0.62297845105E+03  0.50400001928E-02 0.  1.
       -1   -1    0    0    0  501  0.00000000000E+00  0.00000000000E+00 -0.24118468267E+03  0.24118468272E+03  0.50400001928E-02 0. -1.
    10030    2    1    2    0    0  0.00000000000E+00  0.00000000000E+00  0.38179376836E+03  0.86416313377E+03  0.77524927618E+03 0.  0.
        5    1    3    3  502    0  0.70876396780E+02 -0.13274003984E+03  0.58905744471E+03  0.60799189547E+03  0.46999998093E+01 0.  1.
       -5    1    3    3    0  502 -0.70876396780E+02  0.13274003984E+03 -0.20726367635E+03  0.25617123830E+03  0.46999998093E+01 0. -1.
</event>
<event>
 5   0  0.3714448E-03  0.7939694E+03  0.7818609E-02  0.9568787E-01
        1   -1    0    0  501    0  0.00000000000E+00  0.00000000000E+00  0.21437765898E+03  0.21437765904E+03  0.50400001928E-02 0. -1.
       -1   -1    0    0    0  501  0.00000000000E+00  0.00000000000E+00 -0.73513658358E+03  0.73513658359E+03  0.50400001928E-02 0.  1.
    10030    2    1    2    0    0  0.00000000000E+00  0.00000000000E+00 -0.52075892460E+03  0.94951424263E+03  0.79396941969E+03 0.  0.
        1    1    3    3  502    0  0.31612607198E+03  0.22503352021E+03 -0.16017208251E+03  0.41979861201E+03  0.50400001928E-02 0. -1.
       -1    1    3    3    0  502 -0.31612607198E+03 -0.22503352021E+03 -0.36058684209E+03  0.52971563062E+03  0.50400001928E-02 0.  1.
</event>
<event>
 5   0  0.6536209E-03  0.7999372E+03  0.7818609E-02  0.9560108E-01
        2   -1    0    0  501    0  0.00000000000E+00  0.00000000000E+00  0.46502417521E+03  0.46502417522E+03  0.25500000920E-02 0.  1.
       -2   -1    0    0    0  501  0.00000000000E+00  0.00000000000E+00 -0.34401408450E+03  0.34401408451E+03  0.25500000920E-02 0. -1.
    10030    2    1    2    0    0  0.00000000000E+00  0.00000000000E+00  0.12101009071E+03  0.80903825973E+03  0.79993716232E+03 0.  0.
        3    1    3    3  502    0 -0.23453768064E+03 -0.23998202425E+03  0.28064068796E+03  0.43744542693E+03  0.10100000352E+00 0.  1.
       -3    1    3    3    0  502  0.23453768064E+03  0.23998202425E+03 -0.15963059725E+03  0.37159283280E+03  0.10100000352E+00 0. -1.
</event>
<event>
 5   0  0.6536209E-03  0.7991874E+03  0.7818609E-02  0.9561194E-01
        2   -1    0    0  501    0  0.00000000000E+00  0.00000000000E+00  0.69456310347E+03  0.69456310347E+03  0.25500000920E-02 0.  1.
       -2   -1    0    0    0  501  0.00000000000E+00  0.00000000000E+00 -0.22989291851E+03  0.22989291852E+03  0.25500000920E-02 0. -1.
    10030    2    1    2    0    0  0.00000000000E+00  0.00000000000E+00  0.46467018496E+03  0.92445602200E+03  0.79918743472E+03 0.  0.
        3    1    3    3  502    0 -0.95188921009E+01  0.32509301173E+03 -0.36216775047E+02  0.32724263258E+03  0.10100000352E+00 0. -1.
       -3    1    3    3    0  502  0.95188921009E+01 -0.32509301173E+03  0.50088696001E+03  0.59721338941E+03  0.10100000352E+00 0.  1.
</event>
<event>
 5   0  0.3753450E-03  0.8010507E+03  0.7818609E-02  0.9558498E-01
        1   -1    0    0  501    0  0.00000000000E+00  0.00000000000E+00  0.11305268058E+04  0.11305268058E+04  0.50400001928E-02 0. -1.
       -1   -1    0    0    0  501  0.00000000000E+00  0.00000000000E+00 -0.14189893194E+03  0.14189893203E+03  0.50400001928E-02 0.  1.
    10030    2    1    2    0    0  0.00000000000E+00  0.00000000000E+00  0.98862787385E+03  0.12724257378E+04  0.80105067590E+03 0.  0.
        5    1    3    3  502    0 -0.13265042132E+02 -0.39379399646E+03  0.38033495773E+03  0.54765540540E+03  0.46999998093E+01 0.  1.
       -5    1    3    3    0  502  0.13265042132E+02  0.39379399646E+03  0.60829291613E+03  0.72477033245E+03  0.46999998093E+01 0. -1.
</event>
<event>
 5   0  0.3714448E-03  0.8002951E+03  0.7818609E-02  0.9559590E-01
        1   -1    0    0  501    0  0.00000000000E+00  0.00000000000E+00  0.24408728223E+04  0.24408728223E+04  0.50400001928E-02 0. -1.
       -1   -1    0    0    0  501  0.00000000000E+00  0.00000000000E+00 -0.65598692196E+02  0.65598692390E+02  0.50400001928E-02 0.  1.
    10030    2    1    2    0    0  0.00000000000E+00  0.00000000000E+00  0.23752741301E+04  0.25064715147E+04  0.80029510860E+03 0.  0.
        1    1    3    3  502    0  0.21532429607E+03 -0.33305856500E+03  0.10211576084E+04  0.10954704110E+04  0.50400001928E-02 0.  1.
       -1    1    3    3    0  502 -0.21532429607E+03  0.33305856500E+03  0.13541165217E+04  0.14110011037E+04  0.50400001928E-02 0. -1.
</event>
<event>
 5   0  0.3627496E-03  0.8002614E+03  0.7818609E-02  0.9559639E-01
       -1   -1    0    0    0  501  0.00000000000E+00  0.00000000000E+00  0.30395805730E+03  0.30395805734E+03  0.50400001928E-02 0. -1.
        1   -1    0    0  501    0  0.00000000000E+00  0.00000000000E+00 -0.52673249632E+03  0.52673249634E+03  0.50400001928E-02 0.  1.
    10030    2    1    2    0    0  0.00000000000E+00  0.00000000000E+00 -0.22277443902E+03  0.83069055368E+03  0.80026142310E+03 0.  0.
        3    1    3    3  502    0  0.16365387744E+03 -0.34467219673E+03 -0.23648121826E+03  0.44889296228E+03  0.10100000352E+00 0.  1.
       -3    1    3    3    0  502 -0.16365387744E+03  0.34467219673E+03  0.13706779239E+02  0.38179759140E+03  0.10100000352E+00 0. -1.
</event>
<event>
 5   0  0.6153659E-03  0.7936363E+03  0.7818609E-02  0.9569274E-01
        2   -1    0    0  501    0  0.00000000000E+00  0.00000000000E+00  0.47281077014E+03  0.47281077015E+03  0.25500000920E-02 0. -1.
       -2   -1    0    0    0  501  0.00000000000E+00  0.00000000000E+00 -0.33303946771E+03  0.33303946772E+03  0.25500000920E-02 0.  1.
    10030    2    1    2    0    0  0.00000000000E+00  0.00000000000E+00  0.13977130243E+03  0.80585023787E+03  0.79363630769E+03 0.  0.
        2    1    3    3  502    0  0.19236854174E+03  0.15466771674E+03 -0.24559988952E+03  0.34820549132E+03  0.25500000920E-02 0.  1.
       -2    1    3    3    0  502 -0.19236854174E+03 -0.15466771674E+03  0.38537119195E+03  0.45764474655E+03  0.25500000920E-02 0. -1.
</event>
<event>
 5   0  0.6153659E-03  0.8001078E+03  0.7818609E-02  0.9559861E-01
       -2   -1    0    0    0  501  0.00000000000E+00  0.00000000000E+00  0.36955293418E+03  0.36955293419E+03  0.25500000920E-02 0.  1.
        2   -1    0    0  501    0  0.00000000000E+00  0.00000000000E+00 -0.43307229200E+03  0.43307229201E+03  0.25500000920E-02 0. -1.
    10030    2    1    2    0    0  0.00000000000E+00  0.00000000000E+00 -0.63519357814E+02  0.80262522620E+03  0.80010783331E+03 0.  0.
        2    1    3    3  502    0 -0.86311248569E+02 -0.38788152144E+03 -0.78180863192E+02  0.40498636234E+03  0.25500000920E-02 0. -1.
       -2    1    3    3    0  502  0.86311248569E+02  0.38788152144E+03  0.14661505378E+02  0.39763886386E+03  0.25500000920E-02 0.  1.
</event>
<event>
 5   0  0.3860515E-03  0.7981526E+03  0.7818609E-02  0.9562695E-01
       -1   -1    0    0    0  501  0.00000000000E+00  0.00000000000E+00  0.39137080366E+03  0.39137080370E+03  0.50400001928E-02 0. -1.
        1   -1    0    0  501    0  0.00000000000E+00  0.00000000000E+00 -0.40693346030E+03  0.40693346033E+03  0.50400001928E-02 0.  1.
    10030    2    1    2    0    0  0.00000000000E+00  0.00000000000E+00 -0.15562656641E+02  0.79830426403E+03  0.79815255540E+03 0.  0.
        4    1    3    3  502    0 -0.20599312162E+03  0.34074504466E+03 -0.34617583683E+02  0.39967529523E+03  0.12699999809E+01 0.  1.
       -4    1    3    3    0  502  0.20599312162E+03 -0.34074504466E+03  0.19054927042E+02  0.39862896880E+03  0.12699999809E+01 0. -1.
</event>
<event>
 5   0  0.6256781E-03  0.7989768E+03  0.7818609E-02  0.9561499E-01
        2   -1    0    0  501    0  0.00000000000E+00  0.00000000000E+00  0.89793765692E+03  0.89793765692E+03  0.25500000920E-02 0.  1.
       -2   -1    0    0    0  501  0.00000000000E+00  0.00000000000E+00 -0.17773058785E+03  0.17773058787E+03  0.25500000920E-02 0. -1.
    10030    2    1    2    0    0  0.00000000000E+00  0.00000000000E+00  0.72020706906E+03  0.10756682448E+04  0.79897681476E+03 0.  0.
        1    1    3    3  502    0  0.14665110496E+03 -0.20460578370E+03 -0.57514178388E+02  0.25822074674E+03  0.50400001928E-02 0. -1.
       -1    1    3    3    0  502 -0.14665110496E+03  0.20460578370E+03  0.77772124745E+03  0.81744749805E+03  0.50400001928E-02 0.  1.
</event>
<event>
 5   0  0.3753450E-03  0.8002785E+03  0.7818609E-02  0.9559614E-01
       -1   -1    0    0    0  501  0.00000000000E+00  0.00000000000E+00  0.11622229149E+04  0.11622229149E+04  0.50400001928E-02 0.  1.
        1   -1    0    0  501    0  0.00000000000E+00  0.00000000000E+00 -0.13776309901E+03  0.13776309910E+03  0.50400001928E-02 0. -1.
    10030    2    1    2    0    0  0.00000000000E+00  0.00000000000E+00  0.10244598159E+04  0.12999860140E+04  0.80027852791E+03 0.  0.
        5    1    3    3  502    0  0.33535513980E+03  0.21406234485E+02  0.15943569842E+03  0.37197194597E+03  0.46999998093E+01 0. -1.
       -5    1    3    3    0  502 -0.33535513980E+03 -0.21406234485E+02  0.86502411744E+03  0.92801406801E+03  0.46999998093E+01 0.  1.
</event>
<event>
 5   0  0.5813850E-03  0.8010777E+03  0.7818609E-02  0.9558458E-01
       -2   -1    0    0    0  501  0.00000000000E+00  0.00000000000E+00  0.16574639704E+03  0.16574639706E+03  0.25500000920E-02 0. -1.
        2   -1    0    0  501    0  0.00000000000E+00  0.00000000000E+00 -0.96793278671E+03  0.96793278671E+03  0.25500000920E-02 0.  1.
    10030    2    1    2    0    0  0.00000000000E+00  0.00000000000E+00 -0.80218638967E+03  0.11336791838E+04  0.80107770407E+03 0.  0.
        5    1    3    3  502    0  0.20977157774E+03 -0.21936071611E+03 -0.31280766257E+02  0.30516194870E+03  0.46999998093E+01 0. -1.
       -5    1    3    3    0  502 -0.20977157774E+03  0.21936071611E+03 -0.77090562341E+03  0.82851723507E+03  0.46999998093E+01 0.  1.
</event>
<event>
 5   0  0.5813850E-03  0.8002195E+03  0.7818609E-02  0.9559699E-01
       -2   -1    0    0    0  501  0.00000000000E+00  0.00000000000E+00  0.18150841217E+03  0.18150841218E+03  0.25500000920E-02 0.  1.
        2   -1    0    0  501    0  0.00000000000E+00  0.00000000000E+00 -0.88198560443E+03  0.88198560444E+03  0.25500000920E-02 0. -1.
    10030    2    1    2    0    0  0.00000000000E+00  0.00000000000E+00 -0.70047719227E+03  0.10634940166E+04  0.80021948646E+03 0.  0.
        5    1    3    3  502    0  0.16980819949E+02 -0.37804743988E+03 -0.52279160336E+03  0.64540015927E+03  0.46999998093E+01 0. -1.
       -5    1    3    3    0  502 -0.16980819949E+02  0.37804743988E+03 -0.17768558891E+03  0.41809385735E+03  0.46999998093E+01 0.  1.
</event>
<event>
 5   0  0.2478000E-03  0.8033223E+03  0.7818609E-02  0.9555221E-01
        3   -1    0    0  501    0  0.00000000000E+00  0.00000000000E+00  0.23433486913E+03  0.23433489089E+03  0.10100000352E+00 0.  1.
       -3   -1    0    0    0  501  0.00000000000E+00  0.00000000000E+00 -0.68846632154E+03  0.68846632895E+03  0.10100000352E+00 0. -1.
    10030    2    1    2    0    0  0.00000000000E+00  0.00000000000E+00 -0.45413145241E+03  0.92280121984E+03  0.80332229850E+03 0.  0.
        3    1    3    3  502    0 -0.36755116112E+03 -0.16136317593E+03 -0.21083085969E+03  0.45341106315E+03  0.10100000352E+00 0. -1.
       -3    1    3    3    0  502  0.36755116112E+03  0.16136317593E+03 -0.24330059272E+03  0.46939015670E+03  0.10100000352E+00 0.  1.
</event>
<event>
 5   0  0.6153659E-03  0.7985684E+03  0.7818609E-02  0.9562092E-01
        2   -1    0    0  501    0  0.00000000000E+00  0.00000000000E+00  0.10935354961E+04  0.10935354961E+04  0.25500000920E-02 0. -1.
       -2   -1    0    0    0  501  0.00000000000E+00  0.00000000000E+00 -0.14579122391E+03  0.14579122393E+03  0.25500000920E-02 0.  1.
    10030    2    1    2    0    0  0.00000000000E+00  0.00000000000E+00  0.94774427215E+03  0.12393267200E+04  0.79856841504E+03 0.  0.
        2    1    3    3  502    0 -0.11834916793E+03  0.11895595071E+03  0.10361588314E+04  0.10496581194E+04  0.25500000920E-02 0. -1.
       -2    1    3    3    0  502  0.11834916793E+03 -0.11895595071E+03 -0.88414559234E+02  0.18966860059E+03  0.25500000920E-02 0.  1.
</event>
<event>
 5   0  0.3753450E-03  0.8004651E+03  0.7818609E-02  0.9559344E-01
       -1   -1    0    0    0  501  0.00000000000E+00  0.00000000000E+00  0.22415959257E+03  0.22415959262E+03  0.50400001928E-02 0.  1.
        1   -1    0    0  501    0  0.00000000000E+00  0.00000000000E+00 -0.71460729418E+03  0.71460729420E+03  0.50400001928E-02 0. -1.
    10030    2    1    2    0    0  0.00000000000E+00  0.00000000000E+00 -0.49044770161E+03  0.93876688682E+03  0.80046506468E+03 0.  0.
        5    1    3    3  502    0  0.28064014641E+03  0.27871147241E+03 -0.31680180714E+03  0.50677850353E+03  0.46999998093E+01 0.  1.
       -5    1    3    3    0  502 -0.28064014641E+03 -0.27871147241E+03 -0.17364589447E+03  0.43198838329E+03  0.46999998093E+01 0. -1.
</event>
<event>
 5   0  0.6536209E-03  0.7996563E+03  0.7818609E-02  0.9560515E-01
       -2   -1    0    0    0  501  0.00000000000E+00  0.00000000000E+00  0.14831580120E+03  0.14831580122E+03  0.25500000920E-02 0. -1.
        2   -1    0    0  501    0  0.00000000000E+00  0.00000000000E+00 -0.10778523163E+04  0.10778523163E+04  0.25500000920E-02 0.  1.
    10030    2    1    2    0    0  0.00000000000E+00  0.00000000000E+00 -0.92953651506E+03  0.12261681175E+04  0.79965625084E+03 0.  0.
        3    1    3    3  502    0 -0.19445595749E+03 -0.13078877307E+02 -0.10000839246E+04  0.10188974644E+04  0.10100000352E+00 0.  1.
       -3    1    3    3    0  502  0.19445595749E+03  0.13078877307E+02  0.70547409573E+02  0.20727065309E+03  0.10100000352E+00 0. -1.
</event>
<event>
 5   0  0.3627496E-03  0.8027692E+03  0.7818609E-02  0.9556017E-01
       -1   -1    0    0    0  501  0.00000000000E+00  0.00000000000E+00  0.12124384616E+03  0.12124384627E+03  0.50400001928E-02 0. -1.
        1   -1    0    0  501    0  0.00000000000E+00  0.00000000000E+00 -0.13288064365E+04  0.13288064365E+04  0.50400001928E-02 0.  1.
    10030    2    1    2    0    0  0.00000000000E+00  0.00000000000E+00 -0.12075625903E+04  0.14500502828E+04  0.80276921528E+03 0.  0.
        3    1    3    3  502    0 -0.37451784068E+03  0.12255213177E+03 -0.46589751323E+03  0.61019926338E+03  0.10100000352E+00 0. -1.
       -3    1    3    3    0  502  0.37451784068E+03 -0.12255213177E+03 -0.74166507710E+03  0.83985101940E+03  0.10100000352E+00 0.  1.
</event>
<event>
 5   0  0.6337108E-03  0.8025384E+03  0.7818609E-02  0.9556350E-01
       -2   -1    0    0    0  501  0.00000000000E+00  0.00000000000E+00  0.39631263951E+03  0.39631263951E+03  0.25500000920E-02 0.  1.
        2   -1    0    0  501    0  0.00000000000E+00  0.00000000000E+00 -0.40628774771E+03  0.40628774772E+03  0.25500000920E-02 0. -1.
    10030    2    1    2    0    0  0.00000000000E+00  0.00000000000E+00 -0.99751082061E+01  0.80260038723E+03  0.80253839709E+03 0.  0.
        4    1    3    3  502    0 -0.22416152365E+03  0.24823867993E+03  0.21671521605E+03  0.39854476370E+03  0.12699999809E+01 0.  1.
       -4    1    3    3    0  502  0.22416152365E+03 -0.24823867993E+03 -0.22669032426E+03  0.40405562354E+03  0.12699999809E+01 0. -1.
</event>
<event>
 5   0  0.3671128E-03  0.7968986E+03  0.7818609E-02  0.9564517E-01
        1   -1    0    0  501    0  0.00000000000E+00  0.00000000000E+00  0.34566908463E+03  0.34566908467E+03  0.50400001928E-02 0. -1.
       -1   -1    0    0    0  501  0.00000000000E+00  0.00000000000E+00 -0.45928851752E+03  0.45928851754E+03  0.50400001928E-02 0.  1.
    10030    2    1    2    0    0  0.00000000000E+00  0.00000000000E+00 -0.11361943289E+03  0.80495760221E+03  0.79689859193E+03 0.  0.
        2    1    3    3  502    0 -0.22834729951E+03  0.27425688812E+03 -0.23580934883E+03  0.42774452524E+03  0.25500000920E-02 0.  1.
       -2    1    3    3    0  502  0.22834729951E+03 -0.27425688812E+03  0.12218991594E+03  0.37721307697E+03  0.25500000920E-02 0. -1.
</event>
<event>
 5   0  0.3714448E-03  0.7984764E+03  0.7818609E-02  0.9562225E-01
       -1   -1    0    0    0  501  0.00000000000E+00  0.00000000000E+00  0.23492687151E+03  0.23492687157E+03  0.50400001928E-02 0.  1.
        1   -1    0    0  501    0  0.00000000000E+00  0.00000000000E+00 -0.67847131165E+03  0.67847131167E+03  0.50400001928E-02 0. -1.
    10030    2    1    2    0    0  0.00000000000E+00  0.00000000000E+00 -0.44354444014E+03  0.91339818324E+03  0.79847640589E+03 0.  0.
        1    1    3    3  502    0 -0.70068410423E+02 -0.24917650774E+03  0.12593740850E+03  0.28785194985E+03  0.50400001928E-02 0.  1.
       -1    1    3    3    0  502  0.70068410423E+02  0.24917650774E+03 -0.56948184864E+03  0.62554623339E+03  0.50400001928E-02 0. -1.
</event>
<event>
 5   0  0.5813850E-03  0.8027691E+03  0.7818609E-02  0.9556018E-01
       -2   -1    0    0    0  501  0.00000000000E+00  0.00000000000E+00  0.23189320288E+03  0.23189320289E+03  0.25500000920E-02 0. -1.
        2   -1    0    0  501    0  0.00000000000E+00  0.00000000000E+00 -0.69475763254E+03  0.69475763254E+03  0.25500000920E-02 0.  1.
    10030    2    1    2    0    0  0.00000000000E+00  0.00000000000E+00 -0.46286442966E+03  0.92665083543E+03  0.80276913902E+03 0.  0.
        5    1    3    3  502    0 -0.77108270620E+02  0.13191708446E+03 -0.65983766580E+03  0.67731502108E+03  0.46999998093E+01 0.  1.
       -5    1    3    3    0  502  0.77108270620E+02 -0.13191708446E+03  0.19697323614E+03  0.24933581436E+03  0.46999998093E+01 0. -1.
</event>
<event>
 5   0  0.3753450E-03  0.7972801E+03  0.7818609E-02  0.9563962E-01
       -1   -1    0    0    0  501  0.00000000000E+00  0.00000000000E+00  0.29358341615E+03  0.29358341620E+03  0.50400001928E-02 0.  1.
        1   -1    0    0  501    0  0.00000000000E+00  0.00000000000E+00 -0.54129036063E+03  0.54129036065E+03  0.50400001928E-02 0. -1.
    10030    2    1    2    0    0  0.00000000000E+00  0.00000000000E+00 -0.24770694448E+03  0.83487377685E+03  0.79728005928E+03 0.  0.
        5    1    3    3  502    0 -0.30687582267E+03 -0.45024032719E+02  0.13833612603E+03  0.33964526763E+03  0.46999998093E+01 0.  1.
       -5    1    3    3    0  502  0.30687582267E+03  0.45024032719E+02 -0.38604307050E+03  0.49522850922E+03  0.46999998093E+01 0. -1.
</event>
<event>
 5   0  0.6536209E-03  0.8236988E+03  0.7818609E-02  0.9526334E-01
        2   -1    0    0  501    0  0.00000000000E+00  0.00000000000E+00  0.39087422626E+03  0.39087422627E+03  0.25500000920E-02 0.  1.
       -2   -1    0    0    0  501  0.00000000000E+00  0.00000000000E+00 -0.43395011695E+03  0.43395011696E+03  0.25500000920E-02 0. -1.
    10030    2    1    2    0    0  0.00000000000E+00  0.00000000000E+00 -0.43075890687E+02  0.82482434323E+03  0.82369877068E+03 0.  0.
        3    1    3    3  502    0 -0.13946257769E+03 -0.10461625511E+03 -0.39517720179E+03  0.43192522782E+03  0.10100000352E+00 0. -1.
       -3    1    3    3    0  502  0.13946257769E+03  0.10461625511E+03  0.35210131110E+03  0.39289911541E+03  0.10100000352E+00 0.  1.
</event>
<event>
 5   0  0.6256781E-03  0.7980159E+03  0.7818609E-02  0.9562894E-01
       -2   -1    0    0    0  501  0.00000000000E+00  0.00000000000E+00  0.85206378919E+03  0.85206378919E+03  0.25500000920E-02 0.  1.
        2   -1    0    0  501    0  0.00000000000E+00  0.00000000000E+00 -0.18684907501E+03  0.18684907503E+03  0.25500000920E-02 0. -1.
    10030    2    1    2    0    0  0.00000000000E+00  0.00000000000E+00  0.66521471418E+03  0.10389128642E+04  0.79801586669E+03 0.  0.
        1    1    3    3  502    0 -0.29637372927E+03  0.21436291050E+03  0.12504794231E+03  0.38655637713E+03  0.50400001928E-02 0.  1.
       -1    1    3    3    0  502  0.29637372927E+03 -0.21436291050E+03  0.54016677186E+03  0.65235648709E+03  0.50400001928E-02 0. -1.
</event>
<event>
 5   0  0.3671128E-03  0.7839095E+03  0.7818609E-02  0.9583604E-01
        1   -1    0    0  501    0  0.00000000000E+00  0.00000000000E+00  0.33014513629E+03  0.33014513632E+03  0.50400001928E-02 0. -1.
       -1   -1    0    0    0  501  0.00000000000E+00  0.00000000000E+00 -0.46533635964E+03  0.46533635966E+03  0.50400001928E-02 0.  1.
    10030    2    1    2    0    0  0.00000000000E+00  0.00000000000E+00 -0.13519122335E+03  0.79548149599E+03  0.78390952513E+03 0.  0.
        2    1    3    3  502    0  0.17399432032E+03 -0.35076678887E+03 -0.49523383426E+02  0.39466939227E+03  0.25500000920E-02 0.  1.
       -2    1    3    3    0  502 -0.17399432032E+03  0.35076678887E+03 -0.85667839925E+02  0.40081210372E+03  0.25500000920E-02 0. -1.
</event>
<event>
 5   0  0.2478000E-03  0.8082641E+03  0.7818609E-02  0.9548132E-01
       -4   -1    0    0    0  501  0.00000000000E+00  0.00000000000E+00  0.30122420534E+03  0.30122688257E+03  0.12699999809E+01 0.  1.
        4   -1    0    0  501    0  0.00000000000E+00  0.00000000000E+00 -0.54219071796E+03  0.54219220535E+03  0.12699999809E+01 0. -1.
    10030    2    1    2    0    0  0.00000000000E+00  0.00000000000E+00 -0.24096651263E+03  0.84341908792E+03  0.80826412618E+03 0.  0.
        5    1    3    3  502    0  0.78631864650E+02 -0.38879011774E+03 -0.39925024938E+02  0.39869389687E+03  0.46999998093E+01 0.  1.
       -5    1    3    3    0  502 -0.78631864650E+02  0.38879011774E+03 -0.20104148769E+03  0.44472519105E+03  0.46999998093E+01 0. -1.
</event>
<event>
 5   0  0.6536209E-03  0.7980875E+03  0.7818609E-02  0.9562789E-01
       -2   -1    0    0    0  501  0.00000000000E+00  0.00000000000E+00  0.20329765433E+03  0.20329765434E+03  0.25500000920E-02 0.  1.
        2   -1    0    0  501    0  0.00000000000E+00  0.00000000000E+00 -0.78326496420E+03  0.78326496420E+03  0.25500000920E-02 0. -1.
    10030    2    1    2    0    0  0.00000000000E+00  0.00000000000E+00 -0.57996730987E+03  0.98656261854E+03  0.79808753892E+03 0.  0.
        3    1    3    3  502    0  0.92664954684E+02 -0.28507439419E+03  0.35625527126E+02  0.30186651426E+03  0.10100000352E+00 0.  1.
       -3    1    3    3    0  502 -0.92664954684E+02  0.28507439419E+03 -0.61559283700E+03  0.68469610428E+03  0.10100000352E+00 0. -1.
</event>
<event>
 5   0  0.6536209E-03  0.7955937E+03  0.7818609E-02  0.9566417E-01
       -2   -1    0    0    0  501  0.00000000000E+00  0.00000000000E+00  0.17704194339E+03  0.17704194341E+03  0.25500000920E-02 0.  1.
        2   -1    0    0  501    0  0.00000000000E+00  0.00000000000E+00 -0.89381258227E+03  0.89381258228E+03  0.25500000920E-02 0. -1.
    10030    2    1    2    0    0  0.00000000000E+00  0.00000000000E+00 -0.71677063888E+03  0.10708545257E+04  0.79559365661E+03 0.  0.
        3    1    3    3  502    0  0.21701442565E+03 -0.30299593343E+03 -0.54557121574E+03  0.66071912207E+03  0.10100000352E+00 0.  1.
       -3    1    3    3    0  502 -0.21701442565E+03  0.30299593343E+03 -0.17119942314E+03  0.41013540362E+03  0.10100000352E+00 0. -1.
</event>
<event>
 5   0  0.3671128E-03  0.7947417E+03  0.7818609E-02  0.9567660E-01
       -1   -1    0    0    0  501  0.00000000000E+00  0.00000000000E+00  0.82189901063E+03  0.82189901064E+03  0.50400001928E-02 0.  1.
        1   -1    0    0  501    0  0.00000000000E+00  0.00000000000E+00 -0.19212040906E+03  0.19212040913E+03  0.50400001928E-02 0. -1.
    10030    2    1    2    0    0  0.00000000000E+00  0.00000000000E+00  0.62977860156E+03  0.10140194198E+04  0.79474165406E+03 0.  0.
        2    1    3    3  502    0 -0.13214722297E+03 -0.23199425575E+03  0.69040470663E+03  0.74023164090E+03  0.25500000920E-02 0.  1.
       -2    1    3    3    0  502  0.13214722297E+03  0.23199425575E+03 -0.60626105070E+02  0.27378777888E+03  0.25500000920E-02 0. -1.
</event>
<event>
 5   0  0.3860515E-03  0.7978820E+03  0.7818609E-02  0.9563088E-01
        1   -1    0    0  501    0  0.00000000000E+00  0.00000000000E+00  0.43899453741E+03  0.43899453743E+03  0.50400001928E-02 0. -1.
       -1   -1    0    0    0  501  0.00000000000E+00  0.00000000000E+00 -0.36254191983E+03  0.36254191987E+03  0.50400001928E-02 0.  1.
    10030    2    1    2    0    0  0.00000000000E+00  0.00000000000E+00  0.76452617572E+02  0.80153645730E+03  0.79788200234E+03 0.  0.
        4    1    3    3  502    0  0.12224269072E+03  0.75539437235E+02 -0.33563793514E+03  0.36510809142E+03  0.12699999809E+01 0.  1.
       -4    1    3    3    0  502 -0.12224269072E+03 -0.75539437235E+02  0.41209055272E+03  0.43642836588E+03  0.12699999809E+01 0. -1.
</event>
<event>
 5   0  0.3714448E-03  0.8067582E+03  0.7818609E-02  0.9550286E-01
       -1   -1    0    0    0  501  0.00000000000E+00  0.00000000000E+00  0.20658865653E+03  0.20658865659E+03  0.50400001928E-02 0. -1.
        1   -1    0    0  501    0  0.00000000000E+00  0.00000000000E+00 -0.78762654937E+03  0.78762654939E+03  0.50400001928E-02 0.  1.
    10030    2    1    2    0    0  0.00000000000E+00  0.00000000000E+00 -0.58103789285E+03  0.99421520597E+03  0.80675823074E+03 0.  0.
        1    1    3    3  502    0  0.34403708085E+03 -0.17978875344E+03 -0.42568119309E+03  0.57609893859E+03  0.50400001928E-02 0.  1.
       -1    1    3    3    0  502 -0.34403708085E+03  0.17978875344E+03 -0.15535669975E+03  0.41811626738E+03  0.50400001928E-02 0. -1.
</event>
<event>
 5   0  0.3714448E-03  0.8012095E+03  0.7818609E-02  0.9558268E-01
       -1   -1    0    0    0  501  0.00000000000E+00  0.00000000000E+00  0.15220624758E+04  0.15220624758E+04  0.50400001928E-02 0.  1.
        1   -1    0    0  501    0  0.00000000000E+00  0.00000000000E+00 -0.10543860673E+03  0.10543860685E+03  0.50400001928E-02 0. -1.
    10030    2    1    2    0    0  0.00000000000E+00  0.00000000000E+00  0.14166238691E+04  0.16275010826E+04  0.80120945301E+03 0.  0.
        1    1    3    3  502    0 -0.26023860686E+02  0.14837773812E+03  0.14623366344E+04  0.14700753813E+04  0.50400001928E-02 0.  1.
       -1    1    3    3    0  502  0.26023860686E+02 -0.14837773812E+03 -0.45712765326E+02  0.15742570131E+03  0.50400001928E-02 0. -1.
</event>
<event>
 5   0  0.3671128E-03  0.7982232E+03  0.7818609E-02  0.9562592E-01
       -1   -1    0    0    0  501  0.00000000000E+00  0.00000000000E+00  0.64944630654E+03  0.64944630656E+03  0.50400001928E-02 0.  1.
        1   -1    0    0  501    0  0.00000000000E+00  0.00000000000E+00 -0.24527058948E+03  0.24527058953E+03  0.50400001928E-02 0. -1.
    10030    2    1    2    0    0  0.00000000000E+00  0.00000000000E+00  0.40417571705E+03  0.89471689609E+03  0.79822322310E+03 0.  0.
        2    1    3    3  502    0 -0.22089836434E+03 -0.28601092381E+03  0.12225119138E+02  0.36159063795E+03  0.25500000920E-02 0.  1.
       -2    1    3    3    0  502  0.22089836434E+03  0.28601092381E+03  0.39195059792E+03  0.53312625814E+03  0.25500000920E-02 0. -1.
</event>
<event>
 5   0  0.3753450E-03  0.8010329E+03  0.7818609E-02  0.9558523E-01
       -1   -1    0    0    0  501  0.00000000000E+00  0.00000000000E+00  0.38588878651E+03  0.38588878654E+03  0.50400001928E-02 0. -1.
        1   -1    0    0  501    0  0.00000000000E+00  0.00000000000E+00 -0.41569861680E+03  0.41569861683E+03  0.50400001928E-02 0.  1.
    10030    2    1    2    0    0  0.00000000000E+00  0.00000000000E+00 -0.29809830291E+02  0.80158740337E+03  0.80103292021E+03 0.  0.
        5    1    3    3  502    0 -0.37567418067E+03  0.10145699108E+03  0.79853471166E+02  0.39726977977E+03  0.46999998093E+01 0. -1.
       -5    1    3    3    0  502  0.37567418067E+03 -0.10145699108E+03 -0.10966330146E+03  0.40431762359E+03  0.46999998093E+01 0.  1.
</event>
<event>
 5   0  0.2478000E-03  0.8006308E+03  0.7818609E-02  0.9559104E-01
       -3   -1    0    0    0  501  0.00000000000E+00  0.00000000000E+00  0.24323132984E+03  0.24323135081E+03  0.10100000352E+00 0.  1.
        3   -1    0    0  501    0  0.00000000000E+00  0.00000000000E+00 -0.65884778293E+03  0.65884779067E+03  0.10100000352E+00 0. -1.
    10030    2    1    2    0    0  0.00000000000E+00  0.00000000000E+00 -0.41561645309E+03  0.90207914148E+03  0.80063083966E+03 0.  0.
        1    1    3    3  502    0  0.29571396868E+03  0.40117757975E+00  0.96206407582E+02  0.31097039264E+03  0.50400001928E-02 0.  1.
       -1    1    3    3    0  502 -0.29571396868E+03 -0.40117757975E+00 -0.51182286067E+03  0.59110874884E+03  0.50400001928E-02 0. -1.
</event>
<event>
 5   0  0.3671128E-03  0.8003709E+03  0.7818609E-02  0.9559480E-01
        1   -1    0    0  501    0  0.00000000000E+00  0.00000000000E+00  0.94420587052E+03  0.94420587054E+03  0.50400001928E-02 0. -1.
       -1   -1    0    0    0  501  0.00000000000E+00  0.00000000000E+00 -0.16961173184E+03  0.16961173191E+03  0.50400001928E-02 0.  1.
    10030    2    1    2    0    0  0.00000000000E+00  0.00000000000E+00  0.77459413869E+03  0.11138176025E+04  0.80037089643E+03 0.  0.
        2    1    3    3  502    0 -0.25108269736E+03  0.26410752649E+03  0.61745500748E+03  0.71697000825E+03  0.25500000920E-02 0. -1.
       -2    1    3    3    0  502  0.25108269736E+03 -0.26410752649E+03  0.15713913120E+03  0.39684759420E+03  0.25500000920E-02 0.  1.
</event>
<event>
 5   0  0.6256781E-03  0.8036375E+03  0.7818609E-02  0.9554767E-01
        2   -1    0    0  501    0  0.00000000000E+00  0.00000000000E+00  0.58720068512E+03  0.58720068512E+03  0.25500000920E-02 0.  1.
       -2   -1    0    0    0  501  0.00000000000E+00  0.00000000000E+00 -0.27496271728E+03  0.27496271730E+03  0.25500000920E-02 0. -1.
    10030    2    1    2    0    0  0.00000000000E+00  0.00000000000E+00  0.31223796783E+03  0.86216340242E+03  0.80363747045E+03 0.  0.
        1    1    3    3  502    0  0.93451626110E+02 -0.29902032755E+03  0.42606206047E+03  0.52884330582E+03  0.50400001928E-02 0.  1.
       -1    1    3    3    0  502 -0.93451626110E+02  0.29902032755E+03 -0.11382409264E+03  0.33332009660E+03  0.50400001928E-02 0. -1.
</event>
<event>
 5   0  0.6256781E-03  0.7995861E+03  0.7818609E-02  0.9560616E-01
       -2   -1    0    0    0  501  0.00000000000E+00  0.00000000000E+00  0.14544137040E+03  0.14544137043E+03  0.25500000920E-02 0.  1.
        2   -1    0    0  501    0  0.00000000000E+00  0.00000000000E+00 -0.10989616698E+04  0.10989616698E+04  0.25500000920E-02 0. -1.
    10030    2    1    2    0    0  0.00000000000E+00  0.00000000000E+00 -0.95352029939E+03  0.12444030402E+04  0.79958612117E+03 0.  0.
        1    1    3    3  502    0 -0.12727337699E+03 -0.10359537183E+03  0.90607808820E+02  0.18745743143E+03  0.50400001928E-02 0.  1.
       -1    1    3    3    0  502  0.12727337699E+03  0.10359537183E+03 -0.10441281082E+04  0.10569456088E+04  0.50400001928E-02 0. -1.
</event>
<event>
 5   0  0.6153659E-03  0.8006614E+03  0.7818609E-02  0.9559060E-01
       -2   -1    0    0    0  501  0.00000000000E+00  0.00000000000E+00  0.88414903136E+02  0.88414903172E+02  0.25500000920E-02 0. -1.
        2   -1    0    0  501    0  0.00000000000E+00  0.00000000000E+00 -0.18126432935E+04  0.18126432935E+04  0.25500000920E-02 0.  1.
    10030    2    1    2    0    0  0.00000000000E+00  0.00000000000E+00 -0.17242283903E+04  0.19010581966E+04  0.80066142969E+03 0.  0.
        2    1    3    3  502    0  0.31564221757E+03  0.20126251235E+03 -0.52525562404E+03  0.64500393718E+03  0.25500000920E-02 0. -1.
       -2    1    3    3    0  502 -0.31564221757E+03 -0.20126251235E+03 -0.11989727663E+04  0.12560542594E+04  0.25500000920E-02 0.  1.
</event>
<event>
 5   0  0.3671128E-03  0.7992220E+03  0.7818609E-02  0.9561144E-01
       -1   -1    0    0    0  501  0.00000000000E+00  0.00000000000E+00  0.35650760327E+03  0.35650760331E+03  0.50400001928E-02 0.  1.
        1   -1    0    0  501    0  0.00000000000E+00  0.00000000000E+00 -0.44792577404E+03  0.44792577407E+03  0.50400001928E-02 0. -1.
    10030    2    1    2    0    0  0.00000000000E+00  0.00000000000E+00 -0.91418170767E+02  0.80443337737E+03  0.79922198211E+03 0.  0.
        2    1    3    3  502    0  0.39108337082E+03  0.13580898545E+02 -0.12722047839E+03  0.41147988270E+03  0.25500000920E-02 0.  1.
       -2    1    3    3    0  502 -0.39108337082E+03 -0.13580898545E+02  0.35802307623E+02  0.39295349467E+03  0.25500000920E-02 0. -1.
</event>
<event>
 5   0  0.3860515E-03  0.7963279E+03  0.7818609E-02  0.9565348E-01
        1   -1    0    0  501    0  0.00000000000E+00  0.00000000000E+00  0.12167228772E+04  0.12167228772E+04  0.50400001928E-02 0.  1.
       -1   -1    0    0    0  501  0.00000000000E+00  0.00000000000E+00 -0.13029632876E+03  0.13029632886E+03  0.50400001928E-02 0. -1.
    10030    2    1    2    0    0  0.00000000000E+00  0.00000000000E+00  0.10864265484E+04  0.13470192060E+04  0.79632788243E+03 0.  0.
        4    1    3    3  502    0  0.35990623354E+03  0.30613862065E+02  0.82658107880E+03  0.90205742512E+03  0.12699999809E+01 0. -1.
       -4    1    3    3    0  502 -0.35990623354E+03 -0.30613862065E+02  0.25984546960E+03  0.44496178090E+03  0.12699999809E+01 0.  1.
</event>
<event>
 5   0  0.3714448E-03  0.8006352E+03  0.7818609E-02  0.9559098E-01
       -1   -1    0    0    0  501  0.00000000000E+00  0.00000000000E+00  0.54084044121E+03  0.54084044123E+03  0.50400001928E-02 0.  1.
        1   -1    0    0  501    0  0.00000000000E+00  0.00000000000E+00 -0.29630580627E+03  0.29630580631E+03  0.50400001928E-02 0. -1.
    10030    2    1    2    0    0  0.00000000000E+00  0.00000000000E+00  0.24453463494E+03  0.83714624754E+03  0.80063515541E+03 0.  0.
        1    1    3    3  502    0  0.20535603682E+03 -0.34205290116E+03  0.15667501654E+03  0.42862378595E+03  0.50400001928E-02 0. -1.
       -1    1    3    3    0  502 -0.20535603682E+03  0.34205290116E+03  0.87859618403E+02  0.40852246159E+03  0.50400001928E-02 0.  1.
</event>
<event>
 5   0  0.3671128E-03  0.8026206E+03  0.7818609E-02  0.9556232E-01
        1   -1    0    0  501    0  0.00000000000E+00  0.00000000000E+00  0.91075610998E+03  0.91075611000E+03  0.50400001928E-02 0. -1.
       -1   -1    0    0    0  501  0.00000000000E+00  0.00000000000E+00 -0.17683105121E+03  0.17683105129E+03  0.50400001928E-02 0.  1.
    10030    2    1    2    0    0  0.00000000000E+00  0.00000000000E+00  0.73392505877E+03  0.10875871613E+04  0.80262060869E+03 0.  0.
        2    1    3    3  502    0 -0.36238413501E+03 -0.10577364018E+03  0.55146592705E+03  0.66830007704E+03  0.25500000920E-02 0. -1.
       -2    1    3    3    0  502  0.36238413501E+03  0.10577364018E+03  0.18245913172E+03  0.41928708425E+03  0.25500000920E-02 0.  1.
</event>
<event>
 5   0  0.2478000E-03  0.8032670E+03  0.7818609E-02  0.9555300E-01
       -4   -1    0    0    0  501  0.00000000000E+00  0.00000000000E+00  0.12869411996E+04  0.12869418262E+04  0.12699999809E+01 0. -1.
        4   -1    0    0  501    0  0.00000000000E+00  0.00000000000E+00 -0.12533944882E+03  0.12534588278E+03  0.12699999809E+01 0.  1.
    10030    2    1    2    0    0  0.00000000000E+00  0.00000000000E+00  0.11616017508E+04  0.14122877090E+04  0.80326704503E+03 0.  0.
        1    1    3    3  502    0  0.33555791970E+03  0.30979767393E+02  0.19660495376E+03  0.39014403921E+03  0.50400001928E-02 0.  1.
       -1    1    3    3    0  502 -0.33555791970E+03 -0.30979767393E+02  0.96499679700E+03  0.10221436698E+04  0.50400001928E-02 0. -1.
</event>
<event>
 5   0  0.6536209E-03  0.8012279E+03  0.7818609E-02  0.9558241E-01
       -2   -1    0    0    0  501  0.00000000000E+00  0.00000000000E+00  0.12957388743E+03  0.12957388745E+03  0.25500000920E-02 0.  1.
        2   -1    0    0  501    0  0.00000000000E+00  0.00000000000E+00 -0.12386103182E+04  0.12386103182E+04  0.25500000920E-02 0. -1.
    10030    2    1    2    0    0  0.00000000000E+00  0.00000000000E+00 -0.11090364308E+04  0.13681842057E+04  0.80122794250E+03 0.  0.
        3    1    3    3  502    0  0.23831957232E+03 -0.28757878959E+03 -0.30709887119E+03  0.48353645743E+03  0.10100000352E+00 0.  1.
       -3    1    3    3    0  502 -0.23831957232E+03  0.28757878959E+03 -0.80193755963E+03  0.88464774827E+03  0.10100000352E+00 0. -1.
</event>
<event>
 5   0  0.6256781E-03  0.7997135E+03  0.7818609E-02  0.9560432E-01
        2   -1    0    0  501    0  0.00000000000E+00  0.00000000000E+00  0.15464542826E+04  0.15464542826E+04  0.25500000920E-02 0. -1.
       -2   -1    0    0    0  501  0.00000000000E+00  0.00000000000E+00 -0.10338839502E+03  0.10338839505E+03  0.25500000920E-02 0.  1.
    10030    2    1    2    0    0  0.00000000000E+00  0.00000000000E+00  0.14430658876E+04  0.16498426776E+04  0.79971351440E+03 0.  0.
        1    1    3    3  502    0  0.38696879498E+03  0.68615987840E+02  0.87358942459E+03  0.95792039589E+03  0.50400001928E-02 0. -1.
       -1    1    3    3    0  502 -0.38696879498E+03 -0.68615987840E+02  0.56947646298E+03  0.69192228175E+03  0.50400001928E-02 0.  1.
</event>
<event>
 5   0  0.6536209E-03  0.7996075E+03  0.7818609E-02  0.9560585E-01
       -2   -1    0    0    0  501  0.00000000000E+00  0.00000000000E+00  0.14763456035E+03  0.14763456037E+03  0.25500000920E-02 0.  1.
        2   -1    0    0  501    0  0.00000000000E+00  0.00000000000E+00 -0.10826940159E+04  0.10826940159E+04  0.25500000920E-02 0. -1.
    10030    2    1    2    0    0  0.00000000000E+00  0.00000000000E+00 -0.93505945556E+03  0.12303285763E+04  0.79960754136E+03 0.  0.
        3    1    3    3  502    0  0.77696470546E+02 -0.30637762884E+03 -0.90826653703E+02  0.32886697039E+03  0.10100000352E+00 0.  1.
       -3    1    3    3    0  502 -0.77696470546E+02  0.30637762884E+03 -0.84423280185E+03  0.90146160590E+03  0.10100000352E+00 0. -1.
</event>
<event>
 5   0  0.3860515E-03  0.7996733E+03  0.7818609E-02  0.9560490E-01
        1   -1    0    0  501    0  0.00000000000E+00  0.00000000000E+00  0.59396741249E+03  0.59396741252E+03  0.50400001928E-02 0. -1.
       -1   -1    0    0    0  501  0.00000000000E+00  0.00000000000E+00 -0.26915507098E+03  0.26915507103E+03  0.50400001928E-02 0.  1.
    10030    2    1    2    0    0  0.00000000000E+00  0.00000000000E+00  0.32481234151E+03  0.86312248354E+03  0.79967328603E+03 0.  0.
        4    1    3    3  502    0 -0.35359731196E+03 -0.49639656338E+02 -0.31793484953E+02  0.35847955743E+03  0.12699999809E+01 0.  1.
       -4    1    3    3    0  502  0.35359731196E+03  0.49639656338E+02  0.35660582647E+03  0.50464292612E+03  0.12699999809E+01 0. -1.
</event>
<event>
 5   0  0.6153659E-03  0.7867994E+03  0.7818609E-02  0.9579323E-01
       -2   -1    0    0    0  501  0.00000000000E+00  0.00000000000E+00  0.96017913999E+02  0.96017914033E+02  0.25500000920E-02 0. -1.
        2   -1    0    0  501    0  0.00000000000E+00  0.00000000000E+00 -0.16118172107E+04  0.16118172107E+04  0.25500000920E-02 0.  1.
    10030    2    1    2    0    0  0.00000000000E+00  0.00000000000E+00 -0.15157992967E+04  0.17078351248E+04  0.78679940608E+03 0.  0.
        2    1    3    3  502    0 -0.11165640519E+03 -0.11829637319E+03 -0.15353969148E+04  0.15439899192E+04  0.25500000920E-02 0.  1.
       -2    1    3    3    0  502  0.11165640519E+03  0.11829637319E+03  0.19597618083E+02  0.16384520551E+03  0.25500000920E-02 0. -1.
</event>
<event>
 5   0  0.6153659E-03  0.8004220E+03  0.7818609E-02  0.9559407E-01
       -2   -1    0    0    0  501  0.00000000000E+00  0.00000000000E+00  0.16501890113E+03  0.16501890115E+03  0.25500000920E-02 0. -1.
        2   -1    0    0  501    0  0.00000000000E+00  0.00000000000E+00 -0.97060897168E+03  0.97060897169E+03  0.25500000920E-02 0.  1.
    10030    2    1    2    0    0  0.00000000000E+00  0.00000000000E+00 -0.80559007056E+03  0.11356278728E+04  0.80042195358E+03 0.  0.
        2    1    3    3  502    0  0.13048035255E+03  0.37776827575E+03 -0.37320956448E+03  0.54682663760E+03  0.25500000920E-02 0. -1.
       -2    1    3    3    0  502 -0.13048035255E+03 -0.37776827575E+03 -0.43238050607E+03  0.58880123523E+03  0.25500000920E-02 0.  1.
</event>
<event>
 5   0  0.3860515E-03  0.8007493E+03  0.7818609E-02  0.9558933E-01
        1   -1    0    0  501    0  0.00000000000E+00  0.00000000000E+00  0.14413984920E+03  0.14413984928E+03  0.50400001928E-02 0. -1.
       -1   -1    0    0    0  501  0.00000000000E+00  0.00000000000E+00 -0.11121132959E+04  0.11121132959E+04  0.50400001928E-02 0.  1.
    10030    2    1    2    0    0  0.00000000000E+00  0.00000000000E+00 -0.96797344668E+03  0.12562531452E+04  0.80074925618E+03 0.  0.
        4    1    3    3  502    0 -0.10704093314E+02 -0.21184576667E+03  0.48740305916E+02  0.21764750582E+03  0.12699999809E+01 0. -1.
       -4    1    3    3    0  502  0.10704093314E+02  0.21184576667E+03 -0.10167137526E+04  0.10386056393E+04  0.12699999809E+01 0.  1.
</event>
<event>
 5   0  0.3671128E-03  0.7979822E+03  0.7818609E-02  0.9562942E-01
        1   -1    0    0  501    0  0.00000000000E+00  0.00000000000E+00  0.10031360783E+04  0.10031360783E+04  0.50400001928E-02 0.  1.
       -1   -1    0    0    0  501  0.00000000000E+00  0.00000000000E+00 -0.15869619648E+03  0.15869619656E+03  0.50400001928E-02 0. -1.
    10030    2    1    2    0    0  0.00000000000E+00  0.00000000000E+00  0.84443988179E+03  0.11618322748E+04  0.79798215576E+03 0.  0.
        2    1    3    3  502    0  0.11064841736E+03 -0.60017190547E+02  0.97346816586E+03  0.98157292412E+03  0.25500000920E-02 0.  1.
       -2    1    3    3    0  502 -0.11064841736E+03  0.60017190547E+02 -0.12902828407E+03  0.18025935072E+03  0.25500000920E-02 0. -1.
</event>
<event>
 5   0  0.3753450E-03  0.8067642E+03  0.7818609E-02  0.9550278E-01
       -1   -1    0    0    0  501  0.00000000000E+00  0.00000000000E+00  0.26877912365E+03  0.26877912370E+03  0.50400001928E-02 0. -1.
        1   -1    0    0  501    0  0.00000000000E+00  0.00000000000E+00 -0.60539339472E+03  0.60539339474E+03  0.50400001928E-02 0.  1.
    10030    2    1    2    0    0  0.00000000000E+00  0.00000000000E+00 -0.33661427107E+03  0.87417251845E+03  0.80676416908E+03 0.  0.
        5    1    3    3  502    0 -0.77296574295E+02 -0.37647820249E+03 -0.30094590948E+03  0.48816096503E+03  0.46999998093E+01 0.  1.
       -5    1    3    3    0  502  0.77296574295E+02  0.37647820249E+03 -0.35668361590E+02  0.38601155341E+03  0.46999998093E+01 0. -1.
</event>
<event>
 5   0  0.6337108E-03  0.7989603E+03  0.7818609E-02  0.9561523E-01
       -2   -1    0    0    0  501  0.00000000000E+00  0.00000000000E+00  0.30896083040E+03  0.30896083041E+03  0.25500000920E-02 0.  1.
        2   -1    0    0  501    0  0.00000000000E+00  0.00000000000E+00 -0.51651980826E+03  0.51651980827E+03  0.25500000920E-02 0. -1.
    10030    2    1    2    0    0  0.00000000000E+00  0.00000000000E+00 -0.20755897786E+03  0.82548063868E+03  0.79896029660E+03 0.  0.
        4    1    3    3  502    0  0.17518951693E+02  0.16149011833E+03 -0.48085523200E+03  0.50755230177E+03  0.12699999809E+01 0. -1.
       -4    1    3    3    0  502 -0.17518951693E+02 -0.16149011833E+03  0.27329625414E+03  0.31792833691E+03  0.12699999809E+01 0.  1.
</event>
<event>
 5   0  0.3753450E-03  0.8148898E+03  0.7818609E-02  0.9538711E-01
       -1   -1    0    0    0  501  0.00000000000E+00  0.00000000000E+00  0.14386463342E+03  0.14386463351E+03  0.50400001928E-02 0. -1.
        1   -1    0    0  501    0  0.00000000000E+00  0.00000000000E+00 -0.11539413620E+04  0.11539413620E+04  0.50400001928E-02 0.  1.
    10030    2    1    2    0    0  0.00000000000E+00  0.00000000000E+00 -0.10100767286E+04  0.12978059955E+04  0.81488981120E+03 0.  0.
        5    1    3    3  502    0 -0.14932362633E+03  0.26986841537E+02 -0.11072142529E+04  0.11175738574E+04  0.46999998093E+01 0.  1.
       -5    1    3    3    0  502  0.14932362633E+03 -0.26986841537E+02  0.97137524272E+02  0.18023213813E+03  0.46999998093E+01 0. -1.
</event>
<event>
 5   0  0.6256781E-03  0.8034943E+03  0.7818609E-02  0.9554973E-01
        2   -1    0    0  501    0  0.00000000000E+00  0.00000000000E+00  0.11576209452E+04  0.11576209452E+04  0.25500000920E-02 0. -1.
       -2   -1    0    0    0  501  0.00000000000E+00  0.00000000000E+00 -0.13942455093E+03  0.13942455096E+03  0.25500000920E-02 0.  1.
    10030    2    1    2    0    0  0.00000000000E+00  0.00000000000E+00  0.10181963943E+04  0.12970454962E+04  0.80349431972E+03 0.  0.
        1    1    3    3  502    0  0.36056219612E+02  0.27480304518E+03  0.97857760626E+03  0.10170697597E+04  0.50400001928E-02 0. -1.
       -1    1    3    3    0  502 -0.36056219612E+02 -0.27480304518E+03  0.39618788009E+02  0.27997573645E+03  0.50400001928E-02 0.  1.
</event>
<event>
 5   0  0.3753450E-03  0.8035015E+03  0.7818609E-02  0.9554963E-01
       -1   -1    0    0    0  501  0.00000000000E+00  0.00000000000E+00  0.11539332610E+04  0.11539332610E+04  0.50400001928E-02 0.  1.
        1   -1    0    0  501    0  0.00000000000E+00  0.00000000000E+00 -0.13987262776E+03  0.13987262786E+03  0.50400001928E-02 0. -1.
    10030    2    1    2    0    0  0.00000000000E+00  0.00000000000E+00  0.10140606332E+04  0.12938058889E+04  0.80350153092E+03 0.  0.
        5    1    3    3  502    0 -0.42360606309E+02 -0.78393670195E+02 -0.12371491046E+03  0.15253674168E+03  0.46999998093E+01 0. -1.
       -5    1    3    3    0  502  0.42360606309E+02  0.78393670195E+02  0.11377755437E+04  0.11412691472E+04  0.46999998093E+01 0.  1.
</event>
<event>
 5   0  0.3714448E-03  0.7953909E+03  0.7818609E-02  0.9566713E-01
       -1   -1    0    0    0  501  0.00000000000E+00  0.00000000000E+00  0.42032280743E+03  0.42032280746E+03  0.50400001928E-02 0. -1.
        1   -1    0    0  501    0  0.00000000000E+00  0.00000000000E+00 -0.37628619012E+03  0.37628619016E+03  0.50400001928E-02 0.  1.
    10030    2    1    2    0    0  0.00000000000E+00  0.00000000000E+00  0.44036617302E+02  0.79660899762E+03  0.79539089221E+03 0.  0.
        1    1    3    3  502    0  0.34412702646E+03  0.95411839268E+02  0.19731446384E+03  0.40799488609E+03  0.50400001928E-02 0. -1.
       -1    1    3    3    0  502 -0.34412702646E+03 -0.95411839268E+02 -0.15327784654E+03  0.38861411152E+03  0.50400001928E-02 0.  1.
</event>
<event>
 5   0  0.3627496E-03  0.7980557E+03  0.7818609E-02  0.9562836E-01
       -1   -1    0    0    0  501  0.00000000000E+00  0.00000000000E+00  0.44587936479E+03  0.44587936482E+03  0.50400001928E-02 0.  1.
        1   -1    0    0  501    0  0.00000000000E+00  0.00000000000E+00 -0.35709936924E+03  0.35709936928E+03  0.50400001928E-02 0. -1.
    10030    2    1    2    0    0  0.00000000000E+00  0.00000000000E+00  0.88779995545E+02  0.80297873409E+03  0.79805573727E+03 0.  0.
        3    1    3    3  502    0  0.28793019969E+03 -0.11151136961E+03 -0.20992329445E+03  0.37337164488E+03  0.10100000352E+00 0. -1.
       -3    1    3    3    0  502 -0.28793019969E+03  0.11151136961E+03  0.29870329000E+03  0.42960708921E+03  0.10100000352E+00 0.  1.
</event>
<event>
 5   0  0.3753450E-03  0.7982349E+03  0.7818609E-02  0.9562576E-01
       -1   -1    0    0    0  501  0.00000000000E+00  0.00000000000E+00  0.41045059245E+03  0.41045059249E+03  0.50400001928E-02 0. -1.
        1   -1    0    0  501    0  0.00000000000E+00  0.00000000000E+00 -0.38809724363E+03  0.38809724366E+03  0.50400001928E-02 0.  1.
    10030    2    1    2    0    0  0.00000000000E+00  0.00000000000E+00  0.22353348827E+02  0.79854783615E+03  0.79823491180E+03 0.  0.
        5    1    3    3  502    0 -0.23825289992E+02 -0.36754252668E+03  0.16491678289E+03  0.40357748777E+03  0.46999998093E+01 0.  1.
       -5    1    3    3    0  502  0.23825289992E+02  0.36754252668E+03 -0.14256343406E+03  0.39497034837E+03  0.46999998093E+01 0. -1.
</event>
<event>
 5   0  0.6337108E-03  0.7978542E+03  0.7818609E-02  0.9563128E-01
        2   -1    0    0  501    0  0.00000000000E+00  0.00000000000E+00  0.12232054625E+04  0.12232054625E+04  0.25500000920E-02 0. -1.
       -2   -1    0    0    0  501  0.00000000000E+00  0.00000000000E+00 -0.13010309990E+03  0.13010309992E+03  0.25500000920E-02 0.  1.
    10030    2    1    2    0    0  0.00000000000E+00  0.00000000000E+00  0.10931023626E+04  0.13533085625E+04  0.79785417842E+03 0.  0.
        4    1    3    3  502    0 -0.13740074605E+02  0.24145085080E+03  0.10846829402E+04  0.11113172350E+04  0.12699999809E+01 0. -1.
       -4    1    3    3    0  502  0.13740074605E+02 -0.24145085080E+03  0.84194223957E+01  0.24199132748E+03  0.12699999809E+01 0.  1.
</event>
<event>
 5   0  0.6536209E-03  0.7921445E+03  0.7818609E-02  0.9571458E-01
       -2   -1    0    0    0  501  0.00000000000E+00  0.00000000000E+00  0.22562078508E+03  0.22562078510E+03  0.25500000920E-02 0.  1.
        2   -1    0    0  501    0  0.00000000000E+00  0.00000000000E+00 -0.69529591334E+03  0.69529591335E+03  0.25500000920E-02 0. -1.
    10030    2    1    2    0    0  0.00000000000E+00  0.00000000000E+00 -0.46967512826E+03  0.92091669845E+03  0.79214445612E+03 0.  0.
        3    1    3    3  502    0 -0.27218069960E+02 -0.36130447583E+03 -0.42081635718E+03  0.55530907093E+03  0.10100000352E+00 0.  1.
       -3    1    3    3    0  502  0.27218069960E+02  0.36130447583E+03 -0.48858771082E+02  0.36560762752E+03  0.10100000352E+00 0. -1.
</event>
<event>
 5   0  0.6153659E-03  0.7989789E+03  0.7818609E-02  0.9561496E-01
       -2   -1    0    0    0  501  0.00000000000E+00  0.00000000000E+00  0.10152535287E+03  0.10152535290E+03  0.25500000920E-02 0. -1.
        2   -1    0    0  501    0  0.00000000000E+00  0.00000000000E+00 -0.15719404508E+04  0.15719404508E+04  0.25500000920E-02 0.  1.
    10030    2    1    2    0    0  0.00000000000E+00  0.00000000000E+00 -0.14704150979E+04  0.16734658037E+04  0.79897887075E+03 0.  0.
        2    1    3    3  502    0  0.11840318829E+03 -0.17971992826E+03 -0.14401362804E+04  0.14561287971E+04  0.25500000920E-02 0.  1.
       -2    1    3    3    0  502 -0.11840318829E+03  0.17971992826E+03 -0.30278817456E+02  0.21733700652E+03  0.25500000920E-02 0. -1.
</event>
<event>
 5   0  0.6256781E-03  0.7978899E+03  0.7818609E-02  0.9563076E-01
       -2   -1    0    0    0  501  0.00000000000E+00  0.00000000000E+00  0.11476979470E+03  0.11476979473E+03  0.25500000920E-02 0. -1.
        2   -1    0    0  501    0  0.00000000000E+00  0.00000000000E+00 -0.13867506642E+04  0.13867506642E+04  0.25500000920E-02 0.  1.
    10030    2    1    2    0    0  0.00000000000E+00  0.00000000000E+00 -0.12719808695E+04  0.15015204589E+04  0.79788993992E+03 0.  0.
        1    1    3    3  502    0 -0.29083538094E+03 -0.20264341819E+03 -0.98046675782E+03  0.10425759622E+04  0.50400001928E-02 0.  1.
       -1    1    3    3    0  502  0.29083538094E+03  0.20264341819E+03 -0.29151411164E+03  0.45894449670E+03  0.50400001928E-02 0. -1.
</event>
<event>
 5   0  0.5813850E-03  0.7997278E+03  0.7818609E-02  0.9560411E-01
        2   -1    0    0  501    0  0.00000000000E+00  0.00000000000E+00  0.17171286271E+03  0.17171286273E+03  0.25500000920E-02 0.  1.
       -2   -1    0    0    0  501  0.00000000000E+00  0.00000000000E+00 -0.93115418872E+03  0.93115418872E+03  0.25500000920E-02 0. -1.
    10030    2    1    2    0    0  0.00000000000E+00  0.00000000000E+00 -0.75944132601E+03  0.11028670514E+04  0.79972783215E+03 0.  0.
        5    1    3    3  502    0 -0.36587574415E+03 -0.71839493129E+02 -0.57881641206E+03  0.68853213563E+03  0.46999998093E+01 0. -1.
       -5    1    3    3    0  502  0.36587574415E+03  0.71839493129E+02 -0.18062491395E+03  0.41433491582E+03  0.46999998093E+01 0.  1.
</event>
<event>
 5   0  0.6536209E-03  0.8022258E+03  0.7818609E-02  0.9556801E-01
        2   -1    0    0  501    0  0.00000000000E+00  0.00000000000E+00  0.74973471595E+03  0.74973471595E+03  0.25500000920E-02 0.  1.
       -2   -1    0    0    0  501  0.00000000000E+00  0.00000000000E+00 -0.21459799748E+03  0.21459799750E+03  0.25500000920E-02 0. -1.
    10030    2    1    2    0    0  0.00000000000E+00  0.00000000000E+00  0.53513671847E+03  0.96433271345E+03  0.80222582531E+03 0.  0.
        3    1    3    3  502    0 -0.11396352863E+03  0.28436724535E+03 -0.43670981019E+02  0.30945044978E+03  0.10100000352E+00 0. -1.
       -3    1    3    3    0  502  0.11396352863E+03 -0.28436724535E+03  0.57880769948E+03  0.65488226367E+03  0.10100000352E+00 0.  1.
</event>
<event>
 5   0  0.3714448E-03  0.8006759E+03  0.7818609E-02  0.9559039E-01
       -1   -1    0    0    0  501  0.00000000000E+00  0.00000000000E+00  0.62157482876E+03  0.62157482878E+03  0.50400001928E-02 0. -1.
        1   -1    0    0  501    0  0.00000000000E+00  0.00000000000E+00 -0.25784582890E+03  0.25784582895E+03  0.50400001928E-02 0.  1.
    10030    2    1    2    0    0  0.00000000000E+00  0.00000000000E+00  0.36372899986E+03  0.87942065773E+03  0.80067590691E+03 0.  0.
        1    1    3    3  502    0 -0.10893712934E+03 -0.25282953746E+03  0.50110493439E+03  0.57174839611E+03  0.50400001928E-02 0.  1.
       -1    1    3    3    0  502  0.10893712934E+03  0.25282953746E+03 -0.13737593453E+03  0.30767226162E+03  0.50400001928E-02 0. -1.
</event>
<event>
 5   0  0.3627496E-03  0.8005797E+03  0.7818609E-02  0.9559178E-01
       -1   -1    0    0    0  501  0.00000000000E+00  0.00000000000E+00  0.27485710239E+03  0.27485710243E+03  0.50400001928E-02 0. -1.
        1   -1    0    0  501    0  0.00000000000E+00  0.00000000000E+00 -0.58296454845E+03  0.58296454847E+03  0.50400001928E-02 0.  1.
    10030    2    1    2    0    0  0.00000000000E+00  0.00000000000E+00 -0.30810744606E+03  0.85782165090E+03  0.80057965652E+03 0.  0.
        3    1    3    3  502    0 -0.37308631015E+03 -0.71634387483E+02 -0.18912650945E+02  0.38037163256E+03  0.10100000352E+00 0. -1.
       -3    1    3    3    0  502  0.37308631015E+03  0.71634387483E+02 -0.28919479512E+03  0.47745001834E+03  0.10100000352E+00 0.  1.
</event>
<event>
 5   0  0.3753450E-03  0.8008443E+03  0.7818609E-02  0.9558796E-01
       -1   -1    0    0    0  501  0.00000000000E+00  0.00000000000E+00  0.26793023058E+03  0.26793023063E+03  0.50400001928E-02 0. -1.
        1   -1    0    0  501    0  0.00000000000E+00  0.00000000000E+00 -0.59843158187E+03  0.59843158189E+03  0.50400001928E-02 0.  1.
    10030    2    1    2    0    0  0.00000000000E+00  0.00000000000E+00 -0.33050135129E+03  0.86636181252E+03  0.80084433380E+03 0.  0.
        5    1    3    3  502    0 -0.16212498747E+03  0.26715739757E+03 -0.43604544608E+03  0.53648421010E+03  0.46999998093E+01 0. -1.
       -5    1    3    3    0  502  0.16212498747E+03 -0.26715739757E+03  0.10554409479E+03  0.32987760242E+03  0.46999998093E+01 0.  1.
</event>
<event>
 5   0  0.3627496E-03  0.8018708E+03  0.7818609E-02  0.9557313E-01
        1   -1    0    0  501    0  0.00000000000E+00  0.00000000000E+00  0.18693645178E+03  0.18693645185E+03  0.50400001928E-02 0.  1.
       -1   -1    0    0    0  501  0.00000000000E+00  0.00000000000E+00 -0.85991366112E+03  0.85991366113E+03  0.50400001928E-02 0. -1.
    10030    2    1    2    0    0  0.00000000000E+00  0.00000000000E+00 -0.67297720934E+03  0.10468501130E+04  0.80187083421E+03 0.  0.
        3    1    3    3  502    0  0.39252477400E+02 -0.28083532054E+02  0.18313007824E+03  0.18938341403E+03  0.10100000352E+00 0.  1.
       -3    1    3    3    0  502 -0.39252477400E+02  0.28083532054E+02 -0.85610728758E+03  0.85746669895E+03  0.10100000352E+00 0. -1.
</event>
<event>
 5   0  0.6153659E-03  0.7964413E+03  0.7818609E-02  0.9565182E-01
        2   -1    0    0  501    0  0.00000000000E+00  0.00000000000E+00  0.13996814970E+04  0.13996814970E+04  0.25500000920E-02 0.  1.
       -2   -1    0    0    0  501  0.00000000000E+00  0.00000000000E+00 -0.11329698400E+03  0.11329698403E+03  0.25500000920E-02 0. -1.
    10030    2    1    2    0    0  0.00000000000E+00  0.00000000000E+00  0.12863845130E+04  0.15129784810E+04  0.79644131533E+03 0.  0.
        2    1    3    3  502    0 -0.83254870879E+02 -0.15510192631E+03 -0.35370783947E+02  0.17955242531E+03  0.25500000920E-02 0. -1.
       -2    1    3    3    0  502  0.83254870879E+02  0.15510192631E+03  0.13217552969E+04  0.13334260557E+04  0.25500000920E-02 0.  1.
</event>
<event>
 5   0  0.6536209E-03  0.8000953E+03  0.7818609E-02  0.9559879E-01
        2   -1    0    0  501    0  0.00000000000E+00  0.00000000000E+00  0.93773831236E+03  0.93773831236E+03  0.25500000920E-02 0.  1.
       -2   -1    0    0    0  501  0.00000000000E+00  0.00000000000E+00 -0.17066394116E+03  0.17066394118E+03  0.25500000920E-02 0. -1.
    10030    2    1    2    0    0  0.00000000000E+00  0.00000000000E+00  0.76707437120E+03  0.11084022535E+04  0.80009528477E+03 0.  0.
        3    1    3    3  502    0  0.14762303976E+03  0.34827574407E+03  0.56389492280E+03  0.67901844594E+03  0.10100000352E+00 0.  1.
       -3    1    3    3    0  502 -0.14762303976E+03 -0.34827574407E+03  0.20317944841E+03  0.42938380760E+03  0.10100000352E+00 0. -1.
</event>
<event>
 5   0  0.3627496E-03  0.8013540E+03  0.7818609E-02  0.9558059E-01
        1   -1    0    0  501    0  0.00000000000E+00  0.00000000000E+00  0.11839307162E+04  0.11839307162E+04  0.50400001928E-02 0. -1.
       -1   -1    0    0    0  501  0.00000000000E+00  0.00000000000E+00 -0.13560087343E+03  0.13560087352E+03  0.50400001928E-02 0.  1.
    10030    2    1    2    0    0  0.00000000000E+00  0.00000000000E+00  0.10483298427E+04  0.13195315897E+04  0.80135395241E+03 0.  0.
        3    1    3    3  502    0  0.33493384877E+02  0.14215520842E+03 -0.90210637745E+02  0.17166210844E+03  0.10100000352E+00 0.  1.
       -3    1    3    3    0  502 -0.33493384877E+02 -0.14215520842E+03  0.11385404805E+04  0.11478694812E+04  0.10100000352E+00 0. -1.
</event>
<event>
 5   0  0.3671128E-03  0.7980290E+03  0.7818609E-02  0.9562874E-01
       -1   -1    0    0    0  501  0.00000000000E+00  0.00000000000E+00  0.41452340048E+03  0.41452340051E+03  0.50400001928E-02 0.  1.
        1   -1    0    0  501    0  0.00000000000E+00  0.00000000000E+00 -0.38408582410E+03  0.38408582413E+03  0.50400001928E-02 0. -1.
    10030    2    1    2    0    0  0.00000000000E+00  0.00000000000E+00  0.30437576383E+02  0.79860922464E+03  0.79802897668E+03 0.  0.
        2    1    3    3  502    0  0.13776442632E+03 -0.36699177538E+02 -0.35772723732E+03  0.38509043499E+03  0.25500000920E-02 0. -1.
       -2    1    3    3    0  502 -0.13776442632E+03  0.36699177538E+02  0.38816481370E+03  0.41351878965E+03  0.25500000920E-02 0.  1.
</event>
<event>
 5   0  0.6153659E-03  0.8015390E+03  0.7818609E-02  0.9557792E-01
       -2   -1    0    0    0  501  0.00000000000E+00  0.00000000000E+00  0.11250071011E+03  0.11250071014E+03  0.25500000920E-02 0. -1.
        2   -1    0    0  501    0  0.00000000000E+00  0.00000000000E+00 -0.14276903388E+04  0.14276903388E+04  0.25500000920E-02 0.  1.
    10030    2    1    2    0    0  0.00000000000E+00  0.00000000000E+00 -0.13151896287E+04  0.15401910489E+04  0.80153896214E+03 0.  0.
        2    1    3    3  502    0  0.85799410767E+02  0.30498105593E+03 -0.11292197308E+04  0.11728223155E+04  0.25500000920E-02 0.  1.
       -2    1    3    3    0  502 -0.85799410767E+02 -0.30498105593E+03 -0.18596989789E+03  0.36736873342E+03  0.25500000920E-02 0. -1.
</event>
<event>
 5   0  0.3671128E-03  0.7974659E+03  0.7818609E-02  0.9563692E-01
       -1   -1    0    0    0  501  0.00000000000E+00  0.00000000000E+00  0.24727533080E+03  0.24727533085E+03  0.50400001928E-02 0.  1.
        1   -1    0    0  501    0  0.00000000000E+00  0.00000000000E+00 -0.64295921953E+03  0.64295921955E+03  0.50400001928E-02 0. -1.
    10030    2    1    2    0    0  0.00000000000E+00  0.00000000000E+00 -0.39568388873E+03  0.89023455040E+03  0.79746587069E+03 0.  0.
        2    1    3    3  502    0 -0.17567569857E+03  0.35664952499E+02  0.19975628950E+03  0.26839619056E+03  0.25500000920E-02 0.  1.
       -2    1    3    3    0  502  0.17567569857E+03 -0.35664952499E+02 -0.59544017824E+03  0.62183835984E+03  0.25500000920E-02 0. -1.
</event>
<event>
 5   0  0.2478000E-03  0.7990675E+03  0.7818609E-02  0.9561368E-01
       -3   -1    0    0    0  501  0.00000000000E+00  0.00000000000E+00  0.36638832205E+03  0.36638833597E+03  0.10100000352E+00 0. -1.
        3   -1    0    0  501    0  0.00000000000E+00  0.00000000000E+00 -0.43567764342E+03  0.43567765512E+03  0.10100000352E+00 0.  1.
    10030    2    1    2    0    0  0.00000000000E+00  0.00000000000E+00 -0.69289321369E+02  0.80206599109E+03  0.79906748402E+03 0.  0.
        2    1    3    3  502    0 -0.55610894810E+02  0.16696895054E+02  0.36213078717E+03  0.36675613825E+03  0.25500000920E-02 0. -1.
       -2    1    3    3    0  502  0.55610894810E+02 -0.16696895054E+02 -0.43142010853E+03  0.43530985284E+03  0.25500000920E-02 0.  1.
</event>
<event>
 5   0  0.6256781E-03  0.7988445E+03  0.7818609E-02  0.9561691E-01
        2   -1    0    0  501    0  0.00000000000E+00  0.00000000000E+00  0.11506295003E+04  0.11506295003E+04  0.25500000920E-02 0.  1.
       -2   -1    0    0    0  501  0.00000000000E+00  0.00000000000E+00 -0.13865291639E+03  0.13865291641E+03  0.25500000920E-02 0. -1.
    10030    2    1    2    0    0  0.00000000000E+00  0.00000000000E+00  0.10119765839E+04  0.12892824167E+04  0.79884450531E+03 0.  0.
        1    1    3    3  502    0  0.28267405338E+03 -0.27367084720E+03  0.61707788665E+03  0.73183705241E+03  0.50400001928E-02 0.  1.
       -1    1    3    3    0  502 -0.28267405338E+03  0.27367084720E+03  0.39489869724E+03  0.55744536429E+03  0.50400001928E-02 0. -1.
</event>
<event>
 5   0  0.3671128E-03  0.7668927E+03  0.7818609E-02  0.9609215E-01
        1   -1    0    0  501    0  0.00000000000E+00  0.00000000000E+00  0.93774717576E+03  0.93774717577E+03  0.50400001928E-02 0.  1.
       -1   -1    0    0    0  501  0.00000000000E+00  0.00000000000E+00 -0.15679184924E+03  0.15679184932E+03  0.50400001928E-02 0. -1.
    10030    2    1    2    0    0  0.00000000000E+00  0.00000000000E+00  0.78095532652E+03  0.10945390251E+04  0.76689272746E+03 0.  0.
        2    1    3    3  502    0  0.23366453410E+02  0.32760835995E+03  0.10805064189E+03  0.34575738586E+03  0.25500000920E-02 0. -1.
       -2    1    3    3    0  502 -0.23366453410E+02 -0.32760835995E+03  0.67290468463E+03  0.74878163923E+03  0.25500000920E-02 0.  1.
</event>
<event>
 5   0  0.3714448E-03  0.8013143E+03  0.7818609E-02  0.9558117E-01
        1   -1    0    0  501    0  0.00000000000E+00  0.00000000000E+00  0.15724802569E+04  0.15724802569E+04  0.50400001928E-02 0.  1.
       -1   -1    0    0    0  501  0.00000000000E+00  0.00000000000E+00 -0.10208467699E+03  0.10208467712E+03  0.50400001928E-02 0. -1.
    10030    2    1    2    0    0  0.00000000000E+00  0.00000000000E+00  0.14703955799E+04  0.16745649340E+04  0.80131426846E+03 0.  0.
        1    1    3    3  502    0 -0.85456636603E+02  0.15251115451E+03 -0.18175236810E+02  0.17576355779E+03  0.50400001928E-02 0. -1.
       -1    1    3    3    0  502  0.85456636603E+02 -0.15251115451E+03  0.14885708167E+04  0.14988013762E+04  0.50400001928E-02 0.  1.
</event>
<event>
 5   0  0.3671128E-03  0.8010391E+03  0.7818609E-02  0.9558514E-01
        1   -1    0    0  501    0  0.00000000000E+00  0.00000000000E+00  0.40942548594E+03  0.40942548597E+03  0.50400001928E-02 0.  1.
       -1   -1    0    0    0  501  0.00000000000E+00  0.00000000000E+00 -0.39180737440E+03  0.39180737444E+03  0.50400001928E-02 0. -1.
    10030    2    1    2    0    0  0.00000000000E+00  0.00000000000E+00  0.17618111534E+02  0.80123286041E+03  0.80103913684E+03 0.  0.
        2    1    3    3  502    0 -0.16630476726E+03 -0.23396596045E+03 -0.27057655420E+03  0.39447308901E+03  0.25500000920E-02 0. -1.
       -2    1    3    3    0  502  0.16630476726E+03  0.23396596045E+03  0.28819466574E+03  0.40675977140E+03  0.25500000920E-02 0.  1.
</event>
<event>
 5   0  0.6256781E-03  0.8254625E+03  0.7818609E-02  0.9523875E-01
        2   -1    0    0  501    0  0.00000000000E+00  0.00000000000E+00  0.87265132666E+03  0.87265132666E+03  0.25500000920E-02 0.  1.
       -2   -1    0    0    0  501  0.00000000000E+00  0.00000000000E+00 -0.19520634302E+03  0.19520634303E+03  0.25500000920E-02 0. -1.
    10030    2    1    2    0    0  0.00000000000E+00  0.00000000000E+00  0.67744498364E+03  0.10678576697E+04  0.82546247454E+03 0.  0.
        1    1    3    3  502    0 -0.40611828869E+03 -0.56389372745E+02  0.27756087817E+03  0.49512813178E+03  0.50400001928E-02 0.  1.
       -1    1    3    3    0  502  0.40611828869E+03  0.56389372745E+02  0.39988410548E+03  0.57272953792E+03  0.50400001928E-02 0. -1.
</event>
<event>
 5   0  0.5813850E-03  0.7975403E+03  0.7818609E-02  0.9563584E-01
        2   -1    0    0  501    0  0.00000000000E+00  0.00000000000E+00  0.85389051277E+03  0.85389051277E+03  0.25500000920E-02 0. -1.
       -2   -1    0    0    0  501  0.00000000000E+00  0.00000000000E+00 -0.18622720212E+03  0.18622720214E+03  0.25500000920E-02 0.  1.
    10030    2    1    2    0    0  0.00000000000E+00  0.00000000000E+00  0.66766331064E+03  0.10401177149E+04  0.79754032155E+03 0.  0.
        5    1    3    3  502    0 -0.33789919045E+03 -0.37999221690E+02  0.62216918468E+02  0.34570628964E+03  0.46999998093E+01 0.  1.
       -5    1    3    3    0  502  0.33789919045E+03  0.37999221690E+02  0.60544639217E+03  0.69441142527E+03  0.46999998093E+01 0. -1.
</event>
<event>
 5   0  0.3627496E-03  0.8001521E+03  0.7818609E-02  0.9559797E-01
        1   -1    0    0  501    0  0.00000000000E+00  0.00000000000E+00  0.19262797032E+03  0.19262797039E+03  0.50400001928E-02 0. -1.
       -1   -1    0    0    0  501  0.00000000000E+00  0.00000000000E+00 -0.83093261881E+03  0.83093261883E+03  0.50400001928E-02 0.  1.
    10030    2    1    2    0    0  0.00000000000E+00  0.00000000000E+00 -0.63830464849E+03  0.10235605892E+04  0.80015214523E+03 0.  0.
        3    1    3    3  502    0  0.47924353654E+02  0.14154587787E+03  0.15558511285E+03  0.21572834018E+03  0.10100000352E+00 0. -1.
       -3    1    3    3    0  502 -0.47924353654E+02 -0.14154587787E+03 -0.79388976134E+03  0.80783224904E+03  0.10100000352E+00 0.  1.
</event>
<event>
 5   0  0.6337108E-03  0.8016041E+03  0.7818609E-02  0.9557698E-01
        2   -1    0    0  501    0  0.00000000000E+00  0.00000000000E+00  0.42165685975E+03  0.42165685976E+03  0.25500000920E-02 0.  1.
       -2   -1    0    0    0  501  0.00000000000E+00  0.00000000000E+00 -0.38097869930E+03  0.38097869930E+03  0.25500000920E-02 0. -1.
    10030    2    1    2    0    0  0.00000000000E+00  0.00000000000E+00  0.40678160454E+02  0.80263555906E+03  0.80160409675E+03 0.  0.
        4    1    3    3  502    0  0.25712816886E+03 -0.61504431346E+02 -0.28128428705E+03  0.38603128544E+03  0.12699999809E+01 0. -1.
       -4    1    3    3    0  502 -0.25712816886E+03  0.61504431346E+02  0.32196244750E+03  0.41660427362E+03  0.12699999809E+01 0.  1.
</event>
<event>
 5   0  0.3860515E-03  0.7999724E+03  0.7818609E-02  0.9560057E-01
        1   -1    0    0  501    0  0.00000000000E+00  0.00000000000E+00  0.10104807170E+04  0.10104807171E+04  0.50400001928E-02 0.  1.
       -1   -1    0    0    0  501  0.00000000000E+00  0.00000000000E+00 -0.15832956878E+03  0.15832956886E+03  0.50400001928E-02 0. -1.
    10030    2    1    2    0    0  0.00000000000E+00  0.00000000000E+00  0.85215114827E+03  0.11688102859E+04  0.79997244014E+03 0.  0.
        4    1    3    3  502    0 -0.32705559322E+02  0.33678869706E+03  0.73770046461E+03  0.81160327036E+03  0.12699999809E+01 0.  1.
       -4    1    3    3    0  502  0.32705559322E+02 -0.33678869706E+03  0.11445068366E+03  0.35720701556E+03  0.12699999809E+01 0. -1.
</event>
<event>
 5   0  0.3753450E-03  0.8007482E+03  0.7818609E-02  0.9558935E-01
       -1   -1    0    0    0  501  0.00000000000E+00  0.00000000000E+00  0.22966512131E+03  0.22966512137E+03  0.50400001928E-02 0. -1.
        1   -1    0    0  501    0  0.00000000000E+00  0.00000000000E+00 -0.69797032295E+03  0.69797032297E+03  0.50400001928E-02 0.  1.
    10030    2    1    2    0    0  0.00000000000E+00  0.00000000000E+00 -0.46830520164E+03  0.92763544434E+03  0.80074824740E+03 0.  0.
        5    1    3    3  502    0 -0.15626772379E+03  0.18819093837E+03 -0.60129863086E+03  0.64916682313E+03  0.46999998093E+01 0.  1.
       -5    1    3    3    0  502  0.15626772379E+03 -0.18819093837E+03  0.13299342922E+03  0.27846862121E+03  0.46999998093E+01 0. -1.
</event>
<event>
 5   0  0.3671128E-03  0.7979091E+03  0.7818609E-02  0.9563049E-01
       -1   -1    0    0    0  501  0.00000000000E+00  0.00000000000E+00  0.12070079908E+04  0.12070079909E+04  0.50400001928E-02 0. -1.
        1   -1    0    0  501    0  0.00000000000E+00  0.00000000000E+00 -0.13186717630E+03  0.13186717639E+03  0.50400001928E-02 0.  1.
    10030    2    1    2    0    0  0.00000000000E+00  0.00000000000E+00  0.10751408146E+04  0.13388751673E+04  0.79790910658E+03 0.  0.
        2    1    3    3  502    0 -0.33023373589E+03  0.68437552450E+02  0.17993349307E+03  0.38224871595E+03  0.25500000920E-02 0.  1.
       -2    1    3    3    0  502  0.33023373589E+03 -0.68437552450E+02  0.89520732148E+03  0.95662645131E+03  0.25500000920E-02 0. -1.
</event>
<event>
 5   0  0.3671128E-03  0.8000413E+03  0.7818609E-02  0.9559957E-01
        1   -1    0    0  501    0  0.00000000000E+00  0.00000000000E+00  0.93370639214E+03  0.93370639215E+03  0.50400001928E-02 0. -1.
       -1   -1    0    0    0  501  0.00000000000E+00  0.00000000000E+00 -0.17137776445E+03  0.17137776452E+03  0.50400001928E-02 0.  1.
    10030    2    1    2    0    0  0.00000000000E+00  0.00000000000E+00  0.76232862769E+03  0.11050841567E+04  0.80004128440E+03 0.  0.
        2    1    3    3  502    0  0.24402862798E+03  0.43178348273E+02  0.81490104044E+03  0.85174999076E+03  0.25500000920E-02 0. -1.
       -2    1    3    3    0  502 -0.24402862798E+03 -0.43178348273E+02 -0.52572412756E+02  0.25333416592E+03  0.25500000920E-02 0.  1.
</event>
<event>
 5   0  0.3753450E-03  0.7951735E+03  0.7818609E-02  0.9567030E-01
       -1   -1    0    0    0  501  0.00000000000E+00  0.00000000000E+00  0.14062205551E+03  0.14062205560E+03  0.50400001928E-02 0.  1.
        1   -1    0    0  501    0  0.00000000000E+00  0.00000000000E+00 -0.11241140073E+04  0.11241140074E+04  0.50400001928E-02 0. -1.
    10030    2    1    2    0    0  0.00000000000E+00  0.00000000000E+00 -0.98349195183E+03  0.12647360630E+04  0.79517349656E+03 0.  0.
        5    1    3    3  502    0  0.10010168962E+03  0.72666243187E+02 -0.10926840448E+04  0.10996732437E+04  0.46999998093E+01 0. -1.
       -5    1    3    3    0  502 -0.10010168962E+03 -0.72666243187E+02  0.10919209292E+03  0.16506281930E+03  0.46999998093E+01 0.  1.
</event>
<event>
 5   0  0.3753450E-03  0.8111771E+03  0.7818609E-02  0.9543978E-01
       -1   -1    0    0    0  501  0.00000000000E+00  0.00000000000E+00  0.29947066323E+03  0.29947066327E+03  0.50400001928E-02 0. -1.
        1   -1    0    0  501    0  0.00000000000E+00  0.00000000000E+00 -0.54930953351E+03  0.54930953354E+03  0.50400001928E-02 0.  1.
    10030    2    1    2    0    0  0.00000000000E+00  0.00000000000E+00 -0.24983887028E+03  0.84878019681E+03  0.81117714551E+03 0.  0.
        5    1    3    3  502    0  0.25517488194E+03  0.16686402285E+03 -0.40475305945E+03  0.50675926397E+03  0.46999998093E+01 0.  1.
       -5    1    3    3    0  502 -0.25517488194E+03 -0.16686402285E+03  0.15491418916E+03  0.34202093283E+03  0.46999998093E+01 0. -1.
</event>
<event>
 5   0  0.3671128E-03  0.7959011E+03  0.7818609E-02  0.9565969E-01
        1   -1    0    0  501    0  0.00000000000E+00  0.00000000000E+00  0.69808862872E+03  0.69808862874E+03  0.50400001928E-02 0. -1.
       -1   -1    0    0    0  501  0.00000000000E+00  0.00000000000E+00 -0.22685460610E+03  0.22685460615E+03  0.50400001928E-02 0.  1.
    10030    2    1    2    0    0  0.00000000000E+00  0.00000000000E+00  0.47123402263E+03  0.92494323489E+03  0.79590105144E+03 0.  0.
        2    1    3    3  502    0  0.17841018091E+03  0.35169698542E+03  0.29758890082E+03  0.49404464991E+03  0.25500000920E-02 0. -1.
       -2    1    3    3    0  502 -0.17841018091E+03 -0.35169698542E+03  0.17364512180E+03  0.43089858498E+03  0.25500000920E-02 0.  1.
</event>
<event>
 5   0  0.2478000E-03  0.8000175E+03  0.7818609E-02  0.9559992E-01
       -4   -1    0    0    0  501  0.00000000000E+00  0.00000000000E+00  0.17198896147E+03  0.17199365037E+03  0.12699999809E+01 0.  1.
        4   -1    0    0  501    0  0.00000000000E+00  0.00000000000E+00 -0.93031507293E+03  0.93031593979E+03  0.12699999809E+01 0. -1.
    10030    2    1    2    0    0  0.00000000000E+00  0.00000000000E+00 -0.75832611146E+03  0.11023095902E+04  0.80001746307E+03 0.  0.
        3    1    3    3  502    0 -0.19350195009E+03  0.15776760672E+03  0.51454931289E+02  0.25491418669E+03  0.10100000352E+00 0.  1.
       -3    1    3    3    0  502  0.19350195009E+03 -0.15776760672E+03 -0.80978104275E+03  0.84739540347E+03  0.10100000352E+00 0. -1.
</event>
<event>
 5   0  0.2478000E-03  0.8006611E+03  0.7818609E-02  0.9559061E-01
       -3   -1    0    0    0  501  0.00000000000E+00  0.00000000000E+00  0.72458219027E+03  0.72458219731E+03  0.10100000352E+00 0.  1.
        3   -1    0    0  501    0  0.00000000000E+00  0.00000000000E+00 -0.22118201524E+03  0.22118203830E+03  0.10100000352E+00 0. -1.
    10030    2    1    2    0    0  0.00000000000E+00  0.00000000000E+00  0.50340017504E+03  0.94576423561E+03  0.80066113502E+03 0.  0.
        5    1    3    3  502    0 -0.28845300462E+03 -0.26686964568E+03  0.16160141941E+03  0.42492546689E+03  0.46999998093E+01 0. -1.
       -5    1    3    3    0  502  0.28845300462E+03  0.26686964568E+03  0.34179875562E+03  0.52083876872E+03  0.46999998093E+01 0.  1.
</event>
<event>
 5   0  0.2478000E-03  0.7991979E+03  0.7818609E-02  0.9561179E-01
       -4   -1    0    0    0  501  0.00000000000E+00  0.00000000000E+00  0.32284383951E+03  0.32284633746E+03  0.12699999809E+01 0. -1.
        4   -1    0    0  501    0  0.00000000000E+00  0.00000000000E+00 -0.49459709772E+03  0.49459872824E+03  0.12699999809E+01 0.  1.
    10030    2    1    2    0    0  0.00000000000E+00  0.00000000000E+00 -0.17175325821E+03  0.81744506570E+03  0.79919788146E+03 0.  0.
        2    1    3    3  502    0  0.17015610983E+03 -0.35237567334E+03 -0.30487388278E+01  0.39131957744E+03  0.25500000920E-02 0. -1.
       -2    1    3    3    0  502 -0.17015610983E+03  0.35237567334E+03 -0.16870451939E+03  0.42612548826E+03  0.25500000920E-02 0.  1.
</event>
<event>
 5   0  0.6256781E-03  0.8007247E+03  0.7818609E-02  0.9558969E-01
       -2   -1    0    0    0  501  0.00000000000E+00  0.00000000000E+00  0.10444655748E+03  0.10444655751E+03  0.25500000920E-02 0.  1.
        2   -1    0    0  501    0  0.00000000000E+00  0.00000000000E+00 -0.15346605806E+04  0.15346605806E+04  0.25500000920E-02 0. -1.
    10030    2    1    2    0    0  0.00000000000E+00  0.00000000000E+00 -0.14302140231E+04  0.16391071381E+04  0.80072470818E+03 0.  0.
        1    1    3    3  502    0 -0.27475502438E+03 -0.19163632396E+03 -0.26627408562E+03  0.42792136284E+03  0.50400001928E-02 0. -1.
       -1    1    3    3    0  502  0.27475502438E+03  0.19163632396E+03 -0.11639399375E+04  0.12111857753E+04  0.50400001928E-02 0.  1.
</event>
<event>
 5   0  0.3753450E-03  0.7985230E+03  0.7818609E-02  0.9562158E-01
        1   -1    0    0  501    0  0.00000000000E+00  0.00000000000E+00  0.69289644891E+03  0.69289644893E+03  0.50400001928E-02 0.  1.
       -1   -1    0    0    0  501  0.00000000000E+00  0.00000000000E+00 -0.23006284784E+03  0.23006284789E+03  0.50400001928E-02 0. -1.
    10030    2    1    2    0    0  0.00000000000E+00  0.00000000000E+00  0.46283360108E+03  0.92295929682E+03  0.79852296229E+03 0.  0.
        5    1    3    3  502    0  0.18315342384E+03 -0.25010434859E+03  0.52219620506E+03  0.60729591504E+03  0.46999998093E+01 0. -1.
       -5    1    3    3    0  502 -0.18315342384E+03  0.25010434859E+03 -0.59362603989E+02  0.31566338178E+03  0.46999998093E+01 0.  1.
</event>
<event>
 5   0  0.3671128E-03  0.8000741E+03  0.7818609E-02  0.9559910E-01
        1   -1    0    0  501    0  0.00000000000E+00  0.00000000000E+00  0.45170419198E+03  0.45170419201E+03  0.50400001928E-02 0.  1.
       -1   -1    0    0    0  501  0.00000000000E+00  0.00000000000E+00 -0.35427970425E+03  0.35427970429E+03  0.50400001928E-02 0. -1.
    10030    2    1    2    0    0  0.00000000000E+00  0.00000000000E+00  0.97424487725E+02  0.80598389630E+03  0.80007406550E+03 0.  0.
        2    1    3    3  502    0 -0.14969052268E+03  0.18751862618E+03 -0.27374454472E+03  0.36401451003E+03  0.25500000920E-02 0. -1.
       -2    1    3    3    0  502  0.14969052268E+03 -0.18751862618E+03  0.37116903244E+03  0.44196938626E+03  0.25500000920E-02 0.  1.
</event>
<event>
 5   0  0.3714448E-03  0.8100278E+03  0.7818609E-02  0.9545615E-01
       -1   -1    0    0    0  501  0.00000000000E+00  0.00000000000E+00  0.18271102681E+03  0.18271102688E+03  0.50400001928E-02 0.  1.
        1   -1    0    0  501    0  0.00000000000E+00  0.00000000000E+00 -0.89779075577E+03  0.89779075578E+03  0.50400001928E-02 0. -1.
    10030    2    1    2    0    0  0.00000000000E+00  0.00000000000E+00 -0.71507972896E+03  0.10805017827E+04  0.81002782888E+03 0.  0.
        1    1    3    3  502    0  0.11471195055E+03 -0.41074735909E+01  0.16055992686E+03  0.19737069964E+03  0.50400001928E-02 0.  1.
       -1    1    3    3    0  502 -0.11471195055E+03  0.41074735909E+01 -0.87563965582E+03  0.88313108302E+03  0.50400001928E-02 0. -1.
</event>
<event>
 5   0  0.5813850E-03  0.8007005E+03  0.7818609E-02  0.9559004E-01
       -2   -1    0    0    0  501  0.00000000000E+00  0.00000000000E+00  0.70631454931E+02  0.70631454977E+02  0.25500000920E-02 0. -1.
        2   -1    0    0  501    0  0.00000000000E+00  0.00000000000E+00 -0.22692487193E+04  0.22692487193E+04  0.25500000920E-02 0.  1.
    10030    2    1    2    0    0  0.00000000000E+00  0.00000000000E+00 -0.21986172644E+04  0.23398801743E+04  0.80070054003E+03 0.  0.
        5    1    3    3  502    0 -0.29115247605E+03 -0.27295016554E+03 -0.10075146533E+04  0.10836878812E+04  0.46999998093E+01 0. -1.
       -5    1    3    3    0  502  0.29115247605E+03  0.27295016554E+03 -0.11911026111E+04  0.12561922931E+04  0.46999998093E+01 0.  1.
</event>
<event>
 5   0  0.5813850E-03  0.8031528E+03  0.7818609E-02  0.9555465E-01
       -2   -1    0    0    0  501  0.00000000000E+00  0.00000000000E+00  0.47498984045E+03  0.47498984046E+03  0.25500000920E-02 0.  1.
        2   -1    0    0  501    0  0.00000000000E+00  0.00000000000E+00 -0.33950958432E+03  0.33950958433E+03  0.25500000920E-02 0. -1.
    10030    2    1    2    0    0  0.00000000000E+00  0.00000000000E+00  0.13548025613E+03  0.81449942479E+03  0.80315279567E+03 0.  0.
        5    1    3    3  502    0  0.54495163042E+02  0.92882400321E+02  0.46004455078E+03  0.47250390663E+03  0.46999998093E+01 0.  1.
       -5    1    3    3    0  502 -0.54495163042E+02 -0.92882400321E+02 -0.32456429465E+03  0.34199551816E+03  0.46999998093E+01 0. -1.
</event>
<event>
 5   0  0.6337108E-03  0.7973428E+03  0.7818609E-02  0.9563871E-01
        2   -1    0    0  501    0  0.00000000000E+00  0.00000000000E+00  0.68191313605E+03  0.68191313605E+03  0.25500000920E-02 0.  1.
       -2   -1    0    0    0  501  0.00000000000E+00  0.00000000000E+00 -0.23307790862E+03  0.23307790863E+03  0.25500000920E-02 0. -1.
    10030    2    1    2    0    0  0.00000000000E+00  0.00000000000E+00  0.44883522743E+03  0.91499104469E+03  0.79734280612E+03 0.  0.
        4    1    3    3  502    0 -0.26182771725E+03  0.30023829275E+03  0.24221348103E+03  0.46622501997E+03  0.12699999809E+01 0. -1.
       -4    1    3    3    0  502  0.26182771725E+03 -0.30023829275E+03  0.20662174640E+03  0.44876602471E+03  0.12699999809E+01 0.  1.
</event>
<event>
 5   0  0.3753450E-03  0.8018849E+03  0.7818609E-02  0.9557293E-01
       -1   -1    0    0    0  501  0.00000000000E+00  0.00000000000E+00  0.23371768040E+03  0.23371768046E+03  0.50400001928E-02 0.  1.
        1   -1    0    0  501    0  0.00000000000E+00  0.00000000000E+00 -0.68781632964E+03  0.68781632966E+03  0.50400001928E-02 0. -1.
    10030    2    1    2    0    0  0.00000000000E+00  0.00000000000E+00 -0.45409864924E+03  0.92153401012E+03  0.80188487239E+03 0.  0.
        5    1    3    3  502    0 -0.45324502815E+02  0.13369280873E+03  0.20417959275E+03  0.24827298233E+03  0.46999998093E+01 0.  1.
       -5    1    3    3    0  502  0.45324502815E+02 -0.13369280873E+03 -0.65827824199E+03  0.67326102779E+03  0.46999998093E+01 0. -1.
</event>
<event>
 5   0  0.6153659E-03  0.7939879E+03  0.7818609E-02  0.9568760E-01
       -2   -1    0    0    0  501  0.00000000000E+00  0.00000000000E+00  0.10165018234E+03  0.10165018237E+03  0.25500000920E-02 0. -1.
        2   -1    0    0  501    0  0.00000000000E+00  0.00000000000E+00 -0.15504567055E+04  0.15504567055E+04  0.25500000920E-02 0.  1.
    10030    2    1    2    0    0  0.00000000000E+00  0.00000000000E+00 -0.14488065232E+04  0.16521068879E+04  0.79398792650E+03 0.  0.
        2    1    3    3  502    0  0.20665129020E+03 -0.75594091140E+02 -0.14119555022E+04  0.14289987973E+04  0.25500000920E-02 0.  1.
       -2    1    3    3    0  502 -0.20665129020E+03  0.75594091140E+02 -0.36851020981E+02  0.22310809064E+03  0.25500000920E-02 0. -1.
</event>
<event>
 5   0  0.3671128E-03  0.7994129E+03  0.7818609E-02  0.9560867E-01
        1   -1    0    0  501    0  0.00000000000E+00  0.00000000000E+00  0.13003607868E+03  0.13003607878E+03  0.50400001928E-02 0. -1.
       -1   -1    0    0    0  501  0.00000000000E+00  0.00000000000E+00 -0.12286224357E+04  0.12286224357E+04  0.50400001928E-02 0.  1.
    10030    2    1    2    0    0  0.00000000000E+00  0.00000000000E+00 -0.10985863570E+04  0.13586585145E+04  0.79941289403E+03 0.  0.
        2    1    3    3  502    0  0.16431494332E+03 -0.14117074371E+03 -0.11201987553E+04  0.11409530362E+04  0.25500000920E-02 0.  1.
       -2    1    3    3    0  502 -0.16431494332E+03  0.14117074371E+03  0.21612398333E+02  0.21770547822E+03  0.25500000920E-02 0. -1.
</event>
<event>
 5   0  0.6153659E-03  0.8006510E+03  0.7818609E-02  0.9559075E-01
       -2   -1    0    0    0  501  0.00000000000E+00  0.00000000000E+00  0.30179887628E+03  0.30179887629E+03  0.25500000920E-02 0. -1.
        2   -1    0    0  501    0  0.00000000000E+00  0.00000000000E+00 -0.53101760619E+03  0.53101760619E+03  0.25500000920E-02 0.  1.
    10030    2    1    2    0    0  0.00000000000E+00  0.00000000000E+00 -0.22921872991E+03  0.83281648249E+03  0.80065102720E+03 0.  0.
        2    1    3    3  502    0  0.20700579046E+03  0.18875097158E+03 -0.41207405115E+03  0.49828039315E+03  0.25500000920E-02 0.  1.
       -2    1    3    3    0  502 -0.20700579046E+03 -0.18875097158E+03  0.18285532124E+03  0.33453608934E+03  0.25500000920E-02 0. -1.
</event>
<event>
 5   0  0.3753450E-03  0.8051126E+03  0.7818609E-02  0.9552646E-01
        1   -1    0    0  501    0  0.00000000000E+00  0.00000000000E+00  0.22209973541E+04  0.22209973541E+04  0.50400001928E-02 0.  1.
       -1   -1    0    0    0  501  0.00000000000E+00  0.00000000000E+00 -0.72963429202E+02  0.72963429376E+02  0.50400001928E-02 0. -1.
    10030    2    1    2    0    0  0.00000000000E+00  0.00000000000E+00  0.21480339249E+04  0.22939607835E+04  0.80511262171E+03 0.  0.
        5    1    3    3  502    0  0.89902492752E+02  0.71768576365E+02  0.21730871552E+04  0.21761348903E+04  0.46999998093E+01 0.  1.
       -5    1    3    3    0  502 -0.89902492752E+02 -0.71768576365E+02 -0.25053230291E+02  0.11782589318E+03  0.46999998093E+01 0. -1.
</event>
<event>
 5   0  0.6337108E-03  0.7985243E+03  0.7818609E-02  0.9562156E-01
       -2   -1    0    0    0  501  0.00000000000E+00  0.00000000000E+00  0.10674756682E+03  0.10674756686E+03  0.25500000920E-02 0.  1.
        2   -1    0    0  501    0  0.00000000000E+00  0.00000000000E+00 -0.14933384831E+04  0.14933384831E+04  0.25500000920E-02 0. -1.
    10030    2    1    2    0    0  0.00000000000E+00  0.00000000000E+00 -0.13865909163E+04  0.16000860499E+04  0.79852426273E+03 0.  0.
        4    1    3    3  502    0 -0.59214776832E+02 -0.88613664543E+02 -0.14643040731E+04  0.14681780555E+04  0.12699999809E+01 0. -1.
       -4    1    3    3    0  502  0.59214776832E+02  0.88613664543E+02  0.77713156853E+02  0.13190799440E+03  0.12699999809E+01 0.  1.
</event>
<event>
 5   0  0.3714448E-03  0.7960539E+03  0.7818609E-02  0.9565747E-01
        1   -1    0    0  501    0  0.00000000000E+00  0.00000000000E+00  0.46383428869E+03  0.46383428872E+03  0.50400001928E-02 0.  1.
       -1   -1    0    0    0  501  0.00000000000E+00  0.00000000000E+00 -0.34155616003E+03  0.34155616006E+03  0.50400001928E-02 0. -1.
    10030    2    1    2    0    0  0.00000000000E+00  0.00000000000E+00  0.12227812866E+03  0.80539044878E+03  0.79605391416E+03 0.  0.
        1    1    3    3  502    0 -0.36725292841E+03 -0.10741024147E+02 -0.93742580157E+02  0.37918037184E+03  0.50400001928E-02 0. -1.
       -1    1    3    3    0  502  0.36725292841E+03  0.10741024147E+02  0.21602070882E+03  0.42621007695E+03  0.50400001928E-02 0.  1.
</event>
<event>
 5   0  0.3753450E-03  0.7986494E+03  0.7818609E-02  0.9561974E-01
       -1   -1    0    0    0  501  0.00000000000E+00  0.00000000000E+00  0.21281282499E+03  0.21281282505E+03  0.50400001928E-02 0.  1.
        1   -1    0    0  501    0  0.00000000000E+00  0.00000000000E+00 -0.74929787495E+03  0.74929787497E+03  0.50400001928E-02 0. -1.
    10030    2    1    2    0    0  0.00000000000E+00  0.00000000000E+00 -0.53648504996E+03  0.96211070002E+03  0.79864935376E+03 0.  0.
        5    1    3    3  502    0  0.11310688123E+03 -0.27279034536E+03  0.55521667528E+02  0.30052035649E+03  0.46999998093E+01 0.  1.
       -5    1    3    3    0  502 -0.11310688123E+03  0.27279034536E+03 -0.59200671749E+03  0.66159034353E+03  0.46999998093E+01 0. -1.
</event>
<event>
 5   0  0.3860515E-03  0.7955242E+03  0.7818609E-02  0.9566518E-01
       -1   -1    0    0    0  501  0.00000000000E+00  0.00000000000E+00  0.89487936646E+02  0.89487936788E+02  0.50400001928E-02 0.  1.
        1   -1    0    0  501    0  0.00000000000E+00  0.00000000000E+00 -0.17680000389E+04  0.17680000389E+04  0.50400001928E-02 0. -1.
    10030    2    1    2    0    0  0.00000000000E+00  0.00000000000E+00 -0.16785121023E+04  0.18574879757E+04  0.79552416836E+03 0.  0.
        4    1    3    3  502    0 -0.95223581620E+02  0.38549631875E+03 -0.78509184526E+03  0.87979870462E+03  0.12699999809E+01 0. -1.
       -4    1    3    3    0  502  0.95223581620E+02 -0.38549631875E+03 -0.89342025703E+03  0.97768927110E+03  0.12699999809E+01 0.  1.
</event>
<event>
 5   0  0.6153659E-03  0.8006189E+03  0.7818609E-02  0.9559122E-01
        2   -1    0    0  501    0  0.00000000000E+00  0.00000000000E+00  0.86193167714E+03  0.86193167715E+03  0.25500000920E-02 0.  1.
       -2   -1    0    0    0  501  0.00000000000E+00  0.00000000000E+00 -0.18591689309E+03  0.18591689310E+03  0.25500000920E-02 0. -1.
    10030    2    1    2    0    0  0.00000000000E+00  0.00000000000E+00  0.67601478406E+03  0.10478485703E+04  0.80061890929E+03 0.  0.
        2    1    3    3  502    0 -0.24058348933E+03  0.24870398995E+02 -0.79474009027E+02  0.25458804018E+03  0.25500000920E-02 0. -1.
       -2    1    3    3    0  502  0.24058348933E+03 -0.24870398995E+02  0.75548879309E+03  0.79326053007E+03  0.25500000920E-02 0.  1.
</event>
<event>
 5   0  0.6536209E-03  0.8018595E+03  0.7818609E-02  0.9557329E-01
        2   -1    0    0  501    0  0.00000000000E+00  0.00000000000E+00  0.61423915311E+03  0.61423915312E+03  0.25500000920E-02 0.  1.
       -2   -1    0    0    0  501  0.00000000000E+00  0.00000000000E+00 -0.26169720494E+03  0.26169720495E+03  0.25500000920E-02 0. -1.
    10030    2    1    2    0    0  0.00000000000E+00  0.00000000000E+00  0.35254194817E+03  0.87593635807E+03  0.80185951274E+03 0.  0.
        3    1    3    3  502    0 -0.35548271076E+03  0.74392412619E+02  0.36179087220E+03  0.51263518618E+03  0.10100000352E+00 0.  1.
       -3    1    3    3    0  502  0.35548271076E+03 -0.74392412619E+02 -0.92489240262E+01  0.36330117189E+03  0.10100000352E+00 0. -1.
</event>
<event>
 5   0  0.3627496E-03  0.7997752E+03  0.7818609E-02  0.9560342E-01
        1   -1    0    0  501    0  0.00000000000E+00  0.00000000000E+00  0.18678569070E+04  0.18678569070E+04  0.50400001928E-02 0. -1.
       -1   -1    0    0    0  501  0.00000000000E+00  0.00000000000E+00 -0.85611541116E+02  0.85611541264E+02  0.50400001928E-02 0.  1.
    10030    2    1    2    0    0  0.00000000000E+00  0.00000000000E+00  0.17822453659E+04  0.19534684483E+04  0.79977523980E+03 0.  0.
        3    1    3    3  502    0 -0.33956931879E+03  0.24161867871E+02  0.37866449699E+03  0.50919341081E+03  0.10100000352E+00 0.  1.
       -3    1    3    3    0  502  0.33956931879E+03 -0.24161867871E+02  0.14035808689E+04  0.14442750375E+04  0.10100000352E+00 0. -1.
</event>
<event>
 5   0  0.5813850E-03  0.7955166E+03  0.7818609E-02  0.9566529E-01
       -2   -1    0    0    0  501  0.00000000000E+00  0.00000000000E+00  0.60771054052E+02  0.60771054105E+02  0.25500000920E-02 0.  1.
        2   -1    0    0  501    0  0.00000000000E+00  0.00000000000E+00 -0.26034052280E+04  0.26034052280E+04  0.25500000920E-02 0. -1.
    10030    2    1    2    0    0  0.00000000000E+00  0.00000000000E+00 -0.25426341739E+04  0.26641762821E+04  0.79551663691E+03 0.  0.
        5    1    3    3  502    0  0.64448536983E+02  0.13791524624E+02 -0.25848969153E+04  0.25857412811E+04  0.46999998093E+01 0. -1.
       -5    1    3    3    0  502 -0.64448536983E+02 -0.13791524624E+02  0.42262741381E+02  0.78435000975E+02  0.46999998093E+01 0.  1.
</event>
<event>
 5   0  0.5813850E-03  0.8023665E+03  0.7818609E-02  0.9556598E-01
       -2   -1    0    0    0  501  0.00000000000E+00  0.00000000000E+00  0.49940421786E+03  0.49940421787E+03  0.25500000920E-02 0.  1.
        2   -1    0    0  501    0  0.00000000000E+00  0.00000000000E+00 -0.32228001540E+03  0.32228001541E+03  0.25500000920E-02 0. -1.
    10030    2    1    2    0    0  0.00000000000E+00  0.00000000000E+00  0.17712420246E+03  0.82168423327E+03  0.80236649737E+03 0.  0.
        5    1    3    3  502    0 -0.94110485668E+02 -0.77728733796E+00 -0.31078618834E+03  0.32475765203E+03  0.46999998093E+01 0. -1.
       -5    1    3    3    0  502  0.94110485668E+02  0.77728733796E+00  0.48791039081E+03  0.49692658124E+03  0.46999998093E+01 0.  1.
</event>
<event>
 5   0  0.5813850E-03  0.8020344E+03  0.7818609E-02  0.9557077E-01
        2   -1    0    0  501    0  0.00000000000E+00  0.00000000000E+00  0.14770204672E+04  0.14770204672E+04  0.25500000920E-02 0. -1.
       -2   -1    0    0    0  501  0.00000000000E+00  0.00000000000E+00 -0.10887782797E+03  0.10887782800E+03  0.25500000920E-02 0.  1.
    10030    2    1    2    0    0  0.00000000000E+00  0.00000000000E+00  0.13681426392E+04  0.15858982952E+04  0.80203436423E+03 0.  0.
        5    1    3    3  502    0 -0.86828277359E+02 -0.59619173000E+02  0.14491250600E+04  0.14529553073E+04  0.46999998093E+01 0. -1.
       -5    1    3    3    0  502  0.86828277359E+02  0.59619173000E+02 -0.80982420807E+02  0.13294298784E+03  0.46999998093E+01 0.  1.
</event>
<event>
 5   0  0.3860515E-03  0.7914299E+03  0.7818609E-02  0.9572506E-01
        1   -1    0    0  501    0  0.00000000000E+00  0.00000000000E+00  0.46591978004E+03  0.46591978007E+03  0.50400001928E-02 0. -1.
       -1   -1    0    0    0  501  0.00000000000E+00  0.00000000000E+00 -0.33608855323E+03  0.33608855326E+03  0.50400001928E-02 0.  1.
    10030    2    1    2    0    0  0.00000000000E+00  0.00000000000E+00  0.12983122681E+03  0.80200833333E+03  0.79142985746E+03 0.  0.
        4    1    3    3  502    0  0.29723087684E+03  0.23731975489E+03  0.17556218046E+03  0.41891592512E+03  0.12699999809E+01 0. -1.
       -4    1    3    3    0  502 -0.29723087684E+03 -0.23731975489E+03 -0.45730953647E+02  0.38309240821E+03  0.12699999809E+01 0.  1.
</event>
<event>
 5   0  0.6337108E-03  0.8000692E+03  0.7818609E-02  0.9559917E-01
        2   -1    0    0  501    0  0.00000000000E+00  0.00000000000E+00  0.49421708490E+03  0.49421708491E+03  0.25500000920E-02 0.  1.
       -2   -1    0    0    0  501  0.00000000000E+00  0.00000000000E+00 -0.32380042246E+03  0.32380042247E+03  0.25500000920E-02 0. -1.
    10030    2    1    2    0    0  0.00000000000E+00  0.00000000000E+00  0.17041666244E+03  0.81801750737E+03  0.80006924921E+03 0.  0.
        4    1    3    3  502    0  0.18030220034E+03 -0.89135802661E+02 -0.26834081337E+03  0.33535426012E+03  0.12699999809E+01 0. -1.
       -4    1    3    3    0  502 -0.18030220034E+03  0.89135802661E+02  0.43875747581E+03  0.48266324725E+03  0.12699999809E+01 0.  1.
</event>
<event>
 5   0  0.3714448E-03  0.7953046E+03  0.7818609E-02  0.9566838E-01
       -1   -1    0    0    0  501  0.00000000000E+00  0.00000000000E+00  0.13719828612E+03  0.13719828621E+03  0.50400001928E-02 0. -1.
        1   -1    0    0  501    0  0.00000000000E+00  0.00000000000E+00 -0.11525460919E+04  0.11525460920E+04  0.50400001928E-02 0.  1.
    10030    2    1    2    0    0  0.00000000000E+00  0.00000000000E+00 -0.10153478058E+04  0.12897443782E+04  0.79530459209E+03 0.  0.
        1    1    3    3  502    0 -0.12953554941E+03 -0.14618684258E+02 -0.11169108901E+04  0.11244923748E+04  0.50400001928E-02 0.  1.
       -1    1    3    3    0  502  0.12953554941E+03  0.14618684258E+02  0.10156308431E+03  0.16525200335E+03  0.50400001928E-02 0. -1.
</event>
<event>
 5   0  0.2478000E-03  0.8004471E+03  0.7818609E-02  0.9559370E-01
        3   -1    0    0  501    0  0.00000000000E+00  0.00000000000E+00  0.11553997958E+03  0.11554002373E+03  0.10100000352E+00 0.  1.
       -3   -1    0    0    0  501  0.00000000000E+00  0.00000000000E+00 -0.13863499022E+04  0.13863499059E+04  0.10100000352E+00 0. -1.
    10030    2    1    2    0    0  0.00000000000E+00  0.00000000000E+00 -0.12708099226E+04  0.15018899296E+04  0.80044706335E+03 0.  0.
        1    1    3    3  502    0 -0.16010942661E+03  0.12206367902E+03  0.13605213385E+02  0.20179115957E+03  0.50400001928E-02 0.  1.
       -1    1    3    3    0  502  0.16010942661E+03 -0.12206367902E+03 -0.12844151360E+04  0.13000987700E+04  0.50400001928E-02 0. -1.
</event>
<event>
 5   0  0.3714448E-03  0.8019774E+03  0.7818609E-02  0.9557159E-01
       -1   -1    0    0    0  501  0.00000000000E+00  0.00000000000E+00  0.26674890191E+03  0.26674890196E+03  0.50400001928E-02 0. -1.
        1   -1    0    0  501    0  0.00000000000E+00  0.00000000000E+00 -0.60278381742E+03  0.60278381744E+03  0.50400001928E-02 0.  1.
    10030    2    1    2    0    0  0.00000000000E+00  0.00000000000E+00 -0.33603491551E+03  0.86953271940E+03  0.80197735982E+03 0.  0.
        1    1    3    3  502    0 -0.23195837008E+03 -0.26982368395E+03 -0.36847628951E+03  0.51223459647E+03  0.50400001928E-02 0.  1.
       -1    1    3    3    0  502  0.23195837008E+03  0.26982368395E+03  0.32441373998E+02  0.35729812292E+03  0.50400001928E-02 0. -1.
</event>
<event>
 5   0  0.3671128E-03  0.8121716E+03  0.7818609E-02  0.9542564E-01
        1   -1    0    0  501    0  0.00000000000E+00  0.00000000000E+00  0.75462632783E+03  0.75462632784E+03  0.50400001928E-02 0. -1.
       -1   -1    0    0    0  501  0.00000000000E+00  0.00000000000E+00 -0.21852624748E+03  0.21852624754E+03  0.50400001928E-02 0.  1.
    10030    2    1    2    0    0  0.00000000000E+00  0.00000000000E+00  0.53610008035E+03  0.97315257538E+03  0.81217155750E+03 0.  0.
        2    1    3    3  502    0  0.26825300069E+03 -0.28337558593E+02  0.63176759561E+03  0.68694467352E+03  0.25500000920E-02 0. -1.
       -2    1    3    3    0  502 -0.26825300069E+03  0.28337558593E+02 -0.95667515259E+02  0.28620790186E+03  0.25500000920E-02 0.  1.
</event>
<event>
 5   0  0.6337108E-03  0.8059649E+03  0.7818609E-02  0.9551423E-01
       -2   -1    0    0    0  501  0.00000000000E+00  0.00000000000E+00  0.16891505329E+03  0.16891505330E+03  0.25500000920E-02 0.  1.
        2   -1    0    0  501    0  0.00000000000E+00  0.00000000000E+00 -0.96139962919E+03  0.96139962919E+03  0.25500000920E-02 0. -1.
    10030    2    1    2    0    0  0.00000000000E+00  0.00000000000E+00 -0.79248457590E+03  0.11303146825E+04  0.80596493622E+03 0.  0.
        4    1    3    3  502    0  0.38509401388E+03 -0.26167686361E+01 -0.22977708866E+03  0.44844550435E+03  0.12699999809E+01 0.  1.
       -4    1    3    3    0  502 -0.38509401388E+03  0.26167686361E+01 -0.56270748724E+03  0.68186917814E+03  0.12699999809E+01 0. -1.
</event>
<event>
 5   0  0.3860515E-03  0.8040486E+03  0.7818609E-02  0.9554175E-01
        1   -1    0    0  501    0  0.00000000000E+00  0.00000000000E+00  0.15941022154E+04  0.15941022154E+04  0.50400001928E-02 0.  1.
       -1   -1    0    0    0  501  0.00000000000E+00  0.00000000000E+00 -0.10138843981E+03  0.10138843993E+03  0.50400001928E-02 0. -1.
    10030    2    1    2    0    0  0.00000000000E+00  0.00000000000E+00  0.14927137756E+04  0.16954906553E+04  0.80404859711E+03 0.  0.
        4    1    3    3  502    0 -0.33693001930E+03 -0.20113556192E+03  0.56198713344E+03  0.68542578244E+03  0.12699999809E+01 0. -1.
       -4    1    3    3    0  502  0.33693001930E+03  0.20113556192E+03  0.93072664214E+03  0.10100648729E+04  0.12699999809E+01 0.  1.
</event>
<event>
 5   0  0.3714448E-03  0.8012140E+03  0.7818609E-02  0.9558262E-01
        1   -1    0    0  501    0  0.00000000000E+00  0.00000000000E+00  0.58383187853E+03  0.58383187855E+03  0.50400001928E-02 0. -1.
       -1   -1    0    0    0  501  0.00000000000E+00  0.00000000000E+00 -0.27488387443E+03  0.27488387447E+03  0.50400001928E-02 0.  1.
    10030    2    1    2    0    0  0.00000000000E+00  0.00000000000E+00  0.30894800410E+03  0.85871575302E+03  0.80121400091E+03 0.  0.
        1    1    3    3  502    0  0.51456341070E+02  0.38477032324E+03  0.48428435995E+02  0.39120489532E+03  0.50400001928E-02 0.  1.
       -1    1    3    3    0  502 -0.51456341070E+02 -0.38477032324E+03  0.26051956811E+03  0.46751085771E+03  0.50400001928E-02 0. -1.
</event>
<event>
 5   0  0.6256781E-03  0.7922025E+03  0.7818609E-02  0.9571373E-01
        2   -1    0    0  501    0  0.00000000000E+00  0.00000000000E+00  0.18871434862E+03  0.18871434864E+03  0.25500000920E-02 0.  1.
       -2   -1    0    0    0  501  0.00000000000E+00  0.00000000000E+00 -0.83139525542E+03  0.83139525542E+03  0.25500000920E-02 0. -1.
    10030    2    1    2    0    0  0.00000000000E+00  0.00000000000E+00 -0.64268090679E+03  0.10201096041E+04  0.79220253493E+03 0.  0.
        1    1    3    3  502    0 -0.18590133828E+02 -0.94276086638E+02 -0.81615894798E+03  0.82179620465E+03  0.50400001928E-02 0. -1.
       -1    1    3    3    0  502  0.18590133828E+02  0.94276086638E+02  0.17347804119E+03  0.19831339941E+03  0.50400001928E-02 0.  1.
</event>
<event>
 5   0  0.5813850E-03  0.8062916E+03  0.7818609E-02  0.9550955E-01
       -2   -1    0    0    0  501  0.00000000000E+00  0.00000000000E+00  0.12039252361E+03  0.12039252364E+03  0.25500000920E-02 0.  1.
        2   -1    0    0  501    0  0.00000000000E+00  0.00000000000E+00 -0.13499720154E+04  0.13499720154E+04  0.25500000920E-02 0. -1.
    10030    2    1    2    0    0  0.00000000000E+00  0.00000000000E+00 -0.12295794917E+04  0.14703645390E+04  0.80629160421E+03 0.  0.
        5    1    3    3  502    0  0.18794598823E+03  0.35014073781E+03 -0.73823395122E+03  0.83841140706E+03  0.46999998093E+01 0. -1.
       -5    1    3    3    0  502 -0.18794598823E+03 -0.35014073781E+03 -0.49134554053E+03  0.63195313194E+03  0.46999998093E+01 0.  1.
</event>
<event>
 5   0  0.3860515E-03  0.7905937E+03  0.7818609E-02  0.9573733E-01
        1   -1    0    0  501    0  0.00000000000E+00  0.00000000000E+00  0.47576629154E+03  0.47576629156E+03  0.50400001928E-02 0. -1.
       -1   -1    0    0    0  501  0.00000000000E+00  0.00000000000E+00 -0.32843776693E+03  0.32843776697E+03  0.50400001928E-02 0.  1.
    10030    2    1    2    0    0  0.00000000000E+00  0.00000000000E+00  0.14732852461E+03  0.80420405853E+03  0.79059374751E+03 0.  0.
        4    1    3    3  502    0  0.15721961277E+03  0.19525087060E+03  0.38456808886E+03  0.45905896896E+03  0.12699999809E+01 0. -1.
       -4    1    3    3    0  502 -0.15721961277E+03 -0.19525087060E+03 -0.23723956426E+03  0.34514508957E+03  0.12699999809E+01 0.  1.
</event>
<event>
 5   0  0.6337108E-03  0.8010168E+03  0.7818609E-02  0.9558547E-01
       -2   -1    0    0    0  501  0.00000000000E+00  0.00000000000E+00  0.71618943013E+02  0.71618943059E+02  0.25500000920E-02 0. -1.
        2   -1    0    0  501    0  0.00000000000E+00  0.00000000000E+00 -0.22397283498E+04  0.22397283498E+04  0.25500000920E-02 0.  1.
    10030    2    1    2    0    0  0.00000000000E+00  0.00000000000E+00 -0.21681094068E+04  0.23113472929E+04  0.80101679659E+03 0.  0.
        4    1    3    3  502    0  0.52009851794E+02  0.35013409761E+03 -0.16247057651E+04  0.16628196977E+04  0.12699999809E+01 0.  1.
       -4    1    3    3    0  502 -0.52009851794E+02 -0.35013409761E+03 -0.54340364170E+03  0.64852759518E+03  0.12699999809E+01 0. -1.
</event>
<event>
 5   0  0.6153659E-03  0.7998579E+03  0.7818609E-02  0.9560223E-01
        2   -1    0    0  501    0  0.00000000000E+00  0.00000000000E+00  0.72038460797E+03  0.72038460798E+03  0.25500000920E-02 0. -1.
       -2   -1    0    0    0  501  0.00000000000E+00  0.00000000000E+00 -0.22202467320E+03  0.22202467321E+03  0.25500000920E-02 0.  1.
    10030    2    1    2    0    0  0.00000000000E+00  0.00000000000E+00  0.49835993478E+03  0.94240928119E+03  0.79985788030E+03 0.  0.
        2    1    3    3  502    0  0.16786721733E+03 -0.92216942004E+02  0.66283416773E+03  0.68995108592E+03  0.25500000920E-02 0. -1.
       -2    1    3    3    0  502 -0.16786721733E+03  0.92216942004E+02 -0.16447423296E+03  0.25245819527E+03  0.25500000920E-02 0.  1.
</event>
<event>
 5   0  0.3714448E-03  0.8012997E+03  0.7818609E-02  0.9558138E-01
       -1   -1    0    0    0  501  0.00000000000E+00  0.00000000000E+00  0.29003165330E+03  0.29003165335E+03  0.50400001928E-02 0. -1.
        1   -1    0    0  501    0  0.00000000000E+00  0.00000000000E+00 -0.55345785975E+03  0.55345785977E+03  0.50400001928E-02 0.  1.
    10030    2    1    2    0    0  0.00000000000E+00  0.00000000000E+00 -0.26342620644E+03  0.84348951312E+03  0.80129968957E+03 0.  0.
        1    1    3    3  502    0 -0.35709364982E+03  0.18074560382E+03 -0.11243347536E+03  0.41572362749E+03  0.50400001928E-02 0. -1.
       -1    1    3    3    0  502  0.35709364982E+03 -0.18074560382E+03 -0.15099273108E+03  0.42776588563E+03  0.50400001928E-02 0.  1.
</event>
<event>
 5   0  0.6153659E-03  0.8011343E+03  0.7818609E-02  0.9558377E-01
       -2   -1    0    0    0  501  0.00000000000E+00  0.00000000000E+00  0.99686293475E+03  0.99686293475E+03  0.25500000920E-02 0.  1.
        2   -1    0    0  501    0  0.00000000000E+00  0.00000000000E+00 -0.16095899774E+03  0.16095899776E+03  0.25500000920E-02 0. -1.
    10030    2    1    2    0    0  0.00000000000E+00  0.00000000000E+00  0.83590393701E+03  0.11578219325E+04  0.80113434297E+03 0.  0.
        2    1    3    3  502    0 -0.22368083678E+03 -0.17760194201E+03  0.12055079093E+02  0.28586866125E+03  0.25500000920E-02 0. -1.
       -2    1    3    3    0  502  0.22368083678E+03  0.17760194201E+03  0.82384885792E+03  0.87195327125E+03  0.25500000920E-02 0.  1.
</event>
<event>
 5   0  0.3671128E-03  0.8009815E+03  0.7818609E-02  0.9558598E-01
       -1   -1    0    0    0  501  0.00000000000E+00  0.00000000000E+00  0.95326056428E+02  0.95326056561E+02  0.50400001928E-02 0.  1.
        1   -1    0    0  501    0  0.00000000000E+00  0.00000000000E+00 -0.16825708421E+04  0.16825708421E+04  0.50400001928E-02 0. -1.
    10030    2    1    2    0    0  0.00000000000E+00  0.00000000000E+00 -0.15872447856E+04  0.17778968986E+04  0.80098150580E+03 0.  0.
        2    1    3    3  502    0 -0.32770905453E+03  0.18445437391E+02 -0.13029790344E+04  0.13436844208E+04  0.25500000920E-02 0. -1.
       -2    1    3    3    0  502  0.32770905453E+03 -0.18445437391E+02 -0.28426575122E+03  0.43421247783E+03  0.25500000920E-02 0.  1.
</event>
<event>
 5   0  0.3860515E-03  0.7957616E+03  0.7818609E-02  0.9566172E-01
       -1   -1    0    0    0  501  0.00000000000E+00  0.00000000000E+00  0.14448090639E+03  0.14448090648E+03  0.50400001928E-02 0.  1.
        1   -1    0    0  501    0  0.00000000000E+00  0.00000000000E+00 -0.10957097741E+04  0.10957097742E+04  0.50400001928E-02 0. -1.
    10030    2    1    2    0    0  0.00000000000E+00  0.00000000000E+00 -0.95122886775E+03  0.12401906806E+04  0.79576162605E+03 0.  0.
        4    1    3    3  502    0  0.25862708547E+03  0.30206635723E+03 -0.45496952092E+03  0.60426064854E+03  0.12699999809E+01 0. -1.
       -4    1    3    3    0  502 -0.25862708547E+03 -0.30206635723E+03 -0.49625934683E+03  0.63593003210E+03  0.12699999809E+01 0.  1.
</event>
<event>
 5   0  0.6256781E-03  0.8050753E+03  0.7818609E-02  0.9552700E-01
       -2   -1    0    0    0  501  0.00000000000E+00  0.00000000000E+00  0.30743741699E+03  0.30743741700E+03  0.25500000920E-02 0. -1.
        2   -1    0    0  501    0  0.00000000000E+00  0.00000000000E+00 -0.52705536738E+03  0.52705536739E+03  0.25500000920E-02 0.  1.
    10030    2    1    2    0    0  0.00000000000E+00  0.00000000000E+00 -0.21961795039E+03  0.83449278439E+03  0.80507525305E+03 0.  0.
        1    1    3    3  502    0 -0.15290856361E+01 -0.33643584769E+03 -0.33889400636E+03  0.47753593088E+03  0.50400001928E-02 0.  1.
       -1    1    3    3    0  502  0.15290856361E+01  0.33643584769E+03  0.11927605597E+03  0.35695685351E+03  0.50400001928E-02 0. -1.
</event>
<event>
 5   0  0.6153659E-03  0.7905799E+03  0.7818609E-02  0.9573753E-01
        2   -1    0    0  501    0  0.00000000000E+00  0.00000000000E+00  0.86411797495E+03  0.86411797495E+03  0.25500000920E-02 0.  1.
       -2   -1    0    0    0  501  0.00000000000E+00  0.00000000000E+00 -0.18082499987E+03  0.18082499989E+03  0.25500000920E-02 0. -1.
    10030    2    1    2    0    0  0.00000000000E+00  0.00000000000E+00  0.68329297508E+03  0.10449429748E+04  0.79057987002E+03 0.  0.
        2    1    3    3  502    0 -0.20180106669E+03  0.14192424773E+03 -0.66572914296E+02  0.25553495951E+03  0.25500000920E-02 0. -1.
       -2    1    3    3    0  502  0.20180106669E+03 -0.14192424773E+03  0.74986588937E+03  0.78940801533E+03  0.25500000920E-02 0.  1.
</event>
<event>
 5   0  0.3714448E-03  0.7996081E+03  0.7818609E-02  0.9560585E-01
        1   -1    0    0  501    0  0.00000000000E+00  0.00000000000E+00  0.18617734066E+03  0.18617734073E+03  0.50400001928E-02 0. -1.
       -1   -1    0    0    0  501  0.00000000000E+00  0.00000000000E+00 -0.85855379397E+03  0.85855379399E+03  0.50400001928E-02 0.  1.
    10030    2    1    2    0    0  0.00000000000E+00  0.00000000000E+00 -0.67237645331E+03  0.10447311347E+04  0.79960805954E+03 0.  0.
        1    1    3    3  502    0 -0.36648406838E+03  0.85644441108E+02 -0.15993549435E+03  0.40893141851E+03  0.50400001928E-02 0. -1.
       -1    1    3    3    0  502  0.36648406838E+03 -0.85644441108E+02 -0.51244095897E+03  0.63579971620E+03  0.50400001928E-02 0.  1.
</event>
<event>
 5   0  0.3671128E-03  0.7903241E+03  0.7818609E-02  0.9574129E-01
        1   -1    0    0  501    0  0.00000000000E+00  0.00000000000E+00  0.44781223999E+03  0.44781224002E+03  0.50400001928E-02 0.  1.
       -1   -1    0    0    0  501  0.00000000000E+00  0.00000000000E+00 -0.34870206681E+03  0.34870206684E+03  0.50400001928E-02 0. -1.
    10030    2    1    2    0    0  0.00000000000E+00  0.00000000000E+00  0.99110173183E+02  0.79651430686E+03  0.79032411997E+03 0.  0.
        2    1    3    3  502    0 -0.51336808022E+01 -0.24197757296E+03  0.36436935270E+03  0.43742945224E+03  0.25500000920E-02 0.  1.
       -2    1    3    3    0  502  0.51336808022E+01  0.24197757296E+03 -0.26525917951E+03  0.35908485462E+03  0.25500000920E-02 0. -1.
</event>
<event>
 5   0  0.6256781E-03  0.7944459E+03  0.7818609E-02  0.9568091E-01
        2   -1    0    0  501    0  0.00000000000E+00  0.00000000000E+00  0.20933722345E+04  0.20933722345E+04  0.25500000920E-02 0.  1.
       -2   -1    0    0    0  501  0.00000000000E+00  0.00000000000E+00 -0.75374103374E+02  0.75374103417E+02  0.25500000920E-02 0. -1.
    10030    2    1    2    0    0  0.00000000000E+00  0.00000000000E+00  0.20179981311E+04  0.21687463379E+04  0.79444585782E+03 0.  0.
        1    1    3    3  502    0  0.22096565161E+03  0.57211653290E+02  0.18964725125E+04  0.19101588895E+04  0.50400001928E-02 0.  1.
       -1    1    3    3    0  502 -0.22096565161E+03 -0.57211653290E+02  0.12152561860E+03  0.25858744839E+03  0.50400001928E-02 0. -1.
</event>
<event>
 5   0  0.3671128E-03  0.8035040E+03  0.7818609E-02  0.9554959E-01
        1   -1    0    0  501    0  0.00000000000E+00  0.00000000000E+00  0.31131518733E+03  0.31131518737E+03  0.50400001928E-02 0. -1.
       -1   -1    0    0    0  501  0.00000000000E+00  0.00000000000E+00 -0.51846066037E+03  0.51846066039E+03  0.50400001928E-02 0.  1.
    10030    2    1    2    0    0  0.00000000000E+00  0.00000000000E+00 -0.20714547304E+03  0.82977584777E+03  0.80350402024E+03 0.  0.
        2    1    3    3  502    0 -0.28989319721E+03 -0.16946136928E+03 -0.33135071304E+03  0.47175048119E+03  0.25500000920E-02 0.  1.
       -2    1    3    3    0  502  0.28989319721E+03  0.16946136928E+03  0.12420524000E+03  0.35802536658E+03  0.25500000920E-02 0. -1.
</event>
<event>
 5   0  0.3714448E-03  0.7985053E+03  0.7818609E-02  0.9562183E-01
        1   -1    0    0  501    0  0.00000000000E+00  0.00000000000E+00  0.49068622918E+03  0.49068622920E+03  0.50400001928E-02 0.  1.
       -1   -1    0    0    0  501  0.00000000000E+00  0.00000000000E+00 -0.32485660277E+03  0.32485660281E+03  0.50400001928E-02 0. -1.
    10030    2    1    2    0    0  0.00000000000E+00  0.00000000000E+00  0.16582962641E+03  0.81554283201E+03  0.79850525725E+03 0.  0.
        1    1    3    3  502    0  0.28661675036E+03 -0.24536826365E+03 -0.50438752095E+02  0.38065576856E+03  0.50400001928E-02 0.  1.
       -1    1    3    3    0  502 -0.28661675036E+03  0.24536826365E+03  0.21626837850E+03  0.43488706346E+03  0.50400001928E-02 0. -1.
</event>
<event>
 5   0  0.6337108E-03  0.8028582E+03  0.7818609E-02  0.9555889E-01
        2   -1    0    0  501    0  0.00000000000E+00  0.00000000000E+00  0.29708401605E+03  0.29708401606E+03  0.25500000920E-02 0.  1.
       -2   -1    0    0    0  501  0.00000000000E+00  0.00000000000E+00 -0.54242339718E+03  0.54242339719E+03  0.25500000920E-02 0. -1.
    10030    2    1    2    0    0  0.00000000000E+00  0.00000000000E+00 -0.24533938114E+03  0.83950741324E+03  0.80285819729E+03 0.  0.
        4    1    3    3  502    0  0.88262865494E+02  0.17866209016E+03  0.24171025568E+03  0.31326655820E+03  0.12699999809E+01 0.  1.
       -4    1    3    3    0  502 -0.88262865494E+02 -0.17866209016E+03 -0.48704963682E+03  0.52624085504E+03  0.12699999809E+01 0. -1.
</event>
<event>
 5   0  0.6337108E-03  0.7990606E+03  0.7818609E-02  0.9561378E-01
       -2   -1    0    0    0  501  0.00000000000E+00  0.00000000000E+00  0.27470732187E+03  0.27470732188E+03  0.25500000920E-02 0. -1.
        2   -1    0    0  501    0  0.00000000000E+00  0.00000000000E+00 -0.58107095471E+03  0.58107095472E+03  0.25500000920E-02 0.  1.
    10030    2    1    2    0    0  0.00000000000E+00  0.00000000000E+00 -0.30636363285E+03  0.85577827660E+03  0.79906056289E+03 0.  0.
        4    1    3    3  502    0  0.22367111798E+03  0.15632703445E+03 -0.46570985714E+03  0.53977235448E+03  0.12699999809E+01 0.  1.
       -4    1    3    3    0  502 -0.22367111798E+03 -0.15632703445E+03  0.15934622429E+03  0.31600592212E+03  0.12699999809E+01 0. -1.
</event>
<event>
 5   0  0.6337108E-03  0.7997202E+03  0.7818609E-02  0.9560422E-01
        2   -1    0    0  501    0  0.00000000000E+00  0.00000000000E+00  0.57289302871E+03  0.57289302871E+03  0.25500000920E-02 0. -1.
       -2   -1    0    0    0  501  0.00000000000E+00  0.00000000000E+00 -0.27908892225E+03  0.27908892226E+03  0.25500000920E-02 0.  1.
    10030    2    1    2    0    0  0.00000000000E+00  0.00000000000E+00  0.29380410646E+03  0.85198195097E+03  0.79972019595E+03 0.  0.
        4    1    3    3  502    0  0.14745093505E+03  0.34132934442E+02  0.54119622367E+03  0.56196245504E+03  0.12699999809E+01 0. -1.
       -4    1    3    3    0  502 -0.14745093505E+03 -0.34132934442E+02 -0.24739211721E+03  0.29001949593E+03  0.12699999809E+01 0.  1.
</event>
<event>
 5   0  0.6536209E-03  0.7929728E+03  0.7818609E-02  0.9570245E-01
       -2   -1    0    0    0  501  0.00000000000E+00  0.00000000000E+00  0.22270501972E+03  0.22270501973E+03  0.25500000920E-02 0. -1.
        2   -1    0    0  501    0  0.00000000000E+00  0.00000000000E+00 -0.70587295010E+03  0.70587295011E+03  0.25500000920E-02 0.  1.
    10030    2    1    2    0    0  0.00000000000E+00  0.00000000000E+00 -0.48316793039E+03  0.92857796984E+03  0.79297275938E+03 0.  0.
        3    1    3    3  502    0 -0.41299820743E+02  0.18731671815E+03  0.16475470914E+03  0.25285836445E+03  0.10100000352E+00 0. -1.
       -3    1    3    3    0  502  0.41299820743E+02 -0.18731671815E+03 -0.64792263953E+03  0.67571960539E+03  0.10100000352E+00 0.  1.
</event>
<event>
 5   0  0.3714448E-03  0.8007583E+03  0.7818609E-02  0.9558920E-01
        1   -1    0    0  501    0  0.00000000000E+00  0.00000000000E+00  0.27636691154E+03  0.27636691159E+03  0.50400001928E-02 0. -1.
       -1   -1    0    0    0  501  0.00000000000E+00  0.00000000000E+00 -0.58003852579E+03  0.58003852581E+03  0.50400001928E-02 0.  1.
    10030    2    1    2    0    0  0.00000000000E+00  0.00000000000E+00 -0.30367161425E+03  0.85640543739E+03  0.80075828057E+03 0.  0.
        1    1    3    3  502    0  0.39668901662E+01 -0.24448739370E+03  0.18723505085E+03  0.30797205424E+03  0.50400001928E-02 0. -1.
       -1    1    3    3    0  502 -0.39668901662E+01  0.24448739370E+03 -0.49090666510E+03  0.54843338316E+03  0.50400001928E-02 0.  1.
</event>
<event>
 5   0  0.6153659E-03  0.8003725E+03  0.7818609E-02  0.9559478E-01
        2   -1    0    0  501    0  0.00000000000E+00  0.00000000000E+00  0.40091431178E+03  0.40091431179E+03  0.25500000920E-02 0.  1.
       -2   -1    0    0    0  501  0.00000000000E+00  0.00000000000E+00 -0.39945946072E+03  0.39945946073E+03  0.25500000920E-02 0. -1.
    10030    2    1    2    0    0  0.00000000000E+00  0.00000000000E+00  0.14548510612E+01  0.80037377251E+03  0.80037245026E+03 0.  0.
        2    1    3    3  502    0  0.72720411026E+02 -0.25813322494E+03 -0.29630504120E+03  0.39964696602E+03  0.25500000920E-02 0. -1.
       -2    1    3    3    0  502 -0.72720411026E+02  0.25813322494E+03  0.29775989226E+03  0.40072680650E+03  0.25500000920E-02 0.  1.
</event>
<event>
 5   0  0.6256781E-03  0.7992275E+03  0.7818609E-02  0.9561136E-01
        2   -1    0    0  501    0  0.00000000000E+00  0.00000000000E+00  0.81941716401E+03  0.81941716402E+03  0.25500000920E-02 0. -1.
       -2   -1    0    0    0  501  0.00000000000E+00  0.00000000000E+00 -0.19488383834E+03  0.19488383835E+03  0.25500000920E-02 0.  1.
    10030    2    1    2    0    0  0.00000000000E+00  0.00000000000E+00  0.62453332567E+03  0.10143010024E+04  0.79922753239E+03 0.  0.
        1    1    3    3  502    0 -0.38596903164E+03 -0.75695861251E+02  0.40190878028E+03  0.56234564503E+03  0.50400001928E-02 0. -1.
       -1    1    3    3    0  502  0.38596903164E+03  0.75695861251E+02  0.22262454539E+03  0.45195535734E+03  0.50400001928E-02 0.  1.
</event>
<event>
 5   0  0.3671128E-03  0.8320624E+03  0.7818609E-02  0.9514734E-01
        1   -1    0    0  501    0  0.00000000000E+00  0.00000000000E+00  0.51636343011E+03  0.51636343013E+03  0.50400001928E-02 0. -1.
       -1   -1    0    0    0  501  0.00000000000E+00  0.00000000000E+00 -0.33519402984E+03  0.33519402988E+03  0.50400001928E-02 0.  1.
    10030    2    1    2    0    0  0.00000000000E+00  0.00000000000E+00  0.18116940026E+03  0.85155746001E+03  0.83206235110E+03 0.  0.
        2    1    3    3  502    0 -0.28965685856E+03 -0.25606068368E+03  0.24785283885E+03  0.45923762821E+03  0.25500000920E-02 0. -1.
       -2    1    3    3    0  502  0.28965685856E+03  0.25606068368E+03 -0.66683438588E+02  0.39231983180E+03  0.25500000920E-02 0.  1.
</event>
<event>
 5   0  0.3671128E-03  0.7917214E+03  0.7818609E-02  0.9572078E-01
        1   -1    0    0  501    0  0.00000000000E+00  0.00000000000E+00  0.41337612795E+03  0.41337612798E+03  0.50400001928E-02 0. -1.
       -1   -1    0    0    0  501  0.00000000000E+00  0.00000000000E+00 -0.37908745573E+03  0.37908745576E+03  0.50400001928E-02 0.  1.
    10030    2    1    2    0    0  0.00000000000E+00  0.00000000000E+00  0.34288672227E+02  0.79246358374E+03  0.79172142734E+03 0.  0.
        2    1    3    3  502    0 -0.15253470627E+02 -0.38262217876E+03 -0.83315600073E+02  0.39188504598E+03  0.25500000920E-02 0.  1.
       -2    1    3    3    0  502  0.15253470627E+02  0.38262217876E+03  0.11760427230E+03  0.40057853776E+03  0.25500000920E-02 0. -1.
</event>
<event>
 5   0  0.6337108E-03  0.7999974E+03  0.7818609E-02  0.9560021E-01
        2   -1    0    0  501    0  0.00000000000E+00  0.00000000000E+00  0.80359159567E+03  0.80359159567E+03  0.25500000920E-02 0. -1.
       -2   -1    0    0    0  501  0.00000000000E+00  0.00000000000E+00 -0.19910483325E+03  0.19910483327E+03  0.25500000920E-02 0.  1.
    10030    2    1    2    0    0  0.00000000000E+00  0.00000000000E+00  0.60448676241E+03  0.10026964289E+04  0.79999742666E+03 0.  0.
        4    1    3    3  502    0 -0.23839567129E+03 -0.27191901937E+03  0.87975310660E+02  0.37217431047E+03  0.12699999809E+01 0.  1.
       -4    1    3    3    0  502  0.23839567129E+03  0.27191901937E+03  0.51651145175E+03  0.63052211847E+03  0.12699999809E+01 0. -1.
</event>
<event>
 5   0  0.6337108E-03  0.7998180E+03  0.7818609E-02  0.9560281E-01
        2   -1    0    0  501    0  0.00000000000E+00  0.00000000000E+00  0.47455953125E+03  0.47455953126E+03  0.25500000920E-02 0. -1.
       -2   -1    0    0    0  501  0.00000000000E+00  0.00000000000E+00 -0.33700135848E+03  0.33700135849E+03  0.25500000920E-02 0.  1.
    10030    2    1    2    0    0  0.00000000000E+00  0.00000000000E+00  0.13755817278E+03  0.81156088975E+03  0.79981799609E+03 0.  0.
        4    1    3    3  502    0 -0.14357035730E+03  0.14385567097E+03 -0.28068818079E+03  0.34654634510E+03  0.12699999809E+01 0.  1.
       -4    1    3    3    0  502  0.14357035730E+03 -0.14385567097E+03  0.41824635357E+03  0.46501454465E+03  0.12699999809E+01 0. -1.
</event>
<event>
 5   0  0.6337108E-03  0.7989036E+03  0.7818609E-02  0.9561606E-01
        2   -1    0    0  501    0  0.00000000000E+00  0.00000000000E+00  0.88628034785E+03  0.88628034786E+03  0.25500000920E-02 0.  1.
       -2   -1    0    0    0  501  0.00000000000E+00  0.00000000000E+00 -0.18003527137E+03  0.18003527139E+03  0.25500000920E-02 0. -1.
    10030    2    1    2    0    0  0.00000000000E+00  0.00000000000E+00  0.70624507648E+03  0.10663156192E+04  0.79890355600E+03 0.  0.
        4    1    3    3  502    0 -0.13162141247E+03 -0.75922633194E+01  0.85640063675E+03  0.86649033590E+03  0.12699999809E+01 0.  1.
       -4    1    3    3    0  502  0.13162141247E+03  0.75922633194E+01 -0.15015556027E+03  0.19982528334E+03  0.12699999809E+01 0. -1.
</event>
<event>
 5   0  0.3627496E-03  0.7976804E+03  0.7818609E-02  0.9563381E-01
       -1   -1    0    0    0  501  0.00000000000E+00  0.00000000000E+00  0.50429499961E+03  0.50429499963E+03  0.50400001928E-02 0. -1.
        1   -1    0    0  501    0  0.00000000000E+00  0.00000000000E+00 -0.31543738821E+03  0.31543738825E+03  0.50400001928E-02 0.  1.
    10030    2    1    2    0    0  0.00000000000E+00  0.00000000000E+00  0.18885761140E+03  0.81973238788E+03  0.79768038108E+03 0.  0.
        3    1    3    3  502    0  0.16511205429E+03 -0.11147060782E+03 -0.26064572500E+03  0.32806080388E+03  0.10100000352E+00 0.  1.
       -3    1    3    3    0  502 -0.16511205429E+03  0.11147060782E+03  0.44950333640E+03  0.49167158400E+03  0.10100000352E+00 0. -1.
</event>
<event>
 5   0  0.2478000E-03  0.7991434E+03  0.7818609E-02  0.9561258E-01
       -3   -1    0    0    0  501  0.00000000000E+00  0.00000000000E+00  0.10085539662E+04  0.10085539713E+04  0.10100000352E+00 0. -1.
        3   -1    0    0  501    0  0.00000000000E+00  0.00000000000E+00 -0.15830339527E+03  0.15830342749E+03  0.10100000352E+00 0.  1.
    10030    2    1    2    0    0  0.00000000000E+00  0.00000000000E+00  0.85025057092E+03  0.11668573987E+04  0.79914338867E+03 0.  0.
        4    1    3    3  502    0 -0.28600041791E+03  0.27528080794E+03  0.35853025301E+03  0.53490309168E+03  0.12699999809E+01 0.  1.
       -4    1    3    3    0  502  0.28600041791E+03 -0.27528080794E+03  0.49172031791E+03  0.63195430706E+03  0.12699999809E+01 0. -1.
</event>
<event>
 5   0  0.3627496E-03  0.8021555E+03  0.7818609E-02  0.9556902E-01
        1   -1    0    0  501    0  0.00000000000E+00  0.00000000000E+00  0.23689900982E+03  0.23689900987E+03  0.50400001928E-02 0.  1.
       -1   -1    0    0    0  501  0.00000000000E+00  0.00000000000E+00 -0.67903779284E+03  0.67903779286E+03  0.50400001928E-02 0. -1.
    10030    2    1    2    0    0  0.00000000000E+00  0.00000000000E+00 -0.44213878302E+03  0.91593680273E+03  0.80215554798E+03 0.  0.
        3    1    3    3  502    0  0.10211575921E+03 -0.21781010336E+03  0.14537994291E+03  0.28107687099E+03  0.10100000352E+00 0.  1.
       -3    1    3    3    0  502 -0.10211575921E+03  0.21781010336E+03 -0.58751872593E+03  0.63485993174E+03  0.10100000352E+00 0. -1.
</event>
<event>
 5   0  0.6153659E-03  0.8018232E+03  0.7818609E-02  0.9557382E-01
        2   -1    0    0  501    0  0.00000000000E+00  0.00000000000E+00  0.65377957973E+03  0.65377957973E+03  0.25500000920E-02 0. -1.
       -2   -1    0    0    0  501  0.00000000000E+00  0.00000000000E+00 -0.24584754562E+03  0.24584754563E+03  0.25500000920E-02 0.  1.
    10030    2    1    2    0    0  0.00000000000E+00  0.00000000000E+00  0.40793203411E+03  0.89962712537E+03  0.80182318515E+03 0.  0.
        2    1    3    3  502    0 -0.32598949387E+03  0.22957645701E+03  0.25097678834E+03  0.47113039386E+03  0.25500000920E-02 0. -1.
       -2    1    3    3    0  502  0.32598949387E+03 -0.22957645701E+03  0.15695524576E+03  0.42849673150E+03  0.25500000920E-02 0.  1.
</event>
<event>
 5   0  0.3671128E-03  0.8005024E+03  0.7818609E-02  0.9559290E-01
       -1   -1    0    0    0  501  0.00000000000E+00  0.00000000000E+00  0.26998734943E+03  0.26998734948E+03  0.50400001928E-02 0. -1.
        1   -1    0    0  501    0  0.00000000000E+00  0.00000000000E+00 -0.59336488936E+03  0.59336488938E+03  0.50400001928E-02 0.  1.
    10030    2    1    2    0    0  0.00000000000E+00  0.00000000000E+00 -0.32337753993E+03  0.86335223886E+03  0.80050237664E+03 0.  0.
        2    1    3    3  502    0  0.39288588190E+02 -0.13925424263E+03  0.24079413646E+03  0.28092197033E+03  0.25500000920E-02 0. -1.
       -2    1    3    3    0  502 -0.39288588190E+02  0.13925424263E+03 -0.56417167639E+03  0.58243026853E+03  0.25500000920E-02 0.  1.
</event>
<event>
 5   0  0.3671128E-03  0.7998710E+03  0.7818609E-02  0.9560204E-01
       -1   -1    0    0    0  501  0.00000000000E+00  0.00000000000E+00  0.13253874443E+03  0.13253874453E+03  0.50400001928E-02 0.  1.
        1   -1    0    0  501    0  0.00000000000E+00  0.00000000000E+00 -0.12068047453E+04  0.12068047453E+04  0.50400001928E-02 0. -1.
    10030    2    1    2    0    0  0.00000000000E+00  0.00000000000E+00 -0.10742660009E+04  0.13393434899E+04  0.79987095407E+03 0.  0.
        2    1    3    3  502    0 -0.85799906344E+02  0.20810797637E+02 -0.11902835015E+04  0.11935533198E+04  0.25500000920E-02 0. -1.
       -2    1    3    3    0  502  0.85799906344E+02 -0.20810797637E+02  0.11601750063E+03  0.14579017006E+03  0.25500000920E-02 0.  1.
</event>
<event>
 5   0  0.3714448E-03  0.8169079E+03  0.7818609E-02  0.9535861E-01
       -1   -1    0    0    0  501  0.00000000000E+00  0.00000000000E+00  0.24322999153E+03  0.24322999158E+03  0.50400001928E-02 0.  1.
        1   -1    0    0  501    0  0.00000000000E+00  0.00000000000E+00 -0.68591305144E+03  0.68591305145E+03  0.50400001928E-02 0. -1.
    10030    2    1    2    0    0  0.00000000000E+00  0.00000000000E+00 -0.44268305991E+03  0.92914304304E+03  0.81690789132E+03 0.  0.
        1    1    3    3  502    0  0.17254155843E+03 -0.18052182194E+03  0.14629407498E+03  0.28941436381E+03  0.50400001928E-02 0.  1.
       -1    1    3    3    0  502 -0.17254155843E+03  0.18052182194E+03 -0.58897713488E+03  0.63972867922E+03  0.50400001928E-02 0. -1.
</event>
<event>
 5   0  0.6153659E-03  0.8002168E+03  0.7818609E-02  0.9559703E-01
        2   -1    0    0  501    0  0.00000000000E+00  0.00000000000E+00  0.17009722314E+04  0.17009722314E+04  0.25500000920E-02 0.  1.
       -2   -1    0    0    0  501  0.00000000000E+00  0.00000000000E+00 -0.94114850089E+02  0.94114850124E+02  0.25500000920E-02 0. -1.
    10030    2    1    2    0    0  0.00000000000E+00  0.00000000000E+00  0.16068573813E+04  0.17950870816E+04  0.80021683711E+03 0.  0.
        2    1    3    3  502    0 -0.35122510845E+03  0.13243065071E+03  0.11141800066E+04  0.11757100157E+04  0.25500000920E-02 0.  1.
       -2    1    3    3    0  502  0.35122510845E+03 -0.13243065071E+03  0.49267737478E+03  0.61937706583E+03  0.25500000920E-02 0. -1.
</event>
<event>
 5   0  0.6337108E-03  0.7937783E+03  0.7818609E-02  0.9569067E-01
       -2   -1    0    0    0  501  0.00000000000E+00  0.00000000000E+00  0.51106905677E+03  0.51106905677E+03  0.25500000920E-02 0.  1.
        2   -1    0    0  501    0  0.00000000000E+00  0.00000000000E+00 -0.30821860732E+03  0.30821860733E+03  0.25500000920E-02 0. -1.
    10030    2    1    2    0    0  0.00000000000E+00  0.00000000000E+00  0.20285044945E+03  0.81928766410E+03  0.79377828876E+03 0.  0.
        4    1    3    3  502    0  0.30213846959E+03  0.61990506368E+02  0.35922994938E+03  0.47347465309E+03  0.12699999809E+01 0.  1.
       -4    1    3    3    0  502 -0.30213846959E+03 -0.61990506368E+02 -0.15637949993E+03  0.34581301101E+03  0.12699999809E+01 0. -1.
</event>
<event>
 5   0  0.3714448E-03  0.8008572E+03  0.7818609E-02  0.9558777E-01
       -1   -1    0    0    0  501  0.00000000000E+00  0.00000000000E+00  0.46206555112E+03  0.46206555114E+03  0.50400001928E-02 0.  1.
        1   -1    0    0  501    0  0.00000000000E+00  0.00000000000E+00 -0.34701370377E+03  0.34701370380E+03  0.50400001928E-02 0. -1.
    10030    2    1    2    0    0  0.00000000000E+00  0.00000000000E+00  0.11505184735E+03  0.80907925495E+03  0.80085723647E+03 0.  0.
        1    1    3    3  502    0  0.36745963521E+03  0.10494406304E+03  0.17834990726E+03  0.42172091402E+03  0.50400001928E-02 0.  1.
       -1    1    3    3    0  502 -0.36745963521E+03 -0.10494406304E+03 -0.63298059910E+02  0.38735834093E+03  0.50400001928E-02 0. -1.
</event>
<event>
 5   0  0.6256781E-03  0.7998017E+03  0.7818609E-02  0.9560304E-01
        2   -1    0    0  501    0  0.00000000000E+00  0.00000000000E+00  0.89870714906E+03  0.89870714906E+03  0.25500000920E-02 0.  1.
       -2   -1    0    0    0  501  0.00000000000E+00  0.00000000000E+00 -0.17794526794E+03  0.17794526796E+03  0.25500000920E-02 0. -1.
    10030    2    1    2    0    0  0.00000000000E+00  0.00000000000E+00  0.72076188112E+03  0.10766524170E+04  0.79980168655E+03 0.  0.
        1    1    3    3  502    0  0.24002855652E+01 -0.13098791064E+03 -0.14823743665E+03  0.19783309065E+03  0.50400001928E-02 0. -1.
       -1    1    3    3    0  502 -0.24002855652E+01  0.13098791064E+03  0.86899931777E+03  0.87881932638E+03  0.50400001928E-02 0.  1.
</event>
<event>
 5   0  0.3671128E-03  0.7998644E+03  0.7818609E-02  0.9560213E-01
        1   -1    0    0  501    0  0.00000000000E+00  0.00000000000E+00  0.50416812598E+03  0.50416812600E+03  0.50400001928E-02 0.  1.
       -1   -1    0    0    0  501  0.00000000000E+00  0.00000000000E+00 -0.31724688288E+03  0.31724688292E+03  0.50400001928E-02 0. -1.
    10030    2    1    2    0    0  0.00000000000E+00  0.00000000000E+00  0.18692124310E+03  0.82141500892E+03  0.79986440461E+03 0.  0.
        2    1    3    3  502    0 -0.21943120712E+03 -0.33344455181E+03  0.68087803974E+02  0.40493366474E+03  0.25500000920E-02 0. -1.
       -2    1    3    3    0  502  0.21943120712E+03  0.33344455181E+03  0.11883343912E+03  0.41648134418E+03  0.25500000920E-02 0.  1.
</event>
<event>
 5   0  0.3860515E-03  0.7970990E+03  0.7818609E-02  0.9564226E-01
       -1   -1    0    0    0  501  0.00000000000E+00  0.00000000000E+00  0.28833667704E+03  0.28833667708E+03  0.50400001928E-02 0. -1.
        1   -1    0    0  501    0  0.00000000000E+00  0.00000000000E+00 -0.55088963497E+03  0.55088963500E+03  0.50400001928E-02 0.  1.
    10030    2    1    2    0    0  0.00000000000E+00  0.00000000000E+00 -0.26255295793E+03  0.83922631208E+03  0.79709895695E+03 0.  0.
        4    1    3    3  502    0 -0.34759082357E+03 -0.18957866106E+03 -0.83251884290E+02  0.40458860402E+03  0.12699999809E+01 0.  1.
       -4    1    3    3    0  502  0.34759082357E+03  0.18957866106E+03 -0.17930107364E+03  0.43463770806E+03  0.12699999809E+01 0. -1.
</event>
<event>
 5   0  0.3714448E-03  0.7987268E+03  0.7818609E-02  0.9561862E-01
        1   -1    0    0  501    0  0.00000000000E+00  0.00000000000E+00  0.20355681802E+03  0.20355681808E+03  0.50400001928E-02 0.  1.
       -1   -1    0    0    0  501  0.00000000000E+00  0.00000000000E+00 -0.78352147497E+03  0.78352147499E+03  0.50400001928E-02 0. -1.
    10030    2    1    2    0    0  0.00000000000E+00  0.00000000000E+00 -0.57996465695E+03  0.98707829307E+03  0.79872683274E+03 0.  0.
        1    1    3    3  502    0 -0.12561511698E+03 -0.15253279039E+03 -0.71887539780E+03  0.74553822661E+03  0.50400001928E-02 0. -1.
       -1    1    3    3    0  502  0.12561511698E+03  0.15253279039E+03  0.13891074084E+03  0.24154006646E+03  0.50400001928E-02 0.  1.
</event>
<event>
 5   0  0.3714448E-03  0.8012766E+03  0.7818609E-02  0.9558171E-01
        1   -1    0    0  501    0  0.00000000000E+00  0.00000000000E+00  0.34118438162E+03  0.34118438166E+03  0.50400001928E-02 0.  1.
       -1   -1    0    0    0  501  0.00000000000E+00  0.00000000000E+00 -0.47045246485E+03  0.47045246488E+03  0.50400001928E-02 0. -1.
    10030    2    1    2    0    0  0.00000000000E+00  0.00000000000E+00 -0.12926808323E+03  0.81163684653E+03  0.80127656481E+03 0.  0.
        1    1    3    3  502    0 -0.33245753252E+02  0.36868873698E+03  0.90560439069E+02  0.38110085021E+03  0.50400001928E-02 0.  1.
       -1    1    3    3    0  502  0.33245753252E+02 -0.36868873698E+03 -0.21982852230E+03  0.43053599632E+03  0.50400001928E-02 0. -1.
</event>
<event>
 5   0  0.3714448E-03  0.8011404E+03  0.7818609E-02  0.9558368E-01
       -1   -1    0    0    0  501  0.00000000000E+00  0.00000000000E+00  0.24087543625E+03  0.24087543631E+03  0.50400001928E-02 0.  1.
        1   -1    0    0  501    0  0.00000000000E+00  0.00000000000E+00 -0.66613891103E+03  0.66613891105E+03  0.50400001928E-02 0. -1.
    10030    2    1    2    0    0  0.00000000000E+00  0.00000000000E+00 -0.42526347478E+03  0.90701434736E+03  0.80114043921E+03 0.  0.
        1    1    3    3  502    0 -0.28157460881E+03  0.25695428134E+03 -0.73295186396E+02  0.38817772656E+03  0.50400001928E-02 0.  1.
       -1    1    3    3    0  502  0.28157460881E+03 -0.25695428134E+03 -0.35196828838E+03  0.51883662079E+03  0.50400001928E-02 0. -1.
</event>
<event>
 5   0  0.2478000E-03  0.8008828E+03  0.7818609E-02  0.9558740E-01
       -3   -1    0    0    0  501  0.00000000000E+00  0.00000000000E+00  0.16680846431E+03  0.16680849488E+03  0.10100000352E+00 0.  1.
        3   -1    0    0  501    0  0.00000000000E+00  0.00000000000E+00 -0.96130183438E+03  0.96130183969E+03  0.10100000352E+00 0. -1.
    10030    2    1    2    0    0  0.00000000000E+00  0.00000000000E+00 -0.79449337007E+03  0.11281103346E+04  0.80088277037E+03 0.  0.
        5    1    3    3  502    0 -0.16635207680E+03  0.32834291529E+03 -0.17520310710E+03  0.40767671286E+03  0.46999998093E+01 0.  1.
       -5    1    3    3    0  502  0.16635207680E+03 -0.32834291529E+03 -0.61929026298E+03  0.72043362171E+03  0.46999998093E+01 0. -1.
</event>
<event>
 5   0  0.3671128E-03  0.8036807E+03  0.7818609E-02  0.9554705E-01
        1   -1    0    0  501    0  0.00000000000E+00  0.00000000000E+00  0.47213374369E+03  0.47213374372E+03  0.50400001928E-02 0.  1.
       -1   -1    0    0    0  501  0.00000000000E+00  0.00000000000E+00 -0.34201258071E+03  0.34201258075E+03  0.50400001928E-02 0. -1.
    10030    2    1    2    0    0  0.00000000000E+00  0.00000000000E+00  0.13012116298E+03  0.81414632447E+03  0.80368073299E+03 0.  0.
        2    1    3    3  502    0  0.25656859456E+03  0.30372471325E+03  0.59957910973E+01  0.39763311566E+03  0.25500000920E-02 0.  1.
       -2    1    3    3    0  502 -0.25656859456E+03 -0.30372471325E+03  0.12412537188E+03  0.41651320880E+03  0.25500000920E-02 0. -1.
</event>
<event>
 5   0  0.3860515E-03  0.7847290E+03  0.7818609E-02  0.9582388E-01
       -1   -1    0    0    0  501  0.00000000000E+00  0.00000000000E+00  0.46424531380E+03  0.46424531383E+03  0.50400001928E-02 0.  1.
        1   -1    0    0  501    0  0.00000000000E+00  0.00000000000E+00 -0.33161322155E+03  0.33161322159E+03  0.50400001928E-02 0. -1.
    10030    2    1    2    0    0  0.00000000000E+00  0.00000000000E+00  0.13263209226E+03  0.79585853542E+03  0.78472895735E+03 0.  0.
        4    1    3    3  502    0  0.25395484232E+03 -0.29567861514E+03  0.11200343861E+03  0.40554320183E+03  0.12699999809E+01 0.  1.
       -4    1    3    3    0  502 -0.25395484232E+03  0.29567861514E+03  0.20628653643E+02  0.39031533359E+03  0.12699999809E+01 0. -1.
</event>
<event>
 5   0  0.6153659E-03  0.8027417E+03  0.7818609E-02  0.9556057E-01
       -2   -1    0    0    0  501  0.00000000000E+00  0.00000000000E+00  0.68098488946E+02  0.68098488993E+02  0.25500000920E-02 0. -1.
        2   -1    0    0  501    0  0.00000000000E+00  0.00000000000E+00 -0.23656699986E+04  0.23656699986E+04  0.25500000920E-02 0.  1.
    10030    2    1    2    0    0  0.00000000000E+00  0.00000000000E+00 -0.22975715096E+04  0.24337684876E+04  0.80274168275E+03 0.  0.
        2    1    3    3  502    0  0.31107231608E+03  0.17397792557E+03 -0.58921777965E+03  0.68863044972E+03  0.25500000920E-02 0. -1.
       -2    1    3    3    0  502 -0.31107231608E+03 -0.17397792557E+03 -0.17083537300E+04  0.17451380378E+04  0.25500000920E-02 0.  1.
</event>
<event>
 5   0  0.2478000E-03  0.8001888E+03  0.7818609E-02  0.9559744E-01
        4   -1    0    0  501    0  0.00000000000E+00  0.00000000000E+00  0.12186258175E+03  0.12186919927E+03  0.12699999809E+01 0. -1.
       -4   -1    0    0    0  501  0.00000000000E+00  0.00000000000E+00 -0.13135316366E+04  0.13135322505E+04  0.12699999809E+01 0.  1.
    10030    2    1    2    0    0  0.00000000000E+00  0.00000000000E+00 -0.11916690548E+04  0.14354014498E+04  0.80018884389E+03 0.  0.
        5    1    3    3  502    0 -0.72666288588E+02 -0.22122162814E+03 -0.11794054081E+04  0.12021807705E+04  0.46999998093E+01 0.  1.
       -5    1    3    3    0  502  0.72666288588E+02  0.22122162814E+03 -0.12263646762E+02  0.23322067937E+03  0.46999998093E+01 0. -1.
</event>
<event>
 5   0  0.3753450E-03  0.7966637E+03  0.7818609E-02  0.9564859E-01
       -1   -1    0    0    0  501  0.00000000000E+00  0.00000000000E+00  0.63990598425E+03  0.63990598427E+03  0.50400001928E-02 0. -1.
        1   -1    0    0  501    0  0.00000000000E+00  0.00000000000E+00 -0.24795556536E+03  0.24795556541E+03  0.50400001928E-02 0.  1.
    10030    2    1    2    0    0  0.00000000000E+00  0.00000000000E+00  0.39195041889E+03  0.88786154968E+03  0.79666366839E+03 0.  0.
        5    1    3    3  502    0  0.30823275755E+03  0.15415888416E+03  0.41851817105E+03  0.54217335225E+03  0.46999998093E+01 0. -1.
       -5    1    3    3    0  502 -0.30823275755E+03 -0.15415888416E+03 -0.26567752162E+02  0.34568819743E+03  0.46999998093E+01 0.  1.
</event>
<event>
 5   0  0.6256781E-03  0.8017235E+03  0.7818609E-02  0.9557526E-01
        2   -1    0    0  501    0  0.00000000000E+00  0.00000000000E+00  0.37268598165E+03  0.37268598165E+03  0.25500000920E-02 0.  1.
       -2   -1    0    0    0  501  0.00000000000E+00  0.00000000000E+00 -0.43116760840E+03  0.43116760841E+03  0.25500000920E-02 0. -1.
    10030    2    1    2    0    0  0.00000000000E+00  0.00000000000E+00 -0.58481626757E+02  0.80385359006E+03  0.80172345206E+03 0.  0.
        1    1    3    3  502    0  0.16649932989E+03 -0.39474916266E+01  0.33635452081E+03  0.37532915319E+03  0.50400001928E-02 0.  1.
       -1    1    3    3    0  502 -0.16649932989E+03  0.39474916266E+01 -0.39483614756E+03  0.42852443687E+03  0.50400001928E-02 0. -1.
</event>
<event>
 5   0  0.6256781E-03  0.7934882E+03  0.7818609E-02  0.9569491E-01
       -2   -1    0    0    0  501  0.00000000000E+00  0.00000000000E+00  0.14623365121E+03  0.14623365123E+03  0.25500000920E-02 0.  1.
        2   -1    0    0  501    0  0.00000000000E+00  0.00000000000E+00 -0.10763997222E+04  0.10763997222E+04  0.25500000920E-02 0. -1.
    10030    2    1    2    0    0  0.00000000000E+00  0.00000000000E+00 -0.93016607097E+03  0.12226333734E+04  0.79348815126E+03 0.  0.
        1    1    3    3  502    0 -0.29521524231E+03 -0.15385681616E+03 -0.79763874658E+03  0.86432142704E+03  0.50400001928E-02 0. -1.
       -1    1    3    3    0  502  0.29521524231E+03  0.15385681616E+03 -0.13252732439E+03  0.35831194636E+03  0.50400001928E-02 0.  1.
</event>
<event>
 5   0  0.6153659E-03  0.8120410E+03  0.7818609E-02  0.9542750E-01
       -2   -1    0    0    0  501  0.00000000000E+00  0.00000000000E+00  0.15248242403E+03  0.15248242405E+03  0.25500000920E-02 0. -1.
        2   -1    0    0  501    0  0.00000000000E+00  0.00000000000E+00 -0.10811256023E+04  0.10811256024E+04  0.25500000920E-02 0.  1.
    10030    2    1    2    0    0  0.00000000000E+00  0.00000000000E+00 -0.92864317832E+03  0.12336080264E+04  0.81204101507E+03 0.  0.
        2    1    3    3  502    0  0.45389060611E+02  0.17006856017E+03 -0.10201484201E+04  0.10352228171E+04  0.25500000920E-02 0.  1.
       -2    1    3    3    0  502 -0.45389060611E+02 -0.17006856017E+03  0.91505241800E+02  0.19838520929E+03  0.25500000920E-02 0. -1.
</event>
<event>
 5   0  0.5813850E-03  0.7993207E+03  0.7818609E-02  0.9561001E-01
        2   -1    0    0  501    0  0.00000000000E+00  0.00000000000E+00  0.24155384233E+04  0.24155384233E+04  0.25500000920E-02 0.  1.
       -2   -1    0    0    0  501  0.00000000000E+00  0.00000000000E+00 -0.66125377526E+02  0.66125377575E+02  0.25500000920E-02 0. -1.
    10030    2    1    2    0    0  0.00000000000E+00  0.00000000000E+00  0.23494130458E+04  0.24816638009E+04  0.79932068716E+03 0.  0.
        5    1    3    3  502    0 -0.17249477068E+03 -0.28414157642E+03  0.48593927787E+03  0.58876986433E+03  0.46999998093E+01 0. -1.
       -5    1    3    3    0  502  0.17249477068E+03  0.28414157642E+03  0.18634737679E+04  0.18928939365E+04  0.46999998093E+01 0.  1.
</event>
<event>
 5   0  0.3671128E-03  0.8005645E+03  0.7818609E-02  0.9559200E-01
        1   -1    0    0  501    0  0.00000000000E+00  0.00000000000E+00  0.23055004396E+03  0.23055004402E+03  0.50400001928E-02 0. -1.
       -1   -1    0    0    0  501  0.00000000000E+00  0.00000000000E+00 -0.69497216027E+03  0.69497216029E+03  0.50400001928E-02 0.  1.
    10030    2    1    2    0    0  0.00000000000E+00  0.00000000000E+00 -0.46442211630E+03  0.92552220431E+03  0.80056445621E+03 0.  0.
        2    1    3    3  502    0 -0.21780775639E+03  0.31114349297E+03 -0.86088925119E+02  0.38943779349E+03  0.25500000920E-02 0. -1.
       -2    1    3    3    0  502  0.21780775639E+03 -0.31114349297E+03 -0.37833319118E+03  0.53608441082E+03  0.25500000920E-02 0.  1.
</event>
<event>
 5   0  0.6256781E-03  0.8256188E+03  0.7818609E-02  0.9523658E-01
        2   -1    0    0  501    0  0.00000000000E+00  0.00000000000E+00  0.13696304641E+04  0.13696304641E+04  0.25500000920E-02 0.  1.
       -2   -1    0    0    0  501  0.00000000000E+00  0.00000000000E+00 -0.12442160535E+03  0.12442160538E+03  0.25500000920E-02 0. -1.
    10030    2    1    2    0    0  0.00000000000E+00  0.00000000000E+00  0.12452088587E+04  0.14940520695E+04  0.82561884935E+03 0.  0.
        1    1    3    3  502    0 -0.12062652955E+03 -0.21457676923E+03  0.22920722491E+02  0.24722319687E+03  0.50400001928E-02 0. -1.
       -1    1    3    3    0  502  0.12062652955E+03  0.21457676923E+03  0.12222881362E+04  0.12468288726E+04  0.50400001928E-02 0.  1.
</event>
<event>
 5   0  0.3714448E-03  0.8005239E+03  0.7818609E-02  0.9559259E-01
       -1   -1    0    0    0  501  0.00000000000E+00  0.00000000000E+00  0.77132551165E+02  0.77132551329E+02  0.50400001928E-02 0.  1.
        1   -1    0    0  501    0  0.00000000000E+00  0.00000000000E+00 -0.20770690728E+04  0.20770690728E+04  0.50400001928E-02 0. -1.
    10030    2    1    2    0    0  0.00000000000E+00  0.00000000000E+00 -0.19999365216E+04  0.21542016241E+04  0.80052392023E+03 0.  0.
        1    1    3    3  502    0  0.88267159523E+02 -0.22516654573E+03 -0.18582150012E+04  0.18738874180E+04  0.50400001928E-02 0. -1.
       -1    1    3    3    0  502 -0.88267159523E+02  0.22516654573E+03 -0.14172152045E+03  0.28031420612E+03  0.50400001928E-02 0.  1.
</event>
<event>
 5   0  0.2478000E-03  0.8082728E+03  0.7818609E-02  0.9548119E-01
        4   -1    0    0  501    0  0.00000000000E+00  0.00000000000E+00  0.32592392656E+03  0.32592640090E+03  0.12699999809E+01 0.  1.
       -4   -1    0    0    0  501  0.00000000000E+00  0.00000000000E+00 -0.50111249736E+03  0.50111410667E+03  0.12699999809E+01 0. -1.
    10030    2    1    2    0    0  0.00000000000E+00  0.00000000000E+00 -0.17518857080E+03  0.82704050757E+03  0.80827282883E+03 0.  0.
        1    1    3    3  502    0 -0.27970749789E+03 -0.16309786070E+03 -0.33505488818E+03  0.46593880999E+03  0.50400001928E-02 0. -1.
       -1    1    3    3    0  502  0.27970749789E+03  0.16309786070E+03  0.15986631738E+03  0.36110169758E+03  0.50400001928E-02 0.  1.
</event>
<event>
 5   0  0.3714448E-03  0.8090639E+03  0.7818609E-02  0.9546989E-01
       -1   -1    0    0    0  501  0.00000000000E+00  0.00000000000E+00  0.43650571188E+03  0.43650571191E+03  0.50400001928E-02 0. -1.
        1   -1    0    0  501    0  0.00000000000E+00  0.00000000000E+00 -0.37490027837E+03  0.37490027840E+03  0.50400001928E-02 0.  1.
    10030    2    1    2    0    0  0.00000000000E+00  0.00000000000E+00  0.61605433511E+02  0.81140599031E+03  0.80906393547E+03 0.  0.
        1    1    3    3  502    0 -0.31512480662E+02 -0.40311029369E+03  0.18310029863E+02  0.40475449662E+03  0.50400001928E-02 0. -1.
       -1    1    3    3    0  502  0.31512480662E+02  0.40311029369E+03  0.43295403648E+02  0.40665149369E+03  0.50400001928E-02 0.  1.
</event>
<event>
 5   0  0.3753450E-03  0.8045930E+03  0.7818609E-02  0.9553393E-01
       -1   -1    0    0    0  501  0.00000000000E+00  0.00000000000E+00  0.41408280874E+03  0.41408280877E+03  0.50400001928E-02 0. -1.
        1   -1    0    0  501    0  0.00000000000E+00  0.00000000000E+00 -0.39084571790E+03  0.39084571793E+03  0.50400001928E-02 0.  1.
    10030    2    1    2    0    0  0.00000000000E+00  0.00000000000E+00  0.23237090838E+02  0.80492852670E+03  0.80459304664E+03 0.  0.
        5    1    3    3  502    0  0.22952874687E+03 -0.70878491628E+02  0.33441884878E+03  0.41178302858E+03  0.46999998093E+01 0. -1.
       -5    1    3    3    0  502 -0.22952874687E+03  0.70878491628E+02 -0.31118175794E+03  0.39314549811E+03  0.46999998093E+01 0.  1.
</event>
<event>
 5   0  0.2478000E-03  0.7941824E+03  0.7818609E-02  0.9568476E-01
       -4   -1    0    0    0  501  0.00000000000E+00  0.00000000000E+00  0.53400744072E+03  0.53400895090E+03  0.12699999809E+01 0.  1.
        4   -1    0    0  501    0  0.00000000000E+00  0.00000000000E+00 -0.29527612634E+03  0.29527885750E+03  0.12699999809E+01 0. -1.
    10030    2    1    2    0    0  0.00000000000E+00  0.00000000000E+00  0.23873131438E+03  0.82928780840E+03  0.79418236489E+03 0.  0.
        1    1    3    3  502    0  0.17931120372E+03 -0.72621102436E+02  0.48147251352E+03  0.51888545326E+03  0.50400001928E-02 0.  1.
       -1    1    3    3    0  502 -0.17931120372E+03  0.72621102436E+02 -0.24274119914E+03  0.31040235515E+03  0.50400001928E-02 0. -1.
</event>
<event>
 5   0  0.6256781E-03  0.7998362E+03  0.7818609E-02  0.9560254E-01
       -2   -1    0    0    0  501  0.00000000000E+00  0.00000000000E+00  0.12368209421E+03  0.12368209424E+03  0.25500000920E-02 0. -1.
        2   -1    0    0  501    0  0.00000000000E+00  0.00000000000E+00 -0.12931094005E+04  0.12931094005E+04  0.25500000920E-02 0.  1.
    10030    2    1    2    0    0  0.00000000000E+00  0.00000000000E+00 -0.11694273063E+04  0.14167914947E+04  0.79983618001E+03 0.  0.
        1    1    3    3  502    0 -0.16271682309E+03 -0.10884688770E+03 -0.12024308096E+04  0.12182628048E+04  0.50400001928E-02 0.  1.
       -1    1    3    3    0  502  0.16271682309E+03  0.10884688770E+03  0.33003503365E+02  0.19852868996E+03  0.50400001928E-02 0. -1.
</event>
<event>
 5   0  0.6536209E-03  0.7933071E+03  0.7818609E-02  0.9569756E-01
       -2   -1    0    0    0  501  0.00000000000E+00  0.00000000000E+00  0.18898226989E+03  0.18898226991E+03  0.25500000920E-02 0.  1.
        2   -1    0    0  501    0  0.00000000000E+00  0.00000000000E+00 -0.83253324338E+03  0.83253324339E+03  0.25500000920E-02 0. -1.
    10030    2    1    2    0    0  0.00000000000E+00  0.00000000000E+00 -0.64355097349E+03  0.10215155133E+04  0.79330705810E+03 0.  0.
        3    1    3    3  502    0 -0.35481428513E+03  0.10151983274E+02 -0.54972449544E+03  0.65436478419E+03  0.10100000352E+00 0. -1.
       -3    1    3    3    0  502  0.35481428513E+03 -0.10151983274E+02 -0.93826478044E+02  0.36715072911E+03  0.10100000352E+00 0.  1.
</event>
<event>
 5   0  0.3714448E-03  0.7973416E+03  0.7818609E-02  0.9563873E-01
        1   -1    0    0  501    0  0.00000000000E+00  0.00000000000E+00  0.19972255605E+04  0.19972255605E+04  0.50400001928E-02 0. -1.
       -1   -1    0    0    0  501  0.00000000000E+00  0.00000000000E+00 -0.79579603926E+02  0.79579604085E+02  0.50400001928E-02 0.  1.
    10030    2    1    2    0    0  0.00000000000E+00  0.00000000000E+00  0.19176459566E+04  0.20768051646E+04  0.79734163124E+03 0.  0.
        1    1    3    3  502    0  0.12459132523E+03 -0.20065376208E+03  0.12227033656E+03  0.26596045906E+03  0.50400001928E-02 0.  1.
       -1    1    3    3    0  502 -0.12459132523E+03  0.20065376208E+03  0.17953756200E+04  0.18108447055E+04  0.50400001928E-02 0. -1.
</event>
<event>
 5   0  0.3671128E-03  0.7967332E+03  0.7818609E-02  0.9564758E-01
        1   -1    0    0  501    0  0.00000000000E+00  0.00000000000E+00  0.66915272347E+03  0.66915272349E+03  0.50400001928E-02 0. -1.
       -1   -1    0    0    0  501  0.00000000000E+00  0.00000000000E+00 -0.23715952483E+03  0.23715952488E+03  0.50400001928E-02 0.  1.
    10030    2    1    2    0    0  0.00000000000E+00  0.00000000000E+00  0.43199319864E+03  0.90631224837E+03  0.79673318487E+03 0.  0.
        2    1    3    3  502    0  0.10003445003E+03  0.12905532050E+03 -0.19734342735E+03  0.25613784426E+03  0.25500000920E-02 0.  1.
       -2    1    3    3    0  502 -0.10003445003E+03 -0.12905532050E+03  0.62933662599E+03  0.65017440411E+03  0.25500000920E-02 0. -1.
</event>
<event>
 5   0  0.2478000E-03  0.7967540E+03  0.7818609E-02  0.9564728E-01
        3   -1    0    0  501    0  0.00000000000E+00  0.00000000000E+00  0.31003098594E+03  0.31003100239E+03  0.10100000352E+00 0.  1.
       -3   -1    0    0    0  501  0.00000000000E+00  0.00000000000E+00 -0.51189789258E+03  0.51189790254E+03  0.10100000352E+00 0. -1.
    10030    2    1    2    0    0  0.00000000000E+00  0.00000000000E+00 -0.20186690663E+03  0.82192890494E+03  0.79675396251E+03 0.  0.
        2    1    3    3  502    0  0.13193203986E+03 -0.93920487474E+02  0.27454102689E+03  0.31874738675E+03  0.25500000920E-02 0.  1.
       -2    1    3    3    0  502 -0.13193203986E+03  0.93920487474E+02 -0.47640793353E+03  0.50318151818E+03  0.25500000920E-02 0. -1.
</event>
<event>
 5   0  0.3860515E-03  0.8005188E+03  0.7818609E-02  0.9559267E-01
       -1   -1    0    0    0  501  0.00000000000E+00  0.00000000000E+00  0.40921738964E+03  0.40921738967E+03  0.50400001928E-02 0. -1.
        1   -1    0    0  501    0  0.00000000000E+00  0.00000000000E+00 -0.39149746882E+03  0.39149746885E+03  0.50400001928E-02 0.  1.
    10030    2    1    2    0    0  0.00000000000E+00  0.00000000000E+00  0.17719920818E+02  0.80071485852E+03  0.80051876246E+03 0.  0.
        4    1    3    3  502    0  0.13737410244E+03  0.30620024672E+03 -0.20931207153E+03  0.39552925467E+03  0.12699999809E+01 0.  1.
       -4    1    3    3    0  502 -0.13737410244E+03 -0.30620024672E+03  0.22703199235E+03  0.40518560384E+03  0.12699999809E+01 0. -1.
</event>
<event>
 5   0  0.3671128E-03  0.8013586E+03  0.7818609E-02  0.9558053E-01
        1   -1    0    0  501    0  0.00000000000E+00  0.00000000000E+00  0.12107075398E+04  0.12107075398E+04  0.50400001928E-02 0.  1.
       -1   -1    0    0    0  501  0.00000000000E+00  0.00000000000E+00 -0.13260338562E+03  0.13260338572E+03  0.50400001928E-02 0. -1.
    10030    2    1    2    0    0  0.00000000000E+00  0.00000000000E+00  0.10781041542E+04  0.13433109256E+04  0.80135864343E+03 0.  0.
        2    1    3    3  502    0  0.46089520958E+02  0.98363145739E+02 -0.10744994050E+03  0.15279084430E+03  0.25500000920E-02 0. -1.
       -2    1    3    3    0  502 -0.46089520958E+02 -0.98363145739E+02  0.11855540947E+04  0.11905200813E+04  0.25500000920E-02 0.  1.
</event>
<event>
 5   0  0.3627496E-03  0.7992572E+03  0.7818609E-02  0.9561093E-01
        1   -1    0    0  501    0  0.00000000000E+00  0.00000000000E+00  0.33712664524E+03  0.33712664528E+03  0.50400001928E-02 0. -1.
       -1   -1    0    0    0  501  0.00000000000E+00  0.00000000000E+00 -0.47371814135E+03  0.47371814138E+03  0.50400001928E-02 0.  1.
    10030    2    1    2    0    0  0.00000000000E+00  0.00000000000E+00 -0.13659149611E+03  0.81084478666E+03  0.79925717466E+03 0.  0.
        3    1    3    3  502    0 -0.14232521771E+03  0.24290253150E+03  0.21944436964E+03  0.35695090555E+03  0.10100000352E+00 0. -1.
       -3    1    3    3    0  502  0.14232521771E+03 -0.24290253150E+03 -0.35603586575E+03  0.45389388111E+03  0.10100000352E+00 0.  1.
</event>
<event>
 5   0  0.6256781E-03  0.8258290E+03  0.7818609E-02  0.9523365E-01
       -2   -1    0    0    0  501  0.00000000000E+00  0.00000000000E+00  0.54010905708E+03  0.54010905708E+03  0.25500000920E-02 0. -1.
        2   -1    0    0  501    0  0.00000000000E+00  0.00000000000E+00 -0.31567399670E+03  0.31567399671E+03  0.25500000920E-02 0.  1.
    10030    2    1    2    0    0  0.00000000000E+00  0.00000000000E+00  0.22443506038E+03  0.85578305379E+03  0.82582900097E+03 0.  0.
        1    1    3    3  502    0  0.18854838569E+03  0.11229321312E+02  0.49271660223E+03  0.52768005605E+03  0.50400001928E-02 0. -1.
       -1    1    3    3    0  502 -0.18854838569E+03 -0.11229321312E+02 -0.26828154186E+03  0.32810299775E+03  0.50400001928E-02 0.  1.
</event>
<event>
 5   0  0.3753450E-03  0.8143479E+03  0.7818609E-02  0.9539478E-01
       -1   -1    0    0    0  501  0.00000000000E+00  0.00000000000E+00  0.35651180748E+03  0.35651180752E+03  0.50400001928E-02 0. -1.
        1   -1    0    0  501    0  0.00000000000E+00  0.00000000000E+00 -0.46503538545E+03  0.46503538548E+03  0.50400001928E-02 0.  1.
    10030    2    1    2    0    0  0.00000000000E+00  0.00000000000E+00 -0.10852357797E+03  0.82154719300E+03  0.81434785156E+03 0.  0.
        5    1    3    3  502    0  0.30512402473E+03 -0.53971620568E+02 -0.32070824685E+03  0.44597026346E+03  0.46999998093E+01 0.  1.
       -5    1    3    3    0  502 -0.30512402473E+03  0.53971620568E+02  0.21218466888E+03  0.37557692954E+03  0.46999998093E+01 0. -1.
</event>
<event>
 5   0  0.6153659E-03  0.7997954E+03  0.7818609E-02  0.9560313E-01
       -2   -1    0    0    0  501  0.00000000000E+00  0.00000000000E+00  0.21734071272E+03  0.21734071274E+03  0.25500000920E-02 0.  1.
        2   -1    0    0  501    0  0.00000000000E+00  0.00000000000E+00 -0.73579480157E+03  0.73579480157E+03  0.25500000920E-02 0. -1.
    10030    2    1    2    0    0  0.00000000000E+00  0.00000000000E+00 -0.51845408885E+03  0.95313551431E+03  0.79979539033E+03 0.  0.
        2    1    3    3  502    0 -0.15404071326E+03  0.19753078043E+03 -0.63071486006E+03  0.67863700553E+03  0.25500000920E-02 0. -1.
       -2    1    3    3    0  502  0.15404071326E+03 -0.19753078043E+03  0.11226077122E+03  0.27449850878E+03  0.25500000920E-02 0.  1.
</event>
<event>
 5   0  0.3671128E-03  0.8006449E+03  0.7818609E-02  0.9559084E-01
       -1   -1    0    0    0  501  0.00000000000E+00  0.00000000000E+00  0.13390626337E+03  0.13390626346E+03  0.50400001928E-02 0.  1.
        1   -1    0    0  501    0  0.00000000000E+00  0.00000000000E+00 -0.11967928407E+04  0.11967928407E+04  0.50400001928E-02 0. -1.
    10030    2    1    2    0    0  0.00000000000E+00  0.00000000000E+00 -0.10628865774E+04  0.13306991042E+04  0.80064488357E+03 0.  0.
        2    1    3    3  502    0  0.11642005548E+03 -0.35371656070E+03 -0.28723723594E+03  0.47029168008E+03  0.25500000920E-02 0.  1.
       -2    1    3    3    0  502 -0.11642005548E+03  0.35371656070E+03 -0.77564934142E+03  0.86040742413E+03  0.25500000920E-02 0. -1.
</event>
<event>
 5   0  0.6536209E-03  0.8152525E+03  0.7818609E-02  0.9538198E-01
        2   -1    0    0  501    0  0.00000000000E+00  0.00000000000E+00  0.39812017146E+03  0.39812017146E+03  0.25500000920E-02 0. -1.
       -2   -1    0    0    0  501  0.00000000000E+00  0.00000000000E+00 -0.41735928171E+03  0.41735928172E+03  0.25500000920E-02 0.  1.
    10030    2    1    2    0    0  0.00000000000E+00  0.00000000000E+00 -0.19239110252E+02  0.81547945318E+03  0.81525247328E+03 0.  0.
        3    1    3    3  502    0 -0.17653450614E+03 -0.29104029208E+02 -0.37598326856E+03  0.41638312263E+03  0.10100000352E+00 0.  1.
       -3    1    3    3    0  502  0.17653450614E+03  0.29104029208E+02  0.35674415830E+03  0.39909633055E+03  0.10100000352E+00 0. -1.
</event>
<event>
 5   0  0.3714448E-03  0.7996053E+03  0.7818609E-02  0.9560589E-01
       -1   -1    0    0    0  501  0.00000000000E+00  0.00000000000E+00  0.57582379432E+03  0.57582379434E+03  0.50400001928E-02 0. -1.
        1   -1    0    0  501    0  0.00000000000E+00  0.00000000000E+00 -0.27758868550E+03  0.27758868554E+03  0.50400001928E-02 0.  1.
    10030    2    1    2    0    0  0.00000000000E+00  0.00000000000E+00  0.29823510882E+03  0.85341247988E+03  0.79960532808E+03 0.  0.
        1    1    3    3  502    0 -0.15341257538E+03  0.18421237030E+03 -0.19237015724E+03  0.30736931056E+03  0.50400001928E-02 0.  1.
       -1    1    3    3    0  502  0.15341257538E+03 -0.18421237030E+03  0.49060526606E+03  0.54604316932E+03  0.50400001928E-02 0. -1.
</event>
<event>
 5   0  0.6536209E-03  0.7978132E+03  0.7818609E-02  0.9563188E-01
       -2   -1    0    0    0  501  0.00000000000E+00  0.00000000000E+00  0.13148691567E+03  0.13148691570E+03  0.25500000920E-02 0.  1.
        2   -1    0    0  501    0  0.00000000000E+00  0.00000000000E+00 -0.12102075862E+04  0.12102075862E+04  0.25500000920E-02 0. -1.
    10030    2    1    2    0    0  0.00000000000E+00  0.00000000000E+00 -0.10787206705E+04  0.13416945019E+04  0.79781316822E+03 0.  0.
        3    1    3    3  502    0 -0.17528798200E+03 -0.22700018869E+03 -0.73092894019E+02  0.29596882210E+03  0.10100000352E+00 0.  1.
       -3    1    3    3    0  502  0.17528798200E+03  0.22700018869E+03 -0.10056277765E+04  0.10457256798E+04  0.10100000352E+00 0. -1.
</event>
<event>
 5   0  0.3627496E-03  0.7913342E+03  0.7818609E-02  0.9572646E-01
       -1   -1    0    0    0  501  0.00000000000E+00  0.00000000000E+00  0.15964836252E+03  0.15964836260E+03  0.50400001928E-02 0. -1.
        1   -1    0    0  501    0  0.00000000000E+00  0.00000000000E+00 -0.98060791344E+03  0.98060791346E+03  0.50400001928E-02 0.  1.
    10030    2    1    2    0    0  0.00000000000E+00  0.00000000000E+00 -0.82095955093E+03  0.11402562761E+04  0.79133418404E+03 0.  0.
        3    1    3    3  502    0 -0.21024904750E+03  0.27160921290E+03 -0.12746941871E+03  0.36636687816E+03  0.10100000352E+00 0. -1.
       -3    1    3    3    0  502  0.21024904750E+03 -0.27160921290E+03 -0.69349013221E+03  0.77388939790E+03  0.10100000352E+00 0.  1.
</event>
<event>
 5   0  0.3753450E-03  0.7990165E+03  0.7818609E-02  0.9561442E-01
       -1   -1    0    0    0  501  0.00000000000E+00  0.00000000000E+00  0.18871931226E+03  0.18871931233E+03  0.50400001928E-02 0.  1.
        1   -1    0    0  501    0  0.00000000000E+00  0.00000000000E+00 -0.84573676512E+03  0.84573676514E+03  0.50400001928E-02 0. -1.
    10030    2    1    2    0    0  0.00000000000E+00  0.00000000000E+00 -0.65701745286E+03  0.10344560775E+04  0.79901654729E+03 0.  0.
        5    1    3    3  502    0  0.20625114077E+03  0.79315906226E+02  0.10235152700E+03  0.24357436468E+03  0.46999998093E+01 0.  1.
       -5    1    3    3    0  502 -0.20625114077E+03 -0.79315906226E+02 -0.75936897986E+03  0.79088171279E+03  0.46999998093E+01 0. -1.
</event>
<event>
 5   0  0.3627496E-03  0.8311762E+03  0.7818609E-02  0.9515956E-01
        1   -1    0    0  501    0  0.00000000000E+00  0.00000000000E+00  0.35704154647E+03  0.35704154651E+03  0.50400001928E-02 0.  1.
       -1   -1    0    0    0  501  0.00000000000E+00  0.00000000000E+00 -0.48373488496E+03  0.48373488499E+03  0.50400001928E-02 0. -1.
    10030    2    1    2    0    0  0.00000000000E+00  0.00000000000E+00 -0.12669333849E+03  0.84077643149E+03  0.83117615806E+03 0.  0.
        3    1    3    3  502    0 -0.29051541962E+03 -0.10678331707E+03  0.21718587407E+03  0.37811585518E+03  0.10100000352E+00 0.  1.
       -3    1    3    3    0  502  0.29051541962E+03  0.10678331707E+03 -0.34387921256E+03  0.46266057631E+03  0.10100000352E+00 0. -1.
</event>
<event>
 5   0  0.5813850E-03  0.8033054E+03  0.7818609E-02  0.9555245E-01
       -2   -1    0    0    0  501  0.00000000000E+00  0.00000000000E+00  0.20998049520E+03  0.20998049522E+03  0.25500000920E-02 0. -1.
        2   -1    0    0  501    0  0.00000000000E+00  0.00000000000E+00 -0.76828516730E+03  0.76828516730E+03  0.25500000920E-02 0.  1.
    10030    2    1    2    0    0  0.00000000000E+00  0.00000000000E+00 -0.55830467210E+03  0.97826566252E+03  0.80330542111E+03 0.  0.
        5    1    3    3  502    0 -0.10005226006E+03 -0.14697981159E+03 -0.71771147817E+03  0.73942232563E+03  0.46999998093E+01 0.  1.
       -5    1    3    3    0  502  0.10005226006E+03  0.14697981159E+03  0.15940680607E+03  0.23884333689E+03  0.46999998093E+01 0. -1.
</event>
<event>
 5   0  0.6256781E-03  0.7736287E+03  0.7818609E-02  0.9598993E-01
        2   -1    0    0  501    0  0.00000000000E+00  0.00000000000E+00  0.85816472046E+03  0.85816472046E+03  0.25500000920E-02 0. -1.
       -2   -1    0    0    0  501  0.00000000000E+00  0.00000000000E+00 -0.17435504794E+03  0.17435504796E+03  0.25500000920E-02 0.  1.
    10030    2    1    2    0    0  0.00000000000E+00  0.00000000000E+00  0.68380967252E+03  0.10325197684E+04  0.77362872487E+03 0.  0.
        1    1    3    3  502    0  0.32134774000E+03 -0.75885304297E+02  0.72973351523E+02  0.33815389909E+03  0.50400001928E-02 0. -1.
       -1    1    3    3    0  502 -0.32134774000E+03  0.75885304297E+02  0.61083632100E+03  0.69436586933E+03  0.50400001928E-02 0.  1.
</event>
<event>
 5   0  0.6256781E-03  0.8001825E+03  0.7818609E-02  0.9559753E-01
       -2   -1    0    0    0  501  0.00000000000E+00  0.00000000000E+00  0.22710954264E+03  0.22710954265E+03  0.25500000920E-02 0.  1.
        2   -1    0    0  501    0  0.00000000000E+00  0.00000000000E+00 -0.70482733550E+03  0.70482733550E+03  0.25500000920E-02 0. -1.
    10030    2    1    2    0    0  0.00000000000E+00  0.00000000000E+00 -0.47771779286E+03  0.93193687816E+03  0.80018251371E+03 0.  0.
        1    1    3    3  502    0 -0.54887985879E+02  0.55536140535E+02 -0.69586714875E+03  0.70023427696E+03  0.50400001928E-02 0. -1.
       -1    1    3    3    0  502  0.54887985879E+02 -0.55536140535E+02  0.21814935589E+03  0.23170260119E+03  0.50400001928E-02 0.  1.
</event>
<event>
 5   0  0.3671128E-03  0.8026419E+03  0.7818609E-02  0.9556201E-01
       -1   -1    0    0    0  501  0.00000000000E+00  0.00000000000E+00  0.67073599760E+02  0.67073599950E+02  0.50400001928E-02 0.  1.
        1   -1    0    0  501    0  0.00000000000E+00  0.00000000000E+00 -0.24012206040E+04  0.24012206040E+04  0.50400001928E-02 0. -1.
    10030    2    1    2    0    0  0.00000000000E+00  0.00000000000E+00 -0.23341470042E+04  0.24682942039E+04  0.80264191260E+03 0.  0.
        2    1    3    3  502    0  0.39764891764E+03  0.64413220716E+01 -0.13324603936E+04  0.13905455235E+04  0.25500000920E-02 0. -1.
       -2    1    3    3    0  502 -0.39764891764E+03 -0.64413220716E+01 -0.10016866106E+04  0.10777486805E+04  0.25500000920E-02 0.  1.
</event>
<event>
 5   0  0.5813850E-03  0.7990914E+03  0.7818609E-02  0.9561333E-01
       -2   -1    0    0    0  501  0.00000000000E+00  0.00000000000E+00  0.26794776850E+03  0.26794776851E+03  0.25500000920E-02 0. -1.
        2   -1    0    0  501    0  0.00000000000E+00  0.00000000000E+00 -0.59577569841E+03  0.59577569842E+03  0.25500000920E-02 0.  1.
    10030    2    1    2    0    0  0.00000000000E+00  0.00000000000E+00 -0.32782792991E+03  0.86372346693E+03  0.79909140635E+03 0.  0.
        5    1    3    3  502    0  0.32700680618E+03  0.54794645869E+02 -0.40482888431E+03  0.52330146194E+03  0.46999998093E+01 0.  1.
       -5    1    3    3    0  502 -0.32700680618E+03 -0.54794645869E+02  0.77000954396E+02  0.34042200499E+03  0.46999998093E+01 0. -1.
</event>
<event>
 5   0  0.6153659E-03  0.7980779E+03  0.7818609E-02  0.9562803E-01
       -2   -1    0    0    0  501  0.00000000000E+00  0.00000000000E+00  0.78841526850E+02  0.78841526891E+02  0.25500000920E-02 0. -1.
        2   -1    0    0  501    0  0.00000000000E+00  0.00000000000E+00 -0.20196472165E+04  0.20196472165E+04  0.25500000920E-02 0.  1.
    10030    2    1    2    0    0  0.00000000000E+00  0.00000000000E+00 -0.19408056897E+04  0.20984887434E+04  0.79807786661E+03 0.  0.
        2    1    3    3  502    0  0.23583942323E+03 -0.56277251893E+02 -0.13705770490E+03  0.27851782188E+03  0.25500000920E-02 0. -1.
       -2    1    3    3    0  502 -0.23583942323E+03  0.56277251893E+02 -0.18037479848E+04  0.18199709215E+04  0.25500000920E-02 0.  1.
</event>
<event>
 5   0  0.3753450E-03  0.8000898E+03  0.7818609E-02  0.9559887E-01
        1   -1    0    0  501    0  0.00000000000E+00  0.00000000000E+00  0.29820005836E+03  0.29820005840E+03  0.50400001928E-02 0.  1.
       -1   -1    0    0    0  501  0.00000000000E+00  0.00000000000E+00 -0.53667305784E+03  0.53667305786E+03  0.50400001928E-02 0. -1.
    10030    2    1    2    0    0  0.00000000000E+00  0.00000000000E+00 -0.23847299948E+03  0.83487311626E+03  0.80008983794E+03 0.  0.
        5    1    3    3  502    0 -0.37052378508E+03 -0.13559758229E+03 -0.50499600462E+02  0.39780256319E+03  0.46999998093E+01 0.  1.
       -5    1    3    3    0  502  0.37052378508E+03  0.13559758229E+03 -0.18797339901E+03  0.43707055308E+03  0.46999998093E+01 0. -1.
</event>
<event>
 5   0  0.3860515E-03  0.7989335E+03  0.7818609E-02  0.9561562E-01
        1   -1    0    0  501    0  0.00000000000E+00  0.00000000000E+00  0.12981920485E+04  0.12981920485E+04  0.50400001928E-02 0.  1.
       -1   -1    0    0    0  501  0.00000000000E+00  0.00000000000E+00 -0.12291994982E+03  0.12291994992E+03  0.50400001928E-02 0. -1.
    10030    2    1    2    0    0  0.00000000000E+00  0.00000000000E+00  0.11752720987E+04  0.14211119984E+04  0.79893354301E+03 0.  0.
        4    1    3    3  502    0 -0.35687892333E+03 -0.43488949687E+02  0.89735629924E+03  0.96669736492E+03  0.12699999809E+01 0. -1.
       -4    1    3    3    0  502  0.35687892333E+03  0.43488949687E+02  0.27791579943E+03  0.45441463350E+03  0.12699999809E+01 0.  1.
</event>
<event>
 5   0  0.3627496E-03  0.8010032E+03  0.7818609E-02  0.9558566E-01
        1   -1    0    0  501    0  0.00000000000E+00  0.00000000000E+00  0.21727471321E+03  0.21727471327E+03  0.50400001928E-02 0. -1.
       -1   -1    0    0    0  501  0.00000000000E+00  0.00000000000E+00 -0.73824300647E+03  0.73824300649E+03  0.50400001928E-02 0.  1.
    10030    2    1    2    0    0  0.00000000000E+00  0.00000000000E+00 -0.52096829326E+03  0.95551771976E+03  0.80100321484E+03 0.  0.
        3    1    3    3  502    0  0.10983957512E+03 -0.33415292387E+03 -0.48894456686E+03  0.60232027067E+03  0.10100000352E+00 0.  1.
       -3    1    3    3    0  502 -0.10983957512E+03  0.33415292387E+03 -0.32023726405E+02  0.35319744909E+03  0.10100000352E+00 0. -1.
</event>
<event>
 5   0  0.3627496E-03  0.7895523E+03  0.7818609E-02  0.9575264E-01
       -1   -1    0    0    0  501  0.00000000000E+00  0.00000000000E+00  0.10510498998E+03  0.10510499010E+03  0.50400001928E-02 0. -1.
        1   -1    0    0  501    0  0.00000000000E+00  0.00000000000E+00 -0.14827861699E+04  0.14827861699E+04  0.50400001928E-02 0.  1.
    10030    2    1    2    0    0  0.00000000000E+00  0.00000000000E+00 -0.13776811800E+04  0.15878911600E+04  0.78955234312E+03 0.  0.
        3    1    3    3  502    0  0.27467479641E+03 -0.26854837203E+03 -0.87188359054E+03  0.95275677775E+03  0.10100000352E+00 0.  1.
       -3    1    3    3    0  502 -0.27467479641E+03  0.26854837203E+03 -0.50579758942E+03  0.63513438229E+03  0.10100000352E+00 0. -1.
</event>
<event>
 5   0  0.6153659E-03  0.8022561E+03  0.7818609E-02  0.9556757E-01
        2   -1    0    0  501    0  0.00000000000E+00  0.00000000000E+00  0.15348622495E+04  0.15348622495E+04  0.25500000920E-02 0.  1.
       -2   -1    0    0    0  501  0.00000000000E+00  0.00000000000E+00 -0.10483268393E+03  0.10483268396E+03  0.25500000920E-02 0. -1.
    10030    2    1    2    0    0  0.00000000000E+00  0.00000000000E+00  0.14300295656E+04  0.16396949335E+04  0.80225614141E+03 0.  0.
        2    1    3    3  502    0 -0.10531629915E+03 -0.19825527594E+03  0.35584342293E+02  0.22729479256E+03  0.25500000920E-02 0. -1.
       -2    1    3    3    0  502  0.10531629915E+03  0.19825527594E+03  0.13944452233E+04  0.14124001409E+04  0.25500000920E-02 0.  1.
</event>
<event>
 5   0  0.6153659E-03  0.8042505E+03  0.7818609E-02  0.9553885E-01
       -2   -1    0    0    0  501  0.00000000000E+00  0.00000000000E+00  0.16203936734E+03  0.16203936736E+03  0.25500000920E-02 0. -1.
        2   -1    0    0  501    0  0.00000000000E+00  0.00000000000E+00 -0.99793484861E+03  0.99793484861E+03  0.25500000920E-02 0.  1.
    10030    2    1    2    0    0  0.00000000000E+00  0.00000000000E+00 -0.83589548127E+03  0.11599742160E+04  0.80425053690E+03 0.  0.
        2    1    3    3  502    0  0.39502244090E+03  0.17036566827E+01 -0.30944750777E+03  0.50180015079E+03  0.25500000920E-02 0.  1.
       -2    1    3    3    0  502 -0.39502244090E+03 -0.17036566827E+01 -0.52644797350E+03  0.65817406518E+03  0.25500000920E-02 0. -1.
</event>
<event>
 5   0  0.3860515E-03  0.8007672E+03  0.7818609E-02  0.9558907E-01
        1   -1    0    0  501    0  0.00000000000E+00  0.00000000000E+00  0.54442157455E+03  0.54442157457E+03  0.50400001928E-02 0. -1.
       -1   -1    0    0    0  501  0.00000000000E+00  0.00000000000E+00 -0.29445385498E+03  0.29445385503E+03  0.50400001928E-02 0.  1.
    10030    2    1    2    0    0  0.00000000000E+00  0.00000000000E+00  0.24996771957E+03  0.83887542960E+03  0.80076721059E+03 0.  0.
        4    1    3    3  502    0 -0.46424513953E+02  0.62816842622E+02  0.53636022101E+03  0.54201945611E+03  0.12699999809E+01 0. -1.
       -4    1    3    3    0  502  0.46424513953E+02 -0.62816842622E+02 -0.28639250145E+03  0.29685597349E+03  0.12699999809E+01 0.  1.
</event>
<event>
 5   0  0.3714448E-03  0.7978855E+03  0.7818609E-02  0.9563083E-01
        1   -1    0    0  501    0  0.00000000000E+00  0.00000000000E+00  0.43087858030E+03  0.43087858033E+03  0.50400001928E-02 0. -1.
       -1   -1    0    0    0  501  0.00000000000E+00  0.00000000000E+00 -0.36937397916E+03  0.36937397919E+03  0.50400001928E-02 0.  1.
    10030    2    1    2    0    0  0.00000000000E+00  0.00000000000E+00  0.61504601144E+02  0.80025255953E+03  0.79788554509E+03 0.  0.
        1    1    3    3  502    0  0.80809858890E+02 -0.40989814628E+02  0.42042120515E+03  0.43007486321E+03  0.50400001928E-02 0. -1.
       -1    1    3    3    0  502 -0.80809858890E+02  0.40989814628E+02 -0.35891660401E+03  0.37017769632E+03  0.50400001928E-02 0.  1.
</event>
<event>
 5   0  0.3860515E-03  0.7929218E+03  0.7818609E-02  0.9570319E-01
        1   -1    0    0  501    0  0.00000000000E+00  0.00000000000E+00  0.37115277275E+03  0.37115277279E+03  0.50400001928E-02 0.  1.
       -1   -1    0    0    0  501  0.00000000000E+00  0.00000000000E+00 -0.42349477980E+03  0.42349477983E+03  0.50400001928E-02 0. -1.
    10030    2    1    2    0    0  0.00000000000E+00  0.00000000000E+00 -0.52342007045E+02  0.79464755261E+03  0.79292184178E+03 0.  0.
        4    1    3    3  502    0 -0.99677903410E+02  0.16118562195E+03  0.32281548204E+03  0.37433666331E+03  0.12699999809E+01 0.  1.
       -4    1    3    3    0  502  0.99677903410E+02 -0.16118562195E+03 -0.37515748908E+03  0.42031088930E+03  0.12699999809E+01 0. -1.
</event>
<event>
 5   0  0.2478000E-03  0.7980372E+03  0.7818609E-02  0.9562862E-01
       -3   -1    0    0    0  501  0.00000000000E+00  0.00000000000E+00  0.75200370444E+03  0.75200371122E+03  0.10100000352E+00 0.  1.
        3   -1    0    0  501    0  0.00000000000E+00  0.00000000000E+00 -0.21172214439E+03  0.21172216848E+03  0.10100000352E+00 0. -1.
    10030    2    1    2    0    0  0.00000000000E+00  0.00000000000E+00  0.54028156004E+03  0.96372587970E+03  0.79803722162E+03 0.  0.
        3    1    3    3  502    0 -0.80199807372E+02  0.38742044719E+03  0.20751627414E+03  0.44675454809E+03  0.10100000352E+00 0. -1.
       -3    1    3    3    0  502  0.80199807372E+02 -0.38742044719E+03  0.33276528590E+03  0.51697133161E+03  0.10100000352E+00 0.  1.
</event>
<event>
 5   0  0.2478000E-03  0.8011347E+03  0.7818609E-02  0.9558376E-01
       -3   -1    0    0    0  501  0.00000000000E+00  0.00000000000E+00  0.17315148721E+03  0.17315151667E+03  0.10100000352E+00 0.  1.
        3   -1    0    0  501    0  0.00000000000E+00  0.00000000000E+00 -0.92666940994E+03  0.92666941544E+03  0.10100000352E+00 0. -1.
    10030    2    1    2    0    0  0.00000000000E+00  0.00000000000E+00 -0.75351792273E+03  0.10998209321E+04  0.80113470954E+03 0.  0.
        2    1    3    3  502    0  0.93647644439E+00 -0.40039832986E+03 -0.39268059106E+03  0.56081881757E+03  0.25500000920E-02 0. -1.
       -2    1    3    3    0  502 -0.93647644439E+00  0.40039832986E+03 -0.36083733167E+03  0.53900211454E+03  0.25500000920E-02 0.  1.
</event>
<event>
 5   0  0.3627496E-03  0.8035265E+03  0.7818609E-02  0.9554927E-01
       -1   -1    0    0    0  501  0.00000000000E+00  0.00000000000E+00  0.30211341790E+03  0.30211341795E+03  0.50400001928E-02 0. -1.
        1   -1    0    0  501    0  0.00000000000E+00  0.00000000000E+00 -0.53428184339E+03  0.53428184341E+03  0.50400001928E-02 0.  1.
    10030    2    1    2    0    0  0.00000000000E+00  0.00000000000E+00 -0.23216842549E+03  0.83639526136E+03  0.80352651197E+03 0.  0.
        3    1    3    3  502    0  0.34589709418E+03  0.12249561710E+03 -0.28637245167E+03  0.46546661239E+03  0.10100000352E+00 0. -1.
       -3    1    3    3    0  502 -0.34589709418E+03 -0.12249561710E+03  0.54204026182E+02  0.37092864897E+03  0.10100000352E+00 0.  1.
</event>
<event>
 5   0  0.6337108E-03  0.8044886E+03  0.7818609E-02  0.9553543E-01
        2   -1    0    0  501    0  0.00000000000E+00  0.00000000000E+00  0.11073285716E+04  0.11073285716E+04  0.25500000920E-02 0.  1.
       -2   -1    0    0    0  501  0.00000000000E+00  0.00000000000E+00 -0.14611785811E+03  0.14611785813E+03  0.25500000920E-02 0. -1.
    10030    2    1    2    0    0  0.00000000000E+00  0.00000000000E+00  0.96121071349E+03  0.12534464297E+04  0.80448860557E+03 0.  0.
        4    1    3    3  502    0  0.18506869245E+03 -0.12189825402E+02  0.10367277007E+04  0.10531879942E+04  0.12699999809E+01 0.  1.
       -4    1    3    3    0  502 -0.18506869245E+03  0.12189825402E+02 -0.75516987189E+02  0.20025843559E+03  0.12699999809E+01 0. -1.
</event>
<event>
 5   0  0.6536209E-03  0.7947063E+03  0.7818609E-02  0.9567711E-01
        2   -1    0    0  501    0  0.00000000000E+00  0.00000000000E+00  0.14669805862E+04  0.14669805862E+04  0.25500000920E-02 0.  1.
       -2   -1    0    0    0  501  0.00000000000E+00  0.00000000000E+00 -0.10762890881E+03  0.10762890884E+03  0.25500000920E-02 0. -1.
    10030    2    1    2    0    0  0.00000000000E+00  0.00000000000E+00  0.13593516773E+04  0.15746094950E+04  0.79470628476E+03 0.  0.
        3    1    3    3  502    0  0.90654502141E+02  0.37317972824E+03  0.47753539062E+03  0.61279801552E+03  0.10100000352E+00 0.  1.
       -3    1    3    3    0  502 -0.90654502141E+02 -0.37317972824E+03  0.88181628672E+03  0.96181147948E+03  0.10100000352E+00 0. -1.
</event>
<event>
 5   0  0.6256781E-03  0.7649347E+03  0.7818609E-02  0.9612207E-01
       -2   -1    0    0    0  501  0.00000000000E+00  0.00000000000E+00  0.64032484186E+03  0.64032484186E+03  0.25500000920E-02 0.  1.
        2   -1    0    0  501    0  0.00000000000E+00  0.00000000000E+00 -0.22844851976E+03  0.22844851977E+03  0.25500000920E-02 0. -1.
    10030    2    1    2    0    0  0.00000000000E+00  0.00000000000E+00  0.41187632210E+03  0.86877336164E+03  0.76493466988E+03 0.  0.
        1    1    3    3  502    0 -0.20364109217E+03 -0.32214945949E+03  0.24241131442E+03  0.45167821959E+03  0.50400001928E-02 0. -1.
       -1    1    3    3    0  502  0.20364109217E+03  0.32214945949E+03  0.16946500768E+03  0.41709514205E+03  0.50400001928E-02 0.  1.
</event>
<event>
 5   0  0.2478000E-03  0.7993378E+03  0.7818609E-02  0.9560976E-01
       -3   -1    0    0    0  501  0.00000000000E+00  0.00000000000E+00  0.10567551625E+04  0.10567551674E+04  0.10100000352E+00 0.  1.
        3   -1    0    0  501    0  0.00000000000E+00  0.00000000000E+00 -0.15115631333E+03  0.15115634707E+03  0.10100000352E+00 0. -1.
    10030    2    1    2    0    0  0.00000000000E+00  0.00000000000E+00  0.90559884922E+03  0.12079115144E+04  0.79933782034E+03 0.  0.
        1    1    3    3  502    0  0.65735228961E+02  0.20791593582E+03  0.95894134935E+03  0.98342191770E+03  0.50400001928E-02 0.  1.
       -1    1    3    3    0  502 -0.65735228961E+02 -0.20791593582E+03 -0.53342500139E+02  0.22448959674E+03  0.50400001928E-02 0. -1.
</event>
<event>
 5   0  0.6536209E-03  0.7993895E+03  0.7818609E-02  0.9560901E-01
       -2   -1    0    0    0  501  0.00000000000E+00  0.00000000000E+00  0.27851132232E+03  0.27851132233E+03  0.25500000920E-02 0. -1.
        2   -1    0    0  501    0  0.00000000000E+00  0.00000000000E+00 -0.57360651442E+03  0.57360651443E+03  0.25500000920E-02 0.  1.
    10030    2    1    2    0    0  0.00000000000E+00  0.00000000000E+00 -0.29509519210E+03  0.85211783676E+03  0.79938953917E+03 0.  0.
        3    1    3    3  502    0  0.30848477998E+03  0.22903827523E+03 -0.26497035355E+03  0.46672335432E+03  0.10100000352E+00 0.  1.
       -3    1    3    3    0  502 -0.30848477998E+03 -0.22903827523E+03 -0.30124838547E+02  0.38539448245E+03  0.10100000352E+00 0. -1.
</event>
<event>
 5   0  0.5813850E-03  0.7975392E+03  0.7818609E-02  0.9563586E-01
        2   -1    0    0  501    0  0.00000000000E+00  0.00000000000E+00  0.64320863269E+03  0.64320863270E+03  0.25500000920E-02 0. -1.
       -2   -1    0    0    0  501  0.00000000000E+00  0.00000000000E+00 -0.24722492415E+03  0.24722492417E+03  0.25500000920E-02 0.  1.
    10030    2    1    2    0    0  0.00000000000E+00  0.00000000000E+00  0.39598370854E+03  0.89043355686E+03  0.79753922898E+03 0.  0.
        5    1    3    3  502    0  0.14040876109E+03 -0.47983659245E+02  0.61120580518E+03  0.62897669116E+03  0.46999998093E+01 0. -1.
       -5    1    3    3    0  502 -0.14040876109E+03  0.47983659245E+02 -0.21522209664E+03  0.26145686570E+03  0.46999998093E+01 0.  1.
</event>
<event>
 5   0  0.5813850E-03  0.8018314E+03  0.7818609E-02  0.9557370E-01
       -2   -1    0    0    0  501  0.00000000000E+00  0.00000000000E+00  0.31044075946E+03  0.31044075947E+03  0.25500000920E-02 0. -1.
        2   -1    0    0  501    0  0.00000000000E+00  0.00000000000E+00 -0.51775862076E+03  0.51775862077E+03  0.25500000920E-02 0.  1.
    10030    2    1    2    0    0  0.00000000000E+00  0.00000000000E+00 -0.20731786131E+03  0.82819938024E+03  0.80183135248E+03 0.  0.
        5    1    3    3  502    0 -0.69563224003E+02 -0.77852282009E+02  0.29612387330E+03  0.31402461414E+03  0.46999998093E+01 0. -1.
       -5    1    3    3    0  502  0.69563224003E+02  0.77852282009E+02 -0.50344173461E+03  0.51417476610E+03  0.46999998093E+01 0.  1.
</event>
<event>
 5   0  0.3714448E-03  0.7997244E+03  0.7818609E-02  0.9560416E-01
        1   -1    0    0  501    0  0.00000000000E+00  0.00000000000E+00  0.86643756008E+03  0.86643756010E+03  0.50400001928E-02 0.  1.
       -1   -1    0    0    0  501  0.00000000000E+00  0.00000000000E+00 -0.18453700385E+03  0.18453700392E+03  0.50400001928E-02 0. -1.
    10030    2    1    2    0    0  0.00000000000E+00  0.00000000000E+00  0.68190055624E+03  0.10509745640E+04  0.79972443104E+03 0.  0.
        1    1    3    3  502    0 -0.47580908234E+02 -0.50134983274E+02  0.85852732129E+03  0.86130518448E+03  0.50400001928E-02 0.  1.
       -1    1    3    3    0  502  0.47580908234E+02  0.50134983274E+02 -0.17662676505E+03  0.18966937954E+03  0.50400001928E-02 0. -1.
</event>
<event>
 5   0  0.6256781E-03  0.8034770E+03  0.7818609E-02  0.9554998E-01
        2   -1    0    0  501    0  0.00000000000E+00  0.00000000000E+00  0.89554174865E+03  0.89554174865E+03  0.25500000920E-02 0. -1.
       -2   -1    0    0    0  501  0.00000000000E+00  0.00000000000E+00 -0.18021922177E+03  0.18021922179E+03  0.25500000920E-02 0.  1.
    10030    2    1    2    0    0  0.00000000000E+00  0.00000000000E+00  0.71532252687E+03  0.10757609704E+04  0.80347703643E+03 0.  0.
        1    1    3    3  502    0  0.13085221546E+02  0.23806718396E+03  0.79057097989E+03  0.82574189756E+03  0.50400001928E-02 0. -1.
       -1    1    3    3    0  502 -0.13085221546E+02 -0.23806718396E+03 -0.75248453020E+02  0.25001907289E+03  0.50400001928E-02 0.  1.
</event>
<event>
 5   0  0.3627496E-03  0.7981754E+03  0.7818609E-02  0.9562662E-01
       -1   -1    0    0    0  501  0.00000000000E+00  0.00000000000E+00  0.27336913356E+03  0.27336913360E+03  0.50400001928E-02 0. -1.
        1   -1    0    0  501    0  0.00000000000E+00  0.00000000000E+00 -0.58262250834E+03  0.58262250836E+03  0.50400001928E-02 0.  1.
    10030    2    1    2    0    0  0.00000000000E+00  0.00000000000E+00 -0.30925337478E+03  0.85599164197E+03  0.79817544519E+03 0.  0.
        3    1    3    3  502    0  0.34324208745E+03 -0.11932561707E+03 -0.33155340279E+03  0.49191605238E+03  0.10100000352E+00 0. -1.
       -3    1    3    3    0  502 -0.34324208745E+03  0.11932561707E+03  0.22300028002E+02  0.36407558959E+03  0.10100000352E+00 0.  1.
</event>
<event>
 5   0  0.3671128E-03  0.8007102E+03  0.7818609E-02  0.9558990E-01
       -1   -1    0    0    0  501  0.00000000000E+00  0.00000000000E+00  0.52145453867E+03  0.52145453869E+03  0.50400001928E-02 0. -1.
        1   -1    0    0  501    0  0.00000000000E+00  0.00000000000E+00 -0.30737908001E+03  0.30737908005E+03  0.50400001928E-02 0.  1.
    10030    2    1    2    0    0  0.00000000000E+00  0.00000000000E+00  0.21407545866E+03  0.82883361874E+03  0.80071022571E+03 0.  0.
        2    1    3    3  502    0  0.16661045374E+03  0.36364653807E+03  0.89520937998E+02  0.40989248138E+03  0.25500000920E-02 0. -1.
       -2    1    3    3    0  502 -0.16661045374E+03 -0.36364653807E+03  0.12455452066E+03  0.41894113736E+03  0.25500000920E-02 0.  1.
</event>
<event>
 5   0  0.3860515E-03  0.8000481E+03  0.7818609E-02  0.9559948E-01
       -1   -1    0    0    0  501  0.00000000000E+00  0.00000000000E+00  0.23202990035E+03  0.23202990041E+03  0.50400001928E-02 0.  1.
        1   -1    0    0  501    0  0.00000000000E+00  0.00000000000E+00 -0.68964914255E+03  0.68964914257E+03  0.50400001928E-02 0. -1.
    10030    2    1    2    0    0  0.00000000000E+00  0.00000000000E+00 -0.45761924219E+03  0.92167904298E+03  0.80004805320E+03 0.  0.
        4    1    3    3  502    0 -0.29757683616E+03  0.15152600532E+02  0.78667996136E+02  0.30817501722E+03  0.12699999809E+01 0. -1.
       -4    1    3    3    0  502  0.29757683616E+03 -0.15152600532E+02 -0.53628723833E+03  0.61350402576E+03  0.12699999809E+01 0.  1.
</event>
<event>
 5   0  0.6337108E-03  0.8027781E+03  0.7818609E-02  0.9556005E-01
        2   -1    0    0  501    0  0.00000000000E+00  0.00000000000E+00  0.15567527314E+03  0.15567527316E+03  0.25500000920E-02 0.  1.
       -2   -1    0    0    0  501  0.00000000000E+00  0.00000000000E+00 -0.10349309656E+04  0.10349309656E+04  0.25500000920E-02 0. -1.
    10030    2    1    2    0    0  0.00000000000E+00  0.00000000000E+00 -0.87925569246E+03  0.11906062388E+04  0.80277807834E+03 0.  0.
        4    1    3    3  502    0 -0.26275222118E+03  0.29816957892E+03 -0.35615483788E+03  0.53365879453E+03  0.12699999809E+01 0.  1.
       -4    1    3    3    0  502  0.26275222118E+03 -0.29816957892E+03 -0.52310085458E+03  0.65694744424E+03  0.12699999809E+01 0. -1.
</event>
<event>
 5   0  0.3753450E-03  0.8092178E+03  0.7818609E-02  0.9546770E-01
       -1   -1    0    0    0  501  0.00000000000E+00  0.00000000000E+00  0.38914367601E+03  0.38914367605E+03  0.50400001928E-02 0.  1.
        1   -1    0    0  501    0  0.00000000000E+00  0.00000000000E+00 -0.42068875364E+03  0.42068875367E+03  0.50400001928E-02 0. -1.
    10030    2    1    2    0    0  0.00000000000E+00  0.00000000000E+00 -0.31545077629E+02  0.80983242972E+03  0.80921781512E+03 0.  0.
        5    1    3    3  502    0 -0.16160246378E+02 -0.39686852743E+03  0.61230664355E+02  0.40191673999E+03  0.46999998093E+01 0.  1.
       -5    1    3    3    0  502  0.16160246378E+02  0.39686852743E+03 -0.92775741983E+02  0.40791568973E+03  0.46999998093E+01 0. -1.
</event>
<event>
 5   0  0.3627496E-03  0.8013765E+03  0.7818609E-02  0.9558027E-01
        1   -1    0    0  501    0  0.00000000000E+00  0.00000000000E+00  0.28068616112E+04  0.28068616112E+04  0.50400001928E-02 0.  1.
       -1   -1    0    0    0  501  0.00000000000E+00  0.00000000000E+00 -0.57199501085E+02  0.57199501307E+02  0.50400001928E-02 0. -1.
    10030    2    1    2    0    0  0.00000000000E+00  0.00000000000E+00  0.27496621101E+04  0.28640611125E+04  0.80137652599E+03 0.  0.
        3    1    3    3  502    0  0.29281971711E+03  0.21623386853E+03  0.19734035424E+04  0.20066943026E+04  0.10100000352E+00 0.  1.
       -3    1    3    3    0  502 -0.29281971711E+03 -0.21623386853E+03  0.77625856772E+03  0.85736680994E+03  0.10100000352E+00 0. -1.
</event>
<event>
 5   0  0.3753450E-03  0.7980029E+03  0.7818609E-02  0.9562912E-01
        1   -1    0    0  501    0  0.00000000000E+00  0.00000000000E+00  0.39195952329E+03  0.39195952333E+03  0.50400001928E-02 0.  1.
       -1   -1    0    0    0  501  0.00000000000E+00  0.00000000000E+00 -0.40616986600E+03  0.40616986603E+03  0.50400001928E-02 0. -1.
    10030    2    1    2    0    0  0.00000000000E+00  0.00000000000E+00 -0.14210342707E+02  0.79812938936E+03  0.79800287488E+03 0.  0.
        5    1    3    3  502    0 -0.34287754881E+03 -0.18638184006E+03  0.75834770603E+02  0.39758798550E+03  0.46999998093E+01 0.  1.
       -5    1    3    3    0  502  0.34287754881E+03  0.18638184006E+03 -0.90045113310E+02  0.40054140386E+03  0.46999998093E+01 0. -1.
</event>
<event>
 5   0  0.5813850E-03  0.7977046E+03  0.7818609E-02  0.9563346E-01
        2   -1    0    0  501    0  0.00000000000E+00  0.00000000000E+00  0.88702665086E+03  0.88702665086E+03  0.25500000920E-02 0. -1.
       -2   -1    0    0    0  501  0.00000000000E+00  0.00000000000E+00 -0.17934427296E+03  0.17934427298E+03  0.25500000920E-02 0.  1.
    10030    2    1    2    0    0  0.00000000000E+00  0.00000000000E+00  0.70768237789E+03  0.10663709238E+04  0.79770458143E+03 0.  0.
        5    1    3    3  502    0 -0.23879142824E+03  0.14557325911E+03 -0.26261747416E+02  0.28093538286E+03  0.46999998093E+01 0.  1.
       -5    1    3    3    0  502  0.23879142824E+03 -0.14557325911E+03  0.73394412531E+03  0.78543554099E+03  0.46999998093E+01 0. -1.
</event>
<event>
 5   0  0.6256781E-03  0.8124352E+03  0.7818609E-02  0.9542190E-01
        2   -1    0    0  501    0  0.00000000000E+00  0.00000000000E+00  0.57472665222E+03  0.57472665222E+03  0.25500000920E-02 0.  1.
       -2   -1    0    0    0  501  0.00000000000E+00  0.00000000000E+00 -0.28711519133E+03  0.28711519134E+03  0.25500000920E-02 0. -1.
    10030    2    1    2    0    0  0.00000000000E+00  0.00000000000E+00  0.28761146089E+03  0.86184184356E+03  0.81243523488E+03 0.  0.
        1    1    3    3  502    0  0.27616794046E+03  0.29021172794E+03  0.21513445393E+03  0.45472454482E+03  0.50400001928E-02 0.  1.
       -1    1    3    3    0  502 -0.27616794046E+03 -0.29021172794E+03  0.72477006967E+02  0.40711729874E+03  0.50400001928E-02 0. -1.
</event>
<event>
 5   0  0.3671128E-03  0.7995771E+03  0.7818609E-02  0.9560629E-01
        1   -1    0    0  501    0  0.00000000000E+00  0.00000000000E+00  0.60203714176E+03  0.60203714178E+03  0.50400001928E-02 0. -1.
       -1   -1    0    0    0  501  0.00000000000E+00  0.00000000000E+00 -0.26548344253E+03  0.26548344258E+03  0.50400001928E-02 0.  1.
    10030    2    1    2    0    0  0.00000000000E+00  0.00000000000E+00  0.33655369923E+03  0.86752058436E+03  0.79957712062E+03 0.  0.
        2    1    3    3  502    0  0.68272334699E+02 -0.36560923460E+03  0.32736407782E+03  0.49547801521E+03  0.25500000920E-02 0. -1.
       -2    1    3    3    0  502 -0.68272334699E+02  0.36560923460E+03  0.91896214191E+01  0.37204256915E+03  0.25500000920E-02 0.  1.
</event>
<event>
 5   0  0.5813850E-03  0.7990533E+03  0.7818609E-02  0.9561388E-01
        2   -1    0    0  501    0  0.00000000000E+00  0.00000000000E+00  0.57914326132E+03  0.57914326133E+03  0.25500000920E-02 0. -1.
       -2   -1    0    0    0  501  0.00000000000E+00  0.00000000000E+00 -0.27561668803E+03  0.27561668804E+03  0.25500000920E-02 0.  1.
    10030    2    1    2    0    0  0.00000000000E+00  0.00000000000E+00  0.30352657329E+03  0.85475994937E+03  0.79905330883E+03 0.  0.
        5    1    3    3  502    0  0.21952316855E+03  0.12086907455E+03  0.48458022610E+03  0.54556378201E+03  0.46999998093E+01 0. -1.
       -5    1    3    3    0  502 -0.21952316855E+03 -0.12086907455E+03 -0.18105365281E+03  0.30919616736E+03  0.46999998093E+01 0.  1.
</event>
<event>
 5   0  0.6256781E-03  0.7949561E+03  0.7818609E-02  0.9567347E-01
        2   -1    0    0  501    0  0.00000000000E+00  0.00000000000E+00  0.23928871287E+04  0.23928871287E+04  0.25500000920E-02 0.  1.
       -2   -1    0    0    0  501  0.00000000000E+00  0.00000000000E+00 -0.66024335915E+02  0.66024335964E+02  0.25500000920E-02 0. -1.
    10030    2    1    2    0    0  0.00000000000E+00  0.00000000000E+00  0.23268627928E+04  0.24589114646E+04  0.79495605829E+03 0.  0.
        1    1    3    3  502    0 -0.11226575412E+02 -0.30093557345E+03  0.36099798192E+03  0.47011466510E+03  0.50400001928E-02 0. -1.
       -1    1    3    3    0  502  0.11226575412E+02  0.30093557345E+03  0.19658648108E+04  0.19887967995E+04  0.50400001928E-02 0.  1.
</event>
<event>
 5   0  0.3753450E-03  0.8013965E+03  0.7818609E-02  0.9557998E-01
        1   -1    0    0  501    0  0.00000000000E+00  0.00000000000E+00  0.51624198675E+03  0.51624198677E+03  0.50400001928E-02 0. -1.
       -1   -1    0    0    0  501  0.00000000000E+00  0.00000000000E+00 -0.31101518445E+03  0.31101518449E+03  0.50400001928E-02 0.  1.
    10030    2    1    2    0    0  0.00000000000E+00  0.00000000000E+00  0.20522680230E+03  0.82725717126E+03  0.80139652297E+03 0.  0.
        5    1    3    3  502    0 -0.35375179549E+03 -0.14735468271E+03  0.22336365650E+03  0.44358443207E+03  0.46999998093E+01 0.  1.
       -5    1    3    3    0  502  0.35375179549E+03  0.14735468271E+03 -0.18136854205E+02  0.38367273920E+03  0.46999998093E+01 0. -1.
</event>
<event>
 5   0  0.6256781E-03  0.7930089E+03  0.7818609E-02  0.9570192E-01
        2   -1    0    0  501    0  0.00000000000E+00  0.00000000000E+00  0.49852615133E+03  0.49852615134E+03  0.25500000920E-02 0.  1.
       -2   -1    0    0    0  501  0.00000000000E+00  0.00000000000E+00 -0.31536113902E+03  0.31536113903E+03  0.25500000920E-02 0. -1.
    10030    2    1    2    0    0  0.00000000000E+00  0.00000000000E+00  0.18316501232E+03  0.81388729036E+03  0.79300889004E+03 0.  0.
        1    1    3    3  502    0  0.24361630438E+01 -0.26818839881E+03 -0.20814188466E+03  0.33949078975E+03  0.50400001928E-02 0. -1.
       -1    1    3    3    0  502 -0.24361630438E+01  0.26818839881E+03  0.39130689698E+03  0.47439650062E+03  0.50400001928E-02 0.  1.
</event>
<event>
 5   0  0.6536209E-03  0.8026456E+03  0.7818609E-02  0.9556196E-01
       -2   -1    0    0    0  501  0.00000000000E+00  0.00000000000E+00  0.17552966253E+03  0.17552966255E+03  0.25500000920E-02 0. -1.
        2   -1    0    0  501    0  0.00000000000E+00  0.00000000000E+00 -0.91756557640E+03  0.91756557641E+03  0.25500000920E-02 0.  1.
    10030    2    1    2    0    0  0.00000000000E+00  0.00000000000E+00 -0.74203591387E+03  0.10930952390E+04  0.80264556559E+03 0.  0.
        3    1    3    3  502    0  0.33164117076E+03  0.17379766807E+03 -0.56775199177E+03  0.68009839724E+03  0.10100000352E+00 0.  1.
       -3    1    3    3    0  502 -0.33164117076E+03 -0.17379766807E+03 -0.17428392210E+03  0.41299684172E+03  0.10100000352E+00 0. -1.
</event>
<event>
 5   0  0.3860515E-03  0.8052927E+03  0.7818609E-02  0.9552388E-01
       -1   -1    0    0    0  501  0.00000000000E+00  0.00000000000E+00  0.76528910517E+03  0.76528910519E+03  0.50400001928E-02 0.  1.
        1   -1    0    0  501    0  0.00000000000E+00  0.00000000000E+00 -0.21184683961E+03  0.21184683967E+03  0.50400001928E-02 0. -1.
    10030    2    1    2    0    0  0.00000000000E+00  0.00000000000E+00  0.55344226556E+03  0.97713594486E+03  0.80529268805E+03 0.  0.
        4    1    3    3  502    0  0.38656502705E+03  0.46898744418E+02  0.15244195918E+03  0.41817720668E+03  0.12699999809E+01 0. -1.
       -4    1    3    3    0  502 -0.38656502705E+03 -0.46898744418E+02  0.40100030638E+03  0.55895873818E+03  0.12699999809E+01 0.  1.
</event>
<event>
 5   0  0.3860515E-03  0.8026375E+03  0.7818609E-02  0.9556207E-01
       -1   -1    0    0    0  501  0.00000000000E+00  0.00000000000E+00  0.30470199779E+03  0.30470199783E+03  0.50400001928E-02 0. -1.
        1   -1    0    0  501    0  0.00000000000E+00  0.00000000000E+00 -0.52857137973E+03  0.52857137976E+03  0.50400001928E-02 0.  1.
    10030    2    1    2    0    0  0.00000000000E+00  0.00000000000E+00 -0.22386938194E+03  0.83327337758E+03  0.80263754062E+03 0.  0.
        4    1    3    3  502    0 -0.29648631035E+03  0.10546933341E+03 -0.37049343627E+03  0.48610175040E+03  0.12699999809E+01 0.  1.
       -4    1    3    3    0  502  0.29648631035E+03 -0.10546933341E+03  0.14662405433E+03  0.34717162719E+03  0.12699999809E+01 0. -1.
</event>
<event>
 5   0  0.3714448E-03  0.8028032E+03  0.7818609E-02  0.9555969E-01
        1   -1    0    0  501    0  0.00000000000E+00  0.00000000000E+00  0.29335587226E+03  0.29335587230E+03  0.50400001928E-02 0. -1.
       -1   -1    0    0    0  501  0.00000000000E+00  0.00000000000E+00 -0.54924151901E+03  0.54924151903E+03  0.50400001928E-02 0.  1.
    10030    2    1    2    0    0  0.00000000000E+00  0.00000000000E+00 -0.25588564675E+03  0.84259739133E+03  0.80280315126E+03 0.  0.
        1    1    3    3  502    0  0.11836209349E+03  0.19626430431E+03 -0.47381361031E+03  0.52633506406E+03  0.50400001928E-02 0.  1.
       -1    1    3    3    0  502 -0.11836209349E+03 -0.19626430431E+03  0.21792796356E+03  0.31626232727E+03  0.50400001928E-02 0. -1.
</event>
<event>
 5   0  0.5813850E-03  0.8009075E+03  0.7818609E-02  0.9558704E-01
       -2   -1    0    0    0  501  0.00000000000E+00  0.00000000000E+00  0.16050645018E+03  0.16050645020E+03  0.25500000920E-02 0.  1.
        2   -1    0    0  501    0  0.00000000000E+00  0.00000000000E+00 -0.99910764437E+03  0.99910764438E+03  0.25500000920E-02 0. -1.
    10030    2    1    2    0    0  0.00000000000E+00  0.00000000000E+00 -0.83860119420E+03  0.11596140946E+04  0.80090753862E+03 0.  0.
        5    1    3    3  502    0  0.12217062333E+03  0.21101914775E+03 -0.87918363720E+03  0.91238188268E+03  0.46999998093E+01 0. -1.
       -5    1    3    3    0  502 -0.12217062333E+03 -0.21101914775E+03  0.40582443001E+02  0.24723221190E+03  0.46999998093E+01 0.  1.
</event>
<event>
 5   0  0.3714448E-03  0.7997501E+03  0.7818609E-02  0.9560379E-01
        1   -1    0    0  501    0  0.00000000000E+00  0.00000000000E+00  0.22425180274E+03  0.22425180279E+03  0.50400001928E-02 0. -1.
       -1   -1    0    0    0  501  0.00000000000E+00  0.00000000000E+00 -0.71303806695E+03  0.71303806697E+03  0.50400001928E-02 0.  1.
    10030    2    1    2    0    0  0.00000000000E+00  0.00000000000E+00 -0.48878626422E+03  0.93728986976E+03  0.79975014090E+03 0.  0.
        1    1    3    3  502    0 -0.20526879687E+03  0.13909109786E+03  0.12327660056E+03  0.27690925002E+03  0.50400001928E-02 0. -1.
       -1    1    3    3    0  502  0.20526879687E+03 -0.13909109786E+03 -0.61206286477E+03  0.66038061975E+03  0.50400001928E-02 0.  1.
</event>
<event>
 5   0  0.2478000E-03  0.8006090E+03  0.7818609E-02  0.9559136E-01
        3   -1    0    0  501    0  0.00000000000E+00  0.00000000000E+00  0.16919520303E+03  0.16919523318E+03  0.10100000352E+00 0.  1.
       -3   -1    0    0    0  501  0.00000000000E+00  0.00000000000E+00 -0.94709356352E+03  0.94709356890E+03  0.10100000352E+00 0. -1.
    10030    2    1    2    0    0  0.00000000000E+00  0.00000000000E+00 -0.77789836048E+03  0.11162888021E+04  0.80060903717E+03 0.  0.
        2    1    3    3  502    0  0.30416279689E+03 -0.22666463553E+03 -0.21065406612E+03  0.43389745285E+03  0.25500000920E-02 0.  1.
       -2    1    3    3    0  502 -0.30416279689E+03  0.22666463553E+03 -0.56724429436E+03  0.68239134923E+03  0.25500000920E-02 0. -1.
</event>
<event>
 5   0  0.5813850E-03  0.7992655E+03  0.7818609E-02  0.9561081E-01
        2   -1    0    0  501    0  0.00000000000E+00  0.00000000000E+00  0.12908481444E+04  0.12908481444E+04  0.25500000920E-02 0.  1.
       -2   -1    0    0    0  501  0.00000000000E+00  0.00000000000E+00 -0.12372200334E+03  0.12372200337E+03  0.25500000920E-02 0. -1.
    10030    2    1    2    0    0  0.00000000000E+00  0.00000000000E+00  0.11671261410E+04  0.14145701477E+04  0.79926545892E+03 0.  0.
        5    1    3    3  502    0  0.91571177083E+02 -0.19677858641E+03 -0.10262017283E+02  0.21733497541E+03  0.46999998093E+01 0. -1.
       -5    1    3    3    0  502 -0.91571177083E+02  0.19677858641E+03  0.11773881583E+04  0.11972351723E+04  0.46999998093E+01 0.  1.
</event>
<event>
 5   0  0.6256781E-03  0.7998583E+03  0.7818609E-02  0.9560222E-01
       -2   -1    0    0    0  501  0.00000000000E+00  0.00000000000E+00  0.21721906311E+03  0.21721906313E+03  0.25500000920E-02 0. -1.
        2   -1    0    0  501    0  0.00000000000E+00  0.00000000000E+00 -0.73632266951E+03  0.73632266951E+03  0.25500000920E-02 0.  1.
    10030    2    1    2    0    0  0.00000000000E+00  0.00000000000E+00 -0.51910360640E+03  0.95354173264E+03  0.79985828852E+03 0.  0.
        1    1    3    3  502    0 -0.24643473710E+03  0.78143369769E+02 -0.62331393218E+03  0.67480124775E+03  0.50400001928E-02 0.  1.
       -1    1    3    3    0  502  0.24643473710E+03 -0.78143369769E+02  0.10421032578E+03  0.27874048489E+03  0.50400001928E-02 0. -1.
</event>
<event>
 5   0  0.6337108E-03  0.8001467E+03  0.7818609E-02  0.9559805E-01
        2   -1    0    0  501    0  0.00000000000E+00  0.00000000000E+00  0.19446392812E+03  0.19446392814E+03  0.25500000920E-02 0.  1.
       -2   -1    0    0    0  501  0.00000000000E+00  0.00000000000E+00 -0.82307645357E+03  0.82307645357E+03  0.25500000920E-02 0. -1.
    10030    2    1    2    0    0  0.00000000000E+00  0.00000000000E+00 -0.62861252545E+03  0.10175403817E+04  0.80014668734E+03 0.  0.
        4    1    3    3  502    0  0.39570899607E+02  0.39066049427E+03 -0.41178452224E+03  0.56898996787E+03  0.12699999809E+01 0. -1.
       -4    1    3    3    0  502 -0.39570899607E+02 -0.39066049427E+03 -0.21682800321E+03  0.44855041384E+03  0.12699999809E+01 0.  1.
</event>
<event>
 5   0  0.5813850E-03  0.8005986E+03  0.7818609E-02  0.9559151E-01
       -2   -1    0    0    0  501  0.00000000000E+00  0.00000000000E+00  0.88763459849E+02  0.88763459885E+02  0.25500000920E-02 0. -1.
        2   -1    0    0  501    0  0.00000000000E+00  0.00000000000E+00 -0.18052420179E+04  0.18052420179E+04  0.25500000920E-02 0.  1.
    10030    2    1    2    0    0  0.00000000000E+00  0.00000000000E+00 -0.17164785580E+04  0.18940054778E+04  0.80059859457E+03 0.  0.
        5    1    3    3  502    0  0.94621080203E+02  0.38498615229E+03 -0.72758824591E+03  0.82859775033E+03  0.46999998093E+01 0. -1.
       -5    1    3    3    0  502 -0.94621080203E+02 -0.38498615229E+03 -0.98889031211E+03  0.10654077274E+04  0.46999998093E+01 0.  1.
</event>
<event>
 5   0  0.3860515E-03  0.7992886E+03  0.7818609E-02  0.9561047E-01
       -1   -1    0    0    0  501  0.00000000000E+00  0.00000000000E+00  0.47318414851E+03  0.47318414853E+03  0.50400001928E-02 0.  1.
        1   -1    0    0  501    0  0.00000000000E+00  0.00000000000E+00 -0.33753363976E+03  0.33753363980E+03  0.50400001928E-02 0. -1.
    10030    2    1    2    0    0  0.00000000000E+00  0.00000000000E+00  0.13565050874E+03  0.81071778833E+03  0.79928860357E+03 0.  0.
        4    1    3    3  502    0 -0.32921776497E+03  0.14677348585E+03 -0.10723221501E+03  0.37606801746E+03  0.12699999809E+01 0. -1.
       -4    1    3    3    0  502  0.32921776497E+03 -0.14677348585E+03  0.24288272375E+03  0.43464977087E+03  0.12699999809E+01 0.  1.
</event>
<event>
 5   0  0.6256781E-03  0.7988155E+03  0.7818609E-02  0.9561733E-01
       -2   -1    0    0    0  501  0.00000000000E+00  0.00000000000E+00  0.84206554674E+03  0.84206554675E+03  0.25500000920E-02 0. -1.
        2   -1    0    0  501    0  0.00000000000E+00  0.00000000000E+00 -0.18944671654E+03  0.18944671655E+03  0.25500000920E-02 0.  1.
    10030    2    1    2    0    0  0.00000000000E+00  0.00000000000E+00  0.65261883021E+03  0.10315122633E+04  0.79881550549E+03 0.  0.
        1    1    3    3  502    0 -0.39267510147E+03 -0.32804245220E+02  0.24206048675E+03  0.46245338478E+03  0.50400001928E-02 0.  1.
       -1    1    3    3    0  502  0.39267510147E+03  0.32804245220E+02  0.41055834346E+03  0.56905887853E+03  0.50400001928E-02 0. -1.
</event>
<event>
 5   0  0.3860515E-03  0.7997847E+03  0.7818609E-02  0.9560329E-01
       -1   -1    0    0    0  501  0.00000000000E+00  0.00000000000E+00  0.66633132522E+02  0.66633132712E+02  0.50400001928E-02 0.  1.
        1   -1    0    0  501    0  0.00000000000E+00  0.00000000000E+00 -0.23999152731E+04  0.23999152731E+04  0.50400001928E-02 0. -1.
    10030    2    1    2    0    0  0.00000000000E+00  0.00000000000E+00 -0.23332821405E+04  0.24665484058E+04  0.79978465270E+03 0.  0.
        4    1    3    3  502    0 -0.10194292560E+02 -0.12245489784E+03 -0.23402422930E+04  0.23434663915E+04  0.12699999809E+01 0. -1.
       -4    1    3    3    0  502  0.10194292560E+02  0.12245489784E+03  0.69601524280E+01  0.12308201423E+03  0.12699999809E+01 0.  1.
</event>
<event>
 5   0  0.3671128E-03  0.8014886E+03  0.7818609E-02  0.9557865E-01
        1   -1    0    0  501    0  0.00000000000E+00  0.00000000000E+00  0.84544797362E+03  0.84544797364E+03  0.50400001928E-02 0. -1.
       -1   -1    0    0    0  501  0.00000000000E+00  0.00000000000E+00 -0.18995374562E+03  0.18995374569E+03  0.50400001928E-02 0.  1.
    10030    2    1    2    0    0  0.00000000000E+00  0.00000000000E+00  0.65549422800E+03  0.10354017193E+04  0.80148863838E+03 0.  0.
        2    1    3    3  502    0 -0.37133839595E+03  0.10960448719E+03  0.46131861288E+03  0.60226257605E+03  0.25500000920E-02 0.  1.
       -2    1    3    3    0  502  0.37133839595E+03 -0.10960448719E+03  0.19417561512E+03  0.43313914327E+03  0.25500000920E-02 0. -1.
</event>
<event>
 5   0  0.2478000E-03  0.7982956E+03  0.7818609E-02  0.9562487E-01
        4   -1    0    0  501    0  0.00000000000E+00  0.00000000000E+00  0.24966600828E+03  0.24966923837E+03  0.12699999809E+01 0. -1.
       -4   -1    0    0    0  501  0.00000000000E+00  0.00000000000E+00 -0.63812033084E+03  0.63812159463E+03  0.12699999809E+01 0.  1.
    10030    2    1    2    0    0  0.00000000000E+00  0.00000000000E+00 -0.38845432256E+03  0.88779083300E+03  0.79829556083E+03 0.  0.
        4    1    3    3  502    0  0.39360309054E+03 -0.63794051102E+02 -0.17420106850E+03  0.43513296704E+03  0.12699999809E+01 0.  1.
       -4    1    3    3    0  502 -0.39360309054E+03  0.63794051102E+02 -0.21425325406E+03  0.45265786596E+03  0.12699999809E+01 0. -1.
</event>
<event>
 5   0  0.3860515E-03  0.7965452E+03  0.7818609E-02  0.9565031E-01
       -1   -1    0    0    0  501  0.00000000000E+00  0.00000000000E+00  0.57008097294E+03  0.57008097296E+03  0.50400001928E-02 0. -1.
        1   -1    0    0  501    0  0.00000000000E+00  0.00000000000E+00 -0.27824305965E+03  0.27824305970E+03  0.50400001928E-02 0.  1.
    10030    2    1    2    0    0  0.00000000000E+00  0.00000000000E+00  0.29183791329E+03  0.84832403266E+03  0.79654522581E+03 0.  0.
        4    1    3    3  502    0 -0.64740540802E+02  0.46915777829E+02  0.56144401927E+03  0.56710971382E+03  0.12699999809E+01 0. -1.
       -4    1    3    3    0  502  0.64740540802E+02 -0.46915777829E+02 -0.26960610599E+03  0.28121431884E+03  0.12699999809E+01 0.  1.
</event>
<event>
 5   0  0.3860515E-03  0.8004711E+03  0.7818609E-02  0.9559335E-01
        1   -1    0    0  501    0  0.00000000000E+00  0.00000000000E+00  0.40144956368E+03  0.40144956371E+03  0.50400001928E-02 0. -1.
       -1   -1    0    0    0  501  0.00000000000E+00  0.00000000000E+00 -0.39902524259E+03  0.39902524262E+03  0.50400001928E-02 0.  1.
    10030    2    1    2    0    0  0.00000000000E+00  0.00000000000E+00  0.24243210916E+01  0.80047480634E+03  0.80047113517E+03 0.  0.
        4    1    3    3  502    0  0.39752171569E+03 -0.40431010384E+02  0.24206082918E+02  0.40030704265E+03  0.12699999809E+01 0. -1.
       -4    1    3    3    0  502 -0.39752171569E+03  0.40431010384E+02 -0.21781761827E+02  0.40016776369E+03  0.12699999809E+01 0.  1.
</event>
<event>
 5   0  0.6337108E-03  0.7992373E+03  0.7818609E-02  0.9561122E-01
       -2   -1    0    0    0  501  0.00000000000E+00  0.00000000000E+00  0.19405772324E+03  0.19405772326E+03  0.25500000920E-02 0.  1.
        2   -1    0    0  501    0  0.00000000000E+00  0.00000000000E+00 -0.82292556022E+03  0.82292556022E+03  0.25500000920E-02 0. -1.
    10030    2    1    2    0    0  0.00000000000E+00  0.00000000000E+00 -0.62886783698E+03  0.10169832835E+04  0.79923728798E+03 0.  0.
        4    1    3    3  502    0  0.26675887132E+02 -0.38333375970E+03 -0.45403813385E+03  0.59481813538E+03  0.12699999809E+01 0. -1.
       -4    1    3    3    0  502 -0.26675887132E+02  0.38333375970E+03 -0.17482970312E+03  0.42216514810E+03  0.12699999809E+01 0.  1.
</event>
<event>
 5   0  0.6153659E-03  0.8003567E+03  0.7818609E-02  0.9559501E-01
       -2   -1    0    0    0  501  0.00000000000E+00  0.00000000000E+00  0.22862367676E+03  0.22862367677E+03  0.25500000920E-02 0. -1.
        2   -1    0    0  501    0  0.00000000000E+00  0.00000000000E+00 -0.70046429167E+03  0.70046429168E+03  0.25500000920E-02 0.  1.
    10030    2    1    2    0    0  0.00000000000E+00  0.00000000000E+00 -0.47184061492E+03  0.92908796845E+03  0.80035672499E+03 0.  0.
        2    1    3    3  502    0  0.12521452123E+03 -0.20699104876E+03 -0.60597009943E+03  0.65247508152E+03  0.25500000920E-02 0.  1.
       -2    1    3    3    0  502 -0.12521452123E+03  0.20699104876E+03  0.13412948451E+03  0.27661288693E+03  0.25500000920E-02 0. -1.
</event>
<event>
 5   0  0.3627496E-03  0.7999557E+03  0.7818609E-02  0.9560081E-01
        1   -1    0    0  501    0  0.00000000000E+00  0.00000000000E+00  0.10278057489E+04  0.10278057490E+04  0.50400001928E-02 0.  1.
       -1   -1    0    0    0  501  0.00000000000E+00  0.00000000000E+00 -0.15565420718E+03  0.15565420727E+03  0.50400001928E-02 0. -1.
    10030    2    1    2    0    0  0.00000000000E+00  0.00000000000E+00  0.87215154176E+03  0.11834599562E+04  0.79995572139E+03 0.  0.
        3    1    3    3  502    0  0.17429280464E+03  0.23521896591E+02  0.96753302003E+03  0.98338772436E+03  0.10100000352E+00 0.  1.
       -3    1    3    3    0  502 -0.17429280464E+03 -0.23521896591E+02 -0.95381478266E+02  0.20007223187E+03  0.10100000352E+00 0. -1.
</event>
<event>
 5   0  0.6153659E-03  0.8001730E+03  0.7818609E-02  0.9559767E-01
        2   -1    0    0  501    0  0.00000000000E+00  0.00000000000E+00  0.15724027741E+04  0.15724027741E+04  0.25500000920E-02 0. -1.
       -2   -1    0    0    0  501  0.00000000000E+00  0.00000000000E+00 -0.10179910724E+03  0.10179910727E+03  0.25500000920E-02 0.  1.
    10030    2    1    2    0    0  0.00000000000E+00  0.00000000000E+00  0.14706036668E+04  0.16742018813E+04  0.80017297793E+03 0.  0.
        2    1    3    3  502    0  0.22726955619E+03  0.22112661905E+03  0.12457577004E+04  0.12854807198E+04  0.25500000920E-02 0. -1.
       -2    1    3    3    0  502 -0.22726955619E+03 -0.22112661905E+03  0.22484596643E+03  0.38872116157E+03  0.25500000920E-02 0.  1.
</event>
<event>
 5   0  0.3753450E-03  0.8031401E+03  0.7818609E-02  0.9555483E-01
        1   -1    0    0  501    0  0.00000000000E+00  0.00000000000E+00  0.34483407790E+03  0.34483407794E+03  0.50400001928E-02 0.  1.
       -1   -1    0    0    0  501  0.00000000000E+00  0.00000000000E+00 -0.46764083954E+03  0.46764083957E+03  0.50400001928E-02 0. -1.
    10030    2    1    2    0    0  0.00000000000E+00  0.00000000000E+00 -0.12280676164E+03  0.81247491751E+03  0.80314008173E+03 0.  0.
        5    1    3    3  502    0  0.14625704378E+03  0.72478761099E+02  0.30972867671E+03  0.35014031022E+03  0.46999998093E+01 0.  1.
       -5    1    3    3    0  502 -0.14625704378E+03 -0.72478761099E+02 -0.43253543836E+03  0.46233460729E+03  0.46999998093E+01 0. -1.
</event>
<event>
 5   0  0.6256781E-03  0.8016028E+03  0.7818609E-02  0.9557700E-01
       -2   -1    0    0    0  501  0.00000000000E+00  0.00000000000E+00  0.74160684974E+03  0.74160684975E+03  0.25500000920E-02 0.  1.
        2   -1    0    0  501    0  0.00000000000E+00  0.00000000000E+00 -0.21661309431E+03  0.21661309433E+03  0.25500000920E-02 0. -1.
    10030    2    1    2    0    0  0.00000000000E+00  0.00000000000E+00  0.52499375543E+03  0.95821994407E+03  0.80160278067E+03 0.  0.
        1    1    3    3  502    0 -0.23651890236E+03  0.30888913980E+03  0.37770114282E+03  0.54222859126E+03  0.50400001928E-02 0.  1.
       -1    1    3    3    0  502  0.23651890236E+03 -0.30888913980E+03  0.14729261261E+03  0.41599135282E+03  0.50400001928E-02 0. -1.
</event>
<event>
 5   0  0.6337108E-03  0.7988955E+03  0.7818609E-02  0.9561617E-01
       -2   -1    0    0    0  501  0.00000000000E+00  0.00000000000E+00  0.72242426558E+02  0.72242426603E+02  0.25500000920E-02 0. -1.
        2   -1    0    0  501    0  0.00000000000E+00  0.00000000000E+00 -0.22086534730E+04  0.22086534730E+04  0.25500000920E-02 0.  1.
    10030    2    1    2    0    0  0.00000000000E+00  0.00000000000E+00 -0.21364110464E+04  0.22808958996E+04  0.79889545341E+03 0.  0.
        4    1    3    3  502    0  0.32529754950E+03  0.66748238942E+02 -0.17020231386E+04  0.17341159708E+04  0.12699999809E+01 0.  1.
       -4    1    3    3    0  502 -0.32529754950E+03 -0.66748238942E+02 -0.43438790784E+03  0.54677992876E+03  0.12699999809E+01 0. -1.
</event>
<event>
 5   0  0.3627496E-03  0.8253573E+03  0.7818609E-02  0.9524022E-01
       -1   -1    0    0    0  501  0.00000000000E+00  0.00000000000E+00  0.84364801766E+03  0.84364801768E+03  0.50400001928E-02 0. -1.
        1   -1    0    0  501    0  0.00000000000E+00  0.00000000000E+00 -0.20186578110E+03  0.20186578117E+03  0.50400001928E-02 0.  1.
    10030    2    1    2    0    0  0.00000000000E+00  0.00000000000E+00  0.64178223656E+03  0.10455137988E+04  0.82535729500E+03 0.  0.
        3    1    3    3  502    0  0.96905927821E+01  0.40526308514E+03  0.41877978366E+03  0.58284525662E+03  0.10100000352E+00 0. -1.
       -3    1    3    3    0  502 -0.96905927821E+01 -0.40526308514E+03  0.22300245289E+03  0.46266854222E+03  0.10100000352E+00 0.  1.
</event>
<event>
 5   0  0.6337108E-03  0.7938277E+03  0.7818609E-02  0.9568994E-01
       -2   -1    0    0    0  501  0.00000000000E+00  0.00000000000E+00  0.12613049556E+03  0.12613049559E+03  0.25500000920E-02 0.  1.
        2   -1    0    0  501    0  0.00000000000E+00  0.00000000000E+00 -0.12490286004E+04  0.12490286004E+04  0.25500000920E-02 0. -1.
    10030    2    1    2    0    0  0.00000000000E+00  0.00000000000E+00 -0.11228981049E+04  0.13751590960E+04  0.79382767994E+03 0.  0.
        4    1    3    3  502    0  0.22552653320E+03  0.26951071778E+03 -0.88106335040E+03  0.94856337927E+03  0.12699999809E+01 0. -1.
       -4    1    3    3    0  502 -0.22552653320E+03 -0.26951071778E+03 -0.24183475446E+03  0.42659571674E+03  0.12699999809E+01 0.  1.
</event>
<event>
 5   0  0.5813850E-03  0.7991259E+03  0.7818609E-02  0.9561283E-01
        2   -1    0    0  501    0  0.00000000000E+00  0.00000000000E+00  0.13714196451E+04  0.13714196452E+04  0.25500000920E-02 0.  1.
       -2   -1    0    0    0  501  0.00000000000E+00  0.00000000000E+00 -0.11641262073E+03  0.11641262076E+03  0.25500000920E-02 0. -1.
    10030    2    1    2    0    0  0.00000000000E+00  0.00000000000E+00  0.12550070244E+04  0.14878322659E+04  0.79912591007E+03 0.  0.
        5    1    3    3  502    0  0.26452144789E+03 -0.28337917709E+03  0.80756332596E+03  0.89579906778E+03  0.46999998093E+01 0.  1.
       -5    1    3    3    0  502 -0.26452144789E+03  0.28337917709E+03  0.44744369846E+03  0.59203319813E+03  0.46999998093E+01 0. -1.
</event>
<event>
 5   0  0.6256781E-03  0.7983140E+03  0.7818609E-02  0.9562461E-01
        2   -1    0    0  501    0  0.00000000000E+00  0.00000000000E+00  0.92812934490E+03  0.92812934491E+03  0.25500000920E-02 0. -1.
       -2   -1    0    0    0  501  0.00000000000E+00  0.00000000000E+00 -0.17166389040E+03  0.17166389042E+03  0.25500000920E-02 0.  1.
    10030    2    1    2    0    0  0.00000000000E+00  0.00000000000E+00  0.75646545451E+03  0.10997932353E+04  0.79831395866E+03 0.  0.
        1    1    3    3  502    0  0.17731156567E+03  0.29987266270E+03  0.10981002982E+03  0.36526873372E+03  0.50400001928E-02 0.  1.
       -1    1    3    3    0  502 -0.17731156567E+03 -0.29987266270E+03  0.64665542469E+03  0.73452450161E+03  0.50400001928E-02 0. -1.
</event>
<event>
 5   0  0.3860515E-03  0.8039807E+03  0.7818609E-02  0.9554273E-01
       -1   -1    0    0    0  501  0.00000000000E+00  0.00000000000E+00  0.12632380407E+03  0.12632380417E+03  0.50400001928E-02 0. -1.
        1   -1    0    0  501    0  0.00000000000E+00  0.00000000000E+00 -0.12792223575E+04  0.12792223575E+04  0.50400001928E-02 0.  1.
    10030    2    1    2    0    0  0.00000000000E+00  0.00000000000E+00 -0.11528985534E+04  0.14055461616E+04  0.80398068267E+03 0.  0.
        4    1    3    3  502    0 -0.28265586790E+03  0.13770525106E+03 -0.10143374970E+04  0.10619506799E+04  0.12699999809E+01 0.  1.
       -4    1    3    3    0  502  0.28265586790E+03 -0.13770525106E+03 -0.13856105640E+03  0.34359548175E+03  0.12699999809E+01 0. -1.
</event>
<event>
 5   0  0.6256781E-03  0.7973757E+03  0.7818609E-02  0.9563823E-01
        2   -1    0    0  501    0  0.00000000000E+00  0.00000000000E+00  0.10715895174E+04  0.10715895174E+04  0.25500000920E-02 0. -1.
       -2   -1    0    0    0  501  0.00000000000E+00  0.00000000000E+00 -0.14833291195E+03  0.14833291197E+03  0.25500000920E-02 0.  1.
    10030    2    1    2    0    0  0.00000000000E+00  0.00000000000E+00  0.92325660545E+03  0.12199224294E+04  0.79737567945E+03 0.  0.
        1    1    3    3  502    0  0.57314230962E+01  0.11245081441E+03  0.10467588057E+04  0.10527972417E+04  0.50400001928E-02 0. -1.
       -1    1    3    3    0  502 -0.57314230962E+01 -0.11245081441E+03 -0.12350220021E+03  0.16712518767E+03  0.50400001928E-02 0.  1.
</event>
<event>
 5   0  0.3671128E-03  0.8002450E+03  0.7818609E-02  0.9559663E-01
        1   -1    0    0  501    0  0.00000000000E+00  0.00000000000E+00  0.13600110822E+04  0.13600110823E+04  0.50400001928E-02 0. -1.
       -1   -1    0    0    0  501  0.00000000000E+00  0.00000000000E+00 -0.11771817115E+03  0.11771817125E+03  0.50400001928E-02 0.  1.
    10030    2    1    2    0    0  0.00000000000E+00  0.00000000000E+00  0.12422929111E+04  0.14777292535E+04  0.80024500605E+03 0.  0.
        2    1    3    3  502    0  0.38960029293E+03 -0.41277267438E+02  0.47106219618E+03  0.61269225043E+03  0.25500000920E-02 0.  1.
       -2    1    3    3    0  502 -0.38960029293E+03  0.41277267438E+02  0.77123071492E+03  0.86503700308E+03  0.25500000920E-02 0. -1.
</event>
<event>
 5   0  0.6536209E-03  0.8022834E+03  0.7818609E-02  0.9556718E-01
        2   -1    0    0  501    0  0.00000000000E+00  0.00000000000E+00  0.11025243084E+04  0.11025243084E+04  0.25500000920E-02 0. -1.
       -2   -1    0    0    0  501  0.00000000000E+00  0.00000000000E+00 -0.14595112380E+03  0.14595112383E+03  0.25500000920E-02 0.  1.
    10030    2    1    2    0    0  0.00000000000E+00  0.00000000000E+00  0.95657318458E+03  0.12484754322E+04  0.80228339593E+03 0.  0.
        3    1    3    3  502    0 -0.36070908258E+03 -0.14742534064E+03  0.33008906552E+03  0.51068980281E+03  0.10100000352E+00 0. -1.
       -3    1    3    3    0  502  0.36070908258E+03  0.14742534064E+03  0.62648411906E+03  0.73778562940E+03  0.10100000352E+00 0.  1.
</event>
<event>
 5   0  0.3860515E-03  0.7999503E+03  0.7818609E-02  0.9560089E-01
        1   -1    0    0  501    0  0.00000000000E+00  0.00000000000E+00  0.19369342725E+04  0.19369342725E+04  0.50400001928E-02 0. -1.
       -1   -1    0    0    0  501  0.00000000000E+00  0.00000000000E+00 -0.82594492918E+02  0.82594493072E+02  0.50400001928E-02 0.  1.
    10030    2    1    2    0    0  0.00000000000E+00  0.00000000000E+00  0.18543397795E+04  0.20195287655E+04  0.79995025898E+03 0.  0.
        4    1    3    3  502    0  0.27731450609E+03 -0.28564992292E+03  0.10242682497E+04  0.10989205039E+04  0.12699999809E+01 0.  1.
       -4    1    3    3    0  502 -0.27731450609E+03  0.28564992292E+03  0.83007152985E+03  0.92060826160E+03  0.12699999809E+01 0. -1.
</event>
<event>
 5   0  0.3860515E-03  0.7883101E+03  0.7818609E-02  0.9577094E-01
        1   -1    0    0  501    0  0.00000000000E+00  0.00000000000E+00  0.15039941128E+03  0.15039941136E+03  0.50400001928E-02 0. -1.
       -1   -1    0    0    0  501  0.00000000000E+00  0.00000000000E+00 -0.10329709070E+04  0.10329709070E+04  0.50400001928E-02 0.  1.
    10030    2    1    2    0    0  0.00000000000E+00  0.00000000000E+00 -0.88257149571E+03  0.11833703184E+04  0.78831013272E+03 0.  0.
        4    1    3    3  502    0 -0.27027690150E+03 -0.25870513284E+03 -0.62744418694E+03  0.73052431162E+03  0.12699999809E+01 0.  1.
       -4    1    3    3    0  502  0.27027690150E+03  0.25870513284E+03 -0.25512730877E+03  0.45284600674E+03  0.12699999809E+01 0. -1.
</event>
<event>
 5   0  0.6256781E-03  0.7878097E+03  0.7818609E-02  0.9577832E-01
       -2   -1    0    0    0  501  0.00000000000E+00  0.00000000000E+00  0.25060655208E+03  0.25060655209E+03  0.25500000920E-02 0. -1.
        2   -1    0    0  501    0  0.00000000000E+00  0.00000000000E+00 -0.61914195066E+03  0.61914195066E+03  0.25500000920E-02 0.  1.
    10030    2    1    2    0    0  0.00000000000E+00  0.00000000000E+00 -0.36853539858E+03  0.86974850276E+03  0.78780969659E+03 0.  0.
        1    1    3    3  502    0  0.27347211390E+03  0.86601992216E+02 -0.48229706018E+03  0.56115715840E+03  0.50400001928E-02 0.  1.
       -1    1    3    3    0  502 -0.27347211390E+03 -0.86601992216E+02  0.11376166160E+03  0.30859134436E+03  0.50400001928E-02 0. -1.
</event>
<event>
 5   0  0.6337108E-03  0.8062939E+03  0.7818609E-02  0.9550951E-01
        2   -1    0    0  501    0  0.00000000000E+00  0.00000000000E+00  0.10240365779E+04  0.10240365779E+04  0.25500000920E-02 0. -1.
       -2   -1    0    0    0  501  0.00000000000E+00  0.00000000000E+00 -0.15871256065E+03  0.15871256067E+03  0.25500000920E-02 0.  1.
    10030    2    1    2    0    0  0.00000000000E+00  0.00000000000E+00  0.86532401721E+03  0.11827491385E+04  0.80629391039E+03 0.  0.
        4    1    3    3  502    0  0.31272270164E+03  0.13128656029E+03  0.75234503237E+03  0.82526135840E+03  0.12699999809E+01 0.  1.
       -4    1    3    3    0  502 -0.31272270164E+03 -0.13128656029E+03  0.11297898484E+03  0.35748778014E+03  0.12699999809E+01 0. -1.
</event>
<event>
 5   0  0.3753450E-03  0.8016049E+03  0.7818609E-02  0.9557697E-01
        1   -1    0    0  501    0  0.00000000000E+00  0.00000000000E+00  0.18802947666E+03  0.18802947673E+03  0.50400001928E-02 0. -1.
       -1   -1    0    0    0  501  0.00000000000E+00  0.00000000000E+00 -0.85434795299E+03  0.85434795300E+03  0.50400001928E-02 0.  1.
    10030    2    1    2    0    0  0.00000000000E+00  0.00000000000E+00 -0.66631847632E+03  0.10423774297E+04  0.80160488653E+03 0.  0.
        5    1    3    3  502    0 -0.11480954471E+03  0.33572112261E+03 -0.90821630445E+02  0.36627935005E+03  0.46999998093E+01 0. -1.
       -5    1    3    3    0  502  0.11480954471E+03 -0.33572112261E+03 -0.57549684588E+03  0.67609807967E+03  0.46999998093E+01 0.  1.
</event>
<event>
 5   0  0.6256781E-03  0.7993978E+03  0.7818609E-02  0.9560889E-01
       -2   -1    0    0    0  501  0.00000000000E+00  0.00000000000E+00  0.24129003006E+03  0.24129003007E+03  0.25500000920E-02 0.  1.
        2   -1    0    0  501    0  0.00000000000E+00  0.00000000000E+00 -0.66210444673E+03  0.66210444673E+03  0.25500000920E-02 0. -1.
    10030    2    1    2    0    0  0.00000000000E+00  0.00000000000E+00 -0.42081441667E+03  0.90339447681E+03  0.79939777799E+03 0.  0.
        1    1    3    3  502    0 -0.30224754393E+03 -0.12841718579E+03  0.47082254498E+02  0.33175486452E+03  0.50400001928E-02 0.  1.
       -1    1    3    3    0  502  0.30224754393E+03  0.12841718579E+03 -0.46789667117E+03  0.57163961229E+03  0.50400001928E-02 0. -1.
</event>
<event>
 5   0  0.6536209E-03  0.7983045E+03  0.7818609E-02  0.9562475E-01
        2   -1    0    0  501    0  0.00000000000E+00  0.00000000000E+00  0.14792934476E+04  0.14792934476E+04  0.25500000920E-02 0. -1.
       -2   -1    0    0    0  501  0.00000000000E+00  0.00000000000E+00 -0.10770176701E+03  0.10770176704E+03  0.25500000920E-02 0.  1.
    10030    2    1    2    0    0  0.00000000000E+00  0.00000000000E+00  0.13715916806E+04  0.15869952147E+04  0.79830449897E+03 0.  0.
        3    1    3    3  502    0 -0.12553478938E+02 -0.15907205530E+03 -0.41538465239E+02  0.16488469579E+03  0.10100000352E+00 0.  1.
       -3    1    3    3    0  502  0.12553478938E+02  0.15907205530E+03  0.14131301459E+04  0.14221105189E+04  0.10100000352E+00 0. -1.
</event>
<event>
 5   0  0.3714448E-03  0.7998528E+03  0.7818609E-02  0.9560230E-01
       -1   -1    0    0    0  501  0.00000000000E+00  0.00000000000E+00  0.38578200844E+03  0.38578200848E+03  0.50400001928E-02 0.  1.
        1   -1    0    0  501    0  0.00000000000E+00  0.00000000000E+00 -0.41458942259E+03  0.41458942262E+03  0.50400001928E-02 0. -1.
    10030    2    1    2    0    0  0.00000000000E+00  0.00000000000E+00 -0.28807414143E+02  0.80037143109E+03  0.79985283684E+03 0.  0.
        1    1    3    3  502    0  0.24519361723E+03 -0.20435982097E+03  0.22670540468E+03  0.39150758216E+03  0.50400001928E-02 0.  1.
       -1    1    3    3    0  502 -0.24519361723E+03  0.20435982097E+03 -0.25551281882E+03  0.40886384893E+03  0.50400001928E-02 0. -1.
</event>
<event>
 5   0  0.3860515E-03  0.7991770E+03  0.7818609E-02  0.9561209E-01
       -1   -1    0    0    0  501  0.00000000000E+00  0.00000000000E+00  0.16866323362E+03  0.16866323369E+03  0.50400001928E-02 0. -1.
        1   -1    0    0  501    0  0.00000000000E+00  0.00000000000E+00 -0.94668505831E+03  0.94668505833E+03  0.50400001928E-02 0.  1.
    10030    2    1    2    0    0  0.00000000000E+00  0.00000000000E+00 -0.77802182470E+03  0.11153482920E+04  0.79917698466E+03 0.  0.
        4    1    3    3  502    0  0.13753578611E+03 -0.32507431821E+03 -0.12761608261E+03  0.37533569276E+03  0.12699999809E+01 0. -1.
       -4    1    3    3    0  502 -0.13753578611E+03  0.32507431821E+03 -0.65040574209E+03  0.74001259926E+03  0.12699999809E+01 0.  1.
</event>
<event>
 5   0  0.3627496E-03  0.8002950E+03  0.7818609E-02  0.9559590E-01
        1   -1    0    0  501    0  0.00000000000E+00  0.00000000000E+00  0.14524701446E+04  0.14524701446E+04  0.50400001928E-02 0. -1.
       -1   -1    0    0    0  501  0.00000000000E+00  0.00000000000E+00 -0.11023842331E+03  0.11023842342E+03  0.50400001928E-02 0.  1.
    10030    2    1    2    0    0  0.00000000000E+00  0.00000000000E+00  0.13422317213E+04  0.15627085681E+04  0.80029499247E+03 0.  0.
        3    1    3    3  502    0  0.29389739797E+03  0.27112212442E+03  0.64117431512E+03  0.75563708184E+03  0.10100000352E+00 0. -1.
       -3    1    3    3    0  502 -0.29389739797E+03 -0.27112212442E+03  0.70105740620E+03  0.80707148622E+03  0.10100000352E+00 0.  1.
</event>
<event>
 5   0  0.3627496E-03  0.7996788E+03  0.7818609E-02  0.9560482E-01
       -1   -1    0    0    0  501  0.00000000000E+00  0.00000000000E+00  0.56379586764E+03  0.56379586766E+03  0.50400001928E-02 0. -1.
        1   -1    0    0  501    0  0.00000000000E+00  0.00000000000E+00 -0.28356280642E+03  0.28356280646E+03  0.50400001928E-02 0.  1.
    10030    2    1    2    0    0  0.00000000000E+00  0.00000000000E+00  0.28023306122E+03  0.84735867412E+03  0.79967878177E+03 0.  0.
        3    1    3    3  502    0 -0.34920073862E+03  0.86115489678E+02 -0.44982779213E+02  0.36246447279E+03  0.10100000352E+00 0.  1.
       -3    1    3    3    0  502  0.34920073862E+03 -0.86115489678E+02  0.32521584043E+03  0.48489420133E+03  0.10100000352E+00 0. -1.
</event>
<event>
 5   0  0.2478000E-03  0.7865453E+03  0.7818609E-02  0.9579699E-01
        3   -1    0    0  501    0  0.00000000000E+00  0.00000000000E+00  0.39275761267E+03  0.39275762566E+03  0.10100000352E+00 0. -1.
       -3   -1    0    0    0  501  0.00000000000E+00  0.00000000000E+00 -0.39378836472E+03  0.39378837768E+03  0.10100000352E+00 0.  1.
    10030    2    1    2    0    0  0.00000000000E+00  0.00000000000E+00 -0.10307520531E+01  0.78654600334E+03  0.78654532795E+03 0.  0.
        4    1    3    3  502    0  0.21945327456E+03  0.12252326845E+03 -0.30298891441E+03  0.39366938690E+03  0.12699999809E+01 0.  1.
       -4    1    3    3    0  502 -0.21945327456E+03 -0.12252326845E+03  0.30195816235E+03  0.39287661643E+03  0.12699999809E+01 0. -1.
</event>
<event>
 5   0  0.3627496E-03  0.8026466E+03  0.7818609E-02  0.9556194E-01
       -1   -1    0    0    0  501  0.00000000000E+00  0.00000000000E+00  0.16324283153E+03  0.16324283160E+03  0.50400001928E-02 0. -1.
        1   -1    0    0  501    0  0.00000000000E+00  0.00000000000E+00 -0.98663070588E+03  0.98663070589E+03  0.50400001928E-02 0.  1.
    10030    2    1    2    0    0  0.00000000000E+00  0.00000000000E+00 -0.82338787435E+03  0.11498735375E+04  0.80264659758E+03 0.  0.
        3    1    3    3  502    0  0.38756200476E+03 -0.10182124101E+03 -0.38003026825E+03  0.55226342233E+03  0.10100000352E+00 0.  1.
       -3    1    3    3    0  502 -0.38756200476E+03  0.10182124101E+03 -0.44335760610E+03  0.59761011516E+03  0.10100000352E+00 0. -1.
</event>
<event>
 5   0  0.6337108E-03  0.7996408E+03  0.7818609E-02  0.9560537E-01
       -2   -1    0    0    0  501  0.00000000000E+00  0.00000000000E+00  0.12828783653E+03  0.12828783655E+03  0.25500000920E-02 0. -1.
        2   -1    0    0  501    0  0.00000000000E+00  0.00000000000E+00 -0.12460755892E+04  0.12460755892E+04  0.25500000920E-02 0.  1.
    10030    2    1    2    0    0  0.00000000000E+00  0.00000000000E+00 -0.11177877527E+04  0.13743634257E+04  0.79964077311E+03 0.  0.
        4    1    3    3  502    0  0.20192788259E+03 -0.13654306737E+03 -0.14201824929E+02  0.24417654217E+03  0.12699999809E+01 0. -1.
       -4    1    3    3    0  502 -0.20192788259E+03  0.13654306737E+03 -0.11035859277E+04  0.11301868836E+04  0.12699999809E+01 0.  1.
</event>
<event>
 5   0  0.6256781E-03  0.8000579E+03  0.7818609E-02  0.9559933E-01
       -2   -1    0    0    0  501  0.00000000000E+00  0.00000000000E+00  0.15813649765E+03  0.15813649767E+03  0.25500000920E-02 0. -1.
        2   -1    0    0  501    0  0.00000000000E+00  0.00000000000E+00 -0.10119307062E+04  0.10119307062E+04  0.25500000920E-02 0.  1.
    10030    2    1    2    0    0  0.00000000000E+00  0.00000000000E+00 -0.85379420851E+03  0.11700672038E+04  0.80005794228E+03 0.  0.
        1    1    3    3  502    0  0.51987202017E+02  0.16376266175E+03  0.10142459354E+03  0.19951898846E+03  0.50400001928E-02 0. -1.
       -1    1    3    3    0  502 -0.51987202017E+02 -0.16376266175E+03 -0.95521880205E+03  0.97054821537E+03  0.50400001928E-02 0.  1.
</event>
<event>
 5   0  0.3671128E-03  0.8019480E+03  0.7818609E-02  0.9557202E-01
       -1   -1    0    0    0  501  0.00000000000E+00  0.00000000000E+00  0.80311054425E+02  0.80311054583E+02  0.50400001928E-02 0. -1.
        1   -1    0    0  501    0  0.00000000000E+00  0.00000000000E+00 -0.20019677712E+04  0.20019677712E+04  0.50400001928E-02 0.  1.
    10030    2    1    2    0    0  0.00000000000E+00  0.00000000000E+00 -0.19216567167E+04  0.20822788258E+04  0.80194798534E+03 0.  0.
        2    1    3    3  502    0 -0.15990963964E+03  0.29362810076E+03 -0.38611215414E+03  0.51075546986E+03  0.25500000920E-02 0.  1.
       -2    1    3    3    0  502  0.15990963964E+03 -0.29362810076E+03 -0.15355445626E+04  0.15715233559E+04  0.25500000920E-02 0. -1.
</event>
<event>
 5   0  0.5813850E-03  0.8057084E+03  0.7818609E-02  0.9551791E-01
       -2   -1    0    0    0  501  0.00000000000E+00  0.00000000000E+00  0.19015225154E+03  0.19015225155E+03  0.25500000920E-02 0.  1.
        2   -1    0    0  501    0  0.00000000000E+00  0.00000000000E+00 -0.85348198317E+03  0.85348198318E+03  0.25500000920E-02 0. -1.
    10030    2    1    2    0    0  0.00000000000E+00  0.00000000000E+00 -0.66332973164E+03  0.10436342347E+04  0.80570843549E+03 0.  0.
        5    1    3    3  502    0 -0.18621395041E+03  0.75946028764E+02  0.12044126047E+03  0.23446027773E+03  0.46999998093E+01 0.  1.
       -5    1    3    3    0  502  0.18621395041E+03 -0.75946028764E+02 -0.78377099211E+03  0.80917395700E+03  0.46999998093E+01 0. -1.
</event>
<event>
 5   0  0.2478000E-03  0.8034568E+03  0.7818609E-02  0.9555027E-01
       -3   -1    0    0    0  501  0.00000000000E+00  0.00000000000E+00  0.56612811551E+03  0.56612812452E+03  0.10100000352E+00 0.  1.
        3   -1    0    0  501    0  0.00000000000E+00  0.00000000000E+00 -0.28506921873E+03  0.28506923662E+03  0.10100000352E+00 0. -1.
    10030    2    1    2    0    0  0.00000000000E+00  0.00000000000E+00  0.28105889678E+03  0.85119736114E+03  0.80345680914E+03 0.  0.
        5    1    3    3  502    0 -0.29604705748E+03  0.72034859253E+02  0.41786812771E+03  0.51717380381E+03  0.46999998093E+01 0.  1.
       -5    1    3    3    0  502  0.29604705748E+03 -0.72034859253E+02 -0.13680923093E+03  0.33402355733E+03  0.46999998093E+01 0. -1.
</event>
<event>
 5   0  0.2478000E-03  0.8025117E+03  0.7818609E-02  0.9556389E-01
        3   -1    0    0  501    0  0.00000000000E+00  0.00000000000E+00  0.22845485811E+03  0.22845488044E+03  0.10100000352E+00 0. -1.
       -3   -1    0    0    0  501  0.00000000000E+00  0.00000000000E+00 -0.70476167732E+03  0.70476168456E+03  0.10100000352E+00 0.  1.
    10030    2    1    2    0    0  0.00000000000E+00  0.00000000000E+00 -0.47630681921E+03  0.93321656499E+03  0.80251166418E+03 0.  0.
        5    1    3    3  502    0 -0.19906613594E+03  0.29119457112E+03 -0.46050964512E+03  0.58009725734E+03  0.46999998093E+01 0.  1.
       -5    1    3    3    0  502  0.19906613594E+03 -0.29119457112E+03 -0.15797174084E+02  0.35311930765E+03  0.46999998093E+01 0. -1.
</event>
<event>
 5   0  0.3671128E-03  0.7944409E+03  0.7818609E-02  0.9568099E-01
       -1   -1    0    0    0  501  0.00000000000E+00  0.00000000000E+00  0.77913184996E+03  0.77913184998E+03  0.50400001928E-02 0.  1.
        1   -1    0    0  501    0  0.00000000000E+00  0.00000000000E+00 -0.20251268282E+03  0.20251268288E+03  0.50400001928E-02 0. -1.
    10030    2    1    2    0    0  0.00000000000E+00  0.00000000000E+00  0.57661916714E+03  0.98164453285E+03  0.79444088828E+03 0.  0.
        2    1    3    3  502    0  0.34627016793E+02 -0.28537279603E+02 -0.19937105527E+03  0.20435807864E+03  0.25500000920E-02 0. -1.
       -2    1    3    3    0  502 -0.34627016793E+02  0.28537279603E+02  0.77599022241E+03  0.77728645422E+03  0.25500000920E-02 0.  1.
</event>
<event>
 5   0  0.6153659E-03  0.8014710E+03  0.7818609E-02  0.9557890E-01
        2   -1    0    0  501    0  0.00000000000E+00  0.00000000000E+00  0.17505950573E+04  0.17505950573E+04  0.25500000920E-02 0.  1.
       -2   -1    0    0    0  501  0.00000000000E+00  0.00000000000E+00 -0.91733919765E+02  0.91733919800E+02  0.25500000920E-02 0. -1.
    10030    2    1    2    0    0  0.00000000000E+00  0.00000000000E+00  0.16588611375E+04  0.18423289771E+04  0.80147101397E+03 0.  0.
        2    1    3    3  502    0 -0.13717694373E+03  0.28477405092E+03  0.13956501351E+04  0.14309972305E+04  0.25500000920E-02 0.  1.
       -2    1    3    3    0  502  0.13717694373E+03 -0.28477405092E+03  0.26321100237E+03  0.41133174658E+03  0.25500000920E-02 0. -1.
</event>
<event>
 5   0  0.6536209E-03  0.8012782E+03  0.7818609E-02  0.9558169E-01
        2   -1    0    0  501    0  0.00000000000E+00  0.00000000000E+00  0.87111878417E+03  0.87111878417E+03  0.25500000920E-02 0. -1.
       -2   -1    0    0    0  501  0.00000000000E+00  0.00000000000E+00 -0.18425923242E+03  0.18425923243E+03  0.25500000920E-02 0.  1.
    10030    2    1    2    0    0  0.00000000000E+00  0.00000000000E+00  0.68685955175E+03  0.10553780166E+04  0.80127817523E+03 0.  0.
        3    1    3    3  502    0 -0.43007591429E+02 -0.34997059566E+03  0.59396834963E+03  0.69074415040E+03  0.10100000352E+00 0. -1.
       -3    1    3    3    0  502  0.43007591429E+02  0.34997059566E+03  0.92891202115E+02  0.36463386620E+03  0.10100000352E+00 0.  1.
</event>
<event>
 5   0  0.3753450E-03  0.8011090E+03  0.7818609E-02  0.9558413E-01
        1   -1    0    0  501    0  0.00000000000E+00  0.00000000000E+00  0.87669326283E+03  0.87669326284E+03  0.50400001928E-02 0. -1.
       -1   -1    0    0    0  501  0.00000000000E+00  0.00000000000E+00 -0.18301031445E+03  0.18301031452E+03  0.50400001928E-02 0.  1.
    10030    2    1    2    0    0  0.00000000000E+00  0.00000000000E+00  0.69368294838E+03  0.10597035774E+04  0.80110900569E+03 0.  0.
        5    1    3    3  502    0  0.53901844939E+02  0.17559044557E+02 -0.17764009747E+03  0.18652566355E+03  0.46999998093E+01 0.  1.
       -5    1    3    3    0  502 -0.53901844939E+02 -0.17559044557E+02  0.87132304585E+03  0.87317791381E+03  0.46999998093E+01 0. -1.
</event>
<event>
 5   0  0.6256781E-03  0.7997888E+03  0.7818609E-02  0.9560323E-01
       -2   -1    0    0    0  501  0.00000000000E+00  0.00000000000E+00  0.23363484776E+03  0.23363484777E+03  0.25500000920E-02 0. -1.
        2   -1    0    0  501    0  0.00000000000E+00  0.00000000000E+00 -0.68446788787E+03  0.68446788787E+03  0.25500000920E-02 0.  1.
    10030    2    1    2    0    0  0.00000000000E+00  0.00000000000E+00 -0.45083304011E+03  0.91810273564E+03  0.79978884909E+03 0.  0.
        1    1    3    3  502    0  0.62967373059E+02 -0.33093643378E+03  0.21940023903E+02  0.33758728937E+03  0.50400001928E-02 0. -1.
       -1    1    3    3    0  502 -0.62967373059E+02  0.33093643378E+03 -0.47277306401E+03  0.58051544627E+03  0.50400001928E-02 0.  1.
</event>
<event>
 5   0  0.6337108E-03  0.8010226E+03  0.7818609E-02  0.9558538E-01
        2   -1    0    0  501    0  0.00000000000E+00  0.00000000000E+00  0.11214030442E+04  0.11214030442E+04  0.25500000920E-02 0. -1.
       -2   -1    0    0    0  501  0.00000000000E+00  0.00000000000E+00 -0.14304338045E+03  0.14304338048E+03  0.25500000920E-02 0.  1.
    10030    2    1    2    0    0  0.00000000000E+00  0.00000000000E+00  0.97835966377E+03  0.12644464247E+04  0.80102255227E+03 0.  0.
        4    1    3    3  502    0  0.25784582832E+03 -0.27818927406E+03  0.28620430176E+03  0.47517182011E+03  0.12699999809E+01 0.  1.
       -4    1    3    3    0  502 -0.25784582832E+03  0.27818927406E+03  0.69215536201E+03  0.78927460459E+03  0.12699999809E+01 0. -1.
</event>
<event>
 5   0  0.3753450E-03  0.8003344E+03  0.7818609E-02  0.9559533E-01
       -1   -1    0    0    0  501  0.00000000000E+00  0.00000000000E+00  0.25260451989E+03  0.25260451994E+03  0.50400001928E-02 0. -1.
        1   -1    0    0  501    0  0.00000000000E+00  0.00000000000E+00 -0.63393082230E+03  0.63393082232E+03  0.50400001928E-02 0.  1.
    10030    2    1    2    0    0  0.00000000000E+00  0.00000000000E+00 -0.38132630240E+03  0.88653534226E+03  0.80033440771E+03 0.  0.
        5    1    3    3  502    0 -0.24279709998E+03 -0.31730623492E+03 -0.16644456626E+03  0.43285050781E+03  0.46999998093E+01 0.  1.
       -5    1    3    3    0  502  0.24279709998E+03  0.31730623492E+03 -0.21488173614E+03  0.45368483444E+03  0.46999998093E+01 0. -1.
</event>
<event>
 5   0  0.3671128E-03  0.7881778E+03  0.7818609E-02  0.9577289E-01
        1   -1    0    0  501    0  0.00000000000E+00  0.00000000000E+00  0.95932882643E+03  0.95932882644E+03  0.50400001928E-02 0.  1.
       -1   -1    0    0    0  501  0.00000000000E+00  0.00000000000E+00 -0.16189034594E+03  0.16189034602E+03  0.50400001928E-02 0. -1.
    10030    2    1    2    0    0  0.00000000000E+00  0.00000000000E+00  0.79743848049E+03  0.11212191725E+04  0.78817783686E+03 0.  0.
        2    1    3    3  502    0  0.30955464997E+02  0.25275194901E+03 -0.29143905006E+02  0.25630285942E+03  0.25500000920E-02 0. -1.
       -2    1    3    3    0  502 -0.30955464997E+02 -0.25275194901E+03  0.82658238550E+03  0.86491631304E+03  0.25500000920E-02 0.  1.
</event>
<event>
 5   0  0.3753450E-03  0.8039573E+03  0.7818609E-02  0.9554307E-01
       -1   -1    0    0    0  501  0.00000000000E+00  0.00000000000E+00  0.21746911121E+03  0.21746911127E+03  0.50400001928E-02 0. -1.
        1   -1    0    0  501    0  0.00000000000E+00  0.00000000000E+00 -0.74303349989E+03  0.74303349990E+03  0.50400001928E-02 0.  1.
    10030    2    1    2    0    0  0.00000000000E+00  0.00000000000E+00 -0.52556438868E+03  0.96050261117E+03  0.80395729950E+03 0.  0.
        5    1    3    3  502    0 -0.33001766346E+03 -0.12611226828E+03 -0.49180938426E+03  0.60556958548E+03  0.46999998093E+01 0.  1.
       -5    1    3    3    0  502  0.33001766346E+03  0.12611226828E+03 -0.33755004416E+02  0.35493302570E+03  0.46999998093E+01 0. -1.
</event>
<event>
 5   0  0.6536209E-03  0.8000027E+03  0.7818609E-02  0.9560013E-01
        2   -1    0    0  501    0  0.00000000000E+00  0.00000000000E+00  0.58119066713E+03  0.58119066713E+03  0.25500000920E-02 0.  1.
       -2   -1    0    0    0  501  0.00000000000E+00  0.00000000000E+00 -0.27529878165E+03  0.27529878166E+03  0.25500000920E-02 0. -1.
    10030    2    1    2    0    0  0.00000000000E+00  0.00000000000E+00  0.30589188548E+03  0.85648944880E+03  0.80000270644E+03 0.  0.
        3    1    3    3  502    0 -0.10522539046E+03 -0.27307847471E+03 -0.13899231539E+03  0.32398010754E+03  0.10100000352E+00 0. -1.
       -3    1    3    3    0  502  0.10522539046E+03  0.27307847471E+03  0.44488420086E+03  0.53250934125E+03  0.10100000352E+00 0.  1.
</event>
<event>
 5   0  0.6153659E-03  0.8005893E+03  0.7818609E-02  0.9559164E-01
        2   -1    0    0  501    0  0.00000000000E+00  0.00000000000E+00  0.15619670787E+04  0.15619670787E+04  0.25500000920E-02 0.  1.
       -2   -1    0    0    0  501  0.00000000000E+00  0.00000000000E+00 -0.10258591538E+03  0.10258591541E+03  0.25500000920E-02 0. -1.
    10030    2    1    2    0    0  0.00000000000E+00  0.00000000000E+00  0.14593811633E+04  0.16645529941E+04  0.80058933940E+03 0.  0.
        2    1    3    3  502    0 -0.39765237852E+03  0.43091088893E+02  0.76266781559E+03  0.86118897637E+03  0.25500000920E-02 0.  1.
       -2    1    3    3    0  502  0.39765237852E+03 -0.43091088893E+02  0.69671334776E+03  0.80336401776E+03  0.25500000920E-02 0. -1.
</event>
<event>
 5   0  0.5813850E-03  0.7837548E+03  0.7818609E-02  0.9583834E-01
       -2   -1    0    0    0  501  0.00000000000E+00  0.00000000000E+00  0.78671973815E+02  0.78671973857E+02  0.25500000920E-02 0.  1.
        2   -1    0    0  501    0  0.00000000000E+00  0.00000000000E+00 -0.19520026780E+04  0.19520026780E+04  0.25500000920E-02 0. -1.
    10030    2    1    2    0    0  0.00000000000E+00  0.00000000000E+00 -0.18733307041E+04  0.20306746518E+04  0.78375481781E+03 0.  0.
        5    1    3    3  502    0  0.69707723891E+02  0.69593504515E+02 -0.19193294303E+04  0.19218610706E+04  0.46999998093E+01 0. -1.
       -5    1    3    3    0  502 -0.69707723891E+02 -0.69593504515E+02  0.45998726196E+02  0.10881358119E+03  0.46999998093E+01 0.  1.
</event>
<event>
 5   0  0.3860515E-03  0.7950656E+03  0.7818609E-02  0.9567187E-01
       -1   -1    0    0    0  501  0.00000000000E+00  0.00000000000E+00  0.34480752684E+03  0.34480752688E+03  0.50400001928E-02 0.  1.
        1   -1    0    0  501    0  0.00000000000E+00  0.00000000000E+00 -0.45832036910E+03  0.45832036913E+03  0.50400001928E-02 0. -1.
    10030    2    1    2    0    0  0.00000000000E+00  0.00000000000E+00 -0.11351284226E+03  0.80312789600E+03  0.79506556458E+03 0.  0.
        4    1    3    3  502    0 -0.23075168459E+03 -0.24733999639E+03 -0.26769756556E+03  0.43137803985E+03  0.12699999809E+01 0. -1.
       -4    1    3    3    0  502  0.23075168459E+03  0.24733999639E+03  0.15418472330E+03  0.37174985616E+03  0.12699999809E+01 0.  1.
</event>
<event>
 5   0  0.3714448E-03  0.7989543E+03  0.7818609E-02  0.9561532E-01
        1   -1    0    0  501    0  0.00000000000E+00  0.00000000000E+00  0.59352007506E+03  0.59352007509E+03  0.50400001928E-02 0.  1.
       -1   -1    0    0    0  501  0.00000000000E+00  0.00000000000E+00 -0.26887376752E+03  0.26887376756E+03  0.50400001928E-02 0. -1.
    10030    2    1    2    0    0  0.00000000000E+00  0.00000000000E+00  0.32464630755E+03  0.86239384265E+03  0.79895426329E+03 0.  0.
        1    1    3    3  502    0  0.37638981827E+03 -0.29850580729E+02  0.30314961079E+03  0.48421073823E+03  0.50400001928E-02 0. -1.
       -1    1    3    3    0  502 -0.37638981827E+03  0.29850580729E+02  0.21496696756E+02  0.37818310442E+03  0.50400001928E-02 0.  1.
</event>
<event>
 5   0  0.6153659E-03  0.7963172E+03  0.7818609E-02  0.9565363E-01
        2   -1    0    0  501    0  0.00000000000E+00  0.00000000000E+00  0.17691509258E+03  0.17691509259E+03  0.25500000920E-02 0. -1.
       -2   -1    0    0    0  501  0.00000000000E+00  0.00000000000E+00 -0.89608120138E+03  0.89608120138E+03  0.25500000920E-02 0.  1.
    10030    2    1    2    0    0  0.00000000000E+00  0.00000000000E+00 -0.71916610880E+03  0.10729962940E+04  0.79631724509E+03 0.  0.
        2    1    3    3  502    0  0.79931471664E+02 -0.27333835010E+03  0.15354916481E+02  0.28519934654E+03  0.25500000920E-02 0. -1.
       -2    1    3    3    0  502 -0.79931471664E+02  0.27333835010E+03 -0.73452102528E+03  0.78779694743E+03  0.25500000920E-02 0.  1.
</event>
<event>
 5   0  0.3753450E-03  0.7997810E+03  0.7818609E-02  0.9560334E-01
       -1   -1    0    0    0  501  0.00000000000E+00  0.00000000000E+00  0.12392530488E+03  0.12392530498E+03  0.50400001928E-02 0. -1.
        1   -1    0    0  501    0  0.00000000000E+00  0.00000000000E+00 -0.12903936665E+04  0.12903936666E+04  0.50400001928E-02 0.  1.
    10030    2    1    2    0    0  0.00000000000E+00  0.00000000000E+00 -0.11664683617E+04  0.14143189715E+04  0.79978104158E+03 0.  0.
        5    1    3    3  502    0 -0.35184383974E+03  0.14575126503E+03 -0.36771758539E+03  0.52941083425E+03  0.46999998093E+01 0. -1.
       -5    1    3    3    0  502  0.35184383974E+03 -0.14575126503E+03 -0.79875077628E+03  0.88490813729E+03  0.46999998093E+01 0.  1.
</event>
<event>
 5   0  0.3860515E-03  0.7843337E+03  0.7818609E-02  0.9582974E-01
        1   -1    0    0  501    0  0.00000000000E+00  0.00000000000E+00  0.15465848509E+04  0.15465848509E+04  0.50400001928E-02 0. -1.
       -1   -1    0    0    0  501  0.00000000000E+00  0.00000000000E+00 -0.99441590142E+02  0.99441590270E+02  0.50400001928E-02 0.  1.
    10030    2    1    2    0    0  0.00000000000E+00  0.00000000000E+00  0.14471432608E+04  0.16460264412E+04  0.78433374778E+03 0.  0.
        4    1    3    3  502    0 -0.38064782776E+03  0.21994834364E+01  0.52563578719E+03  0.64899322045E+03  0.12699999809E+01 0.  1.
       -4    1    3    3    0  502  0.38064782776E+03 -0.21994834364E+01  0.92150747359E+03  0.99703322075E+03  0.12699999809E+01 0. -1.
</event>
<event>
 5   0  0.6337108E-03  0.8014580E+03  0.7818609E-02  0.9557909E-01
       -2   -1    0    0    0  501  0.00000000000E+00  0.00000000000E+00  0.66511987651E+02  0.66511987700E+02  0.25500000920E-02 0. -1.
        2   -1    0    0  501    0  0.00000000000E+00  0.00000000000E+00 -0.24143575191E+04  0.24143575191E+04  0.25500000920E-02 0.  1.
    10030    2    1    2    0    0  0.00000000000E+00  0.00000000000E+00 -0.23478455315E+04  0.24808695068E+04  0.80145796536E+03 0.  0.
        4    1    3    3  502    0 -0.95360713875E+02 -0.26708059184E+03 -0.20503023737E+04  0.20698229743E+04  0.12699999809E+01 0.  1.
       -4    1    3    3    0  502  0.95360713875E+02  0.26708059184E+03 -0.29754315775E+03  0.41104653254E+03  0.12699999809E+01 0. -1.
</event>
<event>
 5   0  0.3753450E-03  0.8051411E+03  0.7818609E-02  0.9552605E-01
       -1   -1    0    0    0  501  0.00000000000E+00  0.00000000000E+00  0.55077680406E+02  0.55077680636E+02  0.50400001928E-02 0.  1.
        1   -1    0    0  501    0  0.00000000000E+00  0.00000000000E+00 -0.29424450354E+04  0.29424450354E+04  0.50400001928E-02 0. -1.
    10030    2    1    2    0    0  0.00000000000E+00  0.00000000000E+00 -0.28873673550E+04  0.29975227160E+04  0.80514109974E+03 0.  0.
        5    1    3    3  502    0  0.29514937553E+02  0.34926329729E+03 -0.21806544676E+04  0.22086493564E+04  0.46999998093E+01 0. -1.
       -5    1    3    3    0  502 -0.29514937553E+02 -0.34926329729E+03 -0.70671288735E+03  0.78887335962E+03  0.46999998093E+01 0.  1.
</event>
<event>
 5   0  0.5813850E-03  0.7988120E+03  0.7818609E-02  0.9561738E-01
       -2   -1    0    0    0  501  0.00000000000E+00  0.00000000000E+00  0.15243767496E+03  0.15243767498E+03  0.25500000920E-02 0. -1.
        2   -1    0    0  501    0  0.00000000000E+00  0.00000000000E+00 -0.10464943258E+04  0.10464943258E+04  0.25500000920E-02 0.  1.
    10030    2    1    2    0    0  0.00000000000E+00  0.00000000000E+00 -0.89405665087E+03  0.11989320008E+04  0.79881202271E+03 0.  0.
        5    1    3    3  502    0 -0.20021796290E+02 -0.18864569081E+01  0.15163574506E+03  0.15303568285E+03  0.46999998093E+01 0. -1.
       -5    1    3    3    0  502  0.20021796290E+02  0.18864569081E+01 -0.10456923959E+04  0.10458963180E+04  0.46999998093E+01 0.  1.
</event>
<event>
 5   0  0.6256781E-03  0.8004728E+03  0.7818609E-02  0.9559333E-01
       -2   -1    0    0    0  501  0.00000000000E+00  0.00000000000E+00  0.91108508073E+02  0.91108508109E+02  0.25500000920E-02 0.  1.
        2   -1    0    0  501    0  0.00000000000E+00  0.00000000000E+00 -0.17582242485E+04  0.17582242485E+04  0.25500000920E-02 0. -1.
    10030    2    1    2    0    0  0.00000000000E+00  0.00000000000E+00 -0.16671157405E+04  0.18493327566E+04  0.80047283071E+03 0.  0.
        1    1    3    3  502    0  0.24284402588E+03 -0.24482604220E+01 -0.98570085253E+02  0.26209783787E+03  0.50400001928E-02 0.  1.
       -1    1    3    3    0  502 -0.24284402588E+03  0.24482604220E+01 -0.15685456552E+04  0.15872349188E+04  0.50400001928E-02 0. -1.
</event>
<event>
 5   0  0.3714448E-03  0.8001436E+03  0.7818609E-02  0.9559809E-01
        1   -1    0    0  501    0  0.00000000000E+00  0.00000000000E+00  0.25890737671E+03  0.25890737676E+03  0.50400001928E-02 0.  1.
       -1   -1    0    0    0  501  0.00000000000E+00  0.00000000000E+00 -0.61820349566E+03  0.61820349568E+03  0.50400001928E-02 0. -1.
    10030    2    1    2    0    0  0.00000000000E+00  0.00000000000E+00 -0.35929611895E+03  0.87711087243E+03  0.80014360052E+03 0.  0.
        1    1    3    3  502    0 -0.10778966976E+02  0.26331151774E+03  0.15031897877E+03  0.30338908502E+03  0.50400001928E-02 0.  1.
       -1    1    3    3    0  502  0.10778966976E+02 -0.26331151774E+03 -0.50961509772E+03  0.57372178741E+03  0.50400001928E-02 0. -1.
</event>
<event>
 5   0  0.2478000E-03  0.7990597E+03  0.7818609E-02  0.9561379E-01
        3   -1    0    0  501    0  0.00000000000E+00  0.00000000000E+00  0.10634147864E+04  0.10634147912E+04  0.10100000352E+00 0. -1.
       -3   -1    0    0    0  501  0.00000000000E+00  0.00000000000E+00 -0.15010519374E+03  0.15010522772E+03  0.10100000352E+00 0.  1.
    10030    2    1    2    0    0  0.00000000000E+00  0.00000000000E+00  0.91330959262E+03  0.12135200189E+04  0.79905971257E+03 0.  0.
        4    1    3    3  502    0  0.79723251455E+02 -0.18856290416E+03  0.97770039569E+03  0.99890512176E+03  0.12699999809E+01 0. -1.
       -4    1    3    3    0  502 -0.79723251455E+02  0.18856290416E+03 -0.64390803063E+02  0.21461489712E+03  0.12699999809E+01 0.  1.
</event>
<event>
 5   0  0.3671128E-03  0.8361227E+03  0.7818609E-02  0.9509154E-01
        1   -1    0    0  501    0  0.00000000000E+00  0.00000000000E+00  0.40535325285E+03  0.40535325288E+03  0.50400001928E-02 0.  1.
       -1   -1    0    0    0  501  0.00000000000E+00  0.00000000000E+00 -0.43116787426E+03  0.43116787429E+03  0.50400001928E-02 0. -1.
    10030    2    1    2    0    0  0.00000000000E+00  0.00000000000E+00 -0.25814621414E+02  0.83652112718E+03  0.83612271918E+03 0.  0.
        2    1    3    3  502    0  0.24663854764E+03  0.17978401600E+02 -0.35014581702E+03  0.42866757434E+03  0.25500000920E-02 0. -1.
       -2    1    3    3    0  502 -0.24663854764E+03 -0.17978401600E+02  0.32433119561E+03  0.40785355283E+03  0.25500000920E-02 0.  1.
</event>
<event>
 5   0  0.3860515E-03  0.8023595E+03  0.7818609E-02  0.9556608E-01
       -1   -1    0    0    0  501  0.00000000000E+00  0.00000000000E+00  0.53846429047E+03  0.53846429050E+03  0.50400001928E-02 0. -1.
        1   -1    0    0  501    0  0.00000000000E+00  0.00000000000E+00 -0.29889666161E+03  0.29889666165E+03  0.50400001928E-02 0.  1.
    10030    2    1    2    0    0  0.00000000000E+00  0.00000000000E+00  0.23956762887E+03  0.83736095215E+03  0.80235946768E+03 0.  0.
        4    1    3    3  502    0  0.38700820288E+03  0.98979086041E+02  0.15843110446E+03  0.42973740393E+03  0.12699999809E+01 0.  1.
       -4    1    3    3    0  502 -0.38700820288E+03 -0.98979086041E+02  0.81136524404E+02  0.40762354822E+03  0.12699999809E+01 0. -1.
</event>
<event>
 5   0  0.3860515E-03  0.8024477E+03  0.7818609E-02  0.9556481E-01
       -1   -1    0    0    0  501  0.00000000000E+00  0.00000000000E+00  0.11608736658E+03  0.11608736669E+03  0.50400001928E-02 0. -1.
        1   -1    0    0  501    0  0.00000000000E+00  0.00000000000E+00 -0.13867192002E+04  0.13867192002E+04  0.50400001928E-02 0.  1.
    10030    2    1    2    0    0  0.00000000000E+00  0.00000000000E+00 -0.12706318336E+04  0.15028065669E+04  0.80244770603E+03 0.  0.
        4    1    3    3  502    0 -0.18091232820E+03 -0.84125773404E+02 -0.12872271581E+04  0.13025980907E+04  0.12699999809E+01 0.  1.
       -4    1    3    3    0  502  0.18091232820E+03  0.84125773404E+02  0.16595324566E+02  0.20020847620E+03  0.12699999809E+01 0. -1.
</event>
<event>
 5   0  0.3714448E-03  0.8056696E+03  0.7818609E-02  0.9551847E-01
        1   -1    0    0  501    0  0.00000000000E+00  0.00000000000E+00  0.11394749104E+04  0.11394749104E+04  0.50400001928E-02 0. -1.
       -1   -1    0    0    0  501  0.00000000000E+00  0.00000000000E+00 -0.14241285577E+03  0.14241285586E+03  0.50400001928E-02 0.  1.
    10030    2    1    2    0    0  0.00000000000E+00  0.00000000000E+00  0.99706205466E+03  0.12818877663E+04  0.80566960011E+03 0.  0.
        1    1    3    3  502    0  0.26491266027E+03  0.24403473684E+03  0.21149932654E+03  0.41768844311E+03  0.50400001928E-02 0.  1.
       -1    1    3    3    0  502 -0.26491266027E+03 -0.24403473684E+03  0.78556272812E+03  0.86419932319E+03  0.50400001928E-02 0. -1.
</event>
<event>
 5   0  0.5813850E-03  0.7999546E+03  0.7818609E-02  0.9560083E-01
       -2   -1    0    0    0  501  0.00000000000E+00  0.00000000000E+00  0.11711317289E+03  0.11711317292E+03  0.25500000920E-02 0.  1.
        2   -1    0    0  501    0  0.00000000000E+00  0.00000000000E+00 -0.13660446418E+04  0.13660446418E+04  0.25500000920E-02 0. -1.
    10030    2    1    2    0    0  0.00000000000E+00  0.00000000000E+00 -0.12489314689E+04  0.14831578147E+04  0.79995455453E+03 0.  0.
        5    1    3    3  502    0  0.25885936460E+03 -0.29170690092E+02 -0.11871352098E+04  0.12153893187E+04  0.46999998093E+01 0. -1.
       -5    1    3    3    0  502 -0.25885936460E+03  0.29170690092E+02 -0.61796259132E+02  0.26776849598E+03  0.46999998093E+01 0.  1.
</event>
<event>
 5   0  0.6153659E-03  0.8038024E+03  0.7818609E-02  0.9554530E-01
       -2   -1    0    0    0  501  0.00000000000E+00  0.00000000000E+00  0.19590517817E+03  0.19590517818E+03  0.25500000920E-02 0.  1.
        2   -1    0    0  501    0  0.00000000000E+00  0.00000000000E+00 -0.82450378297E+03  0.82450378298E+03  0.25500000920E-02 0. -1.
    10030    2    1    2    0    0  0.00000000000E+00  0.00000000000E+00 -0.62859860481E+03  0.10204089612E+04  0.80380236504E+03 0.  0.
        2    1    3    3  502    0  0.54360310767E+02  0.39170616304E+03 -0.40527575349E+03  0.56624835358E+03  0.25500000920E-02 0. -1.
       -2    1    3    3    0  502 -0.54360310767E+02 -0.39170616304E+03 -0.22332285131E+03  0.45416060758E+03  0.25500000920E-02 0.  1.
</event>
<event>
 5   0  0.3671128E-03  0.7986591E+03  0.7818609E-02  0.9561960E-01
       -1   -1    0    0    0  501  0.00000000000E+00  0.00000000000E+00  0.98246944489E+02  0.98246944618E+02  0.50400001928E-02 0.  1.
        1   -1    0    0  501    0  0.00000000000E+00  0.00000000000E+00 -0.16230945093E+04  0.16230945093E+04  0.50400001928E-02 0. -1.
    10030    2    1    2    0    0  0.00000000000E+00  0.00000000000E+00 -0.15248475648E+04  0.17213414539E+04  0.79865906687E+03 0.  0.
        2    1    3    3  502    0  0.21166251738E+03  0.33639751346E+03 -0.84589132624E+03  0.93461031673E+03  0.25500000920E-02 0.  1.
       -2    1    3    3    0  502 -0.21166251738E+03 -0.33639751346E+03 -0.67895623859E+03  0.78673113721E+03  0.25500000920E-02 0. -1.
</event>
<event>
 5   0  0.3860515E-03  0.7949540E+03  0.7818609E-02  0.9567350E-01
        1   -1    0    0  501    0  0.00000000000E+00  0.00000000000E+00  0.55616556206E+03  0.55616556208E+03  0.50400001928E-02 0. -1.
       -1   -1    0    0    0  501  0.00000000000E+00  0.00000000000E+00 -0.28406642025E+03  0.28406642030E+03  0.50400001928E-02 0.  1.
    10030    2    1    2    0    0  0.00000000000E+00  0.00000000000E+00  0.27209914181E+03  0.84023198238E+03  0.79495398687E+03 0.  0.
        4    1    3    3  502    0 -0.36779828758E+03  0.71987919828E+02 -0.38864991816E+01  0.37479935795E+03  0.12699999809E+01 0. -1.
       -4    1    3    3    0  502  0.36779828758E+03 -0.71987919828E+02  0.27598564099E+03  0.46543262443E+03  0.12699999809E+01 0.  1.
</event>
<event>
 5   0  0.3627496E-03  0.8027900E+03  0.7818609E-02  0.9555987E-01
        1   -1    0    0  501    0  0.00000000000E+00  0.00000000000E+00  0.51838324920E+03  0.51838324923E+03  0.50400001928E-02 0. -1.
       -1   -1    0    0    0  501  0.00000000000E+00  0.00000000000E+00 -0.31080858472E+03  0.31080858476E+03  0.50400001928E-02 0.  1.
    10030    2    1    2    0    0  0.00000000000E+00  0.00000000000E+00  0.20757466449E+03  0.82919183399E+03  0.80279004491E+03 0.  0.
        3    1    3    3  502    0 -0.18433058611E+03 -0.26076206601E+03 -0.14740474581E+03  0.35171407327E+03  0.10100000352E+00 0.  1.
       -3    1    3    3    0  502  0.18433058611E+03  0.26076206601E+03  0.35497941030E+03  0.47747776072E+03  0.10100000352E+00 0. -1.
</event>
<event>
 5   0  0.3714448E-03  0.8026998E+03  0.7818609E-02  0.9556117E-01
       -1   -1    0    0    0  501  0.00000000000E+00  0.00000000000E+00  0.21323202773E+04  0.21323202773E+04  0.50400001928E-02 0.  1.
        1   -1    0    0  501    0  0.00000000000E+00  0.00000000000E+00 -0.75542946230E+02  0.75542946398E+02  0.50400001928E-02 0. -1.
    10030    2    1    2    0    0  0.00000000000E+00  0.00000000000E+00  0.20567773311E+04  0.22078632237E+04  0.80269983492E+03 0.  0.
        1    1    3    3  502    0  0.23615809734E+03 -0.30749538770E+03  0.13136734583E+04  0.13696941321E+04  0.50400001928E-02 0.  1.
       -1    1    3    3    0  502 -0.23615809734E+03  0.30749538770E+03  0.74310387279E+03  0.83816909164E+03  0.50400001928E-02 0. -1.
</event>
<event>
 5   0  0.3671128E-03  0.7989884E+03  0.7818609E-02  0.9561482E-01
       -1   -1    0    0    0  501  0.00000000000E+00  0.00000000000E+00  0.20952112712E+03  0.20952112718E+03  0.50400001928E-02 0. -1.
        1   -1    0    0  501    0  0.00000000000E+00  0.00000000000E+00 -0.76171614307E+03  0.76171614309E+03  0.50400001928E-02 0.  1.
    10030    2    1    2    0    0  0.00000000000E+00  0.00000000000E+00 -0.55219501596E+03  0.97123727026E+03  0.79898842263E+03 0.  0.
        2    1    3    3  502    0  0.24755438545E+03  0.30589670597E+03 -0.19241045354E+03  0.43803852698E+03  0.25500000920E-02 0.  1.
       -2    1    3    3    0  502 -0.24755438545E+03 -0.30589670597E+03 -0.35978456241E+03  0.53319874328E+03  0.25500000920E-02 0. -1.
</event>
<event>
 5   0  0.3860515E-03  0.7945562E+03  0.7818609E-02  0.9567930E-01
       -1   -1    0    0    0  501  0.00000000000E+00  0.00000000000E+00  0.81670716669E+02  0.81670716825E+02  0.50400001928E-02 0. -1.
        1   -1    0    0  501    0  0.00000000000E+00  0.00000000000E+00 -0.19325149701E+04  0.19325149701E+04  0.50400001928E-02 0.  1.
    10030    2    1    2    0    0  0.00000000000E+00  0.00000000000E+00 -0.18508442535E+04  0.20141856870E+04  0.79455618492E+03 0.  0.
        4    1    3    3  502    0 -0.11991236430E+03  0.37798081770E+03 -0.86438240139E+03  0.95100316634E+03  0.12699999809E+01 0.  1.
       -4    1    3    3    0  502  0.11991236430E+03 -0.37798081770E+03 -0.98646185207E+03  0.10631825206E+04  0.12699999809E+01 0. -1.
</event>
<event>
 5   0  0.3627496E-03  0.7982039E+03  0.7818609E-02  0.9562621E-01
        1   -1    0    0  501    0  0.00000000000E+00  0.00000000000E+00  0.87707076451E+03  0.87707076452E+03  0.50400001928E-02 0.  1.
       -1   -1    0    0    0  501  0.00000000000E+00  0.00000000000E+00 -0.18160718124E+03  0.18160718131E+03  0.50400001928E-02 0. -1.
    10030    2    1    2    0    0  0.00000000000E+00  0.00000000000E+00  0.69546358327E+03  0.10586779458E+04  0.79820385700E+03 0.  0.
        3    1    3    3  502    0 -0.32470244599E+03 -0.33578391462E+02  0.65227626909E+03  0.72939942982E+03  0.10100000352E+00 0.  1.
       -3    1    3    3    0  502  0.32470244599E+03  0.33578391462E+02  0.43187314183E+02  0.32927851602E+03  0.10100000352E+00 0. -1.
</event>
<event>
 5   0  0.6153659E-03  0.7997014E+03  0.7818609E-02  0.9560449E-01
        2   -1    0    0  501    0  0.00000000000E+00  0.00000000000E+00  0.53377909801E+03  0.53377909802E+03  0.25500000920E-02 0. -1.
       -2   -1    0    0    0  501  0.00000000000E+00  0.00000000000E+00 -0.29952574525E+03  0.29952574526E+03  0.25500000920E-02 0.  1.
    10030    2    1    2    0    0  0.00000000000E+00  0.00000000000E+00  0.23425335277E+03  0.83330484327E+03  0.79970139961E+03 0.  0.
        2    1    3    3  502    0 -0.33689854018E+03  0.18845731463E+03  0.85174157603E+01  0.38612087769E+03  0.25500000920E-02 0.  1.
       -2    1    3    3    0  502  0.33689854018E+03 -0.18845731463E+03  0.22573593701E+03  0.44718396558E+03  0.25500000920E-02 0. -1.
</event>
<event>
 5   0  0.3753450E-03  0.8003530E+03  0.7818609E-02  0.9559506E-01
       -1   -1    0    0    0  501  0.00000000000E+00  0.00000000000E+00  0.17163037795E+03  0.17163037803E+03  0.50400001928E-02 0. -1.
        1   -1    0    0  501    0  0.00000000000E+00  0.00000000000E+00 -0.93305866657E+03  0.93305866659E+03  0.50400001928E-02 0.  1.
    10030    2    1    2    0    0  0.00000000000E+00  0.00000000000E+00 -0.76142828862E+03  0.11046890446E+04  0.80035295125E+03 0.  0.
        5    1    3    3  502    0  0.12746879375E+03 -0.18242807925E+03 -0.83971980727E+03  0.86872305264E+03  0.46999998093E+01 0.  1.
       -5    1    3    3    0  502 -0.12746879375E+03  0.18242807925E+03  0.78291518643E+02  0.23596599197E+03  0.46999998093E+01 0. -1.
</event>
<event>
 5   0  0.6256781E-03  0.7973114E+03  0.7818609E-02  0.9563917E-01
        2   -1    0    0  501    0  0.00000000000E+00  0.00000000000E+00  0.33563465048E+03  0.33563465049E+03  0.25500000920E-02 0.  1.
       -2   -1    0    0    0  501  0.00000000000E+00  0.00000000000E+00 -0.47350997207E+03  0.47350997208E+03  0.25500000920E-02 0. -1.
    10030    2    1    2    0    0  0.00000000000E+00  0.00000000000E+00 -0.13787532159E+03  0.80914462257E+03  0.79731136699E+03 0.  0.
        1    1    3    3  502    0 -0.39243612335E+03  0.52984558632E+02 -0.22289387697E+02  0.39662361401E+03  0.50400001928E-02 0. -1.
       -1    1    3    3    0  502  0.39243612335E+03 -0.52984558632E+02 -0.11558593389E+03  0.41252100856E+03  0.50400001928E-02 0.  1.
</event>
<event>
 5   0  0.3627496E-03  0.7987569E+03  0.7818609E-02  0.9561818E-01
        1   -1    0    0  501    0  0.00000000000E+00  0.00000000000E+00  0.54559006776E+03  0.54559006778E+03  0.50400001928E-02 0.  1.
       -1   -1    0    0    0  501  0.00000000000E+00  0.00000000000E+00 -0.29234981416E+03  0.29234981420E+03  0.50400001928E-02 0. -1.
    10030    2    1    2    0    0  0.00000000000E+00  0.00000000000E+00  0.25324025360E+03  0.83793988198E+03  0.79875692158E+03 0.  0.
        3    1    3    3  502    0 -0.33660779270E+03  0.73215480709E+02  0.33861705395E+03  0.48303916212E+03  0.10100000352E+00 0.  1.
       -3    1    3    3    0  502  0.33660779270E+03 -0.73215480709E+02 -0.85376800351E+02  0.35490071986E+03  0.10100000352E+00 0. -1.
</event>
<event>
 5   0  0.6256781E-03  0.7989600E+03  0.7818609E-02  0.9561524E-01
       -2   -1    0    0    0  501  0.00000000000E+00  0.00000000000E+00  0.12903875877E+03  0.12903875879E+03  0.25500000920E-02 0. -1.
        2   -1    0    0  501    0  0.00000000000E+00  0.00000000000E+00 -0.12367159070E+04  0.12367159070E+04  0.25500000920E-02 0.  1.
    10030    2    1    2    0    0  0.00000000000E+00  0.00000000000E+00 -0.11076771483E+04  0.13657546658E+04  0.79896003808E+03 0.  0.
        1    1    3    3  502    0 -0.17633228779E+03 -0.25632607171E+03 -0.98217646666E+03  0.10302750810E+04  0.50400001928E-02 0. -1.
       -1    1    3    3    0  502  0.17633228779E+03  0.25632607171E+03 -0.12550068161E+03  0.33547958488E+03  0.50400001928E-02 0.  1.
</event>
<event>
 5   0  0.3714448E-03  0.7996678E+03  0.7818609E-02  0.9560498E-01
       -1   -1    0    0    0  501  0.00000000000E+00  0.00000000000E+00  0.16614973723E+03  0.16614973731E+03  0.50400001928E-02 0. -1.
        1   -1    0    0  501    0  0.00000000000E+00  0.00000000000E+00 -0.96218710961E+03  0.96218710962E+03  0.50400001928E-02 0.  1.
    10030    2    1    2    0    0  0.00000000000E+00  0.00000000000E+00 -0.79603737238E+03  0.11283368469E+04  0.79966776971E+03 0.  0.
        1    1    3    3  502    0 -0.76052704452E+02  0.48057004945E+02 -0.94772074275E+03  0.95198114259E+03  0.50400001928E-02 0.  1.
       -1    1    3    3    0  502  0.76052704452E+02 -0.48057004945E+02  0.15168337037E+03  0.17635570434E+03  0.50400001928E-02 0. -1.
</event>
<event>
 5   0  0.5813850E-03  0.8047130E+03  0.7818609E-02  0.9553220E-01
        2   -1    0    0  501    0  0.00000000000E+00  0.00000000000E+00  0.21391483531E+04  0.21391483531E+04  0.25500000920E-02 0. -1.
       -2   -1    0    0    0  501  0.00000000000E+00  0.00000000000E+00 -0.75680007996E+02  0.75680008039E+02  0.25500000920E-02 0.  1.
    10030    2    1    2    0    0  0.00000000000E+00  0.00000000000E+00  0.20634683451E+04  0.22148283612E+04  0.80471302840E+03 0.  0.
        5    1    3    3  502    0  0.14885380009E+03 -0.47933418225E+02  0.11466995945E+02  0.15687143901E+03  0.46999998093E+01 0.  1.
       -5    1    3    3    0  502 -0.14885380009E+03  0.47933418225E+02  0.20520013492E+04  0.20579569222E+04  0.46999998093E+01 0. -1.
</event>
<event>
 5   0  0.3671128E-03  0.7997785E+03  0.7818609E-02  0.9560338E-01
        1   -1    0    0  501    0  0.00000000000E+00  0.00000000000E+00  0.81766093105E+03  0.81766093107E+03  0.50400001928E-02 0.  1.
       -1   -1    0    0    0  501  0.00000000000E+00  0.00000000000E+00 -0.19557181331E+03  0.19557181338E+03  0.50400001928E-02 0. -1.
    10030    2    1    2    0    0  0.00000000000E+00  0.00000000000E+00  0.62208911774E+03  0.10132327444E+04  0.79977854685E+03 0.  0.
        2    1    3    3  502    0 -0.11101114275E+03  0.36663409661E+03  0.45641945604E+03  0.59587142445E+03  0.25500000920E-02 0.  1.
       -2    1    3    3    0  502  0.11101114275E+03 -0.36663409661E+03  0.16566966170E+03  0.41736131999E+03  0.25500000920E-02 0. -1.
</event>
<event>
 5   0  0.6536209E-03  0.7998826E+03  0.7818609E-02  0.9560187E-01
       -2   -1    0    0    0  501  0.00000000000E+00  0.00000000000E+00  0.14508590327E+03  0.14508590329E+03  0.25500000920E-02 0. -1.
        2   -1    0    0  501    0  0.00000000000E+00  0.00000000000E+00 -0.11024712487E+04  0.11024712487E+04  0.25500000920E-02 0.  1.
    10030    2    1    2    0    0  0.00000000000E+00  0.00000000000E+00 -0.95738534548E+03  0.12475571520E+04  0.79988258381E+03 0.  0.
        3    1    3    3  502    0  0.20545973285E+03  0.26102058730E+03 -0.13130994485E+03  0.35719428975E+03  0.10100000352E+00 0. -1.
       -3    1    3    3    0  502 -0.20545973285E+03 -0.26102058730E+03 -0.82607540063E+03  0.89036286229E+03  0.10100000352E+00 0.  1.
</event>
<event>
 5   0  0.6153659E-03  0.7974706E+03  0.7818609E-02  0.9563685E-01
       -2   -1    0    0    0  501  0.00000000000E+00  0.00000000000E+00  0.37623328121E+03  0.37623328121E+03  0.25500000920E-02 0.  1.
        2   -1    0    0  501    0  0.00000000000E+00  0.00000000000E+00 -0.42258317844E+03  0.42258317845E+03  0.25500000920E-02 0. -1.
    10030    2    1    2    0    0  0.00000000000E+00  0.00000000000E+00 -0.46349897236E+02  0.79881645966E+03  0.79747064100E+03 0.  0.
        2    1    3    3  502    0  0.30043056585E+03 -0.16059241797E+03  0.18439784611E+03  0.38736418944E+03  0.25500000920E-02 0.  1.
       -2    1    3    3    0  502 -0.30043056585E+03  0.16059241797E+03 -0.23074774334E+03  0.41145227022E+03  0.25500000920E-02 0. -1.
</event>
<event>
 5   0  0.2478000E-03  0.8013819E+03  0.7818609E-02  0.9558019E-01
       -4   -1    0    0    0  501  0.00000000000E+00  0.00000000000E+00  0.97148308116E+03  0.97148391128E+03  0.12699999809E+01 0.  1.
        4   -1    0    0  501    0  0.00000000000E+00  0.00000000000E+00 -0.16526276224E+03  0.16526764197E+03  0.12699999809E+01 0. -1.
    10030    2    1    2    0    0  0.00000000000E+00  0.00000000000E+00  0.80622031892E+03  0.11367515533E+04  0.80138186353E+03 0.  0.
        4    1    3    3  502    0 -0.83456620458E+02  0.16585019598E+03 -0.10056402190E+03  0.21115404426E+03  0.12699999809E+01 0. -1.
       -4    1    3    3    0  502  0.83456620458E+02 -0.16585019598E+03  0.90678434082E+03  0.92559750900E+03  0.12699999809E+01 0.  1.
</event>
<event>
 5   0  0.5813850E-03  0.7996010E+03  0.7818609E-02  0.9560595E-01
       -2   -1    0    0    0  501  0.00000000000E+00  0.00000000000E+00  0.21874621315E+03  0.21874621317E+03  0.25500000920E-02 0. -1.
        2   -1    0    0  501    0  0.00000000000E+00  0.00000000000E+00 -0.73071176449E+03  0.73071176449E+03  0.25500000920E-02 0.  1.
    10030    2    1    2    0    0  0.00000000000E+00  0.00000000000E+00 -0.51196555134E+03  0.94945797766E+03  0.79960097898E+03 0.  0.
        5    1    3    3  502    0 -0.16168649819E+03  0.81543046474E+02  0.16722114358E+03  0.24652949718E+03  0.46999998093E+01 0. -1.
       -5    1    3    3    0  502  0.16168649819E+03 -0.81543046474E+02 -0.67918669491E+03  0.70292848048E+03  0.46999998093E+01 0.  1.
</event>
<event>
 5   0  0.5813850E-03  0.7984954E+03  0.7818609E-02  0.9562197E-01
        2   -1    0    0  501    0  0.00000000000E+00  0.00000000000E+00  0.10645073623E+04  0.10645073623E+04  0.25500000920E-02 0.  1.
       -2   -1    0    0    0  501  0.00000000000E+00  0.00000000000E+00 -0.14973944165E+03  0.14973944167E+03  0.25500000920E-02 0. -1.
    10030    2    1    2    0    0  0.00000000000E+00  0.00000000000E+00  0.91476792066E+03  0.12142468040E+04  0.79849543036E+03 0.  0.
        5    1    3    3  502    0  0.23976857176E+03  0.20202444199E+03  0.81579420084E+02  0.32400638103E+03  0.46999998093E+01 0. -1.
       -5    1    3    3    0  502 -0.23976857176E+03 -0.20202444199E+03  0.83318850058E+03  0.89024042295E+03  0.46999998093E+01 0.  1.
</event>
<event>
 5   0  0.6536209E-03  0.8040960E+03  0.7818609E-02  0.9554107E-01
       -2   -1    0    0    0  501  0.00000000000E+00  0.00000000000E+00  0.82806463368E+02  0.82806463407E+02  0.25500000920E-02 0.  1.
        2   -1    0    0  501    0  0.00000000000E+00  0.00000000000E+00 -0.19520526578E+04  0.19520526578E+04  0.25500000920E-02 0. -1.
    10030    2    1    2    0    0  0.00000000000E+00  0.00000000000E+00 -0.18692461945E+04  0.20348591212E+04  0.80409595682E+03 0.  0.
        3    1    3    3  502    0  0.34310904518E+03  0.20836156493E+03 -0.99144704290E+03  0.10696287242E+04  0.10100000352E+00 0.  1.
       -3    1    3    3    0  502 -0.34310904518E+03 -0.20836156493E+03 -0.87779915157E+03  0.96523039701E+03  0.10100000352E+00 0. -1.
</event>
<event>
 5   0  0.6256781E-03  0.8038108E+03  0.7818609E-02  0.9554517E-01
        2   -1    0    0  501    0  0.00000000000E+00  0.00000000000E+00  0.51143060227E+03  0.51143060227E+03  0.25500000920E-02 0.  1.
       -2   -1    0    0    0  501  0.00000000000E+00  0.00000000000E+00 -0.31583555933E+03  0.31583555934E+03  0.25500000920E-02 0. -1.
    10030    2    1    2    0    0  0.00000000000E+00  0.00000000000E+00  0.19559504294E+03  0.82726616161E+03  0.80381084922E+03 0.  0.
        1    1    3    3  502    0 -0.10037475295E+03 -0.35950326421E+03  0.25117741641E+03  0.44989752450E+03  0.50400001928E-02 0.  1.
       -1    1    3    3    0  502  0.10037475295E+03  0.35950326421E+03 -0.55582373474E+02  0.37736863711E+03  0.50400001928E-02 0. -1.
</event>
<event>
 5   0  0.3753450E-03  0.8011486E+03  0.7818609E-02  0.9558356E-01
       -1   -1    0    0    0  501  0.00000000000E+00  0.00000000000E+00  0.14240943973E+03  0.14240943982E+03  0.50400001928E-02 0. -1.
        1   -1    0    0  501    0  0.00000000000E+00  0.00000000000E+00 -0.11267494883E+04  0.11267494883E+04  0.50400001928E-02 0.  1.
    10030    2    1    2    0    0  0.00000000000E+00  0.00000000000E+00 -0.98434004856E+03  0.12691589281E+04  0.80114858399E+03 0.  0.
        5    1    3    3  502    0  0.20078805934E+03 -0.31677837973E+03 -0.26940737599E+03  0.46180819706E+03  0.46999998093E+01 0. -1.
       -5    1    3    3    0  502 -0.20078805934E+03  0.31677837973E+03 -0.71493267257E+03  0.80735073106E+03  0.46999998093E+01 0.  1.
</event>
<event>
 5   0  0.3714448E-03  0.7990149E+03  0.7818609E-02  0.9561444E-01
        1   -1    0    0  501    0  0.00000000000E+00  0.00000000000E+00  0.43967600161E+03  0.43967600164E+03  0.50400001928E-02 0.  1.
       -1   -1    0    0    0  501  0.00000000000E+00  0.00000000000E+00 -0.36300867367E+03  0.36300867370E+03  0.50400001928E-02 0. -1.
    10030    2    1    2    0    0  0.00000000000E+00  0.00000000000E+00  0.76667327943E+02  0.80268467534E+03  0.79901489902E+03 0.  0.
        1    1    3    3  502    0  0.26806453099E+03  0.29389747781E+03  0.75542704012E+02  0.40489630819E+03  0.50400001928E-02 0.  1.
       -1    1    3    3    0  502 -0.26806453099E+03 -0.29389747781E+03  0.11246239312E+01  0.39778836715E+03  0.50400001928E-02 0. -1.
</event>
<event>
 5   0  0.2478000E-03  0.8013939E+03  0.7818609E-02  0.9558002E-01
        3   -1    0    0  501    0  0.00000000000E+00  0.00000000000E+00  0.83135295260E+03  0.83135295873E+03  0.10100000352E+00 0. -1.
       -3   -1    0    0    0  501  0.00000000000E+00  0.00000000000E+00 -0.19312859787E+03  0.19312862428E+03  0.10100000352E+00 0.  1.
    10030    2    1    2    0    0  0.00000000000E+00  0.00000000000E+00  0.63822435472E+03  0.10244815830E+04  0.80139390251E+03 0.  0.
        4    1    3    3  502    0  0.38467081946E+03 -0.20072572572E+02  0.46020840195E+03  0.60013992838E+03  0.12699999809E+01 0.  1.
       -4    1    3    3    0  502 -0.38467081946E+03  0.20072572572E+02  0.17801595277E+03  0.42434165463E+03  0.12699999809E+01 0. -1.
</event>
<event>
 5   0  0.6153659E-03  0.7994106E+03  0.7818609E-02  0.9560871E-01
       -2   -1    0    0    0  501  0.00000000000E+00  0.00000000000E+00  0.15966640398E+03  0.15966640400E+03  0.25500000920E-02 0. -1.
        2   -1    0    0  501    0  0.00000000000E+00  0.00000000000E+00 -0.10006133469E+04  0.10006133469E+04  0.25500000920E-02 0.  1.
    10030    2    1    2    0    0  0.00000000000E+00  0.00000000000E+00 -0.84094694296E+03  0.11602797509E+04  0.79941062013E+03 0.  0.
        2    1    3    3  502    0 -0.79834407265E+02  0.24635646105E+03  0.21433668315E+02  0.25985465289E+03  0.25500000920E-02 0. -1.
       -2    1    3    3    0  502  0.79834407265E+02 -0.24635646105E+03 -0.86238061128E+03  0.90042509805E+03  0.25500000920E-02 0.  1.
</event>
<event>
 5   0  0.3671128E-03  0.8016641E+03  0.7818609E-02  0.9557612E-01
       -1   -1    0    0    0  501  0.00000000000E+00  0.00000000000E+00  0.19174805486E+03  0.19174805493E+03  0.50400001928E-02 0. -1.
        1   -1    0    0  501    0  0.00000000000E+00  0.00000000000E+00 -0.83790330327E+03  0.83790330329E+03  0.50400001928E-02 0.  1.
    10030    2    1    2    0    0  0.00000000000E+00  0.00000000000E+00 -0.64615524841E+03  0.10296513582E+04  0.80166409077E+03 0.  0.
        2    1    3    3  502    0  0.11543743298E+03 -0.30847569457E+03 -0.61647986472E+03  0.69894955375E+03  0.25500000920E-02 0.  1.
       -2    1    3    3    0  502 -0.11543743298E+03  0.30847569457E+03 -0.29675383691E+02  0.33070180447E+03  0.25500000920E-02 0. -1.
</event>
<event>
 5   0  0.6256781E-03  0.7956787E+03  0.7818609E-02  0.9566293E-01
       -2   -1    0    0    0  501  0.00000000000E+00  0.00000000000E+00  0.92602705359E+03  0.92602705360E+03  0.25500000920E-02 0.  1.
        2   -1    0    0  501    0  0.00000000000E+00  0.00000000000E+00 -0.17091955974E+03  0.17091955976E+03  0.25500000920E-02 0. -1.
    10030    2    1    2    0    0  0.00000000000E+00  0.00000000000E+00  0.75510749385E+03  0.10969466134E+04  0.79567866961E+03 0.  0.
        1    1    3    3  502    0 -0.24653717777E+03  0.56458485966E+02  0.80092565043E+03  0.83991073228E+03  0.50400001928E-02 0.  1.
       -1    1    3    3    0  502  0.24653717777E+03 -0.56458485966E+02 -0.45818156577E+02  0.25703588107E+03  0.50400001928E-02 0. -1.
</event>
<event>
 5   0  0.5813850E-03  0.8007159E+03  0.7818609E-02  0.9558982E-01
        2   -1    0    0  501    0  0.00000000000E+00  0.00000000000E+00  0.15923842162E+04  0.15923842162E+04  0.25500000920E-02 0.  1.
       -2   -1    0    0    0  501  0.00000000000E+00  0.00000000000E+00 -0.10065816325E+03  0.10065816329E+03  0.25500000920E-02 0. -1.
    10030    2    1    2    0    0  0.00000000000E+00  0.00000000000E+00  0.14917260530E+04  0.16930423795E+04  0.80071585579E+03 0.  0.
        5    1    3    3  502    0  0.31593528840E+03 -0.24288391906E+03  0.66516352373E+03  0.77541750553E+03  0.46999998093E+01 0. -1.
       -5    1    3    3    0  502 -0.31593528840E+03  0.24288391906E+03  0.82656252925E+03  0.91762487398E+03  0.46999998093E+01 0.  1.
</event>
<event>
 5   0  0.2478000E-03  0.8083735E+03  0.7818609E-02  0.9547975E-01
        3   -1    0    0  501    0  0.00000000000E+00  0.00000000000E+00  0.25921647197E+03  0.25921649164E+03  0.10100000352E+00 0. -1.
       -3   -1    0    0    0  501  0.00000000000E+00  0.00000000000E+00 -0.63023353671E+03  0.63023354480E+03  0.10100000352E+00 0.  1.
    10030    2    1    2    0    0  0.00000000000E+00  0.00000000000E+00 -0.37101706474E+03  0.88945003645E+03  0.80837349351E+03 0.  0.
        4    1    3    3  502    0  0.91273091708E+02  0.27162332013E+03  0.12813429715E+03  0.31389491286E+03  0.12699999809E+01 0.  1.
       -4    1    3    3    0  502 -0.91273091708E+02 -0.27162332013E+03 -0.49915136190E+03  0.57555512359E+03  0.12699999809E+01 0. -1.
</event>
<event>
 5   0  0.3627496E-03  0.8001814E+03  0.7818609E-02  0.9559755E-01
        1   -1    0    0  501    0  0.00000000000E+00  0.00000000000E+00  0.18779351268E+04  0.18779351268E+04  0.50400001928E-02 0. -1.
       -1   -1    0    0    0  501  0.00000000000E+00  0.00000000000E+00 -0.85238596057E+02  0.85238596206E+02  0.50400001928E-02 0.  1.
    10030    2    1    2    0    0  0.00000000000E+00  0.00000000000E+00  0.17926965308E+04  0.19631737230E+04  0.80018136407E+03 0.  0.
        3    1    3    3  502    0  0.17780338784E+03 -0.29763572004E+03  0.40645500789E+03  0.53423473325E+03  0.10100000352E+00 0.  1.
       -3    1    3    3    0  502 -0.17780338784E+03  0.29763572004E+03  0.13862415229E+04  0.14289389898E+04  0.10100000352E+00 0. -1.
</event>
<event>
 5   0  0.3753450E-03  0.8028218E+03  0.7818609E-02  0.9555942E-01
        1   -1    0    0  501    0  0.00000000000E+00  0.00000000000E+00  0.19256160404E+03  0.19256160411E+03  0.50400001928E-02 0. -1.
       -1   -1    0    0    0  501  0.00000000000E+00  0.00000000000E+00 -0.83677476313E+03  0.83677476315E+03  0.50400001928E-02 0.  1.
    10030    2    1    2    0    0  0.00000000000E+00  0.00000000000E+00 -0.64421315909E+03  0.10293363673E+04  0.80282175021E+03 0.  0.
        5    1    3    3  502    0  0.17182948892E+03  0.52431259660E+02 -0.78231414450E+03  0.80269042659E+03  0.46999998093E+01 0.  1.
       -5    1    3    3    0  502 -0.17182948892E+03 -0.52431259660E+02  0.13810098540E+03  0.22664594067E+03  0.46999998093E+01 0. -1.
</event>
<event>
 5   0  0.6256781E-03  0.8000575E+03  0.7818609E-02  0.9559934E-01
       -2   -1    0    0    0  501  0.00000000000E+00  0.00000000000E+00  0.16214519606E+03  0.16214519608E+03  0.25500000920E-02 0. -1.
        2   -1    0    0  501    0  0.00000000000E+00  0.00000000000E+00 -0.98691165874E+03  0.98691165874E+03  0.25500000920E-02 0.  1.
    10030    2    1    2    0    0  0.00000000000E+00  0.00000000000E+00 -0.82476646268E+03  0.11490568548E+04  0.80005745896E+03 0.  0.
        1    1    3    3  502    0 -0.35375892932E+03  0.21093526052E+02 -0.14587803973E+03  0.38323715819E+03  0.50400001928E-02 0. -1.
       -1    1    3    3    0  502  0.35375892932E+03 -0.21093526052E+02 -0.67888842294E+03  0.76581969663E+03  0.50400001928E-02 0.  1.
</event>
<event>
 5   0  0.6337108E-03  0.8044939E+03  0.7818609E-02  0.9553535E-01
        2   -1    0    0  501    0  0.00000000000E+00  0.00000000000E+00  0.12641217908E+04  0.12641217908E+04  0.25500000920E-02 0.  1.
       -2   -1    0    0    0  501  0.00000000000E+00  0.00000000000E+00 -0.12799605041E+03  0.12799605043E+03  0.25500000920E-02 0. -1.
    10030    2    1    2    0    0  0.00000000000E+00  0.00000000000E+00  0.11361257404E+04  0.13921178412E+04  0.80449386940E+03 0.  0.
        4    1    3    3  502    0  0.89996477689E+01  0.27201572119E+02 -0.12622456997E+03  0.12944177899E+03  0.12699999809E+01 0. -1.
       -4    1    3    3    0  502 -0.89996477689E+01 -0.27201572119E+02  0.12623503104E+04  0.12626760622E+04  0.12699999809E+01 0.  1.
</event>
<event>
 5   0  0.2478000E-03  0.8009673E+03  0.7818609E-02  0.9558618E-01
        4   -1    0    0  501    0  0.00000000000E+00  0.00000000000E+00  0.17195723343E+03  0.17196192320E+03  0.12699999809E+01 0.  1.
       -4   -1    0    0    0  501  0.00000000000E+00  0.00000000000E+00 -0.93269747335E+03  0.93269833799E+03  0.12699999809E+01 0. -1.
    10030    2    1    2    0    0  0.00000000000E+00  0.00000000000E+00 -0.76074023992E+03  0.11046602612E+04  0.80096727774E+03 0.  0.
        2    1    3    3  502    0 -0.21790394625E+03 -0.30140688081E+03 -0.58520596407E+03  0.69339329242E+03  0.25500000920E-02 0. -1.
       -2    1    3    3    0  502  0.21790394625E+03  0.30140688081E+03 -0.17553427585E+03  0.41126696876E+03  0.25500000920E-02 0.  1.
</event>
<event>
 5   0  0.3671128E-03  0.7988339E+03  0.7818609E-02  0.9561707E-01
        1   -1    0    0  501    0  0.00000000000E+00  0.00000000000E+00  0.10138890953E+04  0.10138890954E+04  0.50400001928E-02 0. -1.
       -1   -1    0    0    0  501  0.00000000000E+00  0.00000000000E+00 -0.15734845986E+03  0.15734845994E+03  0.50400001928E-02 0.  1.
    10030    2    1    2    0    0  0.00000000000E+00  0.00000000000E+00  0.85654063549E+03  0.11712375553E+04  0.79883386928E+03 0.  0.
        2    1    3    3  502    0  0.26740504119E+03  0.28589245650E+03  0.54458904558E+03  0.67068411440E+03  0.25500000920E-02 0. -1.
       -2    1    3    3    0  502 -0.26740504119E+03 -0.28589245650E+03  0.31195158991E+03  0.50055344090E+03  0.25500000920E-02 0.  1.
</event>
<event>
 5   0  0.6536209E-03  0.8028811E+03  0.7818609E-02  0.9555856E-01
       -2   -1    0    0    0  501  0.00000000000E+00  0.00000000000E+00  0.15547895135E+03  0.15547895137E+03  0.25500000920E-02 0. -1.
        2   -1    0    0  501    0  0.00000000000E+00  0.00000000000E+00 -0.10365036188E+04  0.10365036188E+04  0.25500000920E-02 0.  1.
    10030    2    1    2    0    0  0.00000000000E+00  0.00000000000E+00 -0.88102466744E+03  0.11919825702E+04  0.80288105155E+03 0.  0.
        3    1    3    3  502    0 -0.36239891642E+03  0.17247730775E+03 -0.45320478066E+03  0.60537259578E+03  0.10100000352E+00 0.  1.
       -3    1    3    3    0  502  0.36239891642E+03 -0.17247730775E+03 -0.42781988678E+03  0.58660997438E+03  0.10100000352E+00 0. -1.
</event>
<event>
 5   0  0.3860515E-03  0.7995905E+03  0.7818609E-02  0.9560610E-01
        1   -1    0    0  501    0  0.00000000000E+00  0.00000000000E+00  0.18909572897E+03  0.18909572903E+03  0.50400001928E-02 0. -1.
       -1   -1    0    0    0  501  0.00000000000E+00  0.00000000000E+00 -0.84526626180E+03  0.84526626181E+03  0.50400001928E-02 0.  1.
    10030    2    1    2    0    0  0.00000000000E+00  0.00000000000E+00 -0.65617053283E+03  0.10343619908E+04  0.79959049516E+03 0.  0.
        4    1    3    3  502    0 -0.36086671340E+03  0.17158975290E+03 -0.34479238606E+03  0.52777952833E+03  0.12699999809E+01 0. -1.
       -4    1    3    3    0  502  0.36086671340E+03 -0.17158975290E+03 -0.31137814676E+03  0.50658246251E+03  0.12699999809E+01 0.  1.
</event>
<event>
 5   0  0.5813850E-03  0.7960525E+03  0.7818609E-02  0.9565749E-01
       -2   -1    0    0    0  501  0.00000000000E+00  0.00000000000E+00  0.23645360702E+03  0.23645360703E+03  0.25500000920E-02 0. -1.
        2   -1    0    0  501    0  0.00000000000E+00  0.00000000000E+00 -0.67000409088E+03  0.67000409089E+03  0.25500000920E-02 0.  1.
    10030    2    1    2    0    0  0.00000000000E+00  0.00000000000E+00 -0.43355048387E+03  0.90645769792E+03  0.79605247067E+03 0.  0.
        5    1    3    3  502    0 -0.67274245418E+02 -0.25905451032E+03  0.11864167774E+03  0.29280198276E+03  0.46999998093E+01 0. -1.
       -5    1    3    3    0  502  0.67274245418E+02  0.25905451032E+03 -0.55219216161E+03  0.61365571516E+03  0.46999998093E+01 0.  1.
</event>
<event>
 5   0  0.3671128E-03  0.7998200E+03  0.7818609E-02  0.9560278E-01
       -1   -1    0    0    0  501  0.00000000000E+00  0.00000000000E+00  0.32911900687E+03  0.32911900691E+03  0.50400001928E-02 0. -1.
        1   -1    0    0  501    0  0.00000000000E+00  0.00000000000E+00 -0.48592764120E+03  0.48592764122E+03  0.50400001928E-02 0.  1.
    10030    2    1    2    0    0  0.00000000000E+00  0.00000000000E+00 -0.15680863432E+03  0.81504664813E+03  0.79982003653E+03 0.  0.
        2    1    3    3  502    0  0.22494548827E+03  0.32893992990E+03 -0.44208470005E+02  0.40094430911E+03  0.25500000920E-02 0. -1.
       -2    1    3    3    0  502 -0.22494548827E+03 -0.32893992990E+03 -0.11260016432E+03  0.41410233903E+03  0.25500000920E-02 0.  1.
</event>
<event>
 5   0  0.6256781E-03  0.8000911E+03  0.7818609E-02  0.9559885E-01
        2   -1    0    0  501    0  0.00000000000E+00  0.00000000000E+00  0.13099217201E+04  0.13099217201E+04  0.25500000920E-02 0. -1.
       -2   -1    0    0    0  501  0.00000000000E+00  0.00000000000E+00 -0.12217251090E+03  0.12217251093E+03  0.25500000920E-02 0.  1.
    10030    2    1    2    0    0  0.00000000000E+00  0.00000000000E+00  0.11877492092E+04  0.14320942310E+04  0.80009105894E+03 0.  0.
        1    1    3    3  502    0  0.69749918721E+02 -0.32998251112E+03  0.97894713479E+03  0.10354182737E+04  0.50400001928E-02 0. -1.
       -1    1    3    3    0  502 -0.69749918721E+02  0.32998251112E+03  0.20880207438E+03  0.39667595730E+03  0.50400001928E-02 0.  1.
</event>
<event>
 5   0  0.6153659E-03  0.8053662E+03  0.7818609E-02  0.9552282E-01
        2   -1    0    0  501    0  0.00000000000E+00  0.00000000000E+00  0.11247586050E+04  0.11247586050E+04  0.25500000920E-02 0.  1.
       -2   -1    0    0    0  501  0.00000000000E+00  0.00000000000E+00 -0.14416755521E+03  0.14416755524E+03  0.25500000920E-02 0. -1.
    10030    2    1    2    0    0  0.00000000000E+00  0.00000000000E+00  0.98059104981E+03  0.12689261603E+04  0.80536624788E+03 0.  0.
        2    1    3    3  502    0 -0.62965210126E+02 -0.44719800613E+02  0.11129805969E+04  0.11156568860E+04  0.25500000920E-02 0.  1.
       -2    1    3    3    0  502  0.62965210126E+02  0.44719800613E+02 -0.13238954707E+03  0.15326927426E+03  0.25500000920E-02 0. -1.
</event>
<event>
 5   0  0.3753450E-03  0.7943364E+03  0.7818609E-02  0.9568251E-01
        1   -1    0    0  501    0  0.00000000000E+00  0.00000000000E+00  0.78024438972E+03  0.78024438974E+03  0.50400001928E-02 0.  1.
       -1   -1    0    0    0  501  0.00000000000E+00  0.00000000000E+00 -0.20217072354E+03  0.20217072361E+03  0.50400001928E-02 0. -1.
    10030    2    1    2    0    0  0.00000000000E+00  0.00000000000E+00  0.57807366618E+03  0.98241511334E+03  0.79433638429E+03 0.  0.
        5    1    3    3  502    0 -0.24421173716E+03 -0.61151611344E+02  0.66891311324E+03  0.71473473065E+03  0.46999998093E+01 0.  1.
       -5    1    3    3    0  502  0.24421173716E+03  0.61151611344E+02 -0.90839447065E+02  0.26768038269E+03  0.46999998093E+01 0. -1.
</event>
<event>
 5   0  0.3860515E-03  0.8049201E+03  0.7818609E-02  0.9552923E-01
       -1   -1    0    0    0  501  0.00000000000E+00  0.00000000000E+00  0.57714889722E+03  0.57714889724E+03  0.50400001928E-02 0. -1.
        1   -1    0    0  501    0  0.00000000000E+00  0.00000000000E+00 -0.28064525425E+03  0.28064525429E+03  0.50400001928E-02 0.  1.
    10030    2    1    2    0    0  0.00000000000E+00  0.00000000000E+00  0.29650364297E+03  0.85779415153E+03  0.80492011784E+03 0.  0.
        4    1    3    3  502    0  0.13611499631E+03 -0.17282191853E+03 -0.21089909873E+03  0.30475358979E+03  0.12699999809E+01 0.  1.
       -4    1    3    3    0  502 -0.13611499631E+03  0.17282191853E+03  0.50740274170E+03  0.55304056174E+03  0.12699999809E+01 0. -1.
</event>
<event>
 5   0  0.2478000E-03  0.8034323E+03  0.7818609E-02  0.9555062E-01
        3   -1    0    0  501    0  0.00000000000E+00  0.00000000000E+00  0.23737876228E+03  0.23737878376E+03  0.10100000352E+00 0. -1.
       -3   -1    0    0    0  501  0.00000000000E+00  0.00000000000E+00 -0.67982437770E+03  0.67982438521E+03  0.10100000352E+00 0.  1.
    10030    2    1    2    0    0  0.00000000000E+00  0.00000000000E+00 -0.44244561543E+03  0.91720316897E+03  0.80343234348E+03 0.  0.
        2    1    3    3  502    0 -0.27290865477E+03 -0.26101136613E+03 -0.64819390433E+02  0.38315482573E+03  0.25500000920E-02 0. -1.
       -2    1    3    3    0  502  0.27290865477E+03  0.26101136613E+03 -0.37762622500E+03  0.53404834324E+03  0.25500000920E-02 0.  1.
</event>
<event>
 5   0  0.6337108E-03  0.7989630E+03  0.7818609E-02  0.9561519E-01
       -2   -1    0    0    0  501  0.00000000000E+00  0.00000000000E+00  0.70714874463E+03  0.70714874464E+03  0.25500000920E-02 0.  1.
        2   -1    0    0  501    0  0.00000000000E+00  0.00000000000E+00 -0.22567452498E+03  0.22567452499E+03  0.25500000920E-02 0. -1.
    10030    2    1    2    0    0  0.00000000000E+00  0.00000000000E+00  0.48147421966E+03  0.93282326963E+03  0.79896297046E+03 0.  0.
        4    1    3    3  502    0 -0.20680359858E+03  0.42270101318E+02  0.63672058309E+03  0.67079743863E+03  0.12699999809E+01 0.  1.
       -4    1    3    3    0  502  0.20680359858E+03 -0.42270101318E+02 -0.15524636343E+03  0.26202583099E+03  0.12699999809E+01 0. -1.
</event>
<event>
 5   0  0.5813850E-03  0.8007370E+03  0.7818609E-02  0.9558951E-01
       -2   -1    0    0    0  501  0.00000000000E+00  0.00000000000E+00  0.27096640070E+03  0.27096640071E+03  0.25500000920E-02 0. -1.
        2   -1    0    0  501    0  0.00000000000E+00  0.00000000000E+00 -0.59156750214E+03  0.59156750214E+03  0.25500000920E-02 0.  1.
    10030    2    1    2    0    0  0.00000000000E+00  0.00000000000E+00 -0.32060110144E+03  0.86253390286E+03  0.80073695265E+03 0.  0.
        5    1    3    3  502    0 -0.18750846748E+02  0.28136410649E+03  0.14580576056E+03  0.31748821157E+03  0.46999998093E+01 0. -1.
       -5    1    3    3    0  502  0.18750846748E+02 -0.28136410649E+03 -0.46640686199E+03  0.54504569129E+03  0.46999998093E+01 0.  1.
</event>
<event>
 5   0  0.3860515E-03  0.7843376E+03  0.7818609E-02  0.9582969E-01
       -1   -1    0    0    0  501  0.00000000000E+00  0.00000000000E+00  0.71205923197E+02  0.71205923375E+02  0.50400001928E-02 0.  1.
        1   -1    0    0  501    0  0.00000000000E+00  0.00000000000E+00 -0.21598814752E+04  0.21598814752E+04  0.50400001928E-02 0. -1.
    10030    2    1    2    0    0  0.00000000000E+00  0.00000000000E+00 -0.20886755520E+04  0.22310873986E+04  0.78433756672E+03 0.  0.
        4    1    3    3  502    0 -0.66814847670E+02  0.20101106078E+03 -0.19831473140E+04  0.19944283773E+04  0.12699999809E+01 0. -1.
       -4    1    3    3    0  502  0.66814847670E+02 -0.20101106078E+03 -0.10552823803E+03  0.23665902126E+03  0.12699999809E+01 0.  1.
</event>
<event>
 5   0  0.6337108E-03  0.7992282E+03  0.7818609E-02  0.9561135E-01
        2   -1    0    0  501    0  0.00000000000E+00  0.00000000000E+00  0.17083167536E+04  0.17083167536E+04  0.25500000920E-02 0. -1.
       -2   -1    0    0    0  501  0.00000000000E+00  0.00000000000E+00 -0.93478819127E+02  0.93478819162E+02  0.25500000920E-02 0.  1.
    10030    2    1    2    0    0  0.00000000000E+00  0.00000000000E+00  0.16148379345E+04  0.18017955728E+04  0.79922820986E+03 0.  0.
        4    1    3    3  502    0  0.10380681612E+03  0.27620512014E+03  0.19987617034E+03  0.35639475281E+03  0.12699999809E+01 0.  1.
       -4    1    3    3    0  502 -0.10380681612E+03 -0.27620512014E+03  0.14149617642E+04  0.14454008200E+04  0.12699999809E+01 0. -1.
</event>
<event>
 5   0  0.3753450E-03  0.8017130E+03  0.7818609E-02  0.9557541E-01
        1   -1    0    0  501    0  0.00000000000E+00  0.00000000000E+00  0.11836910390E+04  0.11836910390E+04  0.50400001928E-02 0. -1.
       -1   -1    0    0    0  501  0.00000000000E+00  0.00000000000E+00 -0.13574991124E+03  0.13574991134E+03  0.50400001928E-02 0.  1.
    10030    2    1    2    0    0  0.00000000000E+00  0.00000000000E+00  0.10479411277E+04  0.13194409503E+04  0.80171304979E+03 0.  0.
        5    1    3    3  502    0  0.36229315818E+03 -0.68842803047E+02  0.78245817470E+03  0.86501939236E+03  0.46999998093E+01 0. -1.
       -5    1    3    3    0  502 -0.36229315818E+03  0.68842803047E+02  0.26548295303E+03  0.45442155797E+03  0.46999998093E+01 0.  1.
</event>
<event>
 5   0  0.3627496E-03  0.7967486E+03  0.7818609E-02  0.9564735E-01
        1   -1    0    0  501    0  0.00000000000E+00  0.00000000000E+00  0.29658577656E+03  0.29658577660E+03  0.50400001928E-02 0.  1.
       -1   -1    0    0    0  501  0.00000000000E+00  0.00000000000E+00 -0.53509678685E+03  0.53509678687E+03  0.50400001928E-02 0. -1.
    10030    2    1    2    0    0  0.00000000000E+00  0.00000000000E+00 -0.23851101029E+03  0.83168256347E+03  0.79674863311E+03 0.  0.
        3    1    3    3  502    0  0.25598209560E+03  0.16553769601E+03  0.14845075241E+03  0.33906813203E+03  0.10100000352E+00 0.  1.
       -3    1    3    3    0  502 -0.25598209560E+03 -0.16553769601E+03 -0.38696176270E+03  0.49261443144E+03  0.10100000352E+00 0. -1.
</event>
<event>
 5   0  0.3671128E-03  0.8004885E+03  0.7818609E-02  0.9559310E-01
       -1   -1    0    0    0  501  0.00000000000E+00  0.00000000000E+00  0.17291531746E+03  0.17291531754E+03  0.50400001928E-02 0. -1.
        1   -1    0    0  501    0  0.00000000000E+00  0.00000000000E+00 -0.92643877832E+03  0.92643877834E+03  0.50400001928E-02 0.  1.
    10030    2    1    2    0    0  0.00000000000E+00  0.00000000000E+00 -0.75352346086E+03  0.10993540959E+04  0.80048848964E+03 0.  0.
        2    1    3    3  502    0  0.74952269218E+02  0.30395710689E+03 -0.71924134009E+03  0.78442072308E+03  0.25500000920E-02 0.  1.
       -2    1    3    3    0  502 -0.74952269218E+02 -0.30395710689E+03 -0.34282120767E+02  0.31493337280E+03  0.25500000920E-02 0. -1.
</event>
<event>
 5   0  0.3671128E-03  0.8002746E+03  0.7818609E-02  0.9559620E-01
       -1   -1    0    0    0  501  0.00000000000E+00  0.00000000000E+00  0.43846938466E+03  0.43846938468E+03  0.50400001928E-02 0.  1.
        1   -1    0    0  501    0  0.00000000000E+00  0.00000000000E+00 -0.36515628371E+03  0.36515628374E+03  0.50400001928E-02 0. -1.
    10030    2    1    2    0    0  0.00000000000E+00  0.00000000000E+00  0.73313100950E+02  0.80362566842E+03  0.80027458049E+03 0.  0.
        2    1    3    3  502    0  0.12691903689E+03 -0.25624003814E+03  0.31772581522E+03  0.42745419958E+03  0.25500000920E-02 0.  1.
       -2    1    3    3    0  502 -0.12691903689E+03  0.25624003814E+03 -0.24441271427E+03  0.37617146885E+03  0.25500000920E-02 0. -1.
</event>
<event>
 5   0  0.3714448E-03  0.7975228E+03  0.7818609E-02  0.9563610E-01
        1   -1    0    0  501    0  0.00000000000E+00  0.00000000000E+00  0.10547440752E+04  0.10547440752E+04  0.50400001928E-02 0. -1.
       -1   -1    0    0    0  501  0.00000000000E+00  0.00000000000E+00 -0.15075758719E+03  0.15075758727E+03  0.50400001928E-02 0.  1.
    10030    2    1    2    0    0  0.00000000000E+00  0.00000000000E+00  0.90398648797E+03  0.12055016624E+04  0.79752284463E+03 0.  0.
        1    1    3    3  502    0  0.31029306656E+03  0.23063032978E+03  0.30436633141E+03  0.49204776180E+03  0.50400001928E-02 0. -1.
       -1    1    3    3    0  502 -0.31029306656E+03 -0.23063032978E+03  0.59962015656E+03  0.71345390064E+03  0.50400001928E-02 0.  1.
</event>
<event>
 5   0  0.3753450E-03  0.7998502E+03  0.7818609E-02  0.9560234E-01
       -1   -1    0    0    0  501  0.00000000000E+00  0.00000000000E+00  0.11687136879E+04  0.11687136879E+04  0.50400001928E-02 0.  1.
        1   -1    0    0  501    0  0.00000000000E+00  0.00000000000E+00 -0.13685137412E+03  0.13685137422E+03  0.50400001928E-02 0. -1.
    10030    2    1    2    0    0  0.00000000000E+00  0.00000000000E+00  0.10318623138E+04  0.13055650621E+04  0.79985017151E+03 0.  0.
        5    1    3    3  502    0 -0.30200724170E+03  0.24068747850E+03  0.68539696706E+03  0.78672099807E+03  0.46999998093E+01 0. -1.
       -5    1    3    3    0  502  0.30200724170E+03 -0.24068747850E+03  0.34646534673E+03  0.51884406407E+03  0.46999998093E+01 0.  1.
</event>
<event>
 5   0  0.3671128E-03  0.7998406E+03  0.7818609E-02  0.9560248E-01
        1   -1    0    0  501    0  0.00000000000E+00  0.00000000000E+00  0.77254415765E+03  0.77254415766E+03  0.50400001928E-02 0. -1.
       -1   -1    0    0    0  501  0.00000000000E+00  0.00000000000E+00 -0.20702537830E+03  0.20702537836E+03  0.50400001928E-02 0.  1.
    10030    2    1    2    0    0  0.00000000000E+00  0.00000000000E+00  0.56551877935E+03  0.97956953602E+03  0.79984060044E+03 0.  0.
        2    1    3    3  502    0 -0.32576510364E+03  0.18550095604E+03  0.11216554905E+03  0.39129863000E+03  0.25500000920E-02 0.  1.
       -2    1    3    3    0  502  0.32576510364E+03 -0.18550095604E+03  0.45335323030E+03  0.58827090602E+03  0.25500000920E-02 0. -1.
</event>
<event>
 5   0  0.6337108E-03  0.8027320E+03  0.7818609E-02  0.9556071E-01
       -2   -1    0    0    0  501  0.00000000000E+00  0.00000000000E+00  0.17992617181E+03  0.17992617183E+03  0.25500000920E-02 0. -1.
        2   -1    0    0  501    0  0.00000000000E+00  0.00000000000E+00 -0.89533752938E+03  0.89533752938E+03  0.25500000920E-02 0.  1.
    10030    2    1    2    0    0  0.00000000000E+00  0.00000000000E+00 -0.71541135757E+03  0.10752637012E+04  0.80273197060E+03 0.  0.
        4    1    3    3  502    0 -0.25391032755E+03 -0.17667943268E+03 -0.15130081609E+02  0.30970406623E+03  0.12699999809E+01 0. -1.
       -4    1    3    3    0  502  0.25391032755E+03  0.17667943268E+03 -0.70028127596E+03  0.76555963499E+03  0.12699999809E+01 0.  1.
</event>
<event>
 5   0  0.6337108E-03  0.8002651E+03  0.7818609E-02  0.9559633E-01
        2   -1    0    0  501    0  0.00000000000E+00  0.00000000000E+00  0.15174807926E+03  0.15174807928E+03  0.25500000920E-02 0. -1.
       -2   -1    0    0    0  501  0.00000000000E+00  0.00000000000E+00 -0.10550780751E+04  0.10550780751E+04  0.25500000920E-02 0.  1.
    10030    2    1    2    0    0  0.00000000000E+00  0.00000000000E+00 -0.90332999581E+03  0.12068261544E+04  0.80026513451E+03 0.  0.
        4    1    3    3  502    0 -0.18594500355E+03  0.82628129752E+02 -0.97122885532E+03  0.99231550148E+03  0.12699999809E+01 0.  1.
       -4    1    3    3    0  502  0.18594500355E+03 -0.82628129752E+02  0.67898859516E+02  0.21451065287E+03  0.12699999809E+01 0. -1.
</event>
<event>
 5   0  0.6256781E-03  0.8000429E+03  0.7818609E-02  0.9559955E-01
       -2   -1    0    0    0  501  0.00000000000E+00  0.00000000000E+00  0.95399485671E+02  0.95399485705E+02  0.25500000920E-02 0. -1.
        2   -1    0    0  501    0  0.00000000000E+00  0.00000000000E+00 -0.16773378682E+04  0.16773378682E+04  0.25500000920E-02 0.  1.
    10030    2    1    2    0    0  0.00000000000E+00  0.00000000000E+00 -0.15819383825E+04  0.17727373539E+04  0.80004292374E+03 0.  0.
        1    1    3    3  502    0 -0.15570404572E+03 -0.31473460746E+03 -0.36639253861E+03  0.50748902979E+03  0.50400001928E-02 0. -1.
       -1    1    3    3    0  502  0.15570404572E+03  0.31473460746E+03 -0.12155458439E+04  0.12652483241E+04  0.50400001928E-02 0.  1.
</event>
<event>
 5   0  0.3860515E-03  0.7985720E+03  0.7818609E-02  0.9562086E-01
       -1   -1    0    0    0  501  0.00000000000E+00  0.00000000000E+00  0.96641907926E+02  0.96641908057E+02  0.50400001928E-02 0.  1.
        1   -1    0    0  501    0  0.00000000000E+00  0.00000000000E+00 -0.16496910522E+04  0.16496910522E+04  0.50400001928E-02 0. -1.
    10030    2    1    2    0    0  0.00000000000E+00  0.00000000000E+00 -0.15530491442E+04  0.17463329602E+04  0.79857195265E+03 0.  0.
        4    1    3    3  502    0  0.51497000323E+02  0.70287264102E+02 -0.16286422409E+04  0.16309719196E+04  0.12699999809E+01 0. -1.
       -4    1    3    3    0  502 -0.51497000323E+02 -0.70287264102E+02  0.75593096694E+02  0.11536104067E+03  0.12699999809E+01 0.  1.
</event>
<event>
 5   0  0.3860515E-03  0.8042384E+03  0.7818609E-02  0.9553902E-01
        1   -1    0    0  501    0  0.00000000000E+00  0.00000000000E+00  0.83964930527E+03  0.83964930529E+03  0.50400001928E-02 0. -1.
       -1   -1    0    0    0  501  0.00000000000E+00  0.00000000000E+00 -0.19258024445E+03  0.19258024452E+03  0.50400001928E-02 0.  1.
    10030    2    1    2    0    0  0.00000000000E+00  0.00000000000E+00  0.64706906082E+03  0.10322295498E+04  0.80423844351E+03 0.  0.
        4    1    3    3  502    0 -0.26886507042E+03 -0.21401730356E+03  0.55514845929E+02  0.34810248970E+03  0.12699999809E+01 0.  1.
       -4    1    3    3    0  502  0.26886507042E+03  0.21401730356E+03  0.59155421489E+03  0.68412706011E+03  0.12699999809E+01 0. -1.
</event>
<event>
 5   0  0.5813850E-03  0.7995868E+03  0.7818609E-02  0.9560615E-01
       -2   -1    0    0    0  501  0.00000000000E+00  0.00000000000E+00  0.37821882752E+03  0.37821882753E+03  0.25500000920E-02 0.  1.
        2   -1    0    0  501    0  0.00000000000E+00  0.00000000000E+00 -0.42259865442E+03  0.42259865442E+03  0.25500000920E-02 0. -1.
    10030    2    1    2    0    0  0.00000000000E+00  0.00000000000E+00 -0.44379826900E+02  0.80081748195E+03  0.79958681227E+03 0.  0.
        5    1    3    3  502    0 -0.14062418566E+03  0.12739389999E+03  0.33021570258E+03  0.38087907212E+03  0.46999998093E+01 0.  1.
       -5    1    3    3    0  502  0.14062418566E+03 -0.12739389999E+03 -0.37459552948E+03  0.41993840983E+03  0.46999998093E+01 0. -1.
</event>
<event>
 5   0  0.3753450E-03  0.7988836E+03  0.7818609E-02  0.9561634E-01
       -1   -1    0    0    0  501  0.00000000000E+00  0.00000000000E+00  0.14418484968E+03  0.14418484977E+03  0.50400001928E-02 0. -1.
        1   -1    0    0  501    0  0.00000000000E+00  0.00000000000E+00 -0.11065917290E+04  0.11065917291E+04  0.50400001928E-02 0.  1.
    10030    2    1    2    0    0  0.00000000000E+00  0.00000000000E+00 -0.96240687936E+03  0.12507765788E+04  0.79888362650E+03 0.  0.
        5    1    3    3  502    0  0.28225871802E+03  0.28023947864E+03 -0.42415848633E+03  0.58149519414E+03  0.46999998093E+01 0. -1.
       -5    1    3    3    0  502 -0.28225871802E+03 -0.28023947864E+03 -0.53824839303E+03  0.66928138468E+03  0.46999998093E+01 0.  1.
</event>
<event>
 5   0  0.3753450E-03  0.8001441E+03  0.7818609E-02  0.9559808E-01
        1   -1    0    0  501    0  0.00000000000E+00  0.00000000000E+00  0.74080625595E+03  0.74080625597E+03  0.50400001928E-02 0.  1.
       -1   -1    0    0    0  501  0.00000000000E+00  0.00000000000E+00 -0.21605873498E+03  0.21605873504E+03  0.50400001928E-02 0. -1.
    10030    2    1    2    0    0  0.00000000000E+00  0.00000000000E+00  0.52474752097E+03  0.95686499101E+03  0.80014414342E+03 0.  0.
        5    1    3    3  502    0  0.15756406992E+03  0.33644755784E+03  0.43979840150E+03  0.57573268039E+03  0.46999998093E+01 0. -1.
       -5    1    3    3    0  502 -0.15756406992E+03 -0.33644755784E+03  0.84949119465E+02  0.38113231062E+03  0.46999998093E+01 0.  1.
</event>
<event>
 5   0  0.6153659E-03  0.8010080E+03  0.7818609E-02  0.9558559E-01
        2   -1    0    0  501    0  0.00000000000E+00  0.00000000000E+00  0.21308393163E+04  0.21308393163E+04  0.25500000920E-02 0. -1.
       -2   -1    0    0    0  501  0.00000000000E+00  0.00000000000E+00 -0.75277119304E+02  0.75277119347E+02  0.25500000920E-02 0.  1.
    10030    2    1    2    0    0  0.00000000000E+00  0.00000000000E+00  0.20555621970E+04  0.22061164356E+04  0.80100797868E+03 0.  0.
        2    1    3    3  502    0  0.24255666178E+03  0.31829759877E+03  0.98368418661E+03  0.10619706562E+04  0.25500000920E-02 0.  1.
       -2    1    3    3    0  502 -0.24255666178E+03 -0.31829759877E+03  0.10718780104E+04  0.11441457795E+04  0.25500000920E-02 0. -1.
</event>
<event>
 5   0  0.3627496E-03  0.8012211E+03  0.7818609E-02  0.9558251E-01
       -1   -1    0    0    0  501  0.00000000000E+00  0.00000000000E+00  0.17953398788E+03  0.17953398796E+03  0.50400001928E-02 0. -1.
        1   -1    0    0  501    0  0.00000000000E+00  0.00000000000E+00 -0.89391872716E+03  0.89391872717E+03  0.50400001928E-02 0.  1.
    10030    2    1    2    0    0  0.00000000000E+00  0.00000000000E+00 -0.71438473927E+03  0.10734527151E+04  0.80122105308E+03 0.  0.
        3    1    3    3  502    0  0.33908110148E+03  0.73246031582E+02 -0.88743553862E+02  0.35807318117E+03  0.10100000352E+00 0. -1.
       -3    1    3    3    0  502 -0.33908110148E+03 -0.73246031582E+02 -0.62564118541E+03  0.71537953395E+03  0.10100000352E+00 0.  1.
</event>
<event>
 5   0  0.6536209E-03  0.7965533E+03  0.7818609E-02  0.9565020E-01
        2   -1    0    0  501    0  0.00000000000E+00  0.00000000000E+00  0.19918358990E+04  0.19918358990E+04  0.25500000920E-02 0.  1.
       -2   -1    0    0    0  501  0.00000000000E+00  0.00000000000E+00 -0.79637221893E+02  0.79637221933E+02  0.25500000920E-02 0. -1.
    10030    2    1    2    0    0  0.00000000000E+00  0.00000000000E+00  0.19121986771E+04  0.20714731210E+04  0.79655326880E+03 0.  0.
        3    1    3    3  502    0  0.62229440689E+01 -0.19211772013E+03  0.18632251369E+04  0.18731139486E+04  0.10100000352E+00 0.  1.
       -3    1    3    3    0  502 -0.62229440689E+01  0.19211772013E+03  0.48973540236E+02  0.19835917237E+03  0.10100000352E+00 0. -1.
</event>
<event>
 5   0  0.2478000E-03  0.8229061E+03  0.7818609E-02  0.9527441E-01
        3   -1    0    0  501    0  0.00000000000E+00  0.00000000000E+00  0.26271972601E+03  0.26271974542E+03  0.10100000352E+00 0.  1.
       -3   -1    0    0    0  501  0.00000000000E+00  0.00000000000E+00 -0.64438861223E+03  0.64438862014E+03  0.10100000352E+00 0. -1.
    10030    2    1    2    0    0  0.00000000000E+00  0.00000000000E+00 -0.38166888622E+03  0.90710836556E+03  0.82290609924E+03 0.  0.
        2    1    3    3  502    0  0.78702699500E+02 -0.18068746641E+03  0.20730342847E+03  0.28603633841E+03  0.25500000920E-02 0.  1.
       -2    1    3    3    0  502 -0.78702699500E+02  0.18068746641E+03 -0.58897231469E+03  0.62107202715E+03  0.25500000920E-02 0. -1.
</event>
<event>
 5   0  0.6337108E-03  0.8028238E+03  0.7818609E-02  0.9555939E-01
       -2   -1    0    0    0  501  0.00000000000E+00  0.00000000000E+00  0.86029536695E+02  0.86029536733E+02  0.25500000920E-02 0. -1.
        2   -1    0    0  501    0  0.00000000000E+00  0.00000000000E+00 -0.18729790053E+04  0.18729790053E+04  0.25500000920E-02 0.  1.
    10030    2    1    2    0    0  0.00000000000E+00  0.00000000000E+00 -0.17869494686E+04  0.19590085420E+04  0.80282380658E+03 0.  0.
        4    1    3    3  502    0 -0.76196388097E+02  0.17163351727E+03 -0.17591803113E+04  0.17691752130E+04  0.12699999809E+01 0.  1.
       -4    1    3    3    0  502  0.76196388097E+02 -0.17163351727E+03 -0.27769157311E+02  0.18983332902E+03  0.12699999809E+01 0. -1.
</event>
<event>
 5   0  0.6337108E-03  0.7974703E+03  0.7818609E-02  0.9563686E-01
       -2   -1    0    0    0  501  0.00000000000E+00  0.00000000000E+00  0.14801946506E+03  0.14801946508E+03  0.25500000920E-02 0.  1.
        2   -1    0    0  501    0  0.00000000000E+00  0.00000000000E+00 -0.10741136671E+04  0.10741136671E+04  0.25500000920E-02 0. -1.
    10030    2    1    2    0    0  0.00000000000E+00  0.00000000000E+00 -0.92609420204E+03  0.12221331322E+04  0.79747032656E+03 0.  0.
        4    1    3    3  502    0  0.81237028081E+02 -0.34728090492E+03 -0.18982702605E+03  0.40402895240E+03  0.12699999809E+01 0.  1.
       -4    1    3    3    0  502 -0.81237028081E+02  0.34728090492E+03 -0.73626717599E+03  0.81810417979E+03  0.12699999809E+01 0. -1.
</event>
<event>
 5   0  0.3671128E-03  0.8019312E+03  0.7818609E-02  0.9557226E-01
        1   -1    0    0  501    0  0.00000000000E+00  0.00000000000E+00  0.53716607830E+03  0.53716607832E+03  0.50400001928E-02 0. -1.
       -1   -1    0    0    0  501  0.00000000000E+00  0.00000000000E+00 -0.29929929605E+03  0.29929929609E+03  0.50400001928E-02 0.  1.
    10030    2    1    2    0    0  0.00000000000E+00  0.00000000000E+00  0.23786678225E+03  0.83646537441E+03  0.80193124175E+03 0.  0.
        2    1    3    3  502    0 -0.30924413714E+03  0.16572090843E+03 -0.83534042527E+02  0.36065675110E+03  0.25500000920E-02 0.  1.
       -2    1    3    3    0  502  0.30924413714E+03 -0.16572090843E+03  0.32140082478E+03  0.47580862331E+03  0.25500000920E-02 0. -1.
</event>
<event>
 5   0  0.6256781E-03  0.8008673E+03  0.7818609E-02  0.9558763E-01
       -2   -1    0    0    0  501  0.00000000000E+00  0.00000000000E+00  0.57038550111E+02  0.57038550168E+02  0.25500000920E-02 0.  1.
        2   -1    0    0  501    0  0.00000000000E+00  0.00000000000E+00 -0.28112059409E+04  0.28112059409E+04  0.25500000920E-02 0. -1.
    10030    2    1    2    0    0  0.00000000000E+00  0.00000000000E+00 -0.27541673907E+04  0.28682444910E+04  0.80086730740E+03 0.  0.
        1    1    3    3  502    0  0.13121246725E+03  0.95061692291E+02 -0.26885578847E+04  0.26934358980E+04  0.50400001928E-02 0. -1.
       -1    1    3    3    0  502 -0.13121246725E+03 -0.95061692291E+02 -0.65609506022E+02  0.17480859306E+03  0.50400001928E-02 0.  1.
</event>
<event>
 5   0  0.3714448E-03  0.8018907E+03  0.7818609E-02  0.9557284E-01
       -1   -1    0    0    0  501  0.00000000000E+00  0.00000000000E+00  0.54939933146E+02  0.54939933377E+02  0.50400001928E-02 0.  1.
        1   -1    0    0  501    0  0.00000000000E+00  0.00000000000E+00 -0.29260535754E+04  0.29260535754E+04  0.50400001928E-02 0. -1.
    10030    2    1    2    0    0  0.00000000000E+00  0.00000000000E+00 -0.28711136423E+04  0.29809935088E+04  0.80189073611E+03 0.  0.
        1    1    3    3  502    0  0.24121629214E+02  0.50613186581E+02  0.40294927510E+02  0.69045121915E+02  0.50400001928E-02 0.  1.
       -1    1    3    3    0  502 -0.24121629214E+02 -0.50613186581E+02 -0.29114085698E+04  0.29119483869E+04  0.50400001928E-02 0. -1.
</event>
<event>
 5   0  0.3753450E-03  0.8019476E+03  0.7818609E-02  0.9557202E-01
       -1   -1    0    0    0  501  0.00000000000E+00  0.00000000000E+00  0.81476361768E+03  0.81476361769E+03  0.50400001928E-02 0. -1.
        1   -1    0    0  501    0  0.00000000000E+00  0.00000000000E+00 -0.19733328897E+03  0.19733328904E+03  0.50400001928E-02 0.  1.
    10030    2    1    2    0    0  0.00000000000E+00  0.00000000000E+00  0.61743032870E+03  0.10120969067E+04  0.80194759044E+03 0.  0.
        5    1    3    3  502    0 -0.14793447706E+03 -0.35900874582E+03  0.18259863563E+03  0.42911098891E+03  0.46999998093E+01 0. -1.
       -5    1    3    3    0  502  0.14793447706E+03  0.35900874582E+03  0.43483169307E+03  0.58298591782E+03  0.46999998093E+01 0.  1.
</event>
<event>
 5   0  0.6256781E-03  0.8075423E+03  0.7818609E-02  0.9549164E-01
        2   -1    0    0  501    0  0.00000000000E+00  0.00000000000E+00  0.71391519370E+03  0.71391519371E+03  0.25500000920E-02 0. -1.
       -2   -1    0    0    0  501  0.00000000000E+00  0.00000000000E+00 -0.22836206733E+03  0.22836206734E+03  0.25500000920E-02 0.  1.
    10030    2    1    2    0    0  0.00000000000E+00  0.00000000000E+00  0.48555312637E+03  0.94227726105E+03  0.80754231973E+03 0.  0.
        1    1    3    3  502    0  0.10547208305E+02 -0.16402301809E+03  0.67311385923E+03  0.69289036765E+03  0.50400001928E-02 0. -1.
       -1    1    3    3    0  502 -0.10547208305E+02  0.16402301809E+03 -0.18756073285E+03  0.24938689340E+03  0.50400001928E-02 0.  1.
</event>
<event>
 5   0  0.3753450E-03  0.8006698E+03  0.7818609E-02  0.9559048E-01
       -1   -1    0    0    0  501  0.00000000000E+00  0.00000000000E+00  0.34228714025E+03  0.34228714029E+03  0.50400001928E-02 0.  1.
        1   -1    0    0  501    0  0.00000000000E+00  0.00000000000E+00 -0.46822680009E+03  0.46822680011E+03  0.50400001928E-02 0. -1.
    10030    2    1    2    0    0  0.00000000000E+00  0.00000000000E+00 -0.12593965984E+03  0.81051394040E+03  0.80066975069E+03 0.  0.
        5    1    3    3  502    0  0.24823292024E+03 -0.14453868833E+03 -0.34520758574E+03  0.44911177046E+03  0.46999998093E+01 0. -1.
       -5    1    3    3    0  502 -0.24823292024E+03  0.14453868833E+03  0.21926792590E+03  0.36140216994E+03  0.46999998093E+01 0.  1.
</event>
<event>
 5   0  0.3627496E-03  0.8025370E+03  0.7818609E-02  0.9556352E-01
       -1   -1    0    0    0  501  0.00000000000E+00  0.00000000000E+00  0.15303022470E+03  0.15303022479E+03  0.50400001928E-02 0. -1.
        1   -1    0    0  501    0  0.00000000000E+00  0.00000000000E+00 -0.10521869265E+04  0.10521869265E+04  0.50400001928E-02 0.  1.
    10030    2    1    2    0    0  0.00000000000E+00  0.00000000000E+00 -0.89915670183E+03  0.12052171513E+04  0.80253698196E+03 0.  0.
        3    1    3    3  502    0 -0.33850137923E+03 -0.29769442433E+02 -0.77007986192E+03  0.84171991029E+03  0.10100000352E+00 0.  1.
       -3    1    3    3    0  502  0.33850137923E+03  0.29769442433E+02 -0.12907683991E+03  0.36349724105E+03  0.10100000352E+00 0. -1.
</event>
<event>
 5   0  0.3860515E-03  0.8045085E+03  0.7818609E-02  0.9553514E-01
        1   -1    0    0  501    0  0.00000000000E+00  0.00000000000E+00  0.12467769776E+03  0.12467769786E+03  0.50400001928E-02 0.  1.
       -1   -1    0    0    0  501  0.00000000000E+00  0.00000000000E+00 -0.12978141185E+04  0.12978141185E+04  0.50400001928E-02 0. -1.
    10030    2    1    2    0    0  0.00000000000E+00  0.00000000000E+00 -0.11731364207E+04  0.14224918163E+04  0.80450848719E+03 0.  0.
        4    1    3    3  502    0 -0.31394090571E+03 -0.16836093143E+03 -0.25623834682E+03  0.43882114670E+03  0.12699999809E+01 0.  1.
       -4    1    3    3    0  502  0.31394090571E+03  0.16836093143E+03 -0.91689807387E+03  0.98367066962E+03  0.12699999809E+01 0. -1.
</event>
<event>
 5   0  0.5813850E-03  0.8037302E+03  0.7818609E-02  0.9554633E-01
        2   -1    0    0  501    0  0.00000000000E+00  0.00000000000E+00  0.78309840318E+03  0.78309840319E+03  0.25500000920E-02 0. -1.
       -2   -1    0    0    0  501  0.00000000000E+00  0.00000000000E+00 -0.20622639723E+03  0.20622639725E+03  0.25500000920E-02 0.  1.
    10030    2    1    2    0    0  0.00000000000E+00  0.00000000000E+00  0.57687200595E+03  0.98932480044E+03  0.80373020941E+03 0.  0.
        5    1    3    3  502    0  0.17297225852E+03  0.28983540118E+03  0.20024188094E+02  0.33815236226E+03  0.46999998093E+01 0. -1.
       -5    1    3    3    0  502 -0.17297225852E+03 -0.28983540118E+03  0.55684781786E+03  0.65117243818E+03  0.46999998093E+01 0.  1.
</event>
<event>
 5   0  0.6256781E-03  0.8009207E+03  0.7818609E-02  0.9558685E-01
       -2   -1    0    0    0  501  0.00000000000E+00  0.00000000000E+00  0.25275673138E+03  0.25275673140E+03  0.25500000920E-02 0. -1.
        2   -1    0    0  501    0  0.00000000000E+00  0.00000000000E+00 -0.63447766962E+03  0.63447766962E+03  0.25500000920E-02 0.  1.
    10030    2    1    2    0    0  0.00000000000E+00  0.00000000000E+00 -0.38172093823E+03  0.88723440102E+03  0.80092072496E+03 0.  0.
        1    1    3    3  502    0 -0.30414466507E+03 -0.13555242999E+02  0.97331263665E+02  0.31962649580E+03  0.50400001928E-02 0. -1.
       -1    1    3    3    0  502  0.30414466507E+03  0.13555242999E+02 -0.47905220190E+03  0.56760790522E+03  0.50400001928E-02 0.  1.
</event>
<event>
 5   0  0.3671128E-03  0.8005910E+03  0.7818609E-02  0.9559162E-01
        1   -1    0    0  501    0  0.00000000000E+00  0.00000000000E+00  0.18648264065E+04  0.18648264065E+04  0.50400001928E-02 0.  1.
       -1   -1    0    0    0  501  0.00000000000E+00  0.00000000000E+00 -0.85925694208E+02  0.85925694356E+02  0.50400001928E-02 0. -1.
    10030    2    1    2    0    0  0.00000000000E+00  0.00000000000E+00  0.17789007123E+04  0.19507521008E+04  0.80059104093E+03 0.  0.
        2    1    3    3  502    0  0.29973370446E+03 -0.45922712280E+02  0.15261892442E+04  0.15560214646E+04  0.25500000920E-02 0.  1.
       -2    1    3    3    0  502 -0.29973370446E+03  0.45922712280E+02  0.25271146802E+03  0.39473063622E+03  0.25500000920E-02 0. -1.
</event>
<event>
 5   0  0.3753450E-03  0.8038260E+03  0.7818609E-02  0.9554496E-01
        1   -1    0    0  501    0  0.00000000000E+00  0.00000000000E+00  0.69492512241E+03  0.69492512243E+03  0.50400001928E-02 0.  1.
       -1   -1    0    0    0  501  0.00000000000E+00  0.00000000000E+00 -0.23244816177E+03  0.23244816183E+03  0.50400001928E-02 0. -1.
    10030    2    1    2    0    0  0.00000000000E+00  0.00000000000E+00  0.46247696064E+03  0.92737328425E+03  0.80382601925E+03 0.  0.
        5    1    3    3  502    0  0.54922507929E+02 -0.38287912399E+03  0.10538968458E+03  0.40092640357E+03  0.46999998093E+01 0.  1.
       -5    1    3    3    0  502 -0.54922507929E+02  0.38287912399E+03  0.35708727606E+03  0.52644688069E+03  0.46999998093E+01 0. -1.
</event>
<event>
 5   0  0.6536209E-03  0.8010880E+03  0.7818609E-02  0.9558444E-01
        2   -1    0    0  501    0  0.00000000000E+00  0.00000000000E+00  0.15435627059E+04  0.15435627059E+04  0.25500000920E-02 0.  1.
       -2   -1    0    0    0  501  0.00000000000E+00  0.00000000000E+00 -0.10393843701E+03  0.10393843704E+03  0.25500000920E-02 0. -1.
    10030    2    1    2    0    0  0.00000000000E+00  0.00000000000E+00  0.14396242689E+04  0.16475011430E+04  0.80108799795E+03 0.  0.
        3    1    3    3  502    0  0.16524627766E+03  0.74011300620E+02 -0.14969726575E+02  0.18168133590E+03  0.10100000352E+00 0. -1.
       -3    1    3    3    0  502 -0.16524627766E+03 -0.74011300620E+02  0.14545939955E+04  0.14658198071E+04  0.10100000352E+00 0.  1.
</event>
<event>
 5   0  0.6256781E-03  0.7567388E+03  0.7818609E-02  0.9624837E-01
        2   -1    0    0  501    0  0.00000000000E+00  0.00000000000E+00  0.16473099480E+03  0.16473099482E+03  0.25500000920E-02 0. -1.
       -2   -1    0    0    0  501  0.00000000000E+00  0.00000000000E+00 -0.86907396523E+03  0.86907396523E+03  0.25500000920E-02 0.  1.
    10030    2    1    2    0    0  0.00000000000E+00  0.00000000000E+00 -0.70434297043E+03  0.10338049600E+04  0.75673884229E+03 0.  0.
        1    1    3    3  502    0  0.17225561987E+03 -0.66949512378E+02 -0.80322090421E+03  0.82420753259E+03  0.50400001928E-02 0.  1.
       -1    1    3    3    0  502 -0.17225561987E+03  0.66949512378E+02  0.98877933781E+02  0.20959742746E+03  0.50400001928E-02 0. -1.
</event>
<event>
 5   0  0.2478000E-03  0.8036246E+03  0.7818609E-02  0.9554785E-01
        3   -1    0    0  501    0  0.00000000000E+00  0.00000000000E+00  0.40311578587E+03  0.40311579853E+03  0.10100000352E+00 0.  1.
       -3   -1    0    0    0  501  0.00000000000E+00  0.00000000000E+00 -0.40051298645E+03  0.40051299918E+03  0.10100000352E+00 0. -1.
    10030    2    1    2    0    0  0.00000000000E+00  0.00000000000E+00  0.26027994258E+01  0.80362879771E+03  0.80362458271E+03 0.  0.
        4    1    3    3  502    0 -0.11140705648E+03  0.35863164505E+03 -0.14160951576E+03  0.40135153783E+03  0.12699999809E+01 0. -1.
       -4    1    3    3    0  502  0.11140705648E+03 -0.35863164505E+03  0.14421231519E+03  0.40227725988E+03  0.12699999809E+01 0.  1.
</event>
<event>
 5   0  0.3753450E-03  0.8043736E+03  0.7818609E-02  0.9553708E-01
       -1   -1    0    0    0  501  0.00000000000E+00  0.00000000000E+00  0.21565064763E+03  0.21565064769E+03  0.50400001928E-02 0.  1.
        1   -1    0    0  501    0  0.00000000000E+00  0.00000000000E+00 -0.75007531233E+03  0.75007531235E+03  0.50400001928E-02 0. -1.
    10030    2    1    2    0    0  0.00000000000E+00  0.00000000000E+00 -0.53442466470E+03  0.96572596004E+03  0.80437361198E+03 0.  0.
        5    1    3    3  502    0 -0.13557841932E+03 -0.33561370922E+03 -0.47762154781E+03  0.59930167906E+03  0.46999998093E+01 0. -1.
       -5    1    3    3    0  502  0.13557841932E+03  0.33561370922E+03 -0.56803116891E+02  0.36642428097E+03  0.46999998093E+01 0.  1.
</event>
<event>
 5   0  0.3671128E-03  0.8026181E+03  0.7818609E-02  0.9556235E-01
        1   -1    0    0  501    0  0.00000000000E+00  0.00000000000E+00  0.21717316691E+03  0.21717316697E+03  0.50400001928E-02 0. -1.
       -1   -1    0    0    0  501  0.00000000000E+00  0.00000000000E+00 -0.74156923949E+03  0.74156923951E+03  0.50400001928E-02 0.  1.
    10030    2    1    2    0    0  0.00000000000E+00  0.00000000000E+00 -0.52439607258E+03  0.95874240647E+03  0.80261806672E+03 0.  0.
        2    1    3    3  502    0 -0.63325749851E+02 -0.33975232215E+03 -0.50585396669E+03  0.61264184204E+03  0.25500000920E-02 0. -1.
       -2    1    3    3    0  502  0.63325749851E+02  0.33975232215E+03 -0.18542105890E+02  0.34610056443E+03  0.25500000920E-02 0.  1.
</event>
<event>
 5   0  0.3753450E-03  0.7991310E+03  0.7818609E-02  0.9561276E-01
       -1   -1    0    0    0  501  0.00000000000E+00  0.00000000000E+00  0.15181660157E+03  0.15181660166E+03  0.50400001928E-02 0. -1.
        1   -1    0    0  501    0  0.00000000000E+00  0.00000000000E+00 -0.10516146973E+04  0.10516146973E+04  0.50400001928E-02 0.  1.
    10030    2    1    2    0    0  0.00000000000E+00  0.00000000000E+00 -0.89979809573E+03  0.12034312990E+04  0.79913095189E+03 0.  0.
        5    1    3    3  502    0  0.15399915643E+03 -0.15277506096E+03 -0.95516891931E+03  0.97950278910E+03  0.46999998093E+01 0.  1.
       -5    1    3    3    0  502 -0.15399915643E+03  0.15277506096E+03  0.55370823578E+02  0.22392850988E+03  0.46999998093E+01 0. -1.
</event>
<event>
 5   0  0.3671128E-03  0.8170155E+03  0.7818609E-02  0.9535709E-01
        1   -1    0    0  501    0  0.00000000000E+00  0.00000000000E+00  0.25543885540E+03  0.25543885545E+03  0.50400001928E-02 0.  1.
       -1   -1    0    0    0  501  0.00000000000E+00  0.00000000000E+00 -0.65330155498E+03  0.65330155500E+03  0.50400001928E-02 0. -1.
    10030    2    1    2    0    0  0.00000000000E+00  0.00000000000E+00 -0.39786269958E+03  0.90874041045E+03  0.81701554812E+03 0.  0.
        2    1    3    3  502    0 -0.59933848229E+02 -0.10936062363E+03  0.23374925535E+03  0.26493494777E+03  0.25500000920E-02 0.  1.
       -2    1    3    3    0  502  0.59933848229E+02  0.10936062363E+03 -0.63161195493E+03  0.64380546269E+03  0.25500000920E-02 0. -1.
</event>
<event>
 5   0  0.3753450E-03  0.7997868E+03  0.7818609E-02  0.9560326E-01
       -1   -1    0    0    0  501  0.00000000000E+00  0.00000000000E+00  0.20997646967E+03  0.20997646973E+03  0.50400001928E-02 0.  1.
        1   -1    0    0  501    0  0.00000000000E+00  0.00000000000E+00 -0.76158413348E+03  0.76158413350E+03  0.50400001928E-02 0. -1.
    10030    2    1    2    0    0  0.00000000000E+00  0.00000000000E+00 -0.55160766381E+03  0.97156060323E+03  0.79978684095E+03 0.  0.
        5    1    3    3  502    0  0.15319545227E+03 -0.26941645307E+02  0.17168510115E+03  0.23171655703E+03  0.46999998093E+01 0.  1.
       -5    1    3    3    0  502 -0.15319545227E+03  0.26941645307E+02 -0.72329276496E+03  0.73984404620E+03  0.46999998093E+01 0. -1.
</event>
<event>
 5   0  0.2478000E-03  0.7978190E+03  0.7818609E-02  0.9563179E-01
        4   -1    0    0  501    0  0.00000000000E+00  0.00000000000E+00  0.25997325565E+03  0.25997635768E+03  0.12699999809E+01 0.  1.
       -4   -1    0    0    0  501  0.00000000000E+00  0.00000000000E+00 -0.61208936204E+03  0.61209067957E+03  0.12699999809E+01 0. -1.
    10030    2    1    2    0    0  0.00000000000E+00  0.00000000000E+00 -0.35211610638E+03  0.87206703726E+03  0.79781900522E+03 0.  0.
        4    1    3    3  502    0  0.36002963295E+03 -0.70946574537E+02 -0.34705328473E+03  0.50507657675E+03  0.12699999809E+01 0. -1.
       -4    1    3    3    0  502 -0.36002963295E+03  0.70946574537E+02 -0.50628216557E+01  0.36699046051E+03  0.12699999809E+01 0.  1.
</event>
<event>
 5   0  0.6536209E-03  0.7999719E+03  0.7818609E-02  0.9560058E-01
        2   -1    0    0  501    0  0.00000000000E+00  0.00000000000E+00  0.94114573521E+03  0.94114573521E+03  0.25500000920E-02 0. -1.
       -2   -1    0    0    0  501  0.00000000000E+00  0.00000000000E+00 -0.16999362779E+03  0.16999362781E+03  0.25500000920E-02 0.  1.
    10030    2    1    2    0    0  0.00000000000E+00  0.00000000000E+00  0.77115210742E+03  0.11111393630E+04  0.79997194405E+03 0.  0.
        3    1    3    3  502    0 -0.19179818122E+03  0.11037109846E+03  0.84837808958E+03  0.87676320337E+03  0.10100000352E+00 0. -1.
       -3    1    3    3    0  502  0.19179818122E+03 -0.11037109846E+03 -0.77225982162E+02  0.23437615965E+03  0.10100000352E+00 0.  1.
</event>
<event>
 5   0  0.6153659E-03  0.7983790E+03  0.7818609E-02  0.9562366E-01
       -2   -1    0    0    0  501  0.00000000000E+00  0.00000000000E+00  0.21108860732E+03  0.21108860733E+03  0.25500000920E-02 0. -1.
        2   -1    0    0  501    0  0.00000000000E+00  0.00000000000E+00 -0.75490686948E+03  0.75490686948E+03  0.25500000920E-02 0.  1.
    10030    2    1    2    0    0  0.00000000000E+00  0.00000000000E+00 -0.54381826216E+03  0.96599547682E+03  0.79837895700E+03 0.  0.
        2    1    3    3  502    0 -0.10852679947E+03  0.20706745246E+03 -0.66341081588E+03  0.70339811395E+03  0.25500000920E-02 0.  1.
       -2    1    3    3    0  502  0.10852679947E+03 -0.20706745246E+03  0.11959255372E+03  0.26259736287E+03  0.25500000920E-02 0. -1.
</event>
<event>
 5   0  0.6256781E-03  0.7950924E+03  0.7818609E-02  0.9567148E-01
       -2   -1    0    0    0  501  0.00000000000E+00  0.00000000000E+00  0.88909651682E+02  0.88909651719E+02  0.25500000920E-02 0. -1.
        2   -1    0    0  501    0  0.00000000000E+00  0.00000000000E+00 -0.17775683884E+04  0.17775683884E+04  0.25500000920E-02 0.  1.
    10030    2    1    2    0    0  0.00000000000E+00  0.00000000000E+00 -0.16886587367E+04  0.18664780401E+04  0.79509241296E+03 0.  0.
        1    1    3    3  502    0 -0.63394032960E+02  0.13324952128E+03 -0.17108988856E+04  0.17172504870E+04  0.50400001928E-02 0.  1.
       -1    1    3    3    0  502  0.63394032960E+02 -0.13324952128E+03  0.22240148958E+02  0.14922755304E+03  0.50400001928E-02 0. -1.
</event>
<event>
 5   0  0.3671128E-03  0.8010168E+03  0.7818609E-02  0.9558546E-01
        1   -1    0    0  501    0  0.00000000000E+00  0.00000000000E+00  0.95563007316E+03  0.95563007317E+03  0.50400001928E-02 0.  1.
       -1   -1    0    0    0  501  0.00000000000E+00  0.00000000000E+00 -0.16785468726E+03  0.16785468733E+03  0.50400001928E-02 0. -1.
    10030    2    1    2    0    0  0.00000000000E+00  0.00000000000E+00  0.78777538590E+03  0.11234847605E+04  0.80101682158E+03 0.  0.
        2    1    3    3  502    0  0.29295629029E+03 -0.21693484871E+03  0.62657484959E+03  0.72490010260E+03  0.25500000920E-02 0.  1.
       -2    1    3    3    0  502 -0.29295629029E+03  0.21693484871E+03  0.16120053631E+03  0.39858465791E+03  0.25500000920E-02 0. -1.
</event>
<event>
 5   0  0.6337108E-03  0.7989690E+03  0.7818609E-02  0.9561511E-01
       -2   -1    0    0    0  501  0.00000000000E+00  0.00000000000E+00  0.26959228690E+03  0.26959228691E+03  0.25500000920E-02 0.  1.
        2   -1    0    0  501    0  0.00000000000E+00  0.00000000000E+00 -0.59196004613E+03  0.59196004613E+03  0.25500000920E-02 0. -1.
    10030    2    1    2    0    0  0.00000000000E+00  0.00000000000E+00 -0.32236775923E+03  0.86155233304E+03  0.79896899213E+03 0.  0.
        4    1    3    3  502    0 -0.86071658223E+02  0.32732365225E+03  0.67658876131E+02  0.34514988062E+03  0.12699999809E+01 0.  1.
       -4    1    3    3    0  502  0.86071658223E+02 -0.32732365225E+03 -0.39002663536E+03  0.51640245242E+03  0.12699999809E+01 0. -1.
</event>
<event>
 5   0  0.3860515E-03  0.8010580E+03  0.7818609E-02  0.9558487E-01
       -1   -1    0    0    0  501  0.00000000000E+00  0.00000000000E+00  0.50156205307E+03  0.50156205309E+03  0.50400001928E-02 0. -1.
        1   -1    0    0  501    0  0.00000000000E+00  0.00000000000E+00 -0.31984773454E+03  0.31984773458E+03  0.50400001928E-02 0.  1.
    10030    2    1    2    0    0  0.00000000000E+00  0.00000000000E+00  0.18171431852E+03  0.82140978767E+03  0.80105801646E+03 0.  0.
        4    1    3    3  502    0 -0.39795598630E+03  0.20413162377E+02  0.13233492275E+03  0.41988070795E+03  0.12699999809E+01 0. -1.
       -4    1    3    3    0  502  0.39795598630E+03 -0.20413162377E+02  0.49379395773E+02  0.40152907972E+03  0.12699999809E+01 0.  1.
</event>
<event>
 5   0  0.3671128E-03  0.8030079E+03  0.7818609E-02  0.9555674E-01
        1   -1    0    0  501    0  0.00000000000E+00  0.00000000000E+00  0.72570980397E+03  0.72570980399E+03  0.50400001928E-02 0. -1.
       -1   -1    0    0    0  501  0.00000000000E+00  0.00000000000E+00 -0.22213481634E+03  0.22213481640E+03  0.50400001928E-02 0.  1.
    10030    2    1    2    0    0  0.00000000000E+00  0.00000000000E+00  0.50357498763E+03  0.94784462039E+03  0.80300788055E+03 0.  0.
        2    1    3    3  502    0  0.24416304393E+03  0.31822345426E+03  0.27302280494E+03  0.48520429809E+03  0.25500000920E-02 0.  1.
       -2    1    3    3    0  502 -0.24416304393E+03 -0.31822345426E+03  0.23055218270E+03  0.46264032230E+03  0.25500000920E-02 0. -1.
</event>
<event>
 5   0  0.6536209E-03  0.8005012E+03  0.7818609E-02  0.9559292E-01
        2   -1    0    0  501    0  0.00000000000E+00  0.00000000000E+00  0.39975905324E+03  0.39975905325E+03  0.25500000920E-02 0. -1.
       -2   -1    0    0    0  501  0.00000000000E+00  0.00000000000E+00 -0.40074273117E+03  0.40074273118E+03  0.25500000920E-02 0.  1.
    10030    2    1    2    0    0  0.00000000000E+00  0.00000000000E+00 -0.98367792619E+00  0.80050178443E+03  0.80050118004E+03 0.  0.
        3    1    3    3  502    0 -0.18514243039E+03  0.25271725325E+03 -0.24960403998E+03  0.40055700792E+03  0.10100000352E+00 0.  1.
       -3    1    3    3    0  502  0.18514243039E+03 -0.25271725325E+03  0.24862036206E+03  0.39994477650E+03  0.10100000352E+00 0. -1.
</event>
<event>
 5   0  0.3627496E-03  0.8026849E+03  0.7818609E-02  0.9556139E-01
       -1   -1    0    0    0  501  0.00000000000E+00  0.00000000000E+00  0.51593699963E+03  0.51593699966E+03  0.50400001928E-02 0. -1.
        1   -1    0    0  501    0  0.00000000000E+00  0.00000000000E+00 -0.31220047024E+03  0.31220047029E+03  0.50400001928E-02 0.  1.
    10030    2    1    2    0    0  0.00000000000E+00  0.00000000000E+00  0.20373652939E+03  0.82813746994E+03  0.80268492929E+03 0.  0.
        3    1    3    3  502    0 -0.43094979924E+02  0.39890663522E+03  0.91968004366E+02  0.41163309505E+03  0.10100000352E+00 0.  1.
       -3    1    3    3    0  502  0.43094979924E+02 -0.39890663522E+03  0.11176852502E+03  0.41650437489E+03  0.10100000352E+00 0. -1.
</event>
<event>
 5   0  0.6536209E-03  0.7968852E+03  0.7818609E-02  0.9564537E-01
       -2   -1    0    0    0  501  0.00000000000E+00  0.00000000000E+00  0.53326667848E+03  0.53326667848E+03  0.25500000920E-02 0. -1.
        2   -1    0    0  501    0  0.00000000000E+00  0.00000000000E+00 -0.29770563953E+03  0.29770563954E+03  0.25500000920E-02 0.  1.
    10030    2    1    2    0    0  0.00000000000E+00  0.00000000000E+00  0.23556103895E+03  0.83097231802E+03  0.79688518009E+03 0.  0.
        3    1    3    3  502    0  0.11940189969E+03 -0.58614972256E+02  0.50943115899E+03  0.52650987129E+03  0.10100000352E+00 0. -1.
       -3    1    3    3    0  502 -0.11940189969E+03  0.58614972256E+02 -0.27387012003E+03  0.30446244673E+03  0.10100000352E+00 0.  1.
</event>
<event>
 5   0  0.2478000E-03  0.8023750E+03  0.7818609E-02  0.9556586E-01
       -3   -1    0    0    0  501  0.00000000000E+00  0.00000000000E+00  0.44019474184E+03  0.44019475343E+03  0.10100000352E+00 0.  1.
        3   -1    0    0  501    0  0.00000000000E+00  0.00000000000E+00 -0.36563677623E+03  0.36563679018E+03  0.10100000352E+00 0. -1.
    10030    2    1    2    0    0  0.00000000000E+00  0.00000000000E+00  0.74557965608E+02  0.80583154361E+03  0.80237496623E+03 0.  0.
        1    1    3    3  502    0  0.93005432562E+01 -0.19778859341E+03 -0.31314328103E+03  0.37049364673E+03  0.50400001928E-02 0. -1.
       -1    1    3    3    0  502 -0.93005432562E+01  0.19778859341E+03  0.38770124664E+03  0.43533789688E+03  0.50400001928E-02 0.  1.
</event>
<event>
 5   0  0.3860515E-03  0.8009784E+03  0.7818609E-02  0.9558602E-01
        1   -1    0    0  501    0  0.00000000000E+00  0.00000000000E+00  0.46958523628E+03  0.46958523630E+03  0.50400001928E-02 0.  1.
       -1   -1    0    0    0  501  0.00000000000E+00  0.00000000000E+00 -0.34156016662E+03  0.34156016666E+03  0.50400001928E-02 0. -1.
    10030    2    1    2    0    0  0.00000000000E+00  0.00000000000E+00  0.12802506966E+03  0.81114540296E+03  0.80097843060E+03 0.  0.
        4    1    3    3  502    0 -0.34859844016E+03  0.18266233645E+03 -0.11115357279E+02  0.39371508189E+03  0.12699999809E+01 0.  1.
       -4    1    3    3    0  502  0.34859844016E+03 -0.18266233645E+03  0.13914042694E+03  0.41743032107E+03  0.12699999809E+01 0. -1.
</event>
<event>
 5   0  0.3753450E-03  0.8006495E+03  0.7818609E-02  0.9559077E-01
        1   -1    0    0  501    0  0.00000000000E+00  0.00000000000E+00  0.12804732721E+04  0.12804732721E+04  0.50400001928E-02 0. -1.
       -1   -1    0    0    0  501  0.00000000000E+00  0.00000000000E+00 -0.12515678979E+03  0.12515678989E+03  0.50400001928E-02 0.  1.
    10030    2    1    2    0    0  0.00000000000E+00  0.00000000000E+00  0.11553164823E+04  0.14056300620E+04  0.80064954687E+03 0.  0.
        5    1    3    3  502    0 -0.42650112012E+02 -0.19384200867E+03  0.11879552770E+04  0.12044308143E+04  0.46999998093E+01 0. -1.
       -5    1    3    3    0  502  0.42650112012E+02  0.19384200867E+03 -0.32638794605E+02  0.20119924774E+03  0.46999998093E+01 0.  1.
</event>
<event>
 5   0  0.5813850E-03  0.8073355E+03  0.7818609E-02  0.9549460E-01
       -2   -1    0    0    0  501  0.00000000000E+00  0.00000000000E+00  0.43363355135E+03  0.43363355136E+03  0.25500000920E-02 0.  1.
        2   -1    0    0  501    0  0.00000000000E+00  0.00000000000E+00 -0.37577266851E+03  0.37577266852E+03  0.25500000920E-02 0. -1.
    10030    2    1    2    0    0  0.00000000000E+00  0.00000000000E+00  0.57860882843E+02  0.80940621988E+03  0.80733546126E+03 0.  0.
        5    1    3    3  502    0  0.10473273562E+03  0.64800198656E+02  0.41430880423E+03  0.43225211037E+03  0.46999998093E+01 0.  1.
       -5    1    3    3    0  502 -0.10473273562E+03 -0.64800198656E+02 -0.35644792139E+03  0.37715410951E+03  0.46999998093E+01 0. -1.
</event>
<event>
 5   0  0.3714448E-03  0.7987836E+03  0.7818609E-02  0.9561780E-01
       -1   -1    0    0    0  501  0.00000000000E+00  0.00000000000E+00  0.81768674184E+02  0.81768674340E+02  0.50400001928E-02 0. -1.
        1   -1    0    0  501    0  0.00000000000E+00  0.00000000000E+00 -0.19507934267E+04  0.19507934267E+04  0.50400001928E-02 0.  1.
    10030    2    1    2    0    0  0.00000000000E+00  0.00000000000E+00 -0.18690247525E+04  0.20325621010E+04  0.79878355584E+03 0.  0.
        1    1    3    3  502    0  0.27552066117E+03  0.15452626307E+03 -0.31265843202E+03  0.44446067975E+03  0.50400001928E-02 0. -1.
       -1    1    3    3    0  502 -0.27552066117E+03 -0.15452626307E+03 -0.15563663205E+04  0.15881014213E+04  0.50400001928E-02 0.  1.
</event>
<event>
 5   0  0.5813850E-03  0.7878992E+03  0.7818609E-02  0.9577700E-01
        2   -1    0    0  501    0  0.00000000000E+00  0.00000000000E+00  0.83904313006E+03  0.83904313006E+03  0.25500000920E-02 0.  1.
       -2   -1    0    0    0  501  0.00000000000E+00  0.00000000000E+00 -0.18496817933E+03  0.18496817935E+03  0.25500000920E-02 0. -1.
    10030    2    1    2    0    0  0.00000000000E+00  0.00000000000E+00  0.65407495073E+03  0.10240113094E+04  0.78789918177E+03 0.  0.
        5    1    3    3  502    0 -0.72187120065E+02 -0.89144230260E+02  0.81682027668E+03  0.82484854881E+03  0.46999998093E+01 0.  1.
       -5    1    3    3    0  502  0.72187120065E+02  0.89144230260E+02 -0.16274532595E+03  0.19916276060E+03  0.46999998093E+01 0. -1.
</event>
<event>
 5   0  0.3671128E-03  0.8031563E+03  0.7818609E-02  0.9555460E-01
        1   -1    0    0  501    0  0.00000000000E+00  0.00000000000E+00  0.81867215720E+03  0.81867215721E+03  0.50400001928E-02 0. -1.
       -1   -1    0    0    0  501  0.00000000000E+00  0.00000000000E+00 -0.19698361044E+03  0.19698361050E+03  0.50400001928E-02 0.  1.
    10030    2    1    2    0    0  0.00000000000E+00  0.00000000000E+00  0.62168854676E+03  0.10156557677E+04  0.80315626707E+03 0.  0.
        2    1    3    3  502    0  0.25349795911E+03  0.15220993558E+03  0.65446576976E+03  0.71816051378E+03  0.25500000920E-02 0. -1.
       -2    1    3    3    0  502 -0.25349795911E+03 -0.15220993558E+03 -0.32777223004E+02  0.29749525394E+03  0.25500000920E-02 0.  1.
</event>
<event>
 5   0  0.3627496E-03  0.7905046E+03  0.7818609E-02  0.9573864E-01
        1   -1    0    0  501    0  0.00000000000E+00  0.00000000000E+00  0.45121209842E+03  0.45121209845E+03  0.50400001928E-02 0. -1.
       -1   -1    0    0    0  501  0.00000000000E+00  0.00000000000E+00 -0.34623266022E+03  0.34623266026E+03  0.50400001928E-02 0.  1.
    10030    2    1    2    0    0  0.00000000000E+00  0.00000000000E+00  0.10497943820E+03  0.79744475871E+03  0.79050456086E+03 0.  0.
        3    1    3    3  502    0  0.17184604653E+02  0.23660524176E+03 -0.26642981278E+03  0.35673828839E+03  0.10100000352E+00 0.  1.
       -3    1    3    3    0  502 -0.17184604653E+02 -0.23660524176E+03  0.37140925098E+03  0.44070647032E+03  0.10100000352E+00 0. -1.
</event>
<event>
 5   0  0.2478000E-03  0.7996130E+03  0.7818609E-02  0.9560577E-01
       -3   -1    0    0    0  501  0.00000000000E+00  0.00000000000E+00  0.13726947971E+03  0.13726951686E+03  0.10100000352E+00 0.  1.
        3   -1    0    0  501    0  0.00000000000E+00  0.00000000000E+00 -0.11644630018E+04  0.11644630061E+04  0.10100000352E+00 0. -1.
    10030    2    1    2    0    0  0.00000000000E+00  0.00000000000E+00 -0.10271935220E+04  0.13017325230E+04  0.79961304997E+03 0.  0.
        1    1    3    3  502    0 -0.18988232424E+03  0.82211432225E+02  0.43323203642E+02  0.21140226264E+03  0.50400001928E-02 0.  1.
       -1    1    3    3    0  502  0.18988232424E+03 -0.82211432225E+02 -0.10705167257E+04  0.10903302604E+04  0.50400001928E-02 0. -1.
</event>
<event>
 5   0  0.3753450E-03  0.7990478E+03  0.7818609E-02  0.9561396E-01
       -1   -1    0    0    0  501  0.00000000000E+00  0.00000000000E+00  0.15660588530E+03  0.15660588538E+03  0.50400001928E-02 0. -1.
        1   -1    0    0  501    0  0.00000000000E+00  0.00000000000E+00 -0.10192423703E+04  0.10192423703E+04  0.50400001928E-02 0.  1.
    10030    2    1    2    0    0  0.00000000000E+00  0.00000000000E+00 -0.86263648502E+03  0.11758482557E+04  0.79904781783E+03 0.  0.
        5    1    3    3  502    0  0.22018694476E+03 -0.25374004232E+03 -0.11320563621E+03  0.35454746620E+03  0.46999998093E+01 0.  1.
       -5    1    3    3    0  502 -0.22018694476E+03  0.25374004232E+03 -0.74943084880E+03  0.82130078951E+03  0.46999998093E+01 0. -1.
</event>
<event>
 5   0  0.6153659E-03  0.7987528E+03  0.7818609E-02  0.9561824E-01
        2   -1    0    0  501    0  0.00000000000E+00  0.00000000000E+00  0.55754380769E+03  0.55754380769E+03  0.25500000920E-02 0. -1.
       -2   -1    0    0    0  501  0.00000000000E+00  0.00000000000E+00 -0.28607885628E+03  0.28607885629E+03  0.25500000920E-02 0.  1.
    10030    2    1    2    0    0  0.00000000000E+00  0.00000000000E+00  0.27146495141E+03  0.84362266398E+03  0.79875276484E+03 0.  0.
        2    1    3    3  502    0 -0.22042357046E+03 -0.12684182717E+02  0.48722466913E+03  0.53491617766E+03  0.25500000920E-02 0. -1.
       -2    1    3    3    0  502  0.22042357046E+03  0.12684182717E+02 -0.21575971772E+03  0.30870648633E+03  0.25500000920E-02 0.  1.
</event>
<event>
 5   0  0.6256781E-03  0.8068621E+03  0.7818609E-02  0.9550137E-01
        2   -1    0    0  501    0  0.00000000000E+00  0.00000000000E+00  0.93178814741E+03  0.93178814741E+03  0.25500000920E-02 0. -1.
       -2   -1    0    0    0  501  0.00000000000E+00  0.00000000000E+00 -0.17467127818E+03  0.17467127820E+03  0.25500000920E-02 0.  1.
    10030    2    1    2    0    0  0.00000000000E+00  0.00000000000E+00  0.75711686923E+03  0.11064594256E+04  0.80686213621E+03 0.  0.
        1    1    3    3  502    0  0.15617791039E+03 -0.25142068555E+03  0.75448976862E+03  0.81046820530E+03  0.50400001928E-02 0. -1.
       -1    1    3    3    0  502 -0.15617791039E+03  0.25142068555E+03  0.26271006052E+01  0.29599122031E+03  0.50400001928E-02 0.  1.
</event>
<event>
 5   0  0.3860515E-03  0.7985933E+03  0.7818609E-02  0.9562055E-01
        1   -1    0    0  501    0  0.00000000000E+00  0.00000000000E+00  0.18451933723E+03  0.18451933730E+03  0.50400001928E-02 0. -1.
       -1   -1    0    0    0  501  0.00000000000E+00  0.00000000000E+00 -0.86407101129E+03  0.86407101130E+03  0.50400001928E-02 0.  1.
    10030    2    1    2    0    0  0.00000000000E+00  0.00000000000E+00 -0.67955167406E+03  0.10485903486E+04  0.79859328915E+03 0.  0.
        4    1    3    3  502    0 -0.73796426148E+02 -0.34244128180E+03 -0.59140251726E+03  0.68736489168E+03  0.12699999809E+01 0.  1.
       -4    1    3    3    0  502  0.73796426148E+02  0.34244128180E+03 -0.88149156799E+02  0.36122545693E+03  0.12699999809E+01 0. -1.
</event>
<event>
 5   0  0.3627496E-03  0.8063022E+03  0.7818609E-02  0.9550939E-01
        1   -1    0    0  501    0  0.00000000000E+00  0.00000000000E+00  0.54088223596E+03  0.54088223598E+03  0.50400001928E-02 0. -1.
       -1   -1    0    0    0  501  0.00000000000E+00  0.00000000000E+00 -0.30049204188E+03  0.30049204193E+03  0.50400001928E-02 0.  1.
    10030    2    1    2    0    0  0.00000000000E+00  0.00000000000E+00  0.24039019407E+03  0.84137427791E+03  0.80630219528E+03 0.  0.
        3    1    3    3  502    0  0.13775465630E+03 -0.84617278790E+02  0.50557548331E+03  0.53079469546E+03  0.10100000352E+00 0. -1.
       -3    1    3    3    0  502 -0.13775465630E+03  0.84617278790E+02 -0.26518528924E+03  0.31057958245E+03  0.10100000352E+00 0.  1.
</event>
<event>
 5   0  0.3714448E-03  0.7987850E+03  0.7818609E-02  0.9561777E-01
        1   -1    0    0  501    0  0.00000000000E+00  0.00000000000E+00  0.55698483676E+03  0.55698483678E+03  0.50400001928E-02 0.  1.
       -1   -1    0    0    0  501  0.00000000000E+00  0.00000000000E+00 -0.28638909184E+03  0.28638909188E+03  0.50400001928E-02 0. -1.
    10030    2    1    2    0    0  0.00000000000E+00  0.00000000000E+00  0.27059574492E+03  0.84337392866E+03  0.79878503140E+03 0.  0.
        1    1    3    3  502    0  0.18062512513E+03  0.39587625779E+02 -0.23847132324E+03  0.30176346362E+03  0.50400001928E-02 0. -1.
       -1    1    3    3    0  502 -0.18062512513E+03 -0.39587625779E+02  0.50906706816E+03  0.54161046505E+03  0.50400001928E-02 0.  1.
</event>
<event>
 5   0  0.3671128E-03  0.7802758E+03  0.7818609E-02  0.9589014E-01
       -1   -1    0    0    0  501  0.00000000000E+00  0.00000000000E+00  0.50857400290E+03  0.50857400293E+03  0.50400001928E-02 0. -1.
        1   -1    0    0  501    0  0.00000000000E+00  0.00000000000E+00 -0.29928302858E+03  0.29928302862E+03  0.50400001928E-02 0.  1.
    10030    2    1    2    0    0  0.00000000000E+00  0.00000000000E+00  0.20929097432E+03  0.80785703154E+03  0.78027576631E+03 0.  0.
        2    1    3    3  502    0  0.33032928034E+03  0.10779107556E+03 -0.79026603435E+02  0.35634471159E+03  0.25500000920E-02 0.  1.
       -2    1    3    3    0  502 -0.33032928034E+03 -0.10779107556E+03  0.28831757776E+03  0.45151231996E+03  0.25500000920E-02 0. -1.
</event>
<event>
 5   0  0.6256781E-03  0.8010751E+03  0.7818609E-02  0.9558462E-01
        2   -1    0    0  501    0  0.00000000000E+00  0.00000000000E+00  0.53120201123E+03  0.53120201124E+03  0.25500000920E-02 0.  1.
       -2   -1    0    0    0  501  0.00000000000E+00  0.00000000000E+00 -0.30201376751E+03  0.30201376752E+03  0.25500000920E-02 0. -1.
    10030    2    1    2    0    0  0.00000000000E+00  0.00000000000E+00  0.22918824373E+03  0.83321577876E+03  0.80107507944E+03 0.  0.
        1    1    3    3  502    0 -0.17651746364E+03 -0.29616100381E+03  0.32663763380E+03  0.47493357323E+03  0.50400001928E-02 0.  1.
       -1    1    3    3    0  502  0.17651746364E+03  0.29616100381E+03 -0.97449390069E+02  0.35828220552E+03  0.50400001928E-02 0. -1.
</event>
<event>
 5   0  0.6536209E-03  0.7919255E+03  0.7818609E-02  0.9571779E-01
        2   -1    0    0  501    0  0.00000000000E+00  0.00000000000E+00  0.71858646049E+03  0.71858646050E+03  0.25500000920E-02 0.  1.
       -2   -1    0    0    0  501  0.00000000000E+00  0.00000000000E+00 -0.21818735774E+03  0.21818735776E+03  0.25500000920E-02 0. -1.
    10030    2    1    2    0    0  0.00000000000E+00  0.00000000000E+00  0.50039910275E+03  0.93677381825E+03  0.79192545390E+03 0.  0.
        3    1    3    3  502    0  0.36691832646E+03  0.14874477161E+03  0.24346575165E+03  0.46478989641E+03  0.10100000352E+00 0. -1.
       -3    1    3    3    0  502 -0.36691832646E+03 -0.14874477161E+03  0.25693335110E+03  0.47198392185E+03  0.10100000352E+00 0.  1.
</event>
<event>
 5   0  0.3627496E-03  0.8062626E+03  0.7818609E-02  0.9550996E-01
        1   -1    0    0  501    0  0.00000000000E+00  0.00000000000E+00  0.72195164980E+03  0.72195164982E+03  0.50400001928E-02 0.  1.
       -1   -1    0    0    0  501  0.00000000000E+00  0.00000000000E+00 -0.22510489171E+03  0.22510489176E+03  0.50400001928E-02 0. -1.
    10030    2    1    2    0    0  0.00000000000E+00  0.00000000000E+00  0.49684675809E+03  0.94705654158E+03  0.80626260730E+03 0.  0.
        3    1    3    3  502    0  0.17818345085E+03 -0.98398182523E+02  0.65715807219E+03  0.68795950936E+03  0.10100000352E+00 0.  1.
       -3    1    3    3    0  502 -0.17818345085E+03  0.98398182523E+02 -0.16031131409E+03  0.25909703222E+03  0.10100000352E+00 0. -1.
</event>
<event>
 5   0  0.6337108E-03  0.7914860E+03  0.7818609E-02  0.9572423E-01
        2   -1    0    0  501    0  0.00000000000E+00  0.00000000000E+00  0.11851137335E+04  0.11851137335E+04  0.25500000920E-02 0.  1.
       -2   -1    0    0    0  501  0.00000000000E+00  0.00000000000E+00 -0.13214978838E+03  0.13214978841E+03  0.25500000920E-02 0. -1.
    10030    2    1    2    0    0  0.00000000000E+00  0.00000000000E+00  0.10529639451E+04  0.13172635219E+04  0.79148601784E+03 0.  0.
        4    1    3    3  502    0 -0.36384898579E+03 -0.25938031943E+02  0.78189543106E+03  0.86279832173E+03  0.12699999809E+01 0.  1.
       -4    1    3    3    0  502  0.36384898579E+03  0.25938031943E+02  0.27106851403E+03  0.45446520016E+03  0.12699999809E+01 0. -1.
</event>
<event>
 5   0  0.3627496E-03  0.7980121E+03  0.7818609E-02  0.9562899E-01
       -1   -1    0    0    0  501  0.00000000000E+00  0.00000000000E+00  0.85761632201E+02  0.85761632349E+02  0.50400001928E-02 0. -1.
        1   -1    0    0  501    0  0.00000000000E+00  0.00000000000E+00 -0.18563757817E+04  0.18563757817E+04  0.50400001928E-02 0.  1.
    10030    2    1    2    0    0  0.00000000000E+00  0.00000000000E+00 -0.17706141495E+04  0.19421374140E+04  0.79801207300E+03 0.  0.
        3    1    3    3  502    0 -0.28123192134E+03  0.28301859924E+03 -0.89469690144E+03  0.97962925474E+03  0.10100000352E+00 0. -1.
       -3    1    3    3    0  502  0.28123192134E+03 -0.28301859924E+03 -0.87591724801E+03  0.96250815927E+03  0.10100000352E+00 0.  1.
</event>
<event>
 5   0  0.3627496E-03  0.8004007E+03  0.7818609E-02  0.9559437E-01
        1   -1    0    0  501    0  0.00000000000E+00  0.00000000000E+00  0.23274057064E+03  0.23274057069E+03  0.50400001928E-02 0.  1.
       -1   -1    0    0    0  501  0.00000000000E+00  0.00000000000E+00 -0.68814950174E+03  0.68814950176E+03  0.50400001928E-02 0. -1.
    10030    2    1    2    0    0  0.00000000000E+00  0.00000000000E+00 -0.45540893110E+03  0.92089007245E+03  0.80040066905E+03 0.  0.
        3    1    3    3  502    0 -0.31391798986E+03 -0.74204540310E+02 -0.50023707072E+03  0.59522092981E+03  0.10100000352E+00 0. -1.
       -3    1    3    3    0  502  0.31391798986E+03  0.74204540310E+02  0.44828139627E+02  0.32566914263E+03  0.10100000352E+00 0.  1.
</event>
<event>
 5   0  0.5813850E-03  0.8040960E+03  0.7818609E-02  0.9554107E-01
        2   -1    0    0  501    0  0.00000000000E+00  0.00000000000E+00  0.62759887367E+03  0.62759887367E+03  0.25500000920E-02 0.  1.
       -2   -1    0    0    0  501  0.00000000000E+00  0.00000000000E+00 -0.25755718929E+03  0.25755718931E+03  0.25500000920E-02 0. -1.
    10030    2    1    2    0    0  0.00000000000E+00  0.00000000000E+00  0.37004168438E+03  0.88515606298E+03  0.80409601893E+03 0.  0.
        5    1    3    3  502    0 -0.30441988686E+03  0.23607209933E+03  0.31158518676E+03  0.49548856920E+03  0.46999998093E+01 0.  1.
       -5    1    3    3    0  502  0.30441988686E+03 -0.23607209933E+03  0.58456497620E+02  0.38966749378E+03  0.46999998093E+01 0. -1.
</event>
<event>
 5   0  0.3860515E-03  0.7983987E+03  0.7818609E-02  0.9562338E-01
       -1   -1    0    0    0  501  0.00000000000E+00  0.00000000000E+00  0.12632927991E+03  0.12632928001E+03  0.50400001928E-02 0.  1.
        1   -1    0    0  501    0  0.00000000000E+00  0.00000000000E+00 -0.12614663413E+04  0.12614663413E+04  0.50400001928E-02 0. -1.
    10030    2    1    2    0    0  0.00000000000E+00  0.00000000000E+00 -0.11351370614E+04  0.13877956213E+04  0.79839873399E+03 0.  0.
        4    1    3    3  502    0 -0.25747188826E+03  0.24865178249E+03 -0.26034497613E+03  0.44260659922E+03  0.12699999809E+01 0.  1.
       -4    1    3    3    0  502  0.25747188826E+03 -0.24865178249E+03 -0.87479208526E+03  0.94518902211E+03  0.12699999809E+01 0. -1.
</event>
<event>
 5   0  0.3627496E-03  0.7997588E+03  0.7818609E-02  0.9560366E-01
       -1   -1    0    0    0  501  0.00000000000E+00  0.00000000000E+00  0.11586075534E+04  0.11586075534E+04  0.50400001928E-02 0. -1.
        1   -1    0    0  501    0  0.00000000000E+00  0.00000000000E+00 -0.13801354215E+03  0.13801354224E+03  0.50400001928E-02 0.  1.
    10030    2    1    2    0    0  0.00000000000E+00  0.00000000000E+00  0.10205940113E+04  0.12966210957E+04  0.79975879482E+03 0.  0.
        3    1    3    3  502    0  0.31832077566E+03  0.18735586810E+03  0.75869041414E+03  0.84382551054E+03  0.10100000352E+00 0. -1.
       -3    1    3    3    0  502 -0.31832077566E+03 -0.18735586810E+03  0.26190359714E+03  0.45279558514E+03  0.10100000352E+00 0.  1.
</event>
<event>
 5   0  0.6153659E-03  0.8058250E+03  0.7818609E-02  0.9551624E-01
       -2   -1    0    0    0  501  0.00000000000E+00  0.00000000000E+00  0.25201776507E+03  0.25201776509E+03  0.25500000920E-02 0.  1.
        2   -1    0    0  501    0  0.00000000000E+00  0.00000000000E+00 -0.64415497777E+03  0.64415497777E+03  0.25500000920E-02 0. -1.
    10030    2    1    2    0    0  0.00000000000E+00  0.00000000000E+00 -0.39213721269E+03  0.89617274286E+03  0.80582503775E+03 0.  0.
        2    1    3    3  502    0 -0.11944236227E+03  0.25158657935E+03  0.12773969609E+03  0.30639796797E+03  0.25500000920E-02 0.  1.
       -2    1    3    3    0  502  0.11944236227E+03 -0.25158657935E+03 -0.51987690878E+03  0.58977477489E+03  0.25500000920E-02 0. -1.
</event>
<event>
 5   0  0.3860515E-03  0.8019023E+03  0.7818609E-02  0.9557268E-01
        1   -1    0    0  501    0  0.00000000000E+00  0.00000000000E+00  0.72406598338E+03  0.72406598340E+03  0.50400001928E-02 0.  1.
       -1   -1    0    0    0  501  0.00000000000E+00  0.00000000000E+00 -0.22202645763E+03  0.22202645769E+03  0.50400001928E-02 0. -1.
    10030    2    1    2    0    0  0.00000000000E+00  0.00000000000E+00  0.50203952575E+03  0.94609244109E+03  0.80190225194E+03 0.  0.
        4    1    3    3  502    0  0.17035102826E+02 -0.39924210923E+03  0.21232385928E+03  0.45251242041E+03  0.12699999809E+01 0.  1.
       -4    1    3    3    0  502 -0.17035102826E+02  0.39924210923E+03  0.28971566647E+03  0.49358002068E+03  0.12699999809E+01 0. -1.
</event>
<event>
 5   0  0.6256781E-03  0.8026685E+03  0.7818609E-02  0.9556163E-01
        2   -1    0    0  501    0  0.00000000000E+00  0.00000000000E+00  0.68049337153E+03  0.68049337153E+03  0.25500000920E-02 0.  1.
       -2   -1    0    0    0  501  0.00000000000E+00  0.00000000000E+00 -0.23669471470E+03  0.23669471471E+03  0.25500000920E-02 0. -1.
    10030    2    1    2    0    0  0.00000000000E+00  0.00000000000E+00  0.44379865683E+03  0.91718808625E+03  0.80266851050E+03 0.  0.
        1    1    3    3  502    0 -0.20707033515E+03 -0.26604261213E+03  0.47070948236E+03  0.57898550239E+03  0.50400001928E-02 0.  1.
       -1    1    3    3    0  502  0.20707033515E+03  0.26604261213E+03 -0.26910825531E+02  0.33820258385E+03  0.50400001928E-02 0. -1.
</event>
<event>
 5   0  0.2478000E-03  0.8003902E+03  0.7818609E-02  0.9559452E-01
        4   -1    0    0  501    0  0.00000000000E+00  0.00000000000E+00  0.21644910455E+03  0.21645283034E+03  0.12699999809E+01 0.  1.
       -4   -1    0    0    0  501  0.00000000000E+00  0.00000000000E+00 -0.73991446900E+03  0.73991555892E+03  0.12699999809E+01 0. -1.
    10030    2    1    2    0    0  0.00000000000E+00  0.00000000000E+00 -0.52346536445E+03  0.95636838926E+03  0.80039022245E+03 0.  0.
        1    1    3    3  502    0  0.25495702566E+03 -0.10650031520E+03  0.84185378032E+02  0.28884698366E+03  0.50400001928E-02 0.  1.
       -1    1    3    3    0  502 -0.25495702566E+03  0.10650031520E+03 -0.60765074248E+03  0.66752140560E+03  0.50400001928E-02 0. -1.
</event>
<event>
 5   0  0.3860515E-03  0.8106907E+03  0.7818609E-02  0.9544670E-01
       -1   -1    0    0    0  501  0.00000000000E+00  0.00000000000E+00  0.32106243791E+03  0.32106243795E+03  0.50400001928E-02 0. -1.
        1   -1    0    0  501    0  0.00000000000E+00  0.00000000000E+00 -0.51175364261E+03  0.51175364264E+03  0.50400001928E-02 0.  1.
    10030    2    1    2    0    0  0.00000000000E+00  0.00000000000E+00 -0.19069120470E+03  0.83281608059E+03  0.81069074778E+03 0.  0.
        4    1    3    3  502    0  0.22470129865E+03 -0.24754753552E+03  0.14011007892E+03  0.36249538352E+03  0.12699999809E+01 0.  1.
       -4    1    3    3    0  502 -0.22470129865E+03  0.24754753552E+03 -0.33080128361E+03  0.47032069707E+03  0.12699999809E+01 0. -1.
</event>
<event>
 5   0  0.6536209E-03  0.7971872E+03  0.7818609E-02  0.9564097E-01
       -2   -1    0    0    0  501  0.00000000000E+00  0.00000000000E+00  0.18113207216E+03  0.18113207217E+03  0.25500000920E-02 0.  1.
        2   -1    0    0  501    0  0.00000000000E+00  0.00000000000E+00 -0.87713265506E+03  0.87713265507E+03  0.25500000920E-02 0. -1.
    10030    2    1    2    0    0  0.00000000000E+00  0.00000000000E+00 -0.69600058291E+03  0.10582647272E+04  0.79718719352E+03 0.  0.
        3    1    3    3  502    0  0.88431966121E+01  0.39809756006E+03 -0.32436575932E+03  0.51358838136E+03  0.10100000352E+00 0.  1.
       -3    1    3    3    0  502 -0.88431966121E+01 -0.39809756006E+03 -0.37163482359E+03  0.54467634588E+03  0.10100000352E+00 0. -1.
</event>
<event>
 5   0  0.3627496E-03  0.7934346E+03  0.7818609E-02  0.9569569E-01
       -1   -1    0    0    0  501  0.00000000000E+00  0.00000000000E+00  0.18817077205E+03  0.18817077212E+03  0.50400001928E-02 0. -1.
        1   -1    0    0  501    0  0.00000000000E+00  0.00000000000E+00 -0.83639255942E+03  0.83639255943E+03  0.50400001928E-02 0.  1.
    10030    2    1    2    0    0  0.00000000000E+00  0.00000000000E+00 -0.64822178737E+03  0.10245633316E+04  0.79343464429E+03 0.  0.
        3    1    3    3  502    0 -0.24191539499E+03  0.24025233568E+03 -0.62195031798E+02  0.34657246762E+03  0.10100000352E+00 0. -1.
       -3    1    3    3    0  502  0.24191539499E+03 -0.24025233568E+03 -0.58602675557E+03  0.67799086393E+03  0.10100000352E+00 0.  1.
</event>
<event>
 5   0  0.6153659E-03  0.7922604E+03  0.7818609E-02  0.9571288E-01
        2   -1    0    0  501    0  0.00000000000E+00  0.00000000000E+00  0.12281497687E+04  0.12281497687E+04  0.25500000920E-02 0.  1.
       -2   -1    0    0    0  501  0.00000000000E+00  0.00000000000E+00 -0.12776873689E+03  0.12776873692E+03  0.25500000920E-02 0. -1.
    10030    2    1    2    0    0  0.00000000000E+00  0.00000000000E+00  0.11003810318E+04  0.13559185056E+04  0.79226042354E+03 0.  0.
        2    1    3    3  502    0  0.32372333813E+03  0.17376944149E+03  0.80361615043E+03  0.88362409184E+03  0.25500000920E-02 0.  1.
       -2    1    3    3    0  502 -0.32372333813E+03 -0.17376944149E+03  0.29676488133E+03  0.47229441373E+03  0.25500000920E-02 0. -1.
</event>
<event>
 5   0  0.6536209E-03  0.7830592E+03  0.7818609E-02  0.9584867E-01
       -2   -1    0    0    0  501  0.00000000000E+00  0.00000000000E+00  0.13015706872E+03  0.13015706875E+03  0.25500000920E-02 0. -1.
        2   -1    0    0  501    0  0.00000000000E+00  0.00000000000E+00 -0.11777724849E+04  0.11777724849E+04  0.25500000920E-02 0.  1.
    10030    2    1    2    0    0  0.00000000000E+00  0.00000000000E+00 -0.10476154162E+04  0.13079295537E+04  0.78305916578E+03 0.  0.
        3    1    3    3  502    0  0.19848045653E+03  0.14172119844E+03 -0.10354050331E+04  0.10637400917E+04  0.10100000352E+00 0.  1.
       -3    1    3    3    0  502 -0.19848045653E+03 -0.14172119844E+03 -0.12210383062E+02  0.24418946203E+03  0.10100000352E+00 0. -1.
</event>
<event>
 5   0  0.6153659E-03  0.8011680E+03  0.7818609E-02  0.9558328E-01
       -2   -1    0    0    0  501  0.00000000000E+00  0.00000000000E+00  0.82895048817E+02  0.82895048856E+02  0.25500000920E-02 0.  1.
        2   -1    0    0  501    0  0.00000000000E+00  0.00000000000E+00 -0.19357913905E+04  0.19357913905E+04  0.25500000920E-02 0. -1.
    10030    2    1    2    0    0  0.00000000000E+00  0.00000000000E+00 -0.18528963417E+04  0.20186864394E+04  0.80116795207E+03 0.  0.
        2    1    3    3  502    0  0.25242853327E+02 -0.39929655171E+03 -0.87652391564E+03  0.96351912931E+03  0.25500000920E-02 0. -1.
       -2    1    3    3    0  502 -0.25242853327E+02  0.39929655171E+03 -0.97637242603E+03  0.10551673100E+04  0.25500000920E-02 0.  1.
</event>
<event>
 5   0  0.6153659E-03  0.7952654E+03  0.7818609E-02  0.9566896E-01
       -2   -1    0    0    0  501  0.00000000000E+00  0.00000000000E+00  0.26249109524E+03  0.26249109525E+03  0.25500000920E-02 0.  1.
        2   -1    0    0  501    0  0.00000000000E+00  0.00000000000E+00 -0.60235089989E+03  0.60235089990E+03  0.25500000920E-02 0. -1.
    10030    2    1    2    0    0  0.00000000000E+00  0.00000000000E+00 -0.33985980465E+03  0.86484199515E+03  0.79526535807E+03 0.  0.
        2    1    3    3  502    0  0.20539867152E+02 -0.16184111030E+03  0.22442128237E+03  0.27745151489E+03  0.25500000920E-02 0.  1.
       -2    1    3    3    0  502 -0.20539867152E+02  0.16184111030E+03 -0.56428108702E+03  0.58739048026E+03  0.25500000920E-02 0. -1.
</event>
<event>
 5   0  0.3753450E-03  0.8021938E+03  0.7818609E-02  0.9556847E-01
       -1   -1    0    0    0  501  0.00000000000E+00  0.00000000000E+00  0.25820775564E+03  0.25820775569E+03  0.50400001928E-02 0.  1.
        1   -1    0    0  501    0  0.00000000000E+00  0.00000000000E+00 -0.62305918852E+03  0.62305918854E+03  0.50400001928E-02 0. -1.
    10030    2    1    2    0    0  0.00000000000E+00  0.00000000000E+00 -0.36485143288E+03  0.88126694423E+03  0.80219377890E+03 0.  0.
        5    1    3    3  502    0 -0.46171846694E+02 -0.14780320029E+03 -0.58886586494E+03  0.60890288416E+03  0.46999998093E+01 0. -1.
       -5    1    3    3    0  502  0.46171846694E+02  0.14780320029E+03  0.22401443207E+03  0.27236406007E+03  0.46999998093E+01 0.  1.
</event>
<event>
 5   0  0.3860515E-03  0.7971648E+03  0.7818609E-02  0.9564130E-01
       -1   -1    0    0    0  501  0.00000000000E+00  0.00000000000E+00  0.18525633565E+03  0.18525633572E+03  0.50400001928E-02 0. -1.
        1   -1    0    0  501    0  0.00000000000E+00  0.00000000000E+00 -0.85755731483E+03  0.85755731484E+03  0.50400001928E-02 0.  1.
    10030    2    1    2    0    0  0.00000000000E+00  0.00000000000E+00 -0.67230097917E+03  0.10428136506E+04  0.79716479049E+03 0.  0.
        4    1    3    3  502    0 -0.76484720682E+02  0.36375389828E+03 -0.52435869189E+03  0.64274447619E+03  0.12699999809E+01 0.  1.
       -4    1    3    3    0  502  0.76484720682E+02 -0.36375389828E+03 -0.14794228729E+03  0.40006917437E+03  0.12699999809E+01 0. -1.
</event>
<event>
 5   0  0.6153659E-03  0.7974778E+03  0.7818609E-02  0.9563675E-01
       -2   -1    0    0    0  501  0.00000000000E+00  0.00000000000E+00  0.99849590438E+03  0.99849590438E+03  0.25500000920E-02 0. -1.
        2   -1    0    0  501    0  0.00000000000E+00  0.00000000000E+00 -0.15923219805E+03  0.15923219807E+03  0.25500000920E-02 0.  1.
    10030    2    1    2    0    0  0.00000000000E+00  0.00000000000E+00  0.83926370633E+03  0.11577281024E+04  0.79747776798E+03 0.  0.
        2    1    3    3  502    0  0.30476164587E+03  0.70035995692E+01  0.79277062589E+03  0.84936092239E+03  0.25500000920E-02 0. -1.
       -2    1    3    3    0  502 -0.30476164587E+03 -0.70035995692E+01  0.46493080439E+02  0.30836718005E+03  0.25500000920E-02 0.  1.
</event>
<event>
 5   0  0.6153659E-03  0.7977806E+03  0.7818609E-02  0.9563235E-01
        2   -1    0    0  501    0  0.00000000000E+00  0.00000000000E+00  0.44654936574E+03  0.44654936574E+03  0.25500000920E-02 0. -1.
       -2   -1    0    0    0  501  0.00000000000E+00  0.00000000000E+00 -0.35631775504E+03  0.35631775505E+03  0.25500000920E-02 0.  1.
    10030    2    1    2    0    0  0.00000000000E+00  0.00000000000E+00  0.90231610692E+02  0.80286712080E+03  0.79778059019E+03 0.  0.
        2    1    3    3  502    0  0.16425189172E+03  0.30544360122E+03  0.24344843550E+03  0.42372351624E+03  0.25500000920E-02 0. -1.
       -2    1    3    3    0  502 -0.16425189172E+03 -0.30544360122E+03 -0.15321682481E+03  0.37914360455E+03  0.25500000920E-02 0.  1.
</event>
<event>
 5   0  0.3753450E-03  0.8028472E+03  0.7818609E-02  0.9555905E-01
        1   -1    0    0  501    0  0.00000000000E+00  0.00000000000E+00  0.70617317531E+03  0.70617317533E+03  0.50400001928E-02 0. -1.
       -1   -1    0    0    0  501  0.00000000000E+00  0.00000000000E+00 -0.22818891032E+03  0.22818891038E+03  0.50400001928E-02 0.  1.
    10030    2    1    2    0    0  0.00000000000E+00  0.00000000000E+00  0.47798426498E+03  0.93436208571E+03  0.80284715210E+03 0.  0.
        5    1    3    3  502    0 -0.93315568955E+01 -0.20523844562E+03  0.64031094349E+03  0.67248055129E+03  0.46999998093E+01 0. -1.
       -5    1    3    3    0  502  0.93315568955E+01  0.20523844562E+03 -0.16232667850E+03  0.26188153442E+03  0.46999998093E+01 0.  1.
</event>
<event>
 5   0  0.6536209E-03  0.7592515E+03  0.7818609E-02  0.9620947E-01
       -2   -1    0    0    0  501  0.00000000000E+00  0.00000000000E+00  0.12893161116E+03  0.12893161118E+03  0.25500000920E-02 0.  1.
        2   -1    0    0  501    0  0.00000000000E+00  0.00000000000E+00 -0.11177685663E+04  0.11177685663E+04  0.25500000920E-02 0. -1.
    10030    2    1    2    0    0  0.00000000000E+00  0.00000000000E+00 -0.98883695512E+03  0.12467001775E+04  0.75925147921E+03 0.  0.
        3    1    3    3  502    0 -0.76443702340E+01  0.29952738755E+03 -0.87718909085E+03  0.92694973089E+03  0.10100000352E+00 0. -1.
       -3    1    3    3    0  502  0.76443702340E+01 -0.29952738755E+03 -0.11164786427E+03  0.31975044658E+03  0.10100000352E+00 0.  1.
</event>
<event>
 5   0  0.2478000E-03  0.7939127E+03  0.7818609E-02  0.9568870E-01
        4   -1    0    0  501    0  0.00000000000E+00  0.00000000000E+00  0.14442662610E+03  0.14443220980E+03  0.12699999809E+01 0. -1.
       -4   -1    0    0    0  501  0.00000000000E+00  0.00000000000E+00 -0.10910069648E+04  0.10910077039E+04  0.12699999809E+01 0.  1.
    10030    2    1    2    0    0  0.00000000000E+00  0.00000000000E+00 -0.94658033866E+03  0.12354399137E+04  0.79391274264E+03 0.  0.
        4    1    3    3  502    0 -0.24374084842E+03  0.26336480803E+03 -0.20919459865E+03  0.41537286419E+03  0.12699999809E+01 0. -1.
       -4    1    3    3    0  502  0.24374084842E+03 -0.26336480803E+03 -0.73738574001E+03  0.82006704955E+03  0.12699999809E+01 0.  1.
</event>
<event>
 5   0  0.3860515E-03  0.7982557E+03  0.7818609E-02  0.9562545E-01
        1   -1    0    0  501    0  0.00000000000E+00  0.00000000000E+00  0.26407787063E+03  0.26407787068E+03  0.50400001928E-02 0.  1.
       -1   -1    0    0    0  501  0.00000000000E+00  0.00000000000E+00 -0.60324263699E+03  0.60324263701E+03  0.50400001928E-02 0. -1.
    10030    2    1    2    0    0  0.00000000000E+00  0.00000000000E+00 -0.33916476636E+03  0.86732050769E+03  0.79825567604E+03 0.  0.
        4    1    3    3  502    0  0.64690491748E+02 -0.15887237124E+03 -0.56114594152E+03  0.58678076881E+03  0.12699999809E+01 0. -1.
       -4    1    3    3    0  502 -0.64690491748E+02  0.15887237124E+03  0.22198117516E+03  0.28053973888E+03  0.12699999809E+01 0.  1.
</event>
<event>
 5   0  0.6153659E-03  0.8002012E+03  0.7818609E-02  0.9559726E-01
       -2   -1    0    0    0  501  0.00000000000E+00  0.00000000000E+00  0.21869604980E+03  0.21869604981E+03  0.25500000920E-02 0.  1.
        2   -1    0    0  501    0  0.00000000000E+00  0.00000000000E+00 -0.73197705256E+03  0.73197705257E+03  0.25500000920E-02 0. -1.
    10030    2    1    2    0    0  0.00000000000E+00  0.00000000000E+00 -0.51328100276E+03  0.95067310238E+03  0.80020119957E+03 0.  0.
        2    1    3    3  502    0 -0.17964497070E+03  0.61070356333E+02 -0.67512601238E+03  0.70128242279E+03  0.25500000920E-02 0. -1.
       -2    1    3    3    0  502  0.17964497070E+03 -0.61070356333E+02  0.16184500962E+03  0.24939067959E+03  0.25500000920E-02 0.  1.
</event>
<event>
 5   0  0.5813850E-03  0.8000612E+03  0.7818609E-02  0.9559928E-01
       -2   -1    0    0    0  501  0.00000000000E+00  0.00000000000E+00  0.15780532303E+03  0.15780532305E+03  0.25500000920E-02 0. -1.
        2   -1    0    0  501    0  0.00000000000E+00  0.00000000000E+00 -0.10140627045E+04  0.10140627045E+04  0.25500000920E-02 0.  1.
    10030    2    1    2    0    0  0.00000000000E+00  0.00000000000E+00 -0.85625738151E+03  0.11718680276E+04  0.80006122935E+03 0.  0.
        5    1    3    3  502    0  0.10853738780E+02  0.28247714988E+03 -0.84265112526E+03  0.88881615239E+03  0.46999998093E+01 0.  1.
       -5    1    3    3    0  502 -0.10853738780E+02 -0.28247714988E+03 -0.13606256250E+02  0.28305187521E+03  0.46999998093E+01 0. -1.
</event>
<event>
 5   0  0.2478000E-03  0.7989874E+03  0.7818609E-02  0.9561484E-01
       -4   -1    0    0    0  501  0.00000000000E+00  0.00000000000E+00  0.30064279919E+03  0.30064548160E+03  0.12699999809E+01 0. -1.
        4   -1    0    0  501    0  0.00000000000E+00  0.00000000000E+00 -0.53084084364E+03  0.53084236283E+03  0.12699999809E+01 0.  1.
    10030    2    1    2    0    0  0.00000000000E+00  0.00000000000E+00 -0.23019804445E+03  0.83148784443E+03  0.79898741903E+03 0.  0.
        2    1    3    3  502    0  0.21782693412E+03 -0.25701743384E+03  0.10831639698E+03  0.35389119286E+03  0.25500000920E-02 0. -1.
       -2    1    3    3    0  502 -0.21782693412E+03  0.25701743384E+03 -0.33851444143E+03  0.47759665157E+03  0.25500000920E-02 0.  1.
</event>
<event>
 5   0  0.3753450E-03  0.8226072E+03  0.7818609E-02  0.9527859E-01
        1   -1    0    0  501    0  0.00000000000E+00  0.00000000000E+00  0.27853407991E+03  0.27853407995E+03  0.50400001928E-02 0.  1.
       -1   -1    0    0    0  501  0.00000000000E+00  0.00000000000E+00 -0.60736063020E+03  0.60736063022E+03  0.50400001928E-02 0. -1.
    10030    2    1    2    0    0  0.00000000000E+00  0.00000000000E+00 -0.32882655029E+03  0.88589471017E+03  0.82260715857E+03 0.  0.
        5    1    3    3  502    0 -0.26963526628E+03  0.30379635519E+03 -0.95010311086E+02  0.41718635100E+03  0.46999998093E+01 0.  1.
       -5    1    3    3    0  502  0.26963526628E+03 -0.30379635519E+03 -0.23381623920E+03  0.46870835917E+03  0.46999998093E+01 0. -1.
</event>
<event>
 5   0  0.6337108E-03  0.7991311E+03  0.7818609E-02  0.9561276E-01
        2   -1    0    0  501    0  0.00000000000E+00  0.00000000000E+00  0.31323771357E+03  0.31323771358E+03  0.25500000920E-02 0.  1.
       -2   -1    0    0    0  501  0.00000000000E+00  0.00000000000E+00 -0.50968518172E+03  0.50968518173E+03  0.25500000920E-02 0. -1.
    10030    2    1    2    0    0  0.00000000000E+00  0.00000000000E+00 -0.19644746815E+03  0.82292289530E+03  0.79913108053E+03 0.  0.
        4    1    3    3  502    0 -0.36177091228E+02 -0.35737628079E+03  0.81984678075E+02  0.36844224560E+03  0.12699999809E+01 0.  1.
       -4    1    3    3    0  502  0.36177091228E+02  0.35737628079E+03 -0.27843214623E+03  0.45448064971E+03  0.12699999809E+01 0. -1.
</event>
<event>
 5   0  0.3627496E-03  0.8015686E+03  0.7818609E-02  0.9557749E-01
        1   -1    0    0  501    0  0.00000000000E+00  0.00000000000E+00  0.81405502330E+03  0.81405502331E+03  0.50400001928E-02 0. -1.
       -1   -1    0    0    0  501  0.00000000000E+00  0.00000000000E+00 -0.19731841167E+03  0.19731841174E+03  0.50400001928E-02 0.  1.
    10030    2    1    2    0    0  0.00000000000E+00  0.00000000000E+00  0.61673661162E+03  0.10113734351E+04  0.80156857287E+03 0.  0.
        3    1    3    3  502    0  0.86904779385E+02 -0.21375589625E+03 -0.10509851992E+03  0.25355420121E+03  0.10100000352E+00 0.  1.
       -3    1    3    3    0  502 -0.86904779385E+02  0.21375589625E+03  0.72183513154E+03  0.75781923384E+03  0.10100000352E+00 0. -1.
</event>
<event>
 5   0  0.3671128E-03  0.8058295E+03  0.7818609E-02  0.9551617E-01
        1   -1    0    0  501    0  0.00000000000E+00  0.00000000000E+00  0.75083815411E+03  0.75083815412E+03  0.50400001928E-02 0. -1.
       -1   -1    0    0    0  501  0.00000000000E+00  0.00000000000E+00 -0.21621210368E+03  0.21621210373E+03  0.50400001928E-02 0.  1.
    10030    2    1    2    0    0  0.00000000000E+00  0.00000000000E+00  0.53462605043E+03  0.96705025786E+03  0.80582950270E+03 0.  0.
        2    1    3    3  502    0 -0.13010325753E+03  0.11650185001E+03 -0.16843028414E+03  0.24262790297E+03  0.25500000920E-02 0.  1.
       -2    1    3    3    0  502  0.13010325753E+03 -0.11650185001E+03  0.70305633457E+03  0.72442235489E+03  0.25500000920E-02 0. -1.
</event>
<event>
 5   0  0.6153659E-03  0.7879271E+03  0.7818609E-02  0.9577658E-01
        2   -1    0    0  501    0  0.00000000000E+00  0.00000000000E+00  0.61114807520E+03  0.61114807521E+03  0.25500000920E-02 0. -1.
       -2   -1    0    0    0  501  0.00000000000E+00  0.00000000000E+00 -0.25396018279E+03  0.25396018280E+03  0.25500000920E-02 0.  1.
    10030    2    1    2    0    0  0.00000000000E+00  0.00000000000E+00  0.35718789241E+03  0.86510825801E+03  0.78792709535E+03 0.  0.
        2    1    3    3  502    0 -0.27432747217E+03  0.23459078096E+03  0.35191394810E+03  0.50411489104E+03  0.25500000920E-02 0. -1.
       -2    1    3    3    0  502  0.27432747217E+03 -0.23459078096E+03  0.52739443112E+01  0.36099336696E+03  0.25500000920E-02 0.  1.
</event>
<event>
 5   0  0.5813850E-03  0.8004502E+03  0.7818609E-02  0.9559366E-01
        2   -1    0    0  501    0  0.00000000000E+00  0.00000000000E+00  0.33575113423E+03  0.33575113424E+03  0.25500000920E-02 0. -1.
       -2   -1    0    0    0  501  0.00000000000E+00  0.00000000000E+00 -0.47707994483E+03  0.47707994484E+03  0.25500000920E-02 0.  1.
    10030    2    1    2    0    0  0.00000000000E+00  0.00000000000E+00 -0.14132881060E+03  0.81283107908E+03  0.80045020483E+03 0.  0.
        5    1    3    3  502    0  0.60528438582E+02  0.25406963449E+03  0.23724662619E+03  0.35287833978E+03  0.46999998093E+01 0. -1.
       -5    1    3    3    0  502 -0.60528438582E+02 -0.25406963449E+03 -0.37857543680E+03  0.45995273930E+03  0.46999998093E+01 0.  1.
</event>
<event>
 5   0  0.3860515E-03  0.8169380E+03  0.7818609E-02  0.9535819E-01
       -1   -1    0    0    0  501  0.00000000000E+00  0.00000000000E+00  0.17382197085E+03  0.17382197092E+03  0.50400001928E-02 0.  1.
        1   -1    0    0  501    0  0.00000000000E+00  0.00000000000E+00 -0.95987246320E+03  0.95987246321E+03  0.50400001928E-02 0. -1.
    10030    2    1    2    0    0  0.00000000000E+00  0.00000000000E+00 -0.78605049235E+03  0.11336944341E+04  0.81693799854E+03 0.  0.
        4    1    3    3  502    0 -0.20860961117E+03 -0.22691243640E+03 -0.21075474669E+02  0.30895470898E+03  0.12699999809E+01 0.  1.
       -4    1    3    3    0  502  0.20860961117E+03  0.22691243640E+03 -0.76497501769E+03  0.82473972516E+03  0.12699999809E+01 0. -1.
</event>
<event>
 5   0  0.5813850E-03  0.7791979E+03  0.7818609E-02  0.9590625E-01
        2   -1    0    0  501    0  0.00000000000E+00  0.00000000000E+00  0.15834668363E+04  0.15834668363E+04  0.25500000920E-02 0.  1.
       -2   -1    0    0    0  501  0.00000000000E+00  0.00000000000E+00 -0.95857595533E+02  0.95857595567E+02  0.25500000920E-02 0. -1.
    10030    2    1    2    0    0  0.00000000000E+00  0.00000000000E+00  0.14876092408E+04  0.16793244319E+04  0.77919785309E+03 0.  0.
        5    1    3    3  502    0 -0.27907058446E+02  0.56744362590E+00  0.15812478076E+04  0.15815011366E+04  0.46999998093E+01 0.  1.
       -5    1    3    3    0  502  0.27907058446E+02 -0.56744362590E+00 -0.93638566846E+02  0.97823295296E+02  0.46999998093E+01 0. -1.
</event>
<event>
 5   0  0.2478000E-03  0.8050283E+03  0.7818609E-02  0.9552767E-01
        3   -1    0    0  501    0  0.00000000000E+00  0.00000000000E+00  0.38613453559E+03  0.38613454880E+03  0.10100000352E+00 0. -1.
       -3   -1    0    0    0  501  0.00000000000E+00  0.00000000000E+00 -0.41958855411E+03  0.41958856626E+03  0.10100000352E+00 0.  1.
    10030    2    1    2    0    0  0.00000000000E+00  0.00000000000E+00 -0.33454018517E+02  0.80572311506E+03  0.80502830185E+03 0.  0.
        1    1    3    3  502    0 -0.37302260374E+03  0.15060066142E+03 -0.30567159962E+02  0.40343620737E+03  0.50400001928E-02 0.  1.
       -1    1    3    3    0  502  0.37302260374E+03 -0.15060066142E+03 -0.28868585557E+01  0.40228690769E+03  0.50400001928E-02 0. -1.
</event>
<event>
 5   0  0.3627496E-03  0.7988381E+03  0.7818609E-02  0.9561700E-01
        1   -1    0    0  501    0  0.00000000000E+00  0.00000000000E+00  0.71060366254E+03  0.71060366256E+03  0.50400001928E-02 0.  1.
       -1   -1    0    0    0  501  0.00000000000E+00  0.00000000000E+00 -0.22450709597E+03  0.22450709603E+03  0.50400001928E-02 0. -1.
    10030    2    1    2    0    0  0.00000000000E+00  0.00000000000E+00  0.48609656657E+03  0.93511075859E+03  0.79883806795E+03 0.  0.
        3    1    3    3  502    0 -0.24129135372E+03 -0.21015091655E+03  0.52289151648E+03  0.61302567100E+03  0.10100000352E+00 0.  1.
       -3    1    3    3    0  502  0.24129135372E+03  0.21015091655E+03 -0.36794949912E+02  0.32208508758E+03  0.10100000352E+00 0. -1.
</event>
<event>
 5   0  0.6153659E-03  0.8038872E+03  0.7818609E-02  0.9554408E-01
        2   -1    0    0  501    0  0.00000000000E+00  0.00000000000E+00  0.19611413059E+03  0.19611413061E+03  0.25500000920E-02 0. -1.
       -2   -1    0    0    0  501  0.00000000000E+00  0.00000000000E+00 -0.82379907417E+03  0.82379907417E+03  0.25500000920E-02 0.  1.
    10030    2    1    2    0    0  0.00000000000E+00  0.00000000000E+00 -0.62768494358E+03  0.10199132048E+04  0.80388715433E+03 0.  0.
        2    1    3    3  502    0  0.35661425352E+03 -0.15916156041E+03 -0.43455508688E+03  0.58424673868E+03  0.25500000920E-02 0.  1.
       -2    1    3    3    0  502 -0.35661425352E+03  0.15916156041E+03 -0.19312985671E+03  0.43566646610E+03  0.25500000920E-02 0. -1.
</event>
<event>
 5   0  0.6536209E-03  0.8127006E+03  0.7818609E-02  0.9541813E-01
        2   -1    0    0  501    0  0.00000000000E+00  0.00000000000E+00  0.10981006075E+04  0.10981006075E+04  0.25500000920E-02 0.  1.
       -2   -1    0    0    0  501  0.00000000000E+00  0.00000000000E+00 -0.15036925281E+03  0.15036925283E+03  0.25500000920E-02 0. -1.
    10030    2    1    2    0    0  0.00000000000E+00  0.00000000000E+00  0.94773135471E+03  0.12484698603E+04  0.81270060385E+03 0.  0.
        3    1    3    3  502    0  0.17970601519E+03 -0.34211538010E+03  0.28087008852E+03  0.47772921412E+03  0.10100000352E+00 0. -1.
       -3    1    3    3    0  502 -0.17970601519E+03  0.34211538010E+03  0.66686126619E+03  0.77074064623E+03  0.10100000352E+00 0.  1.
</event>
<event>
 5   0  0.6256781E-03  0.7988406E+03  0.7818609E-02  0.9561697E-01
       -2   -1    0    0    0  501  0.00000000000E+00  0.00000000000E+00  0.13090145572E+03  0.13090145574E+03  0.25500000920E-02 0. -1.
        2   -1    0    0  501    0  0.00000000000E+00  0.00000000000E+00 -0.12187532506E+04  0.12187532506E+04  0.25500000920E-02 0.  1.
    10030    2    1    2    0    0  0.00000000000E+00  0.00000000000E+00 -0.10878517949E+04  0.13496547064E+04  0.79884059659E+03 0.  0.
        1    1    3    3  502    0  0.36472615641E+03  0.12623407617E+03 -0.37017353001E+03  0.53477906980E+03  0.50400001928E-02 0. -1.
       -1    1    3    3    0  502 -0.36472615641E+03 -0.12623407617E+03 -0.71767826490E+03  0.81487563658E+03  0.50400001928E-02 0.  1.
</event>
<event>
 5   0  0.3860515E-03  0.8005236E+03  0.7818609E-02  0.9559259E-01
       -1   -1    0    0    0  501  0.00000000000E+00  0.00000000000E+00  0.18120149838E+03  0.18120149845E+03  0.50400001928E-02 0.  1.
        1   -1    0    0  501    0  0.00000000000E+00  0.00000000000E+00 -0.88415118299E+03  0.88415118300E+03  0.50400001928E-02 0. -1.
    10030    2    1    2    0    0  0.00000000000E+00  0.00000000000E+00 -0.70294968461E+03  0.10653526815E+04  0.80052362662E+03 0.  0.
        4    1    3    3  502    0  0.27934609454E+03 -0.20287013444E+03 -0.62100240070E+03  0.71051820987E+03  0.12699999809E+01 0.  1.
       -4    1    3    3    0  502 -0.27934609454E+03  0.20287013444E+03 -0.81947283910E+02  0.35483447158E+03  0.12699999809E+01 0. -1.
</event>
<event>
 5   0  0.6536209E-03  0.8044422E+03  0.7818609E-02  0.9553609E-01
        2   -1    0    0  501    0  0.00000000000E+00  0.00000000000E+00  0.82117591741E+03  0.82117591741E+03  0.25500000920E-02 0.  1.
       -2   -1    0    0    0  501  0.00000000000E+00  0.00000000000E+00 -0.19701237805E+03  0.19701237807E+03  0.25500000920E-02 0. -1.
    10030    2    1    2    0    0  0.00000000000E+00  0.00000000000E+00  0.62416353935E+03  0.10181882955E+04  0.80444221744E+03 0.  0.
        3    1    3    3  502    0  0.16776879092E+03  0.62516723589E+02 -0.14379619887E+03  0.22963463359E+03  0.10100000352E+00 0. -1.
       -3    1    3    3    0  502 -0.16776879092E+03 -0.62516723589E+02  0.76795973823E+03  0.78855366189E+03  0.10100000352E+00 0.  1.
</event>
<event>
 5   0  0.3860515E-03  0.7995445E+03  0.7818609E-02  0.9560677E-01
        1   -1    0    0  501    0  0.00000000000E+00  0.00000000000E+00  0.73840739171E+03  0.73840739172E+03  0.50400001928E-02 0. -1.
       -1   -1    0    0    0  501  0.00000000000E+00  0.00000000000E+00 -0.21643587641E+03  0.21643587646E+03  0.50400001928E-02 0.  1.
    10030    2    1    2    0    0  0.00000000000E+00  0.00000000000E+00  0.52197151530E+03  0.95484326819E+03  0.79954449784E+03 0.  0.
        4    1    3    3  502    0  0.13358566999E+03 -0.26027358956E+03  0.58635430655E+03  0.65528654675E+03  0.12699999809E+01 0. -1.
       -4    1    3    3    0  502 -0.13358566999E+03  0.26027358956E+03 -0.64382791246E+02  0.29955672144E+03  0.12699999809E+01 0.  1.
</event>
<event>
 5   0  0.5813850E-03  0.7983420E+03  0.7818609E-02  0.9562420E-01
        2   -1    0    0  501    0  0.00000000000E+00  0.00000000000E+00  0.80149795340E+03  0.80149795340E+03  0.25500000920E-02 0.  1.
       -2   -1    0    0    0  501  0.00000000000E+00  0.00000000000E+00 -0.19879962038E+03  0.19879962039E+03  0.25500000920E-02 0. -1.
    10030    2    1    2    0    0  0.00000000000E+00  0.00000000000E+00  0.60269833302E+03  0.10002975738E+04  0.79834200410E+03 0.  0.
        5    1    3    3  502    0  0.20384134981E+03  0.37194830759E+02  0.72879453939E+03  0.75769276225E+03  0.46999998093E+01 0.  1.
       -5    1    3    3    0  502 -0.20384134981E+03 -0.37194830759E+02 -0.12609620637E+03  0.24260481154E+03  0.46999998093E+01 0. -1.
</event>
<event>
 5   0  0.3860515E-03  0.8046508E+03  0.7818609E-02  0.9553310E-01
       -1   -1    0    0    0  501  0.00000000000E+00  0.00000000000E+00  0.12168088800E+03  0.12168088811E+03  0.50400001928E-02 0. -1.
        1   -1    0    0  501    0  0.00000000000E+00  0.00000000000E+00 -0.13302477169E+04  0.13302477169E+04  0.50400001928E-02 0.  1.
    10030    2    1    2    0    0  0.00000000000E+00  0.00000000000E+00 -0.12085668289E+04  0.14519286050E+04  0.80465079019E+03 0.  0.
        4    1    3    3  502    0  0.15487703229E+03 -0.36987439733E+03 -0.54525525035E+03  0.67683001254E+03  0.12699999809E+01 0.  1.
       -4    1    3    3    0  502 -0.15487703229E+03  0.36987439733E+03 -0.66331157853E+03  0.77509859247E+03  0.12699999809E+01 0. -1.
</event>
<event>
 5   0  0.3627496E-03  0.8004425E+03  0.7818609E-02  0.9559377E-01
        1   -1    0    0  501    0  0.00000000000E+00  0.00000000000E+00  0.45456573171E+03  0.45456573174E+03  0.50400001928E-02 0.  1.
       -1   -1    0    0    0  501  0.00000000000E+00  0.00000000000E+00 -0.35237376276E+03  0.35237376280E+03  0.50400001928E-02 0. -1.
    10030    2    1    2    0    0  0.00000000000E+00  0.00000000000E+00  0.10219196895E+03  0.80693949454E+03  0.80044247097E+03 0.  0.
        3    1    3    3  502    0 -0.19836228675E+03  0.31932630377E+03 -0.87350944808E+02  0.38593663061E+03  0.10100000352E+00 0. -1.
       -3    1    3    3    0  502  0.19836228675E+03 -0.31932630377E+03  0.18954291376E+03  0.42100286393E+03  0.10100000352E+00 0.  1.
</event>
<event>
 5   0  0.6256781E-03  0.8027027E+03  0.7818609E-02  0.9556113E-01
       -2   -1    0    0    0  501  0.00000000000E+00  0.00000000000E+00  0.82886280457E+03  0.82886280458E+03  0.25500000920E-02 0.  1.
        2   -1    0    0  501    0  0.00000000000E+00  0.00000000000E+00 -0.19434203833E+03  0.19434203835E+03  0.25500000920E-02 0. -1.
    10030    2    1    2    0    0  0.00000000000E+00  0.00000000000E+00  0.63452076624E+03  0.10232048429E+04  0.80270265217E+03 0.  0.
        1    1    3    3  502    0  0.80330851190E+02  0.71184599227E+02 -0.17570836022E+03  0.20589735476E+03  0.50400001928E-02 0. -1.
       -1    1    3    3    0  502 -0.80330851190E+02 -0.71184599227E+02  0.81022912646E+03  0.81730748817E+03  0.50400001928E-02 0.  1.
</event>
<event>
 5   0  0.6337108E-03  0.8010351E+03  0.7818609E-02  0.9558520E-01
       -2   -1    0    0    0  501  0.00000000000E+00  0.00000000000E+00  0.35313081069E+03  0.35313081070E+03  0.25500000920E-02 0. -1.
        2   -1    0    0  501    0  0.00000000000E+00  0.00000000000E+00 -0.45426317113E+03  0.45426317114E+03  0.25500000920E-02 0.  1.
    10030    2    1    2    0    0  0.00000000000E+00  0.00000000000E+00 -0.10113236044E+03  0.80739398184E+03  0.80103513505E+03 0.  0.
        4    1    3    3  502    0  0.32995494021E+03 -0.22563005629E+03 -0.25196469103E+02  0.40051923777E+03  0.12699999809E+01 0.  1.
       -4    1    3    3    0  502 -0.32995494021E+03  0.22563005629E+03 -0.75935891334E+02  0.40687474407E+03  0.12699999809E+01 0. -1.
</event>
<event>
 5   0  0.6536209E-03  0.8011746E+03  0.7818609E-02  0.9558319E-01
        2   -1    0    0  501    0  0.00000000000E+00  0.00000000000E+00  0.56594059532E+03  0.56594059533E+03  0.25500000920E-02 0. -1.
       -2   -1    0    0    0  501  0.00000000000E+00  0.00000000000E+00 -0.28354596502E+03  0.28354596504E+03  0.25500000920E-02 0.  1.
    10030    2    1    2    0    0  0.00000000000E+00  0.00000000000E+00  0.28239463030E+03  0.84948656036E+03  0.80117456838E+03 0.  0.
        3    1    3    3  502    0  0.34241595671E+01  0.16089354346E+03  0.53015847315E+03  0.55404555233E+03  0.10100000352E+00 0. -1.
       -3    1    3    3    0  502 -0.34241595671E+01 -0.16089354346E+03 -0.24776384286E+03  0.29544100803E+03  0.10100000352E+00 0.  1.
</event>
<event>
 5   0  0.3671128E-03  0.8005942E+03  0.7818609E-02  0.9559157E-01
        1   -1    0    0  501    0  0.00000000000E+00  0.00000000000E+00  0.42758028814E+03  0.42758028817E+03  0.50400001928E-02 0.  1.
       -1   -1    0    0    0  501  0.00000000000E+00  0.00000000000E+00 -0.37475482813E+03  0.37475482816E+03  0.50400001928E-02 0. -1.
    10030    2    1    2    0    0  0.00000000000E+00  0.00000000000E+00  0.52825460013E+02  0.80233511633E+03  0.80059422286E+03 0.  0.
        2    1    3    3  502    0 -0.11563772735E+03 -0.91031858506E+02 -0.34665861639E+03  0.37660467279E+03  0.25500000920E-02 0. -1.
       -2    1    3    3    0  502  0.11563772735E+03  0.91031858506E+02  0.39948407640E+03  0.42573044353E+03  0.25500000920E-02 0.  1.
</event>
<event>
 5   0  0.3671128E-03  0.8072258E+03  0.7818609E-02  0.9549617E-01
        1   -1    0    0  501    0  0.00000000000E+00  0.00000000000E+00  0.11599376448E+04  0.11599376448E+04  0.50400001928E-02 0.  1.
       -1   -1    0    0    0  501  0.00000000000E+00  0.00000000000E+00 -0.14044149862E+03  0.14044149871E+03  0.50400001928E-02 0. -1.
    10030    2    1    2    0    0  0.00000000000E+00  0.00000000000E+00  0.10194961462E+04  0.13003791436E+04  0.80722582023E+03 0.  0.
        2    1    3    3  502    0  0.20396455712E+03 -0.59911506549E+02  0.10624438594E+04  0.10835025997E+04  0.25500000920E-02 0.  1.
       -2    1    3    3    0  502 -0.20396455712E+03  0.59911506549E+02 -0.42947713229E+02  0.21687654381E+03  0.25500000920E-02 0. -1.
</event>
<event>
 5   0  0.5813850E-03  0.7983491E+03  0.7818609E-02  0.9562410E-01
       -2   -1    0    0    0  501  0.00000000000E+00  0.00000000000E+00  0.10788564115E+03  0.10788564118E+03  0.25500000920E-02 0. -1.
        2   -1    0    0  501    0  0.00000000000E+00  0.00000000000E+00 -0.14769373985E+04  0.14769373985E+04  0.25500000920E-02 0.  1.
    10030    2    1    2    0    0  0.00000000000E+00  0.00000000000E+00 -0.13690517574E+04  0.15848230397E+04  0.79834914219E+03 0.  0.
        5    1    3    3  502    0  0.18866844161E+03  0.80769738745E+02 -0.13641195742E+04  0.13794795519E+04  0.46999998093E+01 0.  1.
       -5    1    3    3    0  502 -0.18866844161E+03 -0.80769738745E+02 -0.49321832252E+01  0.20534348781E+03  0.46999998093E+01 0. -1.
</event>
<event>
 5   0  0.3714448E-03  0.7823217E+03  0.7818609E-02  0.9585964E-01
        1   -1    0    0  501    0  0.00000000000E+00  0.00000000000E+00  0.15081122956E+04  0.15081122956E+04  0.50400001928E-02 0.  1.
       -1   -1    0    0    0  501  0.00000000000E+00  0.00000000000E+00 -0.10145583706E+03  0.10145583718E+03  0.50400001928E-02 0. -1.
    10030    2    1    2    0    0  0.00000000000E+00  0.00000000000E+00  0.14066564585E+04  0.16095681327E+04  0.78232166129E+03 0.  0.
        1    1    3    3  502    0 -0.95978450371E+02  0.21067295209E+03  0.13520269853E+04  0.13717040223E+04  0.50400001928E-02 0.  1.
       -1    1    3    3    0  502  0.95978450371E+02 -0.21067295209E+03  0.54629473161E+02  0.23786411045E+03  0.50400001928E-02 0. -1.
</event>
<event>
 5   0  0.6536209E-03  0.7987495E+03  0.7818609E-02  0.9561829E-01
        2   -1    0    0  501    0  0.00000000000E+00  0.00000000000E+00  0.45754248725E+03  0.45754248726E+03  0.25500000920E-02 0. -1.
       -2   -1    0    0    0  501  0.00000000000E+00  0.00000000000E+00 -0.34860189400E+03  0.34860189401E+03  0.25500000920E-02 0.  1.
    10030    2    1    2    0    0  0.00000000000E+00  0.00000000000E+00  0.10894059325E+03  0.80614438127E+03  0.79874946673E+03 0.  0.
        3    1    3    3  502    0 -0.17518978674E+03  0.50160419716E+02  0.41313717108E+03  0.45154164969E+03  0.10100000352E+00 0. -1.
       -3    1    3    3    0  502  0.17518978674E+03 -0.50160419716E+02 -0.30419657782E+03  0.35460273158E+03  0.10100000352E+00 0.  1.
</event>
<event>
 5   0  0.2478000E-03  0.8027818E+03  0.7818609E-02  0.9555999E-01
       -4   -1    0    0    0  501  0.00000000000E+00  0.00000000000E+00  0.30509852358E+03  0.30510116681E+03  0.12699999809E+01 0.  1.
        4   -1    0    0  501    0  0.00000000000E+00  0.00000000000E+00 -0.52806842756E+03  0.52806995473E+03  0.12699999809E+01 0. -1.
    10030    2    1    2    0    0  0.00000000000E+00  0.00000000000E+00 -0.22296990398E+03  0.83317112154E+03  0.80278175096E+03 0.  0.
        1    1    3    3  502    0 -0.69067382212E+02  0.30102190949E+03 -0.37756909931E+03  0.48779392991E+03  0.50400001928E-02 0. -1.
       -1    1    3    3    0  502  0.69067382212E+02 -0.30102190949E+03  0.15459919532E+03  0.34537719163E+03  0.50400001928E-02 0.  1.
</event>
<event>
 5   0  0.3860515E-03  0.7994665E+03  0.7818609E-02  0.9560790E-01
       -1   -1    0    0    0  501  0.00000000000E+00  0.00000000000E+00  0.72384075506E+02  0.72384075682E+02  0.50400001928E-02 0.  1.
        1   -1    0    0  501    0  0.00000000000E+00  0.00000000000E+00 -0.22074836930E+04  0.22074836930E+04  0.50400001928E-02 0. -1.
    10030    2    1    2    0    0  0.00000000000E+00  0.00000000000E+00 -0.21350996175E+04  0.22798677687E+04  0.79946648840E+03 0.  0.
        4    1    3    3  502    0 -0.26872238115E+03  0.29199408677E+03 -0.93040562900E+03  0.10114981524E+04  0.12699999809E+01 0.  1.
       -4    1    3    3    0  502  0.26872238115E+03 -0.29199408677E+03 -0.12046939885E+04  0.12683696164E+04  0.12699999809E+01 0. -1.
</event>
<event>
 5   0  0.3753450E-03  0.7995002E+03  0.7818609E-02  0.9560741E-01
       -1   -1    0    0    0  501  0.00000000000E+00  0.00000000000E+00  0.20493782448E+03  0.20493782454E+03  0.50400001928E-02 0.  1.
        1   -1    0    0  501    0  0.00000000000E+00  0.00000000000E+00 -0.77974942947E+03  0.77974942948E+03  0.50400001928E-02 0. -1.
    10030    2    1    2    0    0  0.00000000000E+00  0.00000000000E+00 -0.57481160499E+03  0.98468725402E+03  0.79950022327E+03 0.  0.
        5    1    3    3  502    0 -0.57105560306E+02 -0.29683945072E+03 -0.60952635527E+03  0.68038163724E+03  0.46999998093E+01 0. -1.
       -5    1    3    3    0  502  0.57105560306E+02  0.29683945072E+03  0.34714750286E+02  0.30430561678E+03  0.46999998093E+01 0.  1.
</event>
<event>
 5   0  0.6337108E-03  0.7975912E+03  0.7818609E-02  0.9563510E-01
       -2   -1    0    0    0  501  0.00000000000E+00  0.00000000000E+00  0.65439373518E+02  0.65439373568E+02  0.25500000920E-02 0. -1.
        2   -1    0    0  501    0  0.00000000000E+00  0.00000000000E+00 -0.24303095692E+04  0.24303095692E+04  0.25500000920E-02 0.  1.
    10030    2    1    2    0    0  0.00000000000E+00  0.00000000000E+00 -0.23648701957E+04  0.24957489427E+04  0.79759121290E+03 0.  0.
        4    1    3    3  502    0 -0.16771211955E+03  0.16854609408E+03 -0.21842441966E+04  0.21971480296E+04  0.12699999809E+01 0.  1.
       -4    1    3    3    0  502  0.16771211955E+03 -0.16854609408E+03 -0.18062599907E+03  0.29860091311E+03  0.12699999809E+01 0. -1.
</event>
<event>
 5   0  0.3753450E-03  0.7975857E+03  0.7818609E-02  0.9563518E-01
       -1   -1    0    0    0  501  0.00000000000E+00  0.00000000000E+00  0.16076018806E+03  0.16076018814E+03  0.50400001928E-02 0.  1.
        1   -1    0    0  501    0  0.00000000000E+00  0.00000000000E+00 -0.98927304099E+03  0.98927304100E+03  0.50400001928E-02 0. -1.
    10030    2    1    2    0    0  0.00000000000E+00  0.00000000000E+00 -0.82851285293E+03  0.11500332291E+04  0.79758565725E+03 0.  0.
        5    1    3    3  502    0 -0.32027295351E+03 -0.15186925106E+03 -0.67767176622E+03  0.76478764823E+03  0.46999998093E+01 0. -1.
       -5    1    3    3    0  502  0.32027295351E+03  0.15186925106E+03 -0.15084108672E+03  0.38524558090E+03  0.46999998093E+01 0.  1.
</event>
<event>
 5   0  0.6153659E-03  0.7968297E+03  0.7818609E-02  0.9564617E-01
        2   -1    0    0  501    0  0.00000000000E+00  0.00000000000E+00  0.59836812380E+03  0.59836812381E+03  0.25500000920E-02 0. -1.
       -2   -1    0    0    0  501  0.00000000000E+00  0.00000000000E+00 -0.26527883261E+03  0.26527883262E+03  0.25500000920E-02 0.  1.
    10030    2    1    2    0    0  0.00000000000E+00  0.00000000000E+00  0.33308929119E+03  0.86364695643E+03  0.79682971170E+03 0.  0.
        2    1    3    3  502    0  0.25550891714E+03 -0.21299094057E+03  0.40421392707E+03  0.52348719788E+03  0.25500000920E-02 0. -1.
       -2    1    3    3    0  502 -0.25550891714E+03  0.21299094057E+03 -0.71124635872E+02  0.34015975855E+03  0.25500000920E-02 0.  1.
</event>
<event>
 5   0  0.3671128E-03  0.8012209E+03  0.7818609E-02  0.9558252E-01
       -1   -1    0    0    0  501  0.00000000000E+00  0.00000000000E+00  0.41081010321E+03  0.41081010324E+03  0.50400001928E-02 0. -1.
        1   -1    0    0  501    0  0.00000000000E+00  0.00000000000E+00 -0.39066402742E+03  0.39066402745E+03  0.50400001928E-02 0.  1.
    10030    2    1    2    0    0  0.00000000000E+00  0.00000000000E+00  0.20146075793E+02  0.80147413069E+03  0.80122089201E+03 0.  0.
        2    1    3    3  502    0 -0.44221232610E+01 -0.40058239380E+03  0.83636843259E+01  0.40069409856E+03  0.25500000920E-02 0. -1.
       -2    1    3    3    0  502  0.44221232610E+01  0.40058239380E+03  0.11782391467E+02  0.40078003213E+03  0.25500000920E-02 0.  1.
</event>
<event>
 5   0  0.3860515E-03  0.8033447E+03  0.7818609E-02  0.9555188E-01
       -1   -1    0    0    0  501  0.00000000000E+00  0.00000000000E+00  0.20250817880E+03  0.20250817886E+03  0.50400001928E-02 0. -1.
        1   -1    0    0  501    0  0.00000000000E+00  0.00000000000E+00 -0.79671182741E+03  0.79671182743E+03  0.50400001928E-02 0.  1.
    10030    2    1    2    0    0  0.00000000000E+00  0.00000000000E+00 -0.59420364861E+03  0.99922000628E+03  0.80334466136E+03 0.  0.
        4    1    3    3  502    0 -0.26587594694E+03 -0.29951130759E+03 -0.33527743534E+03  0.52231179776E+03  0.12699999809E+01 0.  1.
       -4    1    3    3    0  502  0.26587594694E+03  0.29951130759E+03 -0.25892621328E+03  0.47690820852E+03  0.12699999809E+01 0. -1.
</event>
<event>
 5   0  0.6153659E-03  0.8029522E+03  0.7818609E-02  0.9555754E-01
       -2   -1    0    0    0  501  0.00000000000E+00  0.00000000000E+00  0.24665876068E+03  0.24665876069E+03  0.25500000920E-02 0.  1.
        2   -1    0    0  501    0  0.00000000000E+00  0.00000000000E+00 -0.65346571661E+03  0.65346571662E+03  0.25500000920E-02 0. -1.
    10030    2    1    2    0    0  0.00000000000E+00  0.00000000000E+00 -0.40680695593E+03  0.90012447731E+03  0.80295216250E+03 0.  0.
        2    1    3    3  502    0 -0.85101516000E+02  0.14520133678E+03 -0.61201037082E+03  0.63473017120E+03  0.25500000920E-02 0. -1.
       -2    1    3    3    0  502  0.85101516000E+02 -0.14520133678E+03  0.20520341489E+03  0.26539430611E+03  0.25500000920E-02 0.  1.
</event>
<event>
 5   0  0.6337108E-03  0.8023521E+03  0.7818609E-02  0.9556619E-01
        2   -1    0    0  501    0  0.00000000000E+00  0.00000000000E+00  0.14353121221E+04  0.14353121221E+04  0.25500000920E-02 0.  1.
       -2   -1    0    0    0  501  0.00000000000E+00  0.00000000000E+00 -0.11213046628E+03  0.11213046631E+03  0.25500000920E-02 0. -1.
    10030    2    1    2    0    0  0.00000000000E+00  0.00000000000E+00  0.13231816558E+04  0.15474425884E+04  0.80235208614E+03 0.  0.
        4    1    3    3  502    0  0.17245249853E+03 -0.69741183830E+02  0.13471022261E+04  0.13598859208E+04  0.12699999809E+01 0.  1.
       -4    1    3    3    0  502 -0.17245249853E+03  0.69741183830E+02 -0.23920570364E+02  0.18755666759E+03  0.12699999809E+01 0. -1.
</event>
<event>
 5   0  0.3671128E-03  0.8004396E+03  0.7818609E-02  0.9559381E-01
       -1   -1    0    0    0  501  0.00000000000E+00  0.00000000000E+00  0.27905854663E+03  0.27905854668E+03  0.50400001928E-02 0.  1.
        1   -1    0    0  501    0  0.00000000000E+00  0.00000000000E+00 -0.57398664479E+03  0.57398664481E+03  0.50400001928E-02 0. -1.
    10030    2    1    2    0    0  0.00000000000E+00  0.00000000000E+00 -0.29492809816E+03  0.85304519149E+03  0.80043957651E+03 0.  0.
        2    1    3    3  502    0  0.35324009584E+03 -0.27744577356E+02 -0.34577850872E+03  0.49508696608E+03  0.25500000920E-02 0. -1.
       -2    1    3    3    0  502 -0.35324009584E+03  0.27744577356E+02  0.50850410565E+02  0.35795822541E+03  0.25500000920E-02 0.  1.
</event>
<event>
 5   0  0.3714448E-03  0.8061948E+03  0.7818609E-02  0.9551093E-01
       -1   -1    0    0    0  501  0.00000000000E+00  0.00000000000E+00  0.32524064036E+03  0.32524064040E+03  0.50400001928E-02 0.  1.
        1   -1    0    0  501    0  0.00000000000E+00  0.00000000000E+00 -0.49959166203E+03  0.49959166206E+03  0.50400001928E-02 0. -1.
    10030    2    1    2    0    0  0.00000000000E+00  0.00000000000E+00 -0.17435102167E+03  0.82483230246E+03  0.80619479558E+03 0.  0.
        1    1    3    3  502    0  0.53153509832E+02 -0.42834428232E+02  0.31928364452E+03  0.32649981552E+03  0.50400001928E-02 0.  1.
       -1    1    3    3    0  502 -0.53153509832E+02  0.42834428232E+02 -0.49363466619E+03  0.49833248694E+03  0.50400001928E-02 0. -1.
</event>
<event>
 5   0  0.3860515E-03  0.7994123E+03  0.7818609E-02  0.9560868E-01
        1   -1    0    0  501    0  0.00000000000E+00  0.00000000000E+00  0.26945925397E+03  0.26945925401E+03  0.50400001928E-02 0. -1.
       -1   -1    0    0    0  501  0.00000000000E+00  0.00000000000E+00 -0.59290970524E+03  0.59290970526E+03  0.50400001928E-02 0.  1.
    10030    2    1    2    0    0  0.00000000000E+00  0.00000000000E+00 -0.32345045127E+03  0.86236895927E+03  0.79941230131E+03 0.  0.
        4    1    3    3  502    0  0.20535683455E+03  0.23095485008E+03 -0.43516709329E+03  0.53374486813E+03  0.12699999809E+01 0.  1.
       -4    1    3    3    0  502 -0.20535683455E+03 -0.23095485008E+03  0.11171664202E+03  0.32862409114E+03  0.12699999809E+01 0. -1.
</event>
<event>
 5   0  0.6337108E-03  0.8098380E+03  0.7818609E-02  0.9545885E-01
        2   -1    0    0  501    0  0.00000000000E+00  0.00000000000E+00  0.37482079584E+03  0.37482079585E+03  0.25500000920E-02 0.  1.
       -2   -1    0    0    0  501  0.00000000000E+00  0.00000000000E+00 -0.43743414599E+03  0.43743414600E+03  0.25500000920E-02 0. -1.
    10030    2    1    2    0    0  0.00000000000E+00  0.00000000000E+00 -0.62613350144E+02  0.81225494185E+03  0.80983804488E+03 0.  0.
        4    1    3    3  502    0  0.22517900717E+03  0.33650798258E+03 -0.27475035249E+02  0.40583210577E+03  0.12699999809E+01 0.  1.
       -4    1    3    3    0  502 -0.22517900717E+03 -0.33650798258E+03 -0.35138314896E+02  0.40642283608E+03  0.12699999809E+01 0. -1.
</event>
<event>
 5   0  0.3627496E-03  0.7968626E+03  0.7818609E-02  0.9564569E-01
       -1   -1    0    0    0  501  0.00000000000E+00  0.00000000000E+00  0.76785871017E+02  0.76785871182E+02  0.50400001928E-02 0.  1.
        1   -1    0    0  501    0  0.00000000000E+00  0.00000000000E+00 -0.20674052851E+04  0.20674052851E+04  0.50400001928E-02 0. -1.
    10030    2    1    2    0    0  0.00000000000E+00  0.00000000000E+00 -0.19906194141E+04  0.21441911563E+04  0.79686263746E+03 0.  0.
        3    1    3    3  502    0  0.26222748974E+03  0.24711544466E+03 -0.14528883129E+04  0.14969013860E+04  0.10100000352E+00 0. -1.
       -3    1    3    3    0  502 -0.26222748974E+03 -0.24711544466E+03 -0.53773110113E+03  0.64728977027E+03  0.10100000352E+00 0.  1.
</event>
<event>
 5   0  0.3714448E-03  0.8020038E+03  0.7818609E-02  0.9557121E-01
        1   -1    0    0  501    0  0.00000000000E+00  0.00000000000E+00  0.39228927273E+03  0.39228927276E+03  0.50400001928E-02 0. -1.
       -1   -1    0    0    0  501  0.00000000000E+00  0.00000000000E+00 -0.40990803045E+03  0.40990803048E+03  0.50400001928E-02 0.  1.
    10030    2    1    2    0    0  0.00000000000E+00  0.00000000000E+00 -0.17618757719E+02  0.80219730324E+03  0.80200379843E+03 0.  0.
        1    1    3    3  502    0  0.29339452644E+03  0.10738476798E+03  0.24262885046E+03  0.39557628296E+03  0.50400001928E-02 0. -1.
       -1    1    3    3    0  502 -0.29339452644E+03 -0.10738476798E+03 -0.26024760818E+03  0.40662102027E+03  0.50400001928E-02 0.  1.
</event>
<event>
 5   0  0.3714448E-03  0.7993054E+03  0.7818609E-02  0.9561023E-01
        1   -1    0    0  501    0  0.00000000000E+00  0.00000000000E+00  0.12825788853E+04  0.12825788853E+04  0.50400001928E-02 0.  1.
       -1   -1    0    0    0  501  0.00000000000E+00  0.00000000000E+00 -0.12453213359E+03  0.12453213369E+03  0.50400001928E-02 0. -1.
    10030    2    1    2    0    0  0.00000000000E+00  0.00000000000E+00  0.11580467517E+04  0.14071110190E+04  0.79930541135E+03 0.  0.
        1    1    3    3  502    0 -0.13323692017E+03 -0.25450822580E+03  0.89906816921E+02  0.30101453396E+03  0.50400001928E-02 0. -1.
       -1    1    3    3    0  502  0.13323692017E+03  0.25450822580E+03  0.10681399347E+04  0.11060964850E+04  0.50400001928E-02 0.  1.
</event>
<event>
 5   0  0.6337108E-03  0.8016612E+03  0.7818609E-02  0.9557616E-01
        2   -1    0    0  501    0  0.00000000000E+00  0.00000000000E+00  0.34193891548E+03  0.34193891548E+03  0.25500000920E-02 0.  1.
       -2   -1    0    0    0  501  0.00000000000E+00  0.00000000000E+00 -0.46986507187E+03  0.46986507188E+03  0.25500000920E-02 0. -1.
    10030    2    1    2    0    0  0.00000000000E+00  0.00000000000E+00 -0.12792615639E+03  0.81180398736E+03  0.80166115810E+03 0.  0.
        4    1    3    3  502    0 -0.35043979433E+03 -0.11760923772E+03 -0.22091946856E+03  0.43063558461E+03  0.12699999809E+01 0. -1.
       -4    1    3    3    0  502  0.35043979433E+03  0.11760923772E+03  0.92993312171E+02  0.38116840275E+03  0.12699999809E+01 0.  1.
</event>
<event>
 5   0  0.6536209E-03  0.8055808E+03  0.7818609E-02  0.9551974E-01
       -2   -1    0    0    0  501  0.00000000000E+00  0.00000000000E+00  0.14761087913E+03  0.14761087915E+03  0.25500000920E-02 0. -1.
        2   -1    0    0  501    0  0.00000000000E+00  0.00000000000E+00 -0.10991066781E+04  0.10991066781E+04  0.25500000920E-02 0.  1.
    10030    2    1    2    0    0  0.00000000000E+00  0.00000000000E+00 -0.95149579899E+03  0.12467175573E+04  0.80558079181E+03 0.  0.
        3    1    3    3  502    0  0.25151393973E+03  0.19245414478E+03 -0.90577944926E+02  0.32939677295E+03  0.10100000352E+00 0. -1.
       -3    1    3    3    0  502 -0.25151393973E+03 -0.19245414478E+03 -0.86091785406E+03  0.91732078433E+03  0.10100000352E+00 0.  1.
</event>
<event>
 5   0  0.2478000E-03  0.7867855E+03  0.7818609E-02  0.9579344E-01
        3   -1    0    0  501    0  0.00000000000E+00  0.00000000000E+00  0.39661219954E+03  0.39661221240E+03  0.10100000352E+00 0. -1.
       -3   -1    0    0    0  501  0.00000000000E+00  0.00000000000E+00 -0.39019941668E+03  0.39019942975E+03  0.10100000352E+00 0.  1.
    10030    2    1    2    0    0  0.00000000000E+00  0.00000000000E+00  0.64127828610E+01  0.78681164216E+03  0.78678550854E+03 0.  0.
        3    1    3    3  502    0 -0.20948115098E+03  0.60361798541E+02  0.33068016634E+03  0.39607484388E+03  0.10100000352E+00 0. -1.
       -3    1    3    3    0  502  0.20948115098E+03 -0.60361798541E+02 -0.32426738348E+03  0.39073679828E+03  0.10100000352E+00 0.  1.
</event>
<event>
 5   0  0.5813850E-03  0.7958268E+03  0.7818609E-02  0.9566077E-01
        2   -1    0    0  501    0  0.00000000000E+00  0.00000000000E+00  0.44897034064E+03  0.44897034065E+03  0.25500000920E-02 0. -1.
       -2   -1    0    0    0  501  0.00000000000E+00  0.00000000000E+00 -0.35266266159E+03  0.35266266159E+03  0.25500000920E-02 0.  1.
    10030    2    1    2    0    0  0.00000000000E+00  0.00000000000E+00  0.96307679060E+02  0.80163300225E+03  0.79582680355E+03 0.  0.
        5    1    3    3  502    0 -0.97249696081E+02  0.27395386343E+01  0.43677683428E+03  0.44750542055E+03  0.46999998093E+01 0. -1.
       -5    1    3    3    0  502  0.97249696081E+02 -0.27395386343E+01 -0.34046915522E+03  0.35412758169E+03  0.46999998093E+01 0.  1.
</event>
<event>
 5   0  0.6536209E-03  0.7988255E+03  0.7818609E-02  0.9561719E-01
        2   -1    0    0  501    0  0.00000000000E+00  0.00000000000E+00  0.77672717912E+03  0.77672717913E+03  0.25500000920E-02 0. -1.
       -2   -1    0    0    0  501  0.00000000000E+00  0.00000000000E+00 -0.20538814108E+03  0.20538814110E+03  0.25500000920E-02 0.  1.
    10030    2    1    2    0    0  0.00000000000E+00  0.00000000000E+00  0.57133903804E+03  0.98211532023E+03  0.79882551651E+03 0.  0.
        3    1    3    3  502    0 -0.27484515157E+03 -0.14635867830E+03 -0.21864393756E+02  0.31215185723E+03  0.10100000352E+00 0.  1.
       -3    1    3    3    0  502  0.27484515157E+03  0.14635867830E+03  0.59320343180E+03  0.66996346300E+03  0.10100000352E+00 0. -1.
</event>
<event>
 5   0  0.3627496E-03  0.7940625E+03  0.7818609E-02  0.9568651E-01
        1   -1    0    0  501    0  0.00000000000E+00  0.00000000000E+00  0.24030956498E+03  0.24030956503E+03  0.50400001928E-02 0.  1.
       -1   -1    0    0    0  501  0.00000000000E+00  0.00000000000E+00 -0.65596141354E+03  0.65596141356E+03  0.50400001928E-02 0. -1.
    10030    2    1    2    0    0  0.00000000000E+00  0.00000000000E+00 -0.41565184856E+03  0.89627097859E+03  0.79406247100E+03 0.  0.
        3    1    3    3  502    0 -0.23269741318E+01 -0.57119613704E+02 -0.65129169504E+03  0.65379579939E+03  0.10100000352E+00 0. -1.
       -3    1    3    3    0  502  0.23269741318E+01  0.57119613704E+02  0.23563984648E+03  0.24247517920E+03  0.10100000352E+00 0.  1.
</event>
<event>
 5   0  0.5813850E-03  0.7946766E+03  0.7818609E-02  0.9567755E-01
        2   -1    0    0  501    0  0.00000000000E+00  0.00000000000E+00  0.10499131301E+04  0.10499131301E+04  0.25500000920E-02 0.  1.
       -2   -1    0    0    0  501  0.00000000000E+00  0.00000000000E+00 -0.15037218718E+03  0.15037218720E+03  0.25500000920E-02 0. -1.
    10030    2    1    2    0    0  0.00000000000E+00  0.00000000000E+00  0.89954094288E+03  0.12002853173E+04  0.79467662286E+03 0.  0.
        5    1    3    3  502    0 -0.36465433975E+03 -0.54851934921E+02  0.67315822756E+03  0.76755821382E+03  0.46999998093E+01 0. -1.
       -5    1    3    3    0  502  0.36465433975E+03  0.54851934921E+02  0.22638271531E+03  0.43272710344E+03  0.46999998093E+01 0.  1.
</event>
<event>
 5   0  0.6153659E-03  0.7979499E+03  0.7818609E-02  0.9562989E-01
        2   -1    0    0  501    0  0.00000000000E+00  0.00000000000E+00  0.35622413264E+03  0.35622413265E+03  0.25500000920E-02 0. -1.
       -2   -1    0    0    0  501  0.00000000000E+00  0.00000000000E+00 -0.44685632928E+03  0.44685632929E+03  0.25500000920E-02 0.  1.
    10030    2    1    2    0    0  0.00000000000E+00  0.00000000000E+00 -0.90632196642E+02  0.80308046194E+03  0.79794989397E+03 0.  0.
        2    1    3    3  502    0  0.36102603523E+03  0.14904617926E+03  0.36610286581E+02  0.39229437258E+03  0.25500000920E-02 0. -1.
       -2    1    3    3    0  502 -0.36102603523E+03 -0.14904617926E+03 -0.12724248322E+03  0.41078608936E+03  0.25500000920E-02 0.  1.
</event>
<event>
 5   0  0.5813850E-03  0.8010446E+03  0.7818609E-02  0.9558506E-01
       -2   -1    0    0    0  501  0.00000000000E+00  0.00000000000E+00  0.99376005129E+02  0.99376005162E+02  0.25500000920E-02 0.  1.
        2   -1    0    0  501    0  0.00000000000E+00  0.00000000000E+00 -0.16142539406E+04  0.16142539406E+04  0.25500000920E-02 0. -1.
    10030    2    1    2    0    0  0.00000000000E+00  0.00000000000E+00 -0.15148779355E+04  0.17136299458E+04  0.80104458781E+03 0.  0.
        5    1    3    3  502    0  0.11346103831E+03  0.23066217595E+03 -0.10045214815E+03  0.27602748177E+03  0.46999998093E+01 0.  1.
       -5    1    3    3    0  502 -0.11346103831E+03 -0.23066217595E+03 -0.14144257874E+04  0.14376024640E+04  0.46999998093E+01 0. -1.
</event>
<event>
 5   0  0.3714448E-03  0.7939825E+03  0.7818609E-02  0.9568768E-01
        1   -1    0    0  501    0  0.00000000000E+00  0.00000000000E+00  0.46041761725E+03  0.46041761728E+03  0.50400001928E-02 0. -1.
       -1   -1    0    0    0  501  0.00000000000E+00  0.00000000000E+00 -0.34230241710E+03  0.34230241714E+03  0.50400001928E-02 0.  1.
    10030    2    1    2    0    0  0.00000000000E+00  0.00000000000E+00  0.11811520016E+03  0.80272003442E+03  0.79398252698E+03 0.  0.
        1    1    3    3  502    0 -0.88191095131E+02 -0.15388253410E+03 -0.30001926078E+03  0.34852411743E+03  0.50400001928E-02 0.  1.
       -1    1    3    3    0  502  0.88191095131E+02  0.15388253410E+03  0.41813446094E+03  0.45419591699E+03  0.50400001928E-02 0. -1.
</event>
<event>
 5   0  0.2478000E-03  0.8051630E+03  0.7818609E-02  0.9552574E-01
       -3   -1    0    0    0  501  0.00000000000E+00  0.00000000000E+00  0.34911800389E+03  0.34911801850E+03  0.10100000352E+00 0.  1.
        3   -1    0    0  501    0  0.00000000000E+00  0.00000000000E+00 -0.46423226209E+03  0.46423227307E+03  0.10100000352E+00 0. -1.
    10030    2    1    2    0    0  0.00000000000E+00  0.00000000000E+00 -0.11511425820E+03  0.81335029157E+03  0.80516296758E+03 0.  0.
        3    1    3    3  502    0 -0.19895661804E+03 -0.59340297408E+02  0.29086584788E+03  0.35736250282E+03  0.10100000352E+00 0.  1.
       -3    1    3    3    0  502  0.19895661804E+03  0.59340297408E+02 -0.40598010608E+03  0.45598778875E+03  0.10100000352E+00 0. -1.
</event>
<event>
 5   0  0.6153659E-03  0.8009123E+03  0.7818609E-02  0.9558697E-01
       -2   -1    0    0    0  501  0.00000000000E+00  0.00000000000E+00  0.31003366079E+03  0.31003366080E+03  0.25500000920E-02 0. -1.
        2   -1    0    0  501    0  0.00000000000E+00  0.00000000000E+00 -0.51725075599E+03  0.51725075599E+03  0.25500000920E-02 0.  1.
    10030    2    1    2    0    0  0.00000000000E+00  0.00000000000E+00 -0.20721709519E+03  0.82728441679E+03  0.80091234335E+03 0.  0.
        2    1    3    3  502    0  0.38793926379E+03 -0.44544557395E+02 -0.11892635029E+02  0.39066932918E+03  0.25500000920E-02 0. -1.
       -2    1    3    3    0  502 -0.38793926379E+03  0.44544557395E+02 -0.19532446016E+03  0.43661508761E+03  0.25500000920E-02 0.  1.
</event>
<event>
 5   0  0.3753450E-03  0.8045903E+03  0.7818609E-02  0.9553396E-01
       -1   -1    0    0    0  501  0.00000000000E+00  0.00000000000E+00  0.29669176353E+03  0.29669176358E+03  0.50400001928E-02 0.  1.
        1   -1    0    0  501    0  0.00000000000E+00  0.00000000000E+00 -0.54548664352E+03  0.54548664354E+03  0.50400001928E-02 0. -1.
    10030    2    1    2    0    0  0.00000000000E+00  0.00000000000E+00 -0.24879487998E+03  0.84217840711E+03  0.80459031631E+03 0.  0.
        5    1    3    3  502    0 -0.11783574536E+03 -0.79985236816E+02 -0.51818625682E+03  0.53742161079E+03  0.46999998093E+01 0. -1.
       -5    1    3    3    0  502  0.11783574536E+03  0.79985236816E+02  0.26939137684E+03  0.30475679632E+03  0.46999998093E+01 0.  1.
</event>
<event>
 5   0  0.3627496E-03  0.8015648E+03  0.7818609E-02  0.9557755E-01
        1   -1    0    0  501    0  0.00000000000E+00  0.00000000000E+00  0.56798514799E+03  0.56798514802E+03  0.50400001928E-02 0. -1.
       -1   -1    0    0    0  501  0.00000000000E+00  0.00000000000E+00 -0.28280056403E+03  0.28280056407E+03  0.50400001928E-02 0.  1.
    10030    2    1    2    0    0  0.00000000000E+00  0.00000000000E+00  0.28518458396E+03  0.85078571209E+03  0.80156477029E+03 0.  0.
        3    1    3    3  502    0 -0.28658529079E+01 -0.42315394931E+02 -0.28041192404E+03  0.28360123961E+03  0.10100000352E+00 0.  1.
       -3    1    3    3    0  502  0.28658529079E+01  0.42315394931E+02  0.56559650800E+03  0.56718447248E+03  0.10100000352E+00 0. -1.
</event>
<event>
 5   0  0.6337108E-03  0.8027941E+03  0.7818609E-02  0.9555981E-01
       -2   -1    0    0    0  501  0.00000000000E+00  0.00000000000E+00  0.79890996214E+02  0.79890996255E+02  0.25500000920E-02 0. -1.
        2   -1    0    0  501    0  0.00000000000E+00  0.00000000000E+00 -0.20167430221E+04  0.20167430221E+04  0.25500000920E-02 0.  1.
    10030    2    1    2    0    0  0.00000000000E+00  0.00000000000E+00 -0.19368520259E+04  0.20966340183E+04  0.80279414344E+03 0.  0.
        4    1    3    3  502    0 -0.27854298648E+03  0.20578715344E+02 -0.17213318731E+04  0.17438448065E+04  0.12699999809E+01 0.  1.
       -4    1    3    3    0  502  0.27854298648E+03 -0.20578715344E+02 -0.21552015272E+03  0.35278921181E+03  0.12699999809E+01 0. -1.
</event>
<event>
 5   0  0.3627496E-03  0.8058858E+03  0.7818609E-02  0.9551537E-01
        1   -1    0    0  501    0  0.00000000000E+00  0.00000000000E+00  0.44661872711E+03  0.44661872714E+03  0.50400001928E-02 0.  1.
       -1   -1    0    0    0  501  0.00000000000E+00  0.00000000000E+00 -0.36353823758E+03  0.36353823762E+03  0.50400001928E-02 0. -1.
    10030    2    1    2    0    0  0.00000000000E+00  0.00000000000E+00  0.83080489529E+02  0.81015696476E+03  0.80588581065E+03 0.  0.
        3    1    3    3  502    0  0.96286779807E+02  0.32417403193E+03 -0.17871688551E+03  0.38249141469E+03  0.10100000352E+00 0. -1.
       -3    1    3    3    0  502 -0.96286779807E+02 -0.32417403193E+03  0.26179737504E+03  0.42766555007E+03  0.10100000352E+00 0.  1.
</event>
<event>
 5   0  0.3860515E-03  0.8015857E+03  0.7818609E-02  0.9557725E-01
       -1   -1    0    0    0  501  0.00000000000E+00  0.00000000000E+00  0.21395612563E+03  0.21395612569E+03  0.50400001928E-02 0. -1.
        1   -1    0    0  501    0  0.00000000000E+00  0.00000000000E+00 -0.75078429056E+03  0.75078429058E+03  0.50400001928E-02 0.  1.
    10030    2    1    2    0    0  0.00000000000E+00  0.00000000000E+00 -0.53682816493E+03  0.96474041626E+03  0.80158567359E+03 0.  0.
        4    1    3    3  502    0  0.27799734072E+03  0.25938098875E+03 -0.42099460114E+03  0.56727337841E+03  0.12699999809E+01 0.  1.
       -4    1    3    3    0  502 -0.27799734072E+03 -0.25938098875E+03 -0.11583356380E+03  0.39746703785E+03  0.12699999809E+01 0. -1.
</event>
<event>
 5   0  0.3627496E-03  0.8022340E+03  0.7818609E-02  0.9556789E-01
        1   -1    0    0  501    0  0.00000000000E+00  0.00000000000E+00  0.10256778430E+04  0.10256778430E+04  0.50400001928E-02 0. -1.
       -1   -1    0    0    0  501  0.00000000000E+00  0.00000000000E+00 -0.15686683754E+03  0.15686683762E+03  0.50400001928E-02 0.  1.
    10030    2    1    2    0    0  0.00000000000E+00  0.00000000000E+00  0.86881100541E+03  0.11825446806E+04  0.80223397987E+03 0.  0.
        3    1    3    3  502    0 -0.37166489488E+03 -0.15080833283E+03  0.42834889487E+03  0.58682257393E+03  0.10100000352E+00 0. -1.
       -3    1    3    3    0  502  0.37166489488E+03  0.15080833283E+03  0.44046211053E+03  0.59572210665E+03  0.10100000352E+00 0.  1.
</event>
<event>
 5   0  0.5813850E-03  0.7922132E+03  0.7818609E-02  0.9571357E-01
        2   -1    0    0  501    0  0.00000000000E+00  0.00000000000E+00  0.72069269327E+03  0.72069269328E+03  0.25500000920E-02 0.  1.
       -2   -1    0    0    0  501  0.00000000000E+00  0.00000000000E+00 -0.21770782111E+03  0.21770782112E+03  0.25500000920E-02 0. -1.
    10030    2    1    2    0    0  0.00000000000E+00  0.00000000000E+00  0.50298487216E+03  0.93840051440E+03  0.79221319340E+03 0.  0.
        5    1    3    3  502    0 -0.19878090648E+03  0.34157717367E+03  0.28259693810E+03  0.48587234308E+03  0.46999998093E+01 0. -1.
       -5    1    3    3    0  502  0.19878090648E+03 -0.34157717367E+03  0.22038793406E+03  0.45252817131E+03  0.46999998093E+01 0.  1.
</event>
<event>
 5   0  0.3860515E-03  0.8009434E+03  0.7818609E-02  0.9558653E-01
       -1   -1    0    0    0  501  0.00000000000E+00  0.00000000000E+00  0.11808549460E+03  0.11808549471E+03  0.50400001928E-02 0. -1.
        1   -1    0    0  501    0  0.00000000000E+00  0.00000000000E+00 -0.13581479706E+04  0.13581479707E+04  0.50400001928E-02 0.  1.
    10030    2    1    2    0    0  0.00000000000E+00  0.00000000000E+00 -0.12400624760E+04  0.14762334654E+04  0.80094338113E+03 0.  0.
        4    1    3    3  502    0  0.39381333734E+02 -0.38348563272E+03 -0.81993815562E+03  0.90604211375E+03  0.12699999809E+01 0. -1.
       -4    1    3    3    0  502 -0.39381333734E+02  0.38348563272E+03 -0.42012432043E+03  0.57019135162E+03  0.12699999809E+01 0.  1.
</event>
<event>
 5   0  0.3753450E-03  0.8016098E+03  0.7818609E-02  0.9557690E-01
        1   -1    0    0  501    0  0.00000000000E+00  0.00000000000E+00  0.31533579566E+03  0.31533579570E+03  0.50400001928E-02 0. -1.
       -1   -1    0    0    0  501  0.00000000000E+00  0.00000000000E+00 -0.50943968108E+03  0.50943968110E+03  0.50400001928E-02 0.  1.
    10030    2    1    2    0    0  0.00000000000E+00  0.00000000000E+00 -0.19410388542E+03  0.82477547680E+03  0.80160979834E+03 0.  0.
        5    1    3    3  502    0  0.29703137715E+03  0.20648557954E+03 -0.27454385113E+03  0.45415894769E+03  0.46999998093E+01 0. -1.
       -5    1    3    3    0  502 -0.29703137715E+03 -0.20648557954E+03  0.80439965710E+02  0.37061652911E+03  0.46999998093E+01 0.  1.
</event>
<event>
 5   0  0.5813850E-03  0.8027747E+03  0.7818609E-02  0.9556010E-01
       -2   -1    0    0    0  501  0.00000000000E+00  0.00000000000E+00  0.38428327392E+03  0.38428327393E+03  0.25500000920E-02 0. -1.
        2   -1    0    0  501    0  0.00000000000E+00  0.00000000000E+00 -0.41925269743E+03  0.41925269744E+03  0.25500000920E-02 0.  1.
    10030    2    1    2    0    0  0.00000000000E+00  0.00000000000E+00 -0.34969423506E+02  0.80353597137E+03  0.80277468614E+03 0.  0.
        5    1    3    3  502    0 -0.13825277878E+03 -0.62521032187E+02 -0.38941076048E+03  0.41795399350E+03  0.46999998093E+01 0.  1.
       -5    1    3    3    0  502  0.13825277878E+03  0.62521032187E+02  0.35444133697E+03  0.38558197787E+03  0.46999998093E+01 0. -1.
</event>
<event>
 5   0  0.3753450E-03  0.7921059E+03  0.7818609E-02  0.9571514E-01
        1   -1    0    0  501    0  0.00000000000E+00  0.00000000000E+00  0.20358180132E+03  0.20358180138E+03  0.50400001928E-02 0.  1.
       -1   -1    0    0    0  501  0.00000000000E+00  0.00000000000E+00 -0.77049103892E+03  0.77049103894E+03  0.50400001928E-02 0. -1.
    10030    2    1    2    0    0  0.00000000000E+00  0.00000000000E+00 -0.56690923760E+03  0.97407284032E+03  0.79210593646E+03 0.  0.
        5    1    3    3  502    0  0.34759320539E+03 -0.14672732890E+03 -0.13544798550E+03  0.40089673515E+03  0.46999998093E+01 0.  1.
       -5    1    3    3    0  502 -0.34759320539E+03  0.14672732890E+03 -0.43146125210E+03  0.57317610517E+03  0.46999998093E+01 0. -1.
</event>
<event>
 5   0  0.6337108E-03  0.8000825E+03  0.7818609E-02  0.9559898E-01
        2   -1    0    0  501    0  0.00000000000E+00  0.00000000000E+00  0.44385503876E+03  0.44385503877E+03  0.25500000920E-02 0. -1.
       -2   -1    0    0    0  501  0.00000000000E+00  0.00000000000E+00 -0.36055242280E+03  0.36055242280E+03  0.25500000920E-02 0.  1.
    10030    2    1    2    0    0  0.00000000000E+00  0.00000000000E+00  0.83302615969E+02  0.80440746158E+03  0.80008251975E+03 0.  0.
        4    1    3    3  502    0  0.26753023447E+03  0.95838464272E+02  0.32472961041E+03  0.43151867905E+03  0.12699999809E+01 0. -1.
       -4    1    3    3    0  502 -0.26753023447E+03 -0.95838464272E+02 -0.24142699444E+03  0.37288878253E+03  0.12699999809E+01 0.  1.
</event>
<event>
 5   0  0.3671128E-03  0.8040631E+03  0.7818609E-02  0.9554154E-01
       -1   -1    0    0    0  501  0.00000000000E+00  0.00000000000E+00  0.31846907068E+03  0.31846907072E+03  0.50400001928E-02 0.  1.
        1   -1    0    0  501    0  0.00000000000E+00  0.00000000000E+00 -0.50751985818E+03  0.50751985821E+03  0.50400001928E-02 0. -1.
    10030    2    1    2    0    0  0.00000000000E+00  0.00000000000E+00 -0.18905078751E+03  0.82598892893E+03  0.80406312591E+03 0.  0.
        2    1    3    3  502    0  0.30376177337E+03 -0.93202975674E+02 -0.34755770006E+03  0.47090802129E+03  0.25500000920E-02 0. -1.
       -2    1    3    3    0  502 -0.30376177337E+03  0.93202975674E+02  0.15850691255E+03  0.35508090764E+03  0.25500000920E-02 0.  1.
</event>
<event>
 5   0  0.3671128E-03  0.7945816E+03  0.7818609E-02  0.9567893E-01
        1   -1    0    0  501    0  0.00000000000E+00  0.00000000000E+00  0.48088041465E+03  0.48088041468E+03  0.50400001928E-02 0. -1.
       -1   -1    0    0    0  501  0.00000000000E+00  0.00000000000E+00 -0.32823124504E+03  0.32823124507E+03  0.50400001928E-02 0.  1.
    10030    2    1    2    0    0  0.00000000000E+00  0.00000000000E+00  0.15264916962E+03  0.80911165976E+03  0.79458159365E+03 0.  0.
        2    1    3    3  502    0 -0.22024157416E+03  0.32478749395E+03  0.13948059462E+03  0.41647101159E+03  0.25500000920E-02 0. -1.
       -2    1    3    3    0  502  0.22024157416E+03 -0.32478749395E+03  0.13168574996E+02  0.39264064816E+03  0.25500000920E-02 0.  1.
</event>
<event>
 5   0  0.3714448E-03  0.7988563E+03  0.7818609E-02  0.9561674E-01
        1   -1    0    0  501    0  0.00000000000E+00  0.00000000000E+00  0.15396449879E+03  0.15396449888E+03  0.50400001928E-02 0.  1.
       -1   -1    0    0    0  501  0.00000000000E+00  0.00000000000E+00 -0.10362313662E+04  0.10362313663E+04  0.50400001928E-02 0. -1.
    10030    2    1    2    0    0  0.00000000000E+00  0.00000000000E+00 -0.88226686745E+03  0.11901958651E+04  0.79885628994E+03 0.  0.
        1    1    3    3  502    0  0.43910532443E+02 -0.16202709946E+03 -0.98112196211E+03  0.99537993770E+03  0.50400001928E-02 0. -1.
       -1    1    3    3    0  502 -0.43910532443E+02  0.16202709946E+03  0.98855094656E+02  0.19481592743E+03  0.50400001928E-02 0.  1.
</event>
<event>
 5   0  0.6536209E-03  0.7964619E+03  0.7818609E-02  0.9565152E-01
       -2   -1    0    0    0  501  0.00000000000E+00  0.00000000000E+00  0.68271711601E+03  0.68271711601E+03  0.25500000920E-02 0. -1.
        2   -1    0    0  501    0  0.00000000000E+00  0.00000000000E+00 -0.23228932491E+03  0.23228932492E+03  0.25500000920E-02 0.  1.
    10030    2    1    2    0    0  0.00000000000E+00  0.00000000000E+00  0.45042779110E+03  0.91500644094E+03  0.79646192123E+03 0.  0.
        3    1    3    3  502    0  0.23869522389E+03  0.20087999710E+03 -0.59131751013E+02  0.31752914405E+03  0.10100000352E+00 0.  1.
       -3    1    3    3    0  502 -0.23869522389E+03 -0.20087999710E+03  0.50955954211E+03  0.59747729689E+03  0.10100000352E+00 0. -1.
</event>
<event>
 5   0  0.3671128E-03  0.8007814E+03  0.7818609E-02  0.9558887E-01
        1   -1    0    0  501    0  0.00000000000E+00  0.00000000000E+00  0.72962677321E+03  0.72962677323E+03  0.50400001928E-02 0.  1.
       -1   -1    0    0    0  501  0.00000000000E+00  0.00000000000E+00 -0.21971880509E+03  0.21971880515E+03  0.50400001928E-02 0. -1.
    10030    2    1    2    0    0  0.00000000000E+00  0.00000000000E+00  0.50990796812E+03  0.94934557838E+03  0.80078142538E+03 0.  0.
        2    1    3    3  502    0 -0.39193937506E+02  0.26164815179E+03 -0.10132862055E+03  0.28330797628E+03  0.25500000920E-02 0. -1.
       -2    1    3    3    0  502  0.39193937506E+02 -0.26164815179E+03  0.61123658867E+03  0.66603760210E+03  0.25500000920E-02 0.  1.
</event>
<event>
 5   0  0.2478000E-03  0.8077333E+03  0.7818609E-02  0.9548890E-01
       -3   -1    0    0    0  501  0.00000000000E+00  0.00000000000E+00  0.55619887126E+03  0.55619888043E+03  0.10100000352E+00 0. -1.
        3   -1    0    0  501    0  0.00000000000E+00  0.00000000000E+00 -0.29325526888E+03  0.29325528628E+03  0.10100000352E+00 0.  1.
    10030    2    1    2    0    0  0.00000000000E+00  0.00000000000E+00  0.26294360238E+03  0.84945416670E+03  0.80773327485E+03 0.  0.
        4    1    3    3  502    0  0.92326795222E+02  0.26860993330E+03 -0.17046605195E+03  0.33126397503E+03  0.12699999809E+01 0.  1.
       -4    1    3    3    0  502 -0.92326795222E+02 -0.26860993330E+03  0.43340965433E+03  0.51819019168E+03  0.12699999809E+01 0. -1.
</event>
<event>
 5   0  0.3671128E-03  0.8101160E+03  0.7818609E-02  0.9545489E-01
       -1   -1    0    0    0  501  0.00000000000E+00  0.00000000000E+00  0.40738109092E+03  0.40738109095E+03  0.50400001928E-02 0. -1.
        1   -1    0    0  501    0  0.00000000000E+00  0.00000000000E+00 -0.40274816284E+03  0.40274816287E+03  0.50400001928E-02 0.  1.
    10030    2    1    2    0    0  0.00000000000E+00  0.00000000000E+00  0.46329280825E+01  0.81012925382E+03  0.81011600643E+03 0.  0.
        2    1    3    3  502    0 -0.20928639325E+03  0.31039226932E+03  0.15700522665E+03  0.40594925354E+03  0.25500000920E-02 0. -1.
       -2    1    3    3    0  502  0.20928639325E+03 -0.31039226932E+03 -0.15237229856E+03  0.40418000028E+03  0.25500000920E-02 0.  1.
</event>
<event>
 5   0  0.5813850E-03  0.7981144E+03  0.7818609E-02  0.9562750E-01
       -2   -1    0    0    0  501  0.00000000000E+00  0.00000000000E+00  0.19644433205E+03  0.19644433206E+03  0.25500000920E-02 0.  1.
        2   -1    0    0  501    0  0.00000000000E+00  0.00000000000E+00 -0.81064524846E+03  0.81064524847E+03  0.25500000920E-02 0. -1.
    10030    2    1    2    0    0  0.00000000000E+00  0.00000000000E+00 -0.61420091642E+03  0.10070895805E+04  0.79811443884E+03 0.  0.
        5    1    3    3  502    0  0.98721642477E+02 -0.26730905998E+03 -0.65956738448E+03  0.71850631237E+03  0.46999998093E+01 0. -1.
       -5    1    3    3    0  502 -0.98721642477E+02  0.26730905998E+03  0.45366468062E+02  0.28858326817E+03  0.46999998093E+01 0.  1.
</event>
<event>
 5   0  0.6337108E-03  0.7976130E+03  0.7818609E-02  0.9563479E-01
       -2   -1    0    0    0  501  0.00000000000E+00  0.00000000000E+00  0.15622710853E+03  0.15622710855E+03  0.25500000920E-02 0. -1.
        2   -1    0    0  501    0  0.00000000000E+00  0.00000000000E+00 -0.10180475294E+04  0.10180475294E+04  0.25500000920E-02 0.  1.
    10030    2    1    2    0    0  0.00000000000E+00  0.00000000000E+00 -0.86182042083E+03  0.11742746379E+04  0.79761299356E+03 0.  0.
        4    1    3    3  502    0  0.16027071636E+03 -0.24557513868E+03 -0.32994567707E+02  0.29510016208E+03  0.12699999809E+01 0. -1.
       -4    1    3    3    0  502 -0.16027071636E+03  0.24557513868E+03 -0.82882585312E+03  0.87917447584E+03  0.12699999809E+01 0.  1.
</event>
<event>
 5   0  0.3671128E-03  0.8015448E+03  0.7818609E-02  0.9557784E-01
       -1   -1    0    0    0  501  0.00000000000E+00  0.00000000000E+00  0.33291661508E+03  0.33291661512E+03  0.50400001928E-02 0. -1.
        1   -1    0    0  501    0  0.00000000000E+00  0.00000000000E+00 -0.48245865811E+03  0.48245865813E+03  0.50400001928E-02 0.  1.
    10030    2    1    2    0    0  0.00000000000E+00  0.00000000000E+00 -0.14954204303E+03  0.81537527325E+03  0.80154476706E+03 0.  0.
        2    1    3    3  502    0 -0.18041506401E+03 -0.94665194957E+02 -0.42584540550E+03  0.47207563361E+03  0.25500000920E-02 0.  1.
       -2    1    3    3    0  502  0.18041506401E+03  0.94665194957E+02  0.27630336247E+03  0.34329963964E+03  0.25500000920E-02 0. -1.
</event>
<event>
 5   0  0.3714448E-03  0.8004161E+03  0.7818609E-02  0.9559415E-01
        1   -1    0    0  501    0  0.00000000000E+00  0.00000000000E+00  0.10580349865E+04  0.10580349865E+04  0.50400001928E-02 0.  1.
       -1   -1    0    0    0  501  0.00000000000E+00  0.00000000000E+00 -0.15138108816E+03  0.15138108824E+03  0.50400001928E-02 0. -1.
    10030    2    1    2    0    0  0.00000000000E+00  0.00000000000E+00  0.90665389835E+03  0.12094160748E+04  0.80041611084E+03 0.  0.
        1    1    3    3  502    0  0.17797822650E+03  0.26809104873E+03  0.81285682409E+03  0.87423410824E+03  0.50400001928E-02 0.  1.
       -1    1    3    3    0  502 -0.17797822650E+03 -0.26809104873E+03  0.93797074261E+02  0.33518196652E+03  0.50400001928E-02 0. -1.
</event>
<event>
 5   0  0.3627496E-03  0.8001964E+03  0.7818609E-02  0.9559733E-01
       -1   -1    0    0    0  501  0.00000000000E+00  0.00000000000E+00  0.54922464514E+03  0.54922464516E+03  0.50400001928E-02 0. -1.
        1   -1    0    0  501    0  0.00000000000E+00  0.00000000000E+00 -0.29146282220E+03  0.29146282224E+03  0.50400001928E-02 0.  1.
    10030    2    1    2    0    0  0.00000000000E+00  0.00000000000E+00  0.25776182294E+03  0.84068746740E+03  0.80019638870E+03 0.  0.
        3    1    3    3  502    0 -0.38277826052E+03  0.81643581524E+02  0.41651354771E+02  0.39359842058E+03  0.10100000352E+00 0.  1.
       -3    1    3    3    0  502  0.38277826052E+03 -0.81643581524E+02  0.21611046817E+03  0.44708904682E+03  0.10100000352E+00 0. -1.
</event>
<event>
 5   0  0.6153659E-03  0.7993017E+03  0.7818609E-02  0.9561028E-01
        2   -1    0    0  501    0  0.00000000000E+00  0.00000000000E+00  0.34785625651E+03  0.34785625652E+03  0.25500000920E-02 0.  1.
       -2   -1    0    0    0  501  0.00000000000E+00  0.00000000000E+00 -0.45915745072E+03  0.45915745072E+03  0.25500000920E-02 0. -1.
    10030    2    1    2    0    0  0.00000000000E+00  0.00000000000E+00 -0.11130119420E+03  0.80701370725E+03  0.79930167512E+03 0.  0.
        2    1    3    3  502    0 -0.11045456331E+03 -0.16785748548E+03  0.29314524128E+03  0.35540185492E+03  0.25500000920E-02 0.  1.
       -2    1    3    3    0  502  0.11045456331E+03  0.16785748548E+03 -0.40444643548E+03  0.45161185233E+03  0.25500000920E-02 0. -1.
</event>
<event>
 5   0  0.3714448E-03  0.8020983E+03  0.7818609E-02  0.9556985E-01
        1   -1    0    0  501    0  0.00000000000E+00  0.00000000000E+00  0.75262638113E+03  0.75262638115E+03  0.50400001928E-02 0.  1.
       -1   -1    0    0    0  501  0.00000000000E+00  0.00000000000E+00 -0.21370551448E+03  0.21370551453E+03  0.50400001928E-02 0. -1.
    10030    2    1    2    0    0  0.00000000000E+00  0.00000000000E+00  0.53892086666E+03  0.96633189568E+03  0.80209826835E+03 0.  0.
        1    1    3    3  502    0 -0.59652389304E+02 -0.37021608602E+03  0.98139146910E+02  0.38762049750E+03  0.50400001928E-02 0. -1.
       -1    1    3    3    0  502  0.59652389304E+02  0.37021608602E+03  0.44078171975E+03  0.57871139818E+03  0.50400001928E-02 0.  1.
</event>
<event>
 5   0  0.5813850E-03  0.8008470E+03  0.7818609E-02  0.9558792E-01
        2   -1    0    0  501    0  0.00000000000E+00  0.00000000000E+00  0.22861257184E+03  0.22861257185E+03  0.25500000920E-02 0.  1.
       -2   -1    0    0    0  501  0.00000000000E+00  0.00000000000E+00 -0.70135686149E+03  0.70135686150E+03  0.25500000920E-02 0. -1.
    10030    2    1    2    0    0  0.00000000000E+00  0.00000000000E+00 -0.47274428966E+03  0.92996943334E+03  0.80084704130E+03 0.  0.
        5    1    3    3  502    0  0.34732877475E+03  0.15026542884E+03 -0.84521635632E+02  0.38779243644E+03  0.46999998093E+01 0. -1.
       -5    1    3    3    0  502 -0.34732877475E+03 -0.15026542884E+03 -0.38822265402E+03  0.54217699690E+03  0.46999998093E+01 0.  1.
</event>
<event>
 5   0  0.3714448E-03  0.7906943E+03  0.7818609E-02  0.9573585E-01
        1   -1    0    0  501    0  0.00000000000E+00  0.00000000000E+00  0.85113092469E+03  0.85113092470E+03  0.50400001928E-02 0. -1.
       -1   -1    0    0    0  501  0.00000000000E+00  0.00000000000E+00 -0.18363728776E+03  0.18363728783E+03  0.50400001928E-02 0.  1.
    10030    2    1    2    0    0  0.00000000000E+00  0.00000000000E+00  0.66749363693E+03  0.10347682125E+04  0.79069431409E+03 0.  0.
        1    1    3    3  502    0  0.15133091049E+03  0.34218285801E+03  0.16661810028E+03  0.40957507756E+03  0.50400001928E-02 0.  1.
       -1    1    3    3    0  502 -0.15133091049E+03 -0.34218285801E+03  0.50087553665E+03  0.62519313498E+03  0.50400001928E-02 0. -1.
</event>
<event>
 5   0  0.6153659E-03  0.8058115E+03  0.7818609E-02  0.9551643E-01
       -2   -1    0    0    0  501  0.00000000000E+00  0.00000000000E+00  0.13261521428E+03  0.13261521431E+03  0.25500000920E-02 0.  1.
        2   -1    0    0  501    0  0.00000000000E+00  0.00000000000E+00 -0.12240905702E+04  0.12240905702E+04  0.25500000920E-02 0. -1.
    10030    2    1    2    0    0  0.00000000000E+00  0.00000000000E+00 -0.10914753559E+04  0.13567057845E+04  0.80581147493E+03 0.  0.
        2    1    3    3  502    0 -0.10927798777E+03  0.15783158731E+03 -0.11421415121E+04  0.11581622176E+04  0.25500000920E-02 0. -1.
       -2    1    3    3    0  502  0.10927798777E+03 -0.15783158731E+03  0.50666156213E+02  0.19854356690E+03  0.25500000920E-02 0.  1.
</event>
<event>
 5   0  0.3753450E-03  0.7957020E+03  0.7818609E-02  0.9566259E-01
        1   -1    0    0  501    0  0.00000000000E+00  0.00000000000E+00  0.86299948781E+03  0.86299948782E+03  0.50400001928E-02 0.  1.
       -1   -1    0    0    0  501  0.00000000000E+00  0.00000000000E+00 -0.18341308978E+03  0.18341308984E+03  0.50400001928E-02 0. -1.
    10030    2    1    2    0    0  0.00000000000E+00  0.00000000000E+00  0.67958639803E+03  0.10464125777E+04  0.79570196073E+03 0.  0.
        5    1    3    3  502    0  0.18710103399E+03 -0.21222872451E+03 -0.27995932971E+02  0.28434783398E+03  0.46999998093E+01 0. -1.
       -5    1    3    3    0  502 -0.18710103399E+03  0.21222872451E+03  0.70758233100E+03  0.76206474369E+03  0.46999998093E+01 0.  1.
</event>
<event>
 5   0  0.5813850E-03  0.7936507E+03  0.7818609E-02  0.9569253E-01
       -2   -1    0    0    0  501  0.00000000000E+00  0.00000000000E+00  0.11592692375E+04  0.11592692375E+04  0.25500000920E-02 0. -1.
        2   -1    0    0  501    0  0.00000000000E+00  0.00000000000E+00 -0.13583587869E+03  0.13583587871E+03  0.25500000920E-02 0.  1.
    10030    2    1    2    0    0  0.00000000000E+00  0.00000000000E+00  0.10234333588E+04  0.12951051162E+04  0.79365069275E+03 0.  0.
        5    1    3    3  502    0 -0.30113927982E+03  0.23362517545E+03  0.69183047800E+03  0.78988422490E+03  0.46999998093E+01 0. -1.
       -5    1    3    3    0  502  0.30113927982E+03 -0.23362517545E+03  0.33160288078E+03  0.50522089129E+03  0.46999998093E+01 0.  1.
</event>
<event>
 5   0  0.3714448E-03  0.8012203E+03  0.7818609E-02  0.9558253E-01
        1   -1    0    0  501    0  0.00000000000E+00  0.00000000000E+00  0.29984299848E+03  0.29984299852E+03  0.50400001928E-02 0.  1.
       -1   -1    0    0    0  501  0.00000000000E+00  0.00000000000E+00 -0.53524169608E+03  0.53524169610E+03  0.50400001928E-02 0. -1.
    10030    2    1    2    0    0  0.00000000000E+00  0.00000000000E+00 -0.23539869760E+03  0.83508469462E+03  0.80122025708E+03 0.  0.
        1    1    3    3  502    0 -0.15075698242E+03  0.63466466072E+01 -0.50449175729E+03  0.52657371836E+03  0.50400001928E-02 0. -1.
       -1    1    3    3    0  502  0.15075698242E+03 -0.63466466072E+01  0.26909305969E+03  0.30851097626E+03  0.50400001928E-02 0.  1.
</event>
<event>
 5   0  0.3671128E-03  0.8034635E+03  0.7818609E-02  0.9555017E-01
        1   -1    0    0  501    0  0.00000000000E+00  0.00000000000E+00  0.40719932840E+03  0.40719932843E+03  0.50400001928E-02 0.  1.
       -1   -1    0    0    0  501  0.00000000000E+00  0.00000000000E+00 -0.39633755412E+03  0.39633755415E+03  0.50400001928E-02 0. -1.
    10030    2    1    2    0    0  0.00000000000E+00  0.00000000000E+00  0.10861774276E+02  0.80353688258E+03  0.80346346745E+03 0.  0.
        2    1    3    3  502    0 -0.93920919153E+02  0.39003500097E+03  0.26407665781E+02  0.40205199397E+03  0.25500000920E-02 0.  1.
       -2    1    3    3    0  502  0.93920919153E+02 -0.39003500097E+03 -0.15545891505E+02  0.40148488861E+03  0.25500000920E-02 0. -1.
</event>
<event>
 5   0  0.6536209E-03  0.8001873E+03  0.7818609E-02  0.9559746E-01
       -2   -1    0    0    0  501  0.00000000000E+00  0.00000000000E+00  0.26695437527E+03  0.26695437528E+03  0.25500000920E-02 0. -1.
        2   -1    0    0  501    0  0.00000000000E+00  0.00000000000E+00 -0.59963407044E+03  0.59963407045E+03  0.25500000920E-02 0.  1.
    10030    2    1    2    0    0  0.00000000000E+00  0.00000000000E+00 -0.33267969517E+03  0.86658844573E+03  0.80018732475E+03 0.  0.
        3    1    3    3  502    0 -0.28646329794E+03 -0.10998789571E+03 -0.44438662673E+03  0.54003522338E+03  0.10100000352E+00 0.  1.
       -3    1    3    3    0  502  0.28646329794E+03  0.10998789571E+03  0.11170693156E+03  0.32655322235E+03  0.10100000352E+00 0. -1.
</event>
<event>
 5   0  0.3627496E-03  0.7988748E+03  0.7818609E-02  0.9561647E-01
        1   -1    0    0  501    0  0.00000000000E+00  0.00000000000E+00  0.12987266762E+04  0.12987266762E+04  0.50400001928E-02 0. -1.
       -1   -1    0    0    0  501  0.00000000000E+00  0.00000000000E+00 -0.12285129502E+03  0.12285129512E+03  0.50400001928E-02 0.  1.
    10030    2    1    2    0    0  0.00000000000E+00  0.00000000000E+00  0.11758753811E+04  0.14215779713E+04  0.79887484407E+03 0.  0.
        3    1    3    3  502    0  0.18748295608E+03  0.21721311773E+03  0.93452152674E+02  0.30176930323E+03  0.10100000352E+00 0.  1.
       -3    1    3    3    0  502 -0.18748295608E+03 -0.21721311773E+03  0.10824232285E+04  0.11198086681E+04  0.10100000352E+00 0. -1.
</event>
<event>
 5   0  0.6256781E-03  0.8030635E+03  0.7818609E-02  0.9555593E-01
       -2   -1    0    0    0  501  0.00000000000E+00  0.00000000000E+00  0.17166173920E+03  0.17166173922E+03  0.25500000920E-02 0.  1.
        2   -1    0    0  501    0  0.00000000000E+00  0.00000000000E+00 -0.93921782114E+03  0.93921782115E+03  0.25500000920E-02 0. -1.
    10030    2    1    2    0    0  0.00000000000E+00  0.00000000000E+00 -0.76755608194E+03  0.11108795604E+04  0.80306354588E+03 0.  0.
        1    1    3    3  502    0  0.22547242369E+02 -0.39678877894E+03 -0.46297799788E+03  0.61016255193E+03  0.50400001928E-02 0. -1.
       -1    1    3    3    0  502 -0.22547242369E+02  0.39678877894E+03 -0.30457808406E+03  0.50071700844E+03  0.50400001928E-02 0.  1.
</event>
<event>
 5   0  0.3714448E-03  0.8009238E+03  0.7818609E-02  0.9558681E-01
        1   -1    0    0  501    0  0.00000000000E+00  0.00000000000E+00  0.11290275191E+04  0.11290275191E+04  0.50400001928E-02 0.  1.
       -1   -1    0    0    0  501  0.00000000000E+00  0.00000000000E+00 -0.14204235419E+03  0.14204235428E+03  0.50400001928E-02 0. -1.
    10030    2    1    2    0    0  0.00000000000E+00  0.00000000000E+00  0.98698516488E+03  0.12710698734E+04  0.80092378367E+03 0.  0.
        1    1    3    3  502    0 -0.35172333410E+02 -0.33653337065E+03  0.15356992397E+03  0.37158515064E+03  0.50400001928E-02 0. -1.
       -1    1    3    3    0  502  0.35172333410E+02  0.33653337065E+03  0.83341524091E+03  0.89948472272E+03  0.50400001928E-02 0.  1.
</event>
<event>
 5   0  0.6153659E-03  0.7954215E+03  0.7818609E-02  0.9566668E-01
       -2   -1    0    0    0  501  0.00000000000E+00  0.00000000000E+00  0.12348918899E+03  0.12348918902E+03  0.25500000920E-02 0. -1.
        2   -1    0    0  501    0  0.00000000000E+00  0.00000000000E+00 -0.12808720501E+04  0.12808720501E+04  0.25500000920E-02 0.  1.
    10030    2    1    2    0    0  0.00000000000E+00  0.00000000000E+00 -0.11573828611E+04  0.14043612391E+04  0.79542152519E+03 0.  0.
        2    1    3    3  502    0  0.16259432240E+03 -0.13840589215E+03  0.13706531713E+02  0.21396488889E+03  0.25500000920E-02 0. -1.
       -2    1    3    3    0  502 -0.16259432240E+03  0.13840589215E+03 -0.11710893928E+04  0.11903963502E+04  0.25500000920E-02 0.  1.
</event>
<event>
 5   0  0.3627496E-03  0.8142413E+03  0.7818609E-02  0.9539629E-01
        1   -1    0    0  501    0  0.00000000000E+00  0.00000000000E+00  0.36832348545E+03  0.36832348549E+03  0.50400001928E-02 0.  1.
       -1   -1    0    0    0  501  0.00000000000E+00  0.00000000000E+00 -0.45000454287E+03  0.45000454290E+03  0.50400001928E-02 0. -1.
    10030    2    1    2    0    0  0.00000000000E+00  0.00000000000E+00 -0.81681057417E+02  0.81832802839E+03  0.81424134438E+03 0.  0.
        3    1    3    3  502    0  0.57251973145E+02 -0.13909699952E+03  0.33937221274E+03  0.37121324422E+03  0.10100000352E+00 0.  1.
       -3    1    3    3    0  502 -0.57251973145E+02  0.13909699952E+03 -0.42105327016E+03  0.44711478416E+03  0.10100000352E+00 0. -1.
</event>
<event>
 5   0  0.6337108E-03  0.8026190E+03  0.7818609E-02  0.9556234E-01
        2   -1    0    0  501    0  0.00000000000E+00  0.00000000000E+00  0.16272039489E+04  0.16272039489E+04  0.25500000920E-02 0.  1.
       -2   -1    0    0    0  501  0.00000000000E+00  0.00000000000E+00 -0.98973037861E+02  0.98973037893E+02  0.25500000920E-02 0. -1.
    10030    2    1    2    0    0  0.00000000000E+00  0.00000000000E+00  0.15282309110E+04  0.17261769868E+04  0.80261900818E+03 0.  0.
        4    1    3    3  502    0  0.17828717603E+03  0.18530647620E+03  0.10150028355E+03  0.27645746096E+03  0.12699999809E+01 0. -1.
       -4    1    3    3    0  502 -0.17828717603E+03 -0.18530647620E+03  0.14267306275E+04  0.14497195258E+04  0.12699999809E+01 0.  1.
</event>
<event>
 5   0  0.6256781E-03  0.7938165E+03  0.7818609E-02  0.9569011E-01
        2   -1    0    0  501    0  0.00000000000E+00  0.00000000000E+00  0.19600130135E+04  0.19600130135E+04  0.25500000920E-02 0.  1.
       -2   -1    0    0    0  501  0.00000000000E+00  0.00000000000E+00 -0.80375058254E+02  0.80375058295E+02  0.25500000920E-02 0. -1.
    10030    2    1    2    0    0  0.00000000000E+00  0.00000000000E+00  0.18796379553E+04  0.20403880718E+04  0.79381650319E+03 0.  0.
        1    1    3    3  502    0 -0.52789624521E+02 -0.23754759627E+03  0.13385651794E+03  0.27772859481E+03  0.50400001928E-02 0. -1.
       -1    1    3    3    0  502  0.52789624521E+02  0.23754759627E+03  0.17457814374E+04  0.17626594770E+04  0.50400001928E-02 0.  1.
</event>
<event>
 5   0  0.3627496E-03  0.8003406E+03  0.7818609E-02  0.9559524E-01
        1   -1    0    0  501    0  0.00000000000E+00  0.00000000000E+00  0.30516801074E+03  0.30516801078E+03  0.50400001928E-02 0. -1.
       -1   -1    0    0    0  501  0.00000000000E+00  0.00000000000E+00 -0.52474788582E+03  0.52474788584E+03  0.50400001928E-02 0.  1.
    10030    2    1    2    0    0  0.00000000000E+00  0.00000000000E+00 -0.21957987507E+03  0.82991589663E+03  0.80034059871E+03 0.  0.
        3    1    3    3  502    0  0.24569963919E+03  0.94306124568E+02 -0.42238331715E+03  0.49766417857E+03  0.10100000352E+00 0.  1.
       -3    1    3    3    0  502 -0.24569963919E+03 -0.94306124568E+02  0.20280344207E+03  0.33225171805E+03  0.10100000352E+00 0. -1.
</event>
<event>
 5   0  0.3753450E-03  0.7997596E+03  0.7818609E-02  0.9560365E-01
       -1   -1    0    0    0  501  0.00000000000E+00  0.00000000000E+00  0.29338734476E+03  0.29338734480E+03  0.50400001928E-02 0.  1.
        1   -1    0    0  501    0  0.00000000000E+00  0.00000000000E+00 -0.54502640429E+03  0.54502640431E+03  0.50400001928E-02 0. -1.
    10030    2    1    2    0    0  0.00000000000E+00  0.00000000000E+00 -0.25163905953E+03  0.83841374911E+03  0.79975958789E+03 0.  0.
        5    1    3    3  502    0 -0.63991435736E+02  0.29972323861E+03  0.14340564895E+03  0.33840241394E+03  0.46999998093E+01 0.  1.
       -5    1    3    3    0  502  0.63991435736E+02 -0.29972323861E+03 -0.39504470847E+03  0.50001133517E+03  0.46999998093E+01 0. -1.
</event>
<event>
 5   0  0.3627496E-03  0.8004577E+03  0.7818609E-02  0.9559355E-01
        1   -1    0    0  501    0  0.00000000000E+00  0.00000000000E+00  0.15309866395E+04  0.15309866395E+04  0.50400001928E-02 0.  1.
       -1   -1    0    0    0  501  0.00000000000E+00  0.00000000000E+00 -0.10462738910E+03  0.10462738922E+03  0.50400001928E-02 0. -1.
    10030    2    1    2    0    0  0.00000000000E+00  0.00000000000E+00  0.14263592504E+04  0.16356140287E+04  0.80045770643E+03 0.  0.
        3    1    3    3  502    0 -0.95474639501E+02 -0.17296034429E+03  0.14244070824E+04  0.14380425008E+04  0.10100000352E+00 0.  1.
       -3    1    3    3    0  502  0.95474639501E+02  0.17296034429E+03  0.19521679804E+01  0.19757152792E+03  0.10100000352E+00 0. -1.
</event>
<event>
 5   0  0.3753450E-03  0.8012637E+03  0.7818609E-02  0.9558190E-01
       -1   -1    0    0    0  501  0.00000000000E+00  0.00000000000E+00  0.82397091624E+03  0.82397091625E+03  0.50400001928E-02 0. -1.
        1   -1    0    0  501    0  0.00000000000E+00  0.00000000000E+00 -0.19479558435E+03  0.19479558441E+03  0.50400001928E-02 0.  1.
    10030    2    1    2    0    0  0.00000000000E+00  0.00000000000E+00  0.62917533189E+03  0.10187665007E+04  0.80126374224E+03 0.  0.
        5    1    3    3  502    0 -0.37805576177E+02  0.16723942154E+03  0.77492534765E+03  0.79368108843E+03  0.46999998093E+01 0. -1.
       -5    1    3    3    0  502  0.37805576177E+02 -0.16723942154E+03 -0.14575001576E+03  0.22508541223E+03  0.46999998093E+01 0.  1.
</event>
<event>
 5   0  0.6153659E-03  0.7975373E+03  0.7818609E-02  0.9563589E-01
        2   -1    0    0  501    0  0.00000000000E+00  0.00000000000E+00  0.69815546079E+03  0.69815546080E+03  0.25500000920E-02 0. -1.
       -2   -1    0    0    0  501  0.00000000000E+00  0.00000000000E+00 -0.22776650277E+03  0.22776650279E+03  0.25500000920E-02 0.  1.
    10030    2    1    2    0    0  0.00000000000E+00  0.00000000000E+00  0.47038895802E+03  0.92592196358E+03  0.79753727864E+03 0.  0.
        2    1    3    3  502    0 -0.35236343172E+03 -0.11823069387E+03  0.40294630058E+03  0.54818263940E+03  0.25500000920E-02 0.  1.
       -2    1    3    3    0  502  0.35236343172E+03  0.11823069387E+03  0.67442657444E+02  0.37773932418E+03  0.25500000920E-02 0. -1.
</event>
<event>
 5   0  0.3714448E-03  0.7943973E+03  0.7818609E-02  0.9568162E-01
       -1   -1    0    0    0  501  0.00000000000E+00  0.00000000000E+00  0.16967408283E+03  0.16967408291E+03  0.50400001928E-02 0.  1.
        1   -1    0    0  501    0  0.00000000000E+00  0.00000000000E+00 -0.92982249746E+03  0.92982249747E+03  0.50400001928E-02 0. -1.
    10030    2    1    2    0    0  0.00000000000E+00  0.00000000000E+00 -0.76014841462E+03  0.10994965804E+04  0.79439733006E+03 0.  0.
        1    1    3    3  502    0 -0.31872654372E+03 -0.20294498599E+03 -0.21059842207E+03  0.43257944058E+03  0.50400001928E-02 0.  1.
       -1    1    3    3    0  502  0.31872654372E+03  0.20294498599E+03 -0.54954999255E+03  0.66691713979E+03  0.50400001928E-02 0. -1.
</event>
<event>
 5   0  0.6256781E-03  0.8017740E+03  0.7818609E-02  0.9557453E-01
        2   -1    0    0  501    0  0.00000000000E+00  0.00000000000E+00  0.99284326643E+03  0.99284326643E+03  0.25500000920E-02 0.  1.
       -2   -1    0    0    0  501  0.00000000000E+00  0.00000000000E+00 -0.16186885779E+03  0.16186885781E+03  0.25500000920E-02 0. -1.
    10030    2    1    2    0    0  0.00000000000E+00  0.00000000000E+00  0.83097440863E+03  0.11547121242E+04  0.80177404677E+03 0.  0.
        1    1    3    3  502    0 -0.34697452996E+03 -0.10836311049E+03  0.17202789732E+03  0.40215355977E+03  0.50400001928E-02 0. -1.
       -1    1    3    3    0  502  0.34697452996E+03  0.10836311049E+03  0.65894651132E+03  0.75255856447E+03  0.50400001928E-02 0.  1.
</event>
<event>
 5   0  0.6337108E-03  0.7995945E+03  0.7818609E-02  0.9560604E-01
        2   -1    0    0  501    0  0.00000000000E+00  0.00000000000E+00  0.91625816262E+03  0.91625816263E+03  0.25500000920E-02 0. -1.
       -2   -1    0    0    0  501  0.00000000000E+00  0.00000000000E+00 -0.17444627641E+03  0.17444627643E+03  0.25500000920E-02 0.  1.
    10030    2    1    2    0    0  0.00000000000E+00  0.00000000000E+00  0.74181188621E+03  0.10907044391E+04  0.79959445899E+03 0.  0.
        4    1    3    3  502    0  0.28006582475E+03  0.52399229044E+01  0.76001783462E+03  0.80999570667E+03  0.12699999809E+01 0. -1.
       -4    1    3    3    0  502 -0.28006582475E+03 -0.52399229044E+01 -0.18205948405E+02  0.28070873239E+03  0.12699999809E+01 0.  1.
</event>
<event>
 5   0  0.3627496E-03  0.8001612E+03  0.7818609E-02  0.9559784E-01
        1   -1    0    0  501    0  0.00000000000E+00  0.00000000000E+00  0.67004802271E+03  0.67004802273E+03  0.50400001928E-02 0. -1.
       -1   -1    0    0    0  501  0.00000000000E+00  0.00000000000E+00 -0.23888509902E+03  0.23888509907E+03  0.50400001928E-02 0.  1.
    10030    2    1    2    0    0  0.00000000000E+00  0.00000000000E+00  0.43116292369E+03  0.90893312180E+03  0.80016120446E+03 0.  0.
        3    1    3    3  502    0  0.31448962696E+02  0.22569769566E+02 -0.23675285521E+03  0.23989655355E+03  0.10100000352E+00 0.  1.
       -3    1    3    3    0  502 -0.31448962696E+02 -0.22569769566E+02  0.66791577890E+03  0.66903656825E+03  0.10100000352E+00 0. -1.
</event>
<event>
 5   0  0.6536209E-03  0.7941070E+03  0.7818609E-02  0.9568586E-01
       -2   -1    0    0    0  501  0.00000000000E+00  0.00000000000E+00  0.11704623345E+03  0.11704623347E+03  0.25500000920E-02 0. -1.
        2   -1    0    0  501    0  0.00000000000E+00  0.00000000000E+00 -0.13469162876E+04  0.13469162876E+04  0.25500000920E-02 0.  1.
    10030    2    1    2    0    0  0.00000000000E+00  0.00000000000E+00 -0.12298700542E+04  0.14639625211E+04  0.79410699092E+03 0.  0.
        3    1    3    3  502    0 -0.89683669017E+02  0.76117616835E+02  0.84185655113E+02  0.14465229624E+03  0.10100000352E+00 0. -1.
       -3    1    3    3    0  502  0.89683669017E+02 -0.76117616835E+02 -0.13140557093E+04  0.13193102249E+04  0.10100000352E+00 0.  1.
</event>
<event>
 5   0  0.6536209E-03  0.8044713E+03  0.7818609E-02  0.9553568E-01
       -2   -1    0    0    0  501  0.00000000000E+00  0.00000000000E+00  0.31768631368E+03  0.31768631369E+03  0.25500000920E-02 0. -1.
        2   -1    0    0  501    0  0.00000000000E+00  0.00000000000E+00 -0.50928698616E+03  0.50928698616E+03  0.25500000920E-02 0.  1.
    10030    2    1    2    0    0  0.00000000000E+00  0.00000000000E+00 -0.19160067247E+03  0.82697329986E+03  0.80447126796E+03 0.  0.
        3    1    3    3  502    0 -0.88296826615E+02  0.17872642319E+03 -0.45493474250E+03  0.49669416553E+03  0.10100000352E+00 0.  1.
       -3    1    3    3    0  502  0.88296826615E+02 -0.17872642319E+03  0.26333407002E+03  0.33027913433E+03  0.10100000352E+00 0. -1.
</event>
<event>
 5   0  0.3671128E-03  0.7973001E+03  0.7818609E-02  0.9563933E-01
        1   -1    0    0  501    0  0.00000000000E+00  0.00000000000E+00  0.59336921152E+03  0.59336921154E+03  0.50400001928E-02 0. -1.
       -1   -1    0    0    0  501  0.00000000000E+00  0.00000000000E+00 -0.26782962058E+03  0.26782962063E+03  0.50400001928E-02 0.  1.
    10030    2    1    2    0    0  0.00000000000E+00  0.00000000000E+00  0.32553959094E+03  0.86119883217E+03  0.79730007103E+03 0.  0.
        2    1    3    3  502    0  0.18635791163E+03 -0.34986509489E+03  0.20843057201E+03  0.44785953066E+03  0.25500000920E-02 0. -1.
       -2    1    3    3    0  502 -0.18635791163E+03  0.34986509489E+03  0.11710901893E+03  0.41333930151E+03  0.25500000920E-02 0.  1.
</event>
<event>
 5   0  0.3627496E-03  0.8006060E+03  0.7818609E-02  0.9559140E-01
       -1   -1    0    0    0  501  0.00000000000E+00  0.00000000000E+00  0.98480127059E+03  0.98480127060E+03  0.50400001928E-02 0.  1.
        1   -1    0    0  501    0  0.00000000000E+00  0.00000000000E+00 -0.16271555114E+03  0.16271555122E+03  0.50400001928E-02 0. -1.
    10030    2    1    2    0    0  0.00000000000E+00  0.00000000000E+00  0.82208571945E+03  0.11475168218E+04  0.80060597440E+03 0.  0.
        3    1    3    3  502    0 -0.20513792566E+02  0.23528937369E+03  0.87429392005E+03  0.90563335512E+03  0.10100000352E+00 0.  1.
       -3    1    3    3    0  502  0.20513792566E+02 -0.23528937369E+03 -0.52208200603E+02  0.24188346671E+03  0.10100000352E+00 0. -1.
</event>
<event>
 5   0  0.3714448E-03  0.8137326E+03  0.7818609E-02  0.9540350E-01
        1   -1    0    0  501    0  0.00000000000E+00  0.00000000000E+00  0.76316648789E+03  0.76316648790E+03  0.50400001928E-02 0. -1.
       -1   -1    0    0    0  501  0.00000000000E+00  0.00000000000E+00 -0.21691226568E+03  0.21691226574E+03  0.50400001928E-02 0.  1.
    10030    2    1    2    0    0  0.00000000000E+00  0.00000000000E+00  0.54625422221E+03  0.98007875364E+03  0.81373256544E+03 0.  0.
        1    1    3    3  502    0 -0.11447839912E+02 -0.40264435108E+03  0.20407837890E+03  0.45155454959E+03  0.50400001928E-02 0.  1.
       -1    1    3    3    0  502  0.11447839912E+02  0.40264435108E+03  0.34217584331E+03  0.52852420405E+03  0.50400001928E-02 0. -1.
</event>
<event>
 5   0  0.5813850E-03  0.7976942E+03  0.7818609E-02  0.9563361E-01
        2   -1    0    0  501    0  0.00000000000E+00  0.00000000000E+00  0.19267864274E+04  0.19267864274E+04  0.25500000920E-02 0. -1.
       -2   -1    0    0    0  501  0.00000000000E+00  0.00000000000E+00 -0.82561837742E+02  0.82561837781E+02  0.25500000920E-02 0.  1.
    10030    2    1    2    0    0  0.00000000000E+00  0.00000000000E+00  0.18442245897E+04  0.20093482652E+04  0.79769424825E+03 0.  0.
        5    1    3    3  502    0  0.37277264634E+02 -0.37347606382E+03  0.58244697191E+03  0.69292173425E+03  0.46999998093E+01 0.  1.
       -5    1    3    3    0  502 -0.37277264634E+02  0.37347606382E+03  0.12617776178E+04  0.13164265309E+04  0.46999998093E+01 0. -1.
</event>
<event>
 5   0  0.6536209E-03  0.8010575E+03  0.7818609E-02  0.9558488E-01
       -2   -1    0    0    0  501  0.00000000000E+00  0.00000000000E+00  0.33591755975E+03  0.33591755976E+03  0.25500000920E-02 0.  1.
        2   -1    0    0  501    0  0.00000000000E+00  0.00000000000E+00 -0.47756746012E+03  0.47756746013E+03  0.25500000920E-02 0. -1.
    10030    2    1    2    0    0  0.00000000000E+00  0.00000000000E+00 -0.14164990037E+03  0.81348501989E+03  0.80105754058E+03 0.  0.
        3    1    3    3  502    0 -0.22867325077E+03  0.31815600198E+03 -0.15523234711E+03  0.42144013691E+03  0.10100000352E+00 0. -1.
       -3    1    3    3    0  502  0.22867325077E+03 -0.31815600198E+03  0.13582446741E+02  0.39204488298E+03  0.10100000352E+00 0.  1.
</event>
<event>
 5   0  0.6337108E-03  0.7989026E+03  0.7818609E-02  0.9561607E-01
        2   -1    0    0  501    0  0.00000000000E+00  0.00000000000E+00  0.29683298424E+03  0.29683298425E+03  0.25500000920E-02 0.  1.
       -2   -1    0    0    0  501  0.00000000000E+00  0.00000000000E+00 -0.53754591077E+03  0.53754591077E+03  0.25500000920E-02 0. -1.
    10030    2    1    2    0    0  0.00000000000E+00  0.00000000000E+00 -0.24071292652E+03  0.83437889503E+03  0.79890263954E+03 0.  0.
        4    1    3    3  502    0  0.19278404407E+03 -0.46613872861E+02 -0.48248269832E+03  0.52166052933E+03  0.12699999809E+01 0. -1.
       -4    1    3    3    0  502 -0.19278404407E+03  0.46613872861E+02  0.24176977179E+03  0.31271836569E+03  0.12699999809E+01 0.  1.
</event>
<event>
 5   0  0.6536209E-03  0.8071095E+03  0.7818609E-02  0.9549783E-01
       -2   -1    0    0    0  501  0.00000000000E+00  0.00000000000E+00  0.69787690728E+03  0.69787690728E+03  0.25500000920E-02 0. -1.
        2   -1    0    0  501    0  0.00000000000E+00  0.00000000000E+00 -0.23335981927E+03  0.23335981929E+03  0.25500000920E-02 0.  1.
    10030    2    1    2    0    0  0.00000000000E+00  0.00000000000E+00  0.46451708801E+03  0.93123672657E+03  0.80710948195E+03 0.  0.
        3    1    3    3  502    0  0.24944828232E+03 -0.17688688282E+03  0.53608736731E+03  0.61717346869E+03  0.10100000352E+00 0. -1.
       -3    1    3    3    0  502 -0.24944828232E+03  0.17688688282E+03 -0.71570279307E+02  0.31406325787E+03  0.10100000352E+00 0.  1.
</event>
<event>
 5   0  0.3753450E-03  0.8044740E+03  0.7818609E-02  0.9553564E-01
        1   -1    0    0  501    0  0.00000000000E+00  0.00000000000E+00  0.86441342551E+03  0.86441342552E+03  0.50400001928E-02 0.  1.
       -1   -1    0    0    0  501  0.00000000000E+00  0.00000000000E+00 -0.18717269953E+03  0.18717269959E+03  0.50400001928E-02 0. -1.
    10030    2    1    2    0    0  0.00000000000E+00  0.00000000000E+00  0.67724072598E+03  0.10515861251E+04  0.80447397572E+03 0.  0.
        5    1    3    3  502    0 -0.11450060206E+03  0.26798130444E+03 -0.23747370482E+02  0.29242160488E+03  0.46999998093E+01 0. -1.
       -5    1    3    3    0  502  0.11450060206E+03 -0.26798130444E+03  0.70098809646E+03  0.75916452023E+03  0.46999998093E+01 0.  1.
</event>
<event>
 5   0  0.3860515E-03  0.7998211E+03  0.7818609E-02  0.9560276E-01
       -1   -1    0    0    0  501  0.00000000000E+00  0.00000000000E+00  0.27376775208E+03  0.27376775212E+03  0.50400001928E-02 0.  1.
        1   -1    0    0  501    0  0.00000000000E+00  0.00000000000E+00 -0.58417561872E+03  0.58417561874E+03  0.50400001928E-02 0. -1.
    10030    2    1    2    0    0  0.00000000000E+00  0.00000000000E+00 -0.31040786664E+03  0.85794337086E+03  0.79982109496E+03 0.  0.
        4    1    3    3  502    0  0.80779586673E+02  0.18843675359E+03 -0.52351089515E+03  0.56222684209E+03  0.12699999809E+01 0. -1.
       -4    1    3    3    0  502 -0.80779586673E+02 -0.18843675359E+03  0.21310302851E+03  0.29571652877E+03  0.12699999809E+01 0.  1.
</event>
<event>
 5   0  0.3753450E-03  0.7440025E+03  0.7818609E-02  0.9644807E-01
       -1   -1    0    0    0  501  0.00000000000E+00  0.00000000000E+00  0.31472107938E+03  0.31472107943E+03  0.50400001928E-02 0.  1.
        1   -1    0    0  501    0  0.00000000000E+00  0.00000000000E+00 -0.43970659018E+03  0.43970659021E+03  0.50400001928E-02 0. -1.
    10030    2    1    2    0    0  0.00000000000E+00  0.00000000000E+00 -0.12498551080E+03  0.75442766964E+03  0.74400250726E+03 0.  0.
        5    1    3    3  502    0 -0.24520267629E+03  0.14420604717E+03 -0.30552403151E+03  0.41747665842E+03  0.46999998093E+01 0. -1.
       -5    1    3    3    0  502  0.24520267629E+03 -0.14420604717E+03  0.18053852071E+03  0.33695101122E+03  0.46999998093E+01 0.  1.
</event>
<event>
 5   0  0.3860515E-03  0.7575887E+03  0.7818609E-02  0.9623520E-01
        1   -1    0    0  501    0  0.00000000000E+00  0.00000000000E+00  0.28286903605E+03  0.28286903609E+03  0.50400001928E-02 0.  1.
       -1   -1    0    0    0  501  0.00000000000E+00  0.00000000000E+00 -0.50724943203E+03  0.50724943206E+03  0.50400001928E-02 0. -1.
    10030    2    1    2    0    0  0.00000000000E+00  0.00000000000E+00 -0.22438039598E+03  0.79011846815E+03  0.75758869554E+03 0.  0.
        4    1    3    3  502    0  0.30605172591E+03 -0.17017767315E+02 -0.34429097215E+03  0.46097196199E+03  0.12699999809E+01 0. -1.
       -4    1    3    3    0  502 -0.30605172591E+03  0.17017767315E+02  0.11991057617E+03  0.32914650616E+03  0.12699999809E+01 0.  1.
</event>
<event>
 5   0  0.6536209E-03  0.8002771E+03  0.7818609E-02  0.9559616E-01
        2   -1    0    0  501    0  0.00000000000E+00  0.00000000000E+00  0.46743121614E+03  0.46743121615E+03  0.25500000920E-02 0. -1.
       -2   -1    0    0    0  501  0.00000000000E+00  0.00000000000E+00 -0.34253350503E+03  0.34253350504E+03  0.25500000920E-02 0.  1.
    10030    2    1    2    0    0  0.00000000000E+00  0.00000000000E+00  0.12489771112E+03  0.80996472118E+03  0.80027708409E+03 0.  0.
        3    1    3    3  502    0 -0.32420545832E+03  0.23326210355E+03  0.37855435387E+02  0.40119002025E+03  0.10100000352E+00 0.  1.
       -3    1    3    3    0  502  0.32420545832E+03 -0.23326210355E+03  0.87042275728E+02  0.40877470093E+03  0.10100000352E+00 0. -1.
</event>
<event>
 5   0  0.3627496E-03  0.8021081E+03  0.7818609E-02  0.9556971E-01
        1   -1    0    0  501    0  0.00000000000E+00  0.00000000000E+00  0.50639049155E+03  0.50639049158E+03  0.50400001928E-02 0. -1.
       -1   -1    0    0    0  501  0.00000000000E+00  0.00000000000E+00 -0.31762908243E+03  0.31762908247E+03  0.50400001928E-02 0.  1.
    10030    2    1    2    0    0  0.00000000000E+00  0.00000000000E+00  0.18876140913E+03  0.82401957405E+03  0.80210809050E+03 0.  0.
        3    1    3    3  502    0 -0.11039404242E+03  0.16491589708E+03 -0.26365117424E+03  0.32999401448E+03  0.10100000352E+00 0.  1.
       -3    1    3    3    0  502  0.11039404242E+03 -0.16491589708E+03  0.45241258337E+03  0.49402555957E+03  0.10100000352E+00 0. -1.
</event>
<event>
 5   0  0.5813850E-03  0.7967877E+03  0.7818609E-02  0.9564678E-01
        2   -1    0    0  501    0  0.00000000000E+00  0.00000000000E+00  0.73647536330E+03  0.73647536330E+03  0.25500000920E-02 0.  1.
       -2   -1    0    0    0  501  0.00000000000E+00  0.00000000000E+00 -0.21550980344E+03  0.21550980346E+03  0.25500000920E-02 0. -1.
    10030    2    1    2    0    0  0.00000000000E+00  0.00000000000E+00  0.52096555985E+03  0.95198516676E+03  0.79678770270E+03 0.  0.
        5    1    3    3  502    0  0.18563881464E+03 -0.24999970827E+03  0.55734134354E+03  0.63844583705E+03  0.46999998093E+01 0.  1.
       -5    1    3    3    0  502 -0.18563881464E+03  0.24999970827E+03 -0.36375783685E+02  0.31353932970E+03  0.46999998093E+01 0. -1.
</event>
<event>
 5   0  0.6536209E-03  0.7978548E+03  0.7818609E-02  0.9563127E-01
        2   -1    0    0  501    0  0.00000000000E+00  0.00000000000E+00  0.10470495886E+04  0.10470495886E+04  0.25500000920E-02 0.  1.
       -2   -1    0    0    0  501  0.00000000000E+00  0.00000000000E+00 -0.15199191048E+03  0.15199191050E+03  0.25500000920E-02 0. -1.
    10030    2    1    2    0    0  0.00000000000E+00  0.00000000000E+00  0.89505767813E+03  0.11990414991E+04  0.79785479219E+03 0.  0.
        3    1    3    3  502    0 -0.64362423699E+02 -0.33618601285E+03  0.13961515564E+03  0.36967006736E+03  0.10100000352E+00 0. -1.
       -3    1    3    3    0  502  0.64362423699E+02  0.33618601285E+03  0.75544252249E+03  0.82937143175E+03  0.10100000352E+00 0.  1.
</event>
<event>
 5   0  0.3627496E-03  0.8051694E+03  0.7818609E-02  0.9552565E-01
        1   -1    0    0  501    0  0.00000000000E+00  0.00000000000E+00  0.16167675916E+04  0.16167675916E+04  0.50400001928E-02 0. -1.
       -1   -1    0    0    0  501  0.00000000000E+00  0.00000000000E+00 -0.10024597330E+03  0.10024597343E+03  0.50400001928E-02 0.  1.
    10030    2    1    2    0    0  0.00000000000E+00  0.00000000000E+00  0.15165216183E+04  0.17170135650E+04  0.80516940066E+03 0.  0.
        3    1    3    3  502    0  0.42378290590E+02  0.17629436708E+03  0.15247670881E+04  0.15355097872E+04  0.10100000352E+00 0. -1.
       -3    1    3    3    0  502 -0.42378290590E+02 -0.17629436708E+03 -0.82454698656E+01  0.18150377779E+03  0.10100000352E+00 0.  1.
</event>
<event>
 5   0  0.6337108E-03  0.7986200E+03  0.7818609E-02  0.9562017E-01
       -2   -1    0    0    0  501  0.00000000000E+00  0.00000000000E+00  0.34603629417E+03  0.34603629418E+03  0.25500000920E-02 0. -1.
        2   -1    0    0  501    0  0.00000000000E+00  0.00000000000E+00 -0.46078542468E+03  0.46078542469E+03  0.25500000920E-02 0.  1.
    10030    2    1    2    0    0  0.00000000000E+00  0.00000000000E+00 -0.11474913052E+03  0.80682171887E+03  0.79862001170E+03 0.  0.
        4    1    3    3  502    0  0.13624253620E+01 -0.39119780968E+02 -0.45884041566E+03  0.46050879841E+03  0.12699999809E+01 0.  1.
       -4    1    3    3    0  502 -0.13624253620E+01  0.39119780968E+02  0.34409128514E+03  0.34631292046E+03  0.12699999809E+01 0. -1.
</event>
<event>
 5   0  0.5813850E-03  0.8108411E+03  0.7818609E-02  0.9544456E-01
        2   -1    0    0  501    0  0.00000000000E+00  0.00000000000E+00  0.17228106236E+04  0.17228106236E+04  0.25500000920E-02 0.  1.
       -2   -1    0    0    0  501  0.00000000000E+00  0.00000000000E+00 -0.95405623779E+02  0.95405623813E+02  0.25500000920E-02 0. -1.
    10030    2    1    2    0    0  0.00000000000E+00  0.00000000000E+00  0.16274049999E+04  0.18182162474E+04  0.81084109968E+03 0.  0.
        5    1    3    3  502    0  0.30605530776E+03  0.22612362199E+03  0.50023381937E+03  0.62853616274E+03  0.46999998093E+01 0.  1.
       -5    1    3    3    0  502 -0.30605530776E+03 -0.22612362199E+03  0.11271711805E+04  0.11896800847E+04  0.46999998093E+01 0. -1.
</event>
<event>
 5   0  0.3671128E-03  0.8049042E+03  0.7818609E-02  0.9552945E-01
        1   -1    0    0  501    0  0.00000000000E+00  0.00000000000E+00  0.13661139536E+04  0.13661139536E+04  0.50400001928E-02 0. -1.
       -1   -1    0    0    0  501  0.00000000000E+00  0.00000000000E+00 -0.11856089975E+03  0.11856089985E+03  0.50400001928E-02 0.  1.
    10030    2    1    2    0    0  0.00000000000E+00  0.00000000000E+00  0.12475530538E+04  0.14846748534E+04  0.80490421685E+03 0.  0.
        2    1    3    3  502    0 -0.31958173489E+03 -0.10847129010E+03  0.21936775420E+03  0.40251797182E+03  0.25500000920E-02 0.  1.
       -2    1    3    3    0  502  0.31958173489E+03  0.10847129010E+03  0.10281852996E+04  0.10821568816E+04  0.25500000920E-02 0. -1.
</event>
<event>
 5   0  0.3860515E-03  0.8002854E+03  0.7818609E-02  0.9559604E-01
       -1   -1    0    0    0  501  0.00000000000E+00  0.00000000000E+00  0.17630139462E+04  0.17630139462E+04  0.50400001928E-02 0. -1.
        1   -1    0    0  501    0  0.00000000000E+00  0.00000000000E+00 -0.90818440546E+02  0.90818440685E+02  0.50400001928E-02 0.  1.
    10030    2    1    2    0    0  0.00000000000E+00  0.00000000000E+00  0.16721955057E+04  0.18538323869E+04  0.80028539258E+03 0.  0.
        4    1    3    3  502    0 -0.27963947698E+03  0.41151681164E+01  0.17317852879E+03  0.32894921709E+03  0.12699999809E+01 0.  1.
       -4    1    3    3    0  502  0.27963947698E+03 -0.41151681164E+01  0.14990169769E+04  0.15248831698E+04  0.12699999809E+01 0. -1.
</event>
<event>
 5   0  0.3627496E-03  0.7850777E+03  0.7818609E-02  0.9581871E-01
       -1   -1    0    0    0  501  0.00000000000E+00  0.00000000000E+00  0.10483546635E+03  0.10483546648E+03  0.50400001928E-02 0. -1.
        1   -1    0    0  501    0  0.00000000000E+00  0.00000000000E+00 -0.14697960848E+04  0.14697960848E+04  0.50400001928E-02 0.  1.
    10030    2    1    2    0    0  0.00000000000E+00  0.00000000000E+00 -0.13649606185E+04  0.15746315513E+04  0.78507772379E+03 0.  0.
        3    1    3    3  502    0 -0.22406866432E+02  0.38551603506E+03 -0.54119480554E+03  0.66484322114E+03  0.10100000352E+00 0. -1.
       -3    1    3    3    0  502  0.22406866432E+02 -0.38551603506E+03 -0.82376581291E+03  0.90978833015E+03  0.10100000352E+00 0.  1.
</event>
<event>
 5   0  0.3753450E-03  0.8067866E+03  0.7818609E-02  0.9550245E-01
       -1   -1    0    0    0  501  0.00000000000E+00  0.00000000000E+00  0.13040721397E+03  0.13040721406E+03  0.50400001928E-02 0. -1.
        1   -1    0    0  501    0  0.00000000000E+00  0.00000000000E+00 -0.12478307801E+04  0.12478307801E+04  0.50400001928E-02 0.  1.
    10030    2    1    2    0    0  0.00000000000E+00  0.00000000000E+00 -0.11174235661E+04  0.13782379942E+04  0.80678655320E+03 0.  0.
        5    1    3    3  502    0 -0.57694405319E+02  0.36289111342E+03 -0.84295577240E+03  0.91957334065E+03  0.46999998093E+01 0.  1.
       -5    1    3    3    0  502  0.57694405319E+02 -0.36289111342E+03 -0.27446779373E+03  0.45866465353E+03  0.46999998093E+01 0. -1.
</event>
<event>
 5   0  0.6256781E-03  0.8001372E+03  0.7818609E-02  0.9559819E-01
        2   -1    0    0  501    0  0.00000000000E+00  0.00000000000E+00  0.10984585278E+04  0.10984585279E+04  0.25500000920E-02 0.  1.
       -2   -1    0    0    0  501  0.00000000000E+00  0.00000000000E+00 -0.14570863387E+03  0.14570863389E+03  0.25500000920E-02 0. -1.
    10030    2    1    2    0    0  0.00000000000E+00  0.00000000000E+00  0.95274989398E+03  0.12441671617E+04  0.80013721690E+03 0.  0.
        1    1    3    3  502    0 -0.33717402234E+03 -0.40054111571E+02  0.14738709447E+03  0.37015349362E+03  0.50400001928E-02 0. -1.
       -1    1    3    3    0  502  0.33717402234E+03  0.40054111571E+02  0.80536279951E+03  0.87401366812E+03  0.50400001928E-02 0.  1.
</event>
<event>
 5   0  0.3714448E-03  0.7871567E+03  0.7818609E-02  0.9578796E-01
        1   -1    0    0  501    0  0.00000000000E+00  0.00000000000E+00  0.40068670371E+03  0.40068670374E+03  0.50400001928E-02 0.  1.
       -1   -1    0    0    0  501  0.00000000000E+00  0.00000000000E+00 -0.38659608775E+03  0.38659608779E+03  0.50400001928E-02 0. -1.
    10030    2    1    2    0    0  0.00000000000E+00  0.00000000000E+00  0.14090615957E+02  0.78728279153E+03  0.78715668604E+03 0.  0.
        1    1    3    3  502    0  0.20722755535E+03 -0.17953250412E+03  0.28945331083E+03  0.39869587270E+03  0.50400001928E-02 0.  1.
       -1    1    3    3    0  502 -0.20722755535E+03  0.17953250412E+03 -0.27536269487E+03  0.38858691883E+03  0.50400001928E-02 0. -1.
</event>
<event>
 5   0  0.6256781E-03  0.7993995E+03  0.7818609E-02  0.9560887E-01
        2   -1    0    0  501    0  0.00000000000E+00  0.00000000000E+00  0.13797239527E+04  0.13797239527E+04  0.25500000920E-02 0.  1.
       -2   -1    0    0    0  501  0.00000000000E+00  0.00000000000E+00 -0.11579119834E+03  0.11579119837E+03  0.25500000920E-02 0. -1.
    10030    2    1    2    0    0  0.00000000000E+00  0.00000000000E+00  0.12639327543E+04  0.14955151510E+04  0.79939949934E+03 0.  0.
        1    1    3    3  502    0 -0.29079419681E+02 -0.88934924554E+02  0.13589462759E+04  0.13621637252E+04  0.50400001928E-02 0.  1.
       -1    1    3    3    0  502  0.29079419681E+02  0.88934924554E+02 -0.95013521600E+02  0.13335142581E+03  0.50400001928E-02 0. -1.
</event>
<event>
 5   0  0.3627496E-03  0.8018655E+03  0.7818609E-02  0.9557321E-01
        1   -1    0    0  501    0  0.00000000000E+00  0.00000000000E+00  0.12453244180E+04  0.12453244180E+04  0.50400001928E-02 0. -1.
       -1   -1    0    0    0  501  0.00000000000E+00  0.00000000000E+00 -0.12908046227E+03  0.12908046237E+03  0.50400001928E-02 0.  1.
    10030    2    1    2    0    0  0.00000000000E+00  0.00000000000E+00  0.11162439557E+04  0.13744048804E+04  0.80186545412E+03 0.  0.
        3    1    3    3  502    0  0.24374510433E+02 -0.33576741464E+03  0.93134005579E+03  0.99031721343E+03  0.10100000352E+00 0.  1.
       -3    1    3    3    0  502 -0.24374510433E+02  0.33576741464E+03  0.18490389994E+03  0.38408766695E+03  0.10100000352E+00 0. -1.
</event>
<event>
 5   0  0.3671128E-03  0.8004608E+03  0.7818609E-02  0.9559350E-01
       -1   -1    0    0    0  501  0.00000000000E+00  0.00000000000E+00  0.75802322466E+03  0.75802322467E+03  0.50400001928E-02 0.  1.
        1   -1    0    0  501    0  0.00000000000E+00  0.00000000000E+00 -0.21131855661E+03  0.21131855667E+03  0.50400001928E-02 0. -1.
    10030    2    1    2    0    0  0.00000000000E+00  0.00000000000E+00  0.54670466805E+03  0.96934178135E+03  0.80046080167E+03 0.  0.
        2    1    3    3  502    0 -0.12086610954E+03 -0.72829841992E+02  0.72689870269E+03  0.74046912582E+03  0.25500000920E-02 0.  1.
       -2    1    3    3    0  502  0.12086610954E+03  0.72829841992E+02 -0.18019403464E+03  0.22887265553E+03  0.25500000920E-02 0. -1.
</event>
<event>
 5   0  0.3753450E-03  0.7985235E+03  0.7818609E-02  0.9562157E-01
        1   -1    0    0  501    0  0.00000000000E+00  0.00000000000E+00  0.75252534559E+03  0.75252534561E+03  0.50400001928E-02 0.  1.
       -1   -1    0    0    0  501  0.00000000000E+00  0.00000000000E+00 -0.21183331752E+03  0.21183331758E+03  0.50400001928E-02 0. -1.
    10030    2    1    2    0    0  0.00000000000E+00  0.00000000000E+00  0.54069202807E+03  0.96435866319E+03  0.79852348873E+03 0.  0.
        5    1    3    3  502    0  0.20857540350E+03  0.59237502082E+02 -0.13449628102E+03  0.25519427933E+03  0.46999998093E+01 0. -1.
       -5    1    3    3    0  502 -0.20857540350E+03 -0.59237502082E+02  0.67518830909E+03  0.70916438386E+03  0.46999998093E+01 0.  1.
</event>
<event>
 5   0  0.5813850E-03  0.7926749E+03  0.7818609E-02  0.9570681E-01
       -2   -1    0    0    0  501  0.00000000000E+00  0.00000000000E+00  0.27060878564E+03  0.27060878565E+03  0.25500000920E-02 0. -1.
        2   -1    0    0  501    0  0.00000000000E+00  0.00000000000E+00 -0.58048143892E+03  0.58048143893E+03  0.25500000920E-02 0.  1.
    10030    2    1    2    0    0  0.00000000000E+00  0.00000000000E+00 -0.30987265328E+03  0.85109022458E+03  0.79267490759E+03 0.  0.
        5    1    3    3  502    0 -0.38818716615E+03  0.79625481330E+02 -0.14888217422E+03  0.42334086153E+03  0.46999998093E+01 0. -1.
       -5    1    3    3    0  502  0.38818716615E+03 -0.79625481330E+02 -0.16099047906E+03  0.42774936305E+03  0.46999998093E+01 0.  1.
</event>
<event>
 5   0  0.5813850E-03  0.8024382E+03  0.7818609E-02  0.9556495E-01
       -2   -1    0    0    0  501  0.00000000000E+00  0.00000000000E+00  0.24960940204E+03  0.24960940205E+03  0.25500000920E-02 0.  1.
        2   -1    0    0  501    0  0.00000000000E+00  0.00000000000E+00 -0.64491459916E+03  0.64491459916E+03  0.25500000920E-02 0. -1.
    10030    2    1    2    0    0  0.00000000000E+00  0.00000000000E+00 -0.39530519712E+03  0.89452400121E+03  0.80243815330E+03 0.  0.
        5    1    3    3  502    0  0.32108191694E+03 -0.18016134749E+03 -0.37532603233E+03  0.52577887848E+03  0.46999998093E+01 0. -1.
       -5    1    3    3    0  502 -0.32108191694E+03  0.18016134749E+03 -0.19979164786E+02  0.36874512273E+03  0.46999998093E+01 0.  1.
</event>
<event>
 5   0  0.5813850E-03  0.8003262E+03  0.7818609E-02  0.9559545E-01
        2   -1    0    0  501    0  0.00000000000E+00  0.00000000000E+00  0.56399206305E+03  0.56399206305E+03  0.25500000920E-02 0.  1.
       -2   -1    0    0    0  501  0.00000000000E+00  0.00000000000E+00 -0.28392332882E+03  0.28392332883E+03  0.25500000920E-02 0. -1.
    10030    2    1    2    0    0  0.00000000000E+00  0.00000000000E+00  0.28006873423E+03  0.84791539188E+03  0.80032619344E+03 0.  0.
        5    1    3    3  502    0  0.14474848608E+03  0.43629039590E+02  0.53254017666E+03  0.55360342040E+03  0.46999998093E+01 0.  1.
       -5    1    3    3    0  502 -0.14474848608E+03 -0.43629039590E+02 -0.25247144243E+03  0.29431197149E+03  0.46999998093E+01 0. -1.
</event>
<event>
 5   0  0.3860515E-03  0.8063777E+03  0.7818609E-02  0.9550831E-01
       -1   -1    0    0    0  501  0.00000000000E+00  0.00000000000E+00  0.32703459879E+03  0.32703459882E+03  0.50400001928E-02 0.  1.
        1   -1    0    0  501    0  0.00000000000E+00  0.00000000000E+00 -0.49707661852E+03  0.49707661855E+03  0.50400001928E-02 0. -1.
    10030    2    1    2    0    0  0.00000000000E+00  0.00000000000E+00 -0.17004201974E+03  0.82411121737E+03  0.80637770934E+03 0.  0.
        4    1    3    3  502    0 -0.24914404177E+03  0.29191980692E+03  0.41267180550E+02  0.38599808330E+03  0.12699999809E+01 0.  1.
       -4    1    3    3    0  502  0.24914404177E+03 -0.29191980692E+03 -0.21130920029E+03  0.43811313407E+03  0.12699999809E+01 0. -1.
</event>
<event>
 5   0  0.6153659E-03  0.7994881E+03  0.7818609E-02  0.9560758E-01
        2   -1    0    0  501    0  0.00000000000E+00  0.00000000000E+00  0.75742797520E+03  0.75742797520E+03  0.25500000920E-02 0.  1.
       -2   -1    0    0    0  501  0.00000000000E+00  0.00000000000E+00 -0.21097095283E+03  0.21097095284E+03  0.25500000920E-02 0. -1.
    10030    2    1    2    0    0  0.00000000000E+00  0.00000000000E+00  0.54645702237E+03  0.96839892805E+03  0.79948809031E+03 0.  0.
        2    1    3    3  502    0 -0.22749577821E+03 -0.31950061649E+03  0.36674267672E+03  0.53696849439E+03  0.25500000920E-02 0. -1.
       -2    1    3    3    0  502  0.22749577821E+03  0.31950061649E+03  0.17971434566E+03  0.43143043365E+03  0.25500000920E-02 0.  1.
</event>
<event>
 5   0  0.6536209E-03  0.8145024E+03  0.7818609E-02  0.9539260E-01
        2   -1    0    0  501    0  0.00000000000E+00  0.00000000000E+00  0.21599845733E+04  0.21599845733E+04  0.25500000920E-02 0.  1.
       -2   -1    0    0    0  501  0.00000000000E+00  0.00000000000E+00 -0.76784593143E+02  0.76784593185E+02  0.25500000920E-02 0. -1.
    10030    2    1    2    0    0  0.00000000000E+00  0.00000000000E+00  0.20831999801E+04  0.22367691664E+04  0.81450239214E+03 0.  0.
        3    1    3    3  502    0  0.39011378902E+02 -0.14417085058E+03  0.11410097943E+01  0.14936008149E+03  0.10100000352E+00 0. -1.
       -3    1    3    3    0  502 -0.39011378902E+02  0.14417085058E+03  0.20820589703E+04  0.20874090849E+04  0.10100000352E+00 0.  1.
</event>
<event>
 5   0  0.3714448E-03  0.8045232E+03  0.7818609E-02  0.9553493E-01
        1   -1    0    0  501    0  0.00000000000E+00  0.00000000000E+00  0.12323818782E+04  0.12323818782E+04  0.50400001928E-02 0.  1.
       -1   -1    0    0    0  501  0.00000000000E+00  0.00000000000E+00 -0.13130215935E+03  0.13130215945E+03  0.50400001928E-02 0. -1.
    10030    2    1    2    0    0  0.00000000000E+00  0.00000000000E+00  0.11010797188E+04  0.13636840376E+04  0.80452321736E+03 0.  0.
        1    1    3    3  502    0 -0.16150149655E+03  0.36437037067E+03  0.64285087493E+03  0.75637672348E+03  0.50400001928E-02 0. -1.
       -1    1    3    3    0  502  0.16150149655E+03 -0.36437037067E+03  0.45822884388E+03  0.60730731413E+03  0.50400001928E-02 0.  1.
</event>
<event>
 5   0  0.6536209E-03  0.7971525E+03  0.7818609E-02  0.9564148E-01
        2   -1    0    0  501    0  0.00000000000E+00  0.00000000000E+00  0.89687998648E+03  0.89687998648E+03  0.25500000920E-02 0.  1.
       -2   -1    0    0    0  501  0.00000000000E+00  0.00000000000E+00 -0.17712853979E+03  0.17712853981E+03  0.25500000920E-02 0. -1.
    10030    2    1    2    0    0  0.00000000000E+00  0.00000000000E+00  0.71975144669E+03  0.10740085263E+04  0.79715253843E+03 0.  0.
        3    1    3    3  502    0  0.35261766417E+03  0.29175983391E+02  0.11264384201E+03  0.37132075141E+03  0.10100000352E+00 0. -1.
       -3    1    3    3    0  502 -0.35261766417E+03 -0.29175983391E+02  0.60710760468E+03  0.70268777487E+03  0.10100000352E+00 0.  1.
</event>
<event>
 5   0  0.3860515E-03  0.7975731E+03  0.7818609E-02  0.9563537E-01
        1   -1    0    0  501    0  0.00000000000E+00  0.00000000000E+00  0.54053821147E+03  0.54053821149E+03  0.50400001928E-02 0.  1.
       -1   -1    0    0    0  501  0.00000000000E+00  0.00000000000E+00 -0.29420812065E+03  0.29420812069E+03  0.50400001928E-02 0. -1.
    10030    2    1    2    0    0  0.00000000000E+00  0.00000000000E+00  0.24633009082E+03  0.83474633218E+03  0.79757314740E+03 0.  0.
        4    1    3    3  502    0  0.25309463144E+03 -0.48863573094E+02 -0.19529380247E+03  0.32339731511E+03  0.12699999809E+01 0. -1.
       -4    1    3    3    0  502 -0.25309463144E+03  0.48863573094E+02  0.44162389329E+03  0.51134901707E+03  0.12699999809E+01 0.  1.
</event>
<event>
 5   0  0.5813850E-03  0.7978722E+03  0.7818609E-02  0.9563102E-01
        2   -1    0    0  501    0  0.00000000000E+00  0.00000000000E+00  0.58988313047E+03  0.58988313047E+03  0.25500000920E-02 0.  1.
       -2   -1    0    0    0  501  0.00000000000E+00  0.00000000000E+00 -0.26979924451E+03  0.26979924452E+03  0.25500000920E-02 0. -1.
    10030    2    1    2    0    0  0.00000000000E+00  0.00000000000E+00  0.32008388595E+03  0.85968237500E+03  0.79787222776E+03 0.  0.
        5    1    3    3  502    0 -0.38287414043E+03 -0.33584766088E+02  0.27512139918E+03  0.47268850019E+03  0.46999998093E+01 0.  1.
       -5    1    3    3    0  502  0.38287414043E+03  0.33584766088E+02  0.44962486773E+02  0.38699387481E+03  0.46999998093E+01 0. -1.
</event>
<event>
 5   0  0.3627496E-03  0.7960178E+03  0.7818609E-02  0.9565799E-01
       -1   -1    0    0    0  501  0.00000000000E+00  0.00000000000E+00  0.24294605246E+03  0.24294605251E+03  0.50400001928E-02 0. -1.
        1   -1    0    0  501    0  0.00000000000E+00  0.00000000000E+00 -0.65204217135E+03  0.65204217137E+03  0.50400001928E-02 0.  1.
    10030    2    1    2    0    0  0.00000000000E+00  0.00000000000E+00 -0.40909611889E+03  0.89498822389E+03  0.79601776764E+03 0.  0.
        3    1    3    3  502    0 -0.32674644428E+03  0.47405745046E+02 -0.45444463816E+03  0.56172100091E+03  0.10100000352E+00 0.  1.
       -3    1    3    3    0  502  0.32674644428E+03 -0.47405745046E+02  0.45348519266E+02  0.33326722298E+03  0.10100000352E+00 0. -1.
</event>
<event>
 5   0  0.6153659E-03  0.7975328E+03  0.7818609E-02  0.9563595E-01
        2   -1    0    0  501    0  0.00000000000E+00  0.00000000000E+00  0.18631117135E+04  0.18631117135E+04  0.25500000920E-02 0.  1.
       -2   -1    0    0    0  501  0.00000000000E+00  0.00000000000E+00 -0.85348955769E+02  0.85348955807E+02  0.25500000920E-02 0. -1.
    10030    2    1    2    0    0  0.00000000000E+00  0.00000000000E+00  0.17777627577E+04  0.19484606693E+04  0.79753279372E+03 0.  0.
        2    1    3    3  502    0 -0.22497364492E+03 -0.78185933106E+02  0.10751195937E+03  0.26131399208E+03  0.25500000920E-02 0. -1.
       -2    1    3    3    0  502  0.22497364492E+03  0.78185933106E+02  0.16702507983E+04  0.16871466772E+04  0.25500000920E-02 0.  1.
</event>
<event>
 5   0  0.3753450E-03  0.8057331E+03  0.7818609E-02  0.9551756E-01
        1   -1    0    0  501    0  0.00000000000E+00  0.00000000000E+00  0.32619679350E+03  0.32619679354E+03  0.50400001928E-02 0.  1.
       -1   -1    0    0    0  501  0.00000000000E+00  0.00000000000E+00 -0.49755683438E+03  0.49755683440E+03  0.50400001928E-02 0. -1.
    10030    2    1    2    0    0  0.00000000000E+00  0.00000000000E+00 -0.17136004087E+03  0.82375362795E+03  0.80573306743E+03 0.  0.
        5    1    3    3  502    0  0.27016461196E+03  0.28529049489E+03 -0.17654852380E+03  0.43077959015E+03  0.46999998093E+01 0. -1.
       -5    1    3    3    0  502 -0.27016461196E+03 -0.28529049489E+03  0.51884829318E+01  0.39297403780E+03  0.46999998093E+01 0.  1.
</event>
<event>
 5   0  0.3671128E-03  0.7980462E+03  0.7818609E-02  0.9562849E-01
        1   -1    0    0  501    0  0.00000000000E+00  0.00000000000E+00  0.69628728449E+03  0.69628728450E+03  0.50400001928E-02 0.  1.
       -1   -1    0    0    0  501  0.00000000000E+00  0.00000000000E+00 -0.22866917913E+03  0.22866917919E+03  0.50400001928E-02 0. -1.
    10030    2    1    2    0    0  0.00000000000E+00  0.00000000000E+00  0.46761810536E+03  0.92495646369E+03  0.79804621875E+03 0.  0.
        2    1    3    3  502    0  0.26580079394E+03  0.12956165616E+03 -0.76721634757E+02  0.30548730588E+03  0.25500000920E-02 0. -1.
       -2    1    3    3    0  502 -0.26580079394E+03 -0.12956165616E+03  0.54433974011E+03  0.61946915781E+03  0.25500000920E-02 0.  1.
</event>
<event>
 5   0  0.3753450E-03  0.7894268E+03  0.7818609E-02  0.9575449E-01
        1   -1    0    0  501    0  0.00000000000E+00  0.00000000000E+00  0.20443257450E+03  0.20443257457E+03  0.50400001928E-02 0. -1.
       -1   -1    0    0    0  501  0.00000000000E+00  0.00000000000E+00 -0.76210295947E+03  0.76210295949E+03  0.50400001928E-02 0.  1.
    10030    2    1    2    0    0  0.00000000000E+00  0.00000000000E+00 -0.55767038497E+03  0.96653553405E+03  0.78942680491E+03 0.  0.
        5    1    3    3  502    0  0.26476794388E+03 -0.17737402162E+03  0.62387791540E+01  0.31878616660E+03  0.46999998093E+01 0. -1.
       -5    1    3    3    0  502 -0.26476794388E+03  0.17737402162E+03 -0.56390916412E+03  0.64774936745E+03  0.46999998093E+01 0.  1.
</event>
<event>
 5   0  0.5813850E-03  0.8003404E+03  0.7818609E-02  0.9559525E-01
        2   -1    0    0  501    0  0.00000000000E+00  0.00000000000E+00  0.12119232687E+04  0.12119232687E+04  0.25500000920E-02 0. -1.
       -2   -1    0    0    0  501  0.00000000000E+00  0.00000000000E+00 -0.13213393465E+03  0.13213393467E+03  0.25500000920E-02 0.  1.
    10030    2    1    2    0    0  0.00000000000E+00  0.00000000000E+00  0.10797893340E+04  0.13440572033E+04  0.80034040257E+03 0.  0.
        5    1    3    3  502    0 -0.17751915351E+03 -0.17457485545E+03  0.10659508336E+04  0.10946518624E+04  0.46999998093E+01 0. -1.
       -5    1    3    3    0  502  0.17751915351E+03  0.17457485545E+03  0.13838500370E+02  0.24940534098E+03  0.46999998093E+01 0.  1.
</event>
<event>
 5   0  0.3753450E-03  0.8010198E+03  0.7818609E-02  0.9558542E-01
       -1   -1    0    0    0  501  0.00000000000E+00  0.00000000000E+00  0.37802671594E+03  0.37802671598E+03  0.50400001928E-02 0.  1.
        1   -1    0    0  501    0  0.00000000000E+00  0.00000000000E+00 -0.42433023311E+03  0.42433023314E+03  0.50400001928E-02 0. -1.
    10030    2    1    2    0    0  0.00000000000E+00  0.00000000000E+00 -0.46303517167E+02  0.80235694912E+03  0.80101976136E+03 0.  0.
        5    1    3    3  502    0  0.35634943714E+03  0.19682549389E+02 -0.20515193958E+03  0.41168159105E+03  0.46999998093E+01 0. -1.
       -5    1    3    3    0  502 -0.35634943714E+03 -0.19682549389E+02  0.15884842241E+03  0.39067535807E+03  0.46999998093E+01 0.  1.
</event>
<event>
 5   0  0.6256781E-03  0.8081054E+03  0.7818609E-02  0.9548358E-01
        2   -1    0    0  501    0  0.00000000000E+00  0.00000000000E+00  0.39284976223E+03  0.39284976224E+03  0.25500000920E-02 0.  1.
       -2   -1    0    0    0  501  0.00000000000E+00  0.00000000000E+00 -0.41557512607E+03  0.41557512608E+03  0.25500000920E-02 0. -1.
    10030    2    1    2    0    0  0.00000000000E+00  0.00000000000E+00 -0.22725363835E+02  0.80842488832E+03  0.80810541261E+03 0.  0.
        1    1    3    3  502    0 -0.99199712522E+02 -0.33695569150E+03  0.18841320761E+03  0.39859661041E+03  0.50400001928E-02 0. -1.
       -1    1    3    3    0  502  0.99199712522E+02  0.33695569150E+03 -0.21113857145E+03  0.40982827791E+03  0.50400001928E-02 0.  1.
</event>
<event>
 5   0  0.5813850E-03  0.8013794E+03  0.7818609E-02  0.9558023E-01
       -2   -1    0    0    0  501  0.00000000000E+00  0.00000000000E+00  0.89061511745E+02  0.89061511781E+02  0.25500000920E-02 0.  1.
        2   -1    0    0  501    0  0.00000000000E+00  0.00000000000E+00 -0.18027117980E+04  0.18027117980E+04  0.25500000920E-02 0. -1.
    10030    2    1    2    0    0  0.00000000000E+00  0.00000000000E+00 -0.17136502863E+04  0.18917733098E+04  0.80137940579E+03 0.  0.
        5    1    3    3  502    0 -0.23001683317E+03  0.72806115803E+02 -0.16119429898E+04  0.16299051403E+04  0.46999998093E+01 0. -1.
       -5    1    3    3    0  502  0.23001683317E+03 -0.72806115803E+02 -0.10170729647E+03  0.26186816949E+03  0.46999998093E+01 0.  1.
</event>
<event>
 5   0  0.5813850E-03  0.7979845E+03  0.7818609E-02  0.9562939E-01
       -2   -1    0    0    0  501  0.00000000000E+00  0.00000000000E+00  0.10205810542E+03  0.10205810545E+03  0.25500000920E-02 0. -1.
        2   -1    0    0  501    0  0.00000000000E+00  0.00000000000E+00 -0.15598447433E+04  0.15598447433E+04  0.25500000920E-02 0.  1.
    10030    2    1    2    0    0  0.00000000000E+00  0.00000000000E+00 -0.14577866379E+04  0.16619028487E+04  0.79798445918E+03 0.  0.
        5    1    3    3  502    0 -0.30687314660E+03 -0.20350029002E+03 -0.40902743200E+03  0.55037171645E+03  0.46999998093E+01 0. -1.
       -5    1    3    3    0  502  0.30687314660E+03  0.20350029002E+03 -0.10487592059E+04  0.11115311323E+04  0.46999998093E+01 0.  1.
</event>
<event>
 5   0  0.3627496E-03  0.7998802E+03  0.7818609E-02  0.9560191E-01
        1   -1    0    0  501    0  0.00000000000E+00  0.00000000000E+00  0.22484138185E+03  0.22484138191E+03  0.50400001928E-02 0.  1.
       -1   -1    0    0    0  501  0.00000000000E+00  0.00000000000E+00 -0.71139966962E+03  0.71139966964E+03  0.50400001928E-02 0. -1.
    10030    2    1    2    0    0  0.00000000000E+00  0.00000000000E+00 -0.48655828776E+03  0.93624105155E+03  0.79988020304E+03 0.  0.
        3    1    3    3  502    0 -0.38933755313E+03 -0.80788061174E+02 -0.19304901016E+03  0.44201625720E+03  0.10100000352E+00 0. -1.
       -3    1    3    3    0  502  0.38933755313E+03  0.80788061174E+02 -0.29350927761E+03  0.49422479435E+03  0.10100000352E+00 0.  1.
</event>
<event>
 5   0  0.3753450E-03  0.8000934E+03  0.7818609E-02  0.9559882E-01
       -1   -1    0    0    0  501  0.00000000000E+00  0.00000000000E+00  0.30767727961E+03  0.30767727965E+03  0.50400001928E-02 0. -1.
        1   -1    0    0  501    0  0.00000000000E+00  0.00000000000E+00 -0.52014684258E+03  0.52014684261E+03  0.50400001928E-02 0.  1.
    10030    2    1    2    0    0  0.00000000000E+00  0.00000000000E+00 -0.21246956297E+03  0.82782412225E+03  0.80009340842E+03 0.  0.
        5    1    3    3  502    0 -0.15070186942E+03 -0.21234240986E+03  0.20795929209E+03  0.33327092528E+03  0.46999998093E+01 0. -1.
       -5    1    3    3    0  502  0.15070186942E+03  0.21234240986E+03 -0.42042885506E+03  0.49455319698E+03  0.46999998093E+01 0.  1.
</event>
<event>
 5   0  0.5813850E-03  0.7999681E+03  0.7818609E-02  0.9560063E-01
       -2   -1    0    0    0  501  0.00000000000E+00  0.00000000000E+00  0.84742225093E+02  0.84742225131E+02  0.25500000920E-02 0.  1.
        2   -1    0    0  501    0  0.00000000000E+00  0.00000000000E+00 -0.18879281530E+04  0.18879281530E+04  0.25500000920E-02 0. -1.
    10030    2    1    2    0    0  0.00000000000E+00  0.00000000000E+00 -0.18031859279E+04  0.19726703781E+04  0.79996808070E+03 0.  0.
        5    1    3    3  502    0  0.89596184291E+02 -0.38973820344E+03 -0.91753578599E+03  0.10009082635E+04  0.46999998093E+01 0. -1.
       -5    1    3    3    0  502 -0.89596184291E+02  0.38973820344E+03 -0.88565014187E+03  0.97176211454E+03  0.46999998093E+01 0.  1.
</event>
<event>
 5   0  0.3671128E-03  0.8049984E+03  0.7818609E-02  0.9552810E-01
        1   -1    0    0  501    0  0.00000000000E+00  0.00000000000E+00  0.30485921446E+03  0.30485921451E+03  0.50400001928E-02 0. -1.
       -1   -1    0    0    0  501  0.00000000000E+00  0.00000000000E+00 -0.53141121481E+03  0.53141121483E+03  0.50400001928E-02 0.  1.
    10030    2    1    2    0    0  0.00000000000E+00  0.00000000000E+00 -0.22655200035E+03  0.83627042934E+03  0.80499839884E+03 0.  0.
        2    1    3    3  502    0  0.10451229671E+03 -0.32480356677E+03 -0.33507763554E+03  0.47822295951E+03  0.25500000920E-02 0.  1.
       -2    1    3    3    0  502 -0.10451229671E+03  0.32480356677E+03  0.10852563520E+03  0.35804746983E+03  0.25500000920E-02 0. -1.
</event>
<event>
 5   0  0.6256781E-03  0.8005183E+03  0.7818609E-02  0.9559267E-01
       -2   -1    0    0    0  501  0.00000000000E+00  0.00000000000E+00  0.42817396788E+03  0.42817396789E+03  0.25500000920E-02 0.  1.
        2   -1    0    0  501    0  0.00000000000E+00  0.00000000000E+00 -0.37416420053E+03  0.37416420054E+03  0.25500000920E-02 0. -1.
    10030    2    1    2    0    0  0.00000000000E+00  0.00000000000E+00  0.54009767353E+02  0.80233816843E+03  0.80051825809E+03 0.  0.
        1    1    3    3  502    0 -0.12311633088E+03 -0.78719288125E+02  0.40048188678E+03  0.42630986256E+03  0.50400001928E-02 0.  1.
       -1    1    3    3    0  502  0.12311633088E+03  0.78719288125E+02 -0.34647211942E+03  0.37602830587E+03  0.50400001928E-02 0. -1.
</event>
<event>
 5   0  0.3753450E-03  0.8009491E+03  0.7818609E-02  0.9558644E-01
        1   -1    0    0  501    0  0.00000000000E+00  0.00000000000E+00  0.51333168897E+03  0.51333168900E+03  0.50400001928E-02 0. -1.
       -1   -1    0    0    0  501  0.00000000000E+00  0.00000000000E+00 -0.31242931040E+03  0.31242931044E+03  0.50400001928E-02 0.  1.
    10030    2    1    2    0    0  0.00000000000E+00  0.00000000000E+00  0.20090237858E+03  0.82576099944E+03  0.80094910105E+03 0.  0.
        5    1    3    3  502    0  0.10997408613E+03 -0.26836562956E+03  0.38512694127E+03  0.48214029248E+03  0.46999998093E+01 0. -1.
       -5    1    3    3    0  502 -0.10997408613E+03  0.26836562956E+03 -0.18422456269E+03  0.34362070695E+03  0.46999998093E+01 0.  1.
</event>
<event>
 5   0  0.3714448E-03  0.8013224E+03  0.7818609E-02  0.9558105E-01
       -1   -1    0    0    0  501  0.00000000000E+00  0.00000000000E+00  0.24586604359E+03  0.24586604364E+03  0.50400001928E-02 0. -1.
        1   -1    0    0  501    0  0.00000000000E+00  0.00000000000E+00 -0.65291413283E+03  0.65291413285E+03  0.50400001928E-02 0.  1.
    10030    2    1    2    0    0  0.00000000000E+00  0.00000000000E+00 -0.40704808925E+03  0.89878017649E+03  0.80132244365E+03 0.  0.
        1    1    3    3  502    0  0.21890710849E+03  0.31490611895E+03 -0.33357033628E+03  0.50828668601E+03  0.50400001928E-02 0.  1.
       -1    1    3    3    0  502 -0.21890710849E+03 -0.31490611895E+03 -0.73477752965E+02  0.39049349048E+03  0.50400001928E-02 0. -1.
</event>
<event>
 5   0  0.3714448E-03  0.7961681E+03  0.7818609E-02  0.9565580E-01
        1   -1    0    0  501    0  0.00000000000E+00  0.00000000000E+00  0.22322958232E+03  0.22322958237E+03  0.50400001928E-02 0.  1.
       -1   -1    0    0    0  501  0.00000000000E+00  0.00000000000E+00 -0.70990107462E+03  0.70990107464E+03  0.50400001928E-02 0. -1.
    10030    2    1    2    0    0  0.00000000000E+00  0.00000000000E+00 -0.48667149231E+03  0.93313065702E+03  0.79616812398E+03 0.  0.
        1    1    3    3  502    0  0.26772482503E+03  0.28806704373E+03 -0.17097584198E+03  0.42882623776E+03  0.50400001928E-02 0. -1.
       -1    1    3    3    0  502 -0.26772482503E+03 -0.28806704373E+03 -0.31569565033E+03  0.50430441926E+03  0.50400001928E-02 0.  1.
</event>
<event>
 5   0  0.3671128E-03  0.8003798E+03  0.7818609E-02  0.9559468E-01
        1   -1    0    0  501    0  0.00000000000E+00  0.00000000000E+00  0.47557094022E+03  0.47557094024E+03  0.50400001928E-02 0. -1.
       -1   -1    0    0    0  501  0.00000000000E+00  0.00000000000E+00 -0.33675721109E+03  0.33675721113E+03  0.50400001928E-02 0.  1.
    10030    2    1    2    0    0  0.00000000000E+00  0.00000000000E+00  0.13881372912E+03  0.81232815137E+03  0.80037976869E+03 0.  0.
        2    1    3    3  502    0  0.22207114302E+03  0.29192544549E+03 -0.93032052734E+02  0.37840589468E+03  0.25500000920E-02 0.  1.
       -2    1    3    3    0  502 -0.22207114302E+03 -0.29192544549E+03  0.23184578185E+03  0.43392225670E+03  0.25500000920E-02 0. -1.
</event>
<event>
 5   0  0.6337108E-03  0.8004851E+03  0.7818609E-02  0.9559315E-01
       -2   -1    0    0    0  501  0.00000000000E+00  0.00000000000E+00  0.66975572424E+03  0.66975572424E+03  0.25500000920E-02 0. -1.
        2   -1    0    0  501    0  0.00000000000E+00  0.00000000000E+00 -0.23918289468E+03  0.23918289469E+03  0.25500000920E-02 0.  1.
    10030    2    1    2    0    0  0.00000000000E+00  0.00000000000E+00  0.43057282956E+03  0.90893861894E+03  0.80048513505E+03 0.  0.
        4    1    3    3  502    0 -0.22057896384E+03  0.42994675848E+02  0.59135112620E+03  0.63261472382E+03  0.12699999809E+01 0. -1.
       -4    1    3    3    0  502  0.22057896384E+03 -0.42994675848E+02 -0.16077829664E+03  0.27632389511E+03  0.12699999809E+01 0.  1.
</event>
<event>
 5   0  0.6256781E-03  0.7984137E+03  0.7818609E-02  0.9562316E-01
        2   -1    0    0  501    0  0.00000000000E+00  0.00000000000E+00  0.13570068067E+04  0.13570068067E+04  0.25500000920E-02 0. -1.
       -2   -1    0    0    0  501  0.00000000000E+00  0.00000000000E+00 -0.11743943650E+03  0.11743943653E+03  0.25500000920E-02 0.  1.
    10030    2    1    2    0    0  0.00000000000E+00  0.00000000000E+00  0.12395673702E+04  0.14744462433E+04  0.79841371414E+03 0.  0.
        1    1    3    3  502    0  0.21309961721E+03 -0.11317820278E+02 -0.32661549944E+01  0.21342494631E+03  0.50400001928E-02 0.  1.
       -1    1    3    3    0  502 -0.21309961721E+03  0.11317820278E+02  0.12428335252E+04  0.12610212970E+04  0.50400001928E-02 0. -1.
</event>
<event>
 5   0  0.3860515E-03  0.8014741E+03  0.7818609E-02  0.9557886E-01
       -1   -1    0    0    0  501  0.00000000000E+00  0.00000000000E+00  0.28699196796E+03  0.28699196800E+03  0.50400001928E-02 0.  1.
        1   -1    0    0  501    0  0.00000000000E+00  0.00000000000E+00 -0.55956330869E+03  0.55956330871E+03  0.50400001928E-02 0. -1.
    10030    2    1    2    0    0  0.00000000000E+00  0.00000000000E+00 -0.27257134073E+03  0.84655527671E+03  0.80147407989E+03 0.  0.
        4    1    3    3  502    0  0.92152817876E+02  0.15573961309E+03  0.24137514540E+03  0.30167953634E+03  0.12699999809E+01 0.  1.
       -4    1    3    3    0  502 -0.92152817876E+02 -0.15573961309E+03 -0.51394648614E+03  0.54487574037E+03  0.12699999809E+01 0. -1.
</event>
<event>
 5   0  0.5813850E-03  0.7992780E+03  0.7818609E-02  0.9561063E-01
       -2   -1    0    0    0  501  0.00000000000E+00  0.00000000000E+00  0.10568976503E+03  0.10568976506E+03  0.25500000920E-02 0.  1.
        2   -1    0    0  501    0  0.00000000000E+00  0.00000000000E+00 -0.15111334027E+04  0.15111334027E+04  0.25500000920E-02 0. -1.
    10030    2    1    2    0    0  0.00000000000E+00  0.00000000000E+00 -0.14054436377E+04  0.16168231678E+04  0.79927800994E+03 0.  0.
        5    1    3    3  502    0  0.21881906359E+03  0.30100559227E+03 -0.40816824944E+03  0.55236723202E+03  0.46999998093E+01 0.  1.
       -5    1    3    3    0  502 -0.21881906359E+03 -0.30100559227E+03 -0.99727538825E+03  0.10644559358E+04  0.46999998093E+01 0. -1.
</event>
<event>
 5   0  0.6536209E-03  0.7910986E+03  0.7818609E-02  0.9572992E-01
        2   -1    0    0  501    0  0.00000000000E+00  0.00000000000E+00  0.64936638747E+03  0.64936638748E+03  0.25500000920E-02 0.  1.
       -2   -1    0    0    0  501  0.00000000000E+00  0.00000000000E+00 -0.24094142074E+03  0.24094142075E+03  0.25500000920E-02 0. -1.
    10030    2    1    2    0    0  0.00000000000E+00  0.00000000000E+00  0.40842496673E+03  0.89030780823E+03  0.79109862846E+03 0.  0.
        3    1    3    3  502    0  0.26747547794E+03  0.46676223168E+02 -0.11950086879E+03  0.29665176378E+03  0.10100000352E+00 0. -1.
       -3    1    3    3    0  502 -0.26747547794E+03 -0.46676223168E+02  0.52792583552E+03  0.59365604445E+03  0.10100000352E+00 0.  1.
</event>
<event>
 5   0  0.6337108E-03  0.7989459E+03  0.7818609E-02  0.9561544E-01
        2   -1    0    0  501    0  0.00000000000E+00  0.00000000000E+00  0.14579627958E+04  0.14579627958E+04  0.25500000920E-02 0.  1.
       -2   -1    0    0    0  501  0.00000000000E+00  0.00000000000E+00 -0.10945315302E+03  0.10945315305E+03  0.25500000920E-02 0. -1.
    10030    2    1    2    0    0  0.00000000000E+00  0.00000000000E+00  0.13485096428E+04  0.15674159488E+04  0.79894586804E+03 0.  0.
        4    1    3    3  502    0  0.27360880179E+03  0.57305086848E+02  0.12340933166E+04  0.12653590701E+04  0.12699999809E+01 0.  1.
       -4    1    3    3    0  502 -0.27360880179E+03 -0.57305086848E+02  0.11441632620E+03  0.30205687875E+03  0.12699999809E+01 0. -1.
</event>
<event>
 5   0  0.6153659E-03  0.8027061E+03  0.7818609E-02  0.9556108E-01
       -2   -1    0    0    0  501  0.00000000000E+00  0.00000000000E+00  0.10590830575E+03  0.10590830578E+03  0.25500000920E-02 0. -1.
        2   -1    0    0  501    0  0.00000000000E+00  0.00000000000E+00 -0.15209786032E+04  0.15209786032E+04  0.25500000920E-02 0.  1.
    10030    2    1    2    0    0  0.00000000000E+00  0.00000000000E+00 -0.14150702975E+04  0.16268869090E+04  0.80270609062E+03 0.  0.
        2    1    3    3  502    0 -0.36343756671E+03 -0.93364020544E+02 -0.99616470148E+03  0.10644941605E+04  0.25500000920E-02 0.  1.
       -2    1    3    3    0  502  0.36343756671E+03  0.93364020544E+02 -0.41890559598E+03  0.56239274852E+03  0.25500000920E-02 0. -1.
</event>
<event>
 5   0  0.6153659E-03  0.7966143E+03  0.7818609E-02  0.9564931E-01
        2   -1    0    0  501    0  0.00000000000E+00  0.00000000000E+00  0.13465270469E+04  0.13465270469E+04  0.25500000920E-02 0.  1.
       -2   -1    0    0    0  501  0.00000000000E+00  0.00000000000E+00 -0.11782057220E+03  0.11782057223E+03  0.25500000920E-02 0. -1.
    10030    2    1    2    0    0  0.00000000000E+00  0.00000000000E+00  0.12287064747E+04  0.14643476191E+04  0.79661430359E+03 0.  0.
        2    1    3    3  502    0  0.32868114819E+03  0.56994865521E+02  0.10144293502E+04  0.10678701318E+04  0.25500000920E-02 0.  1.
       -2    1    3    3    0  502 -0.32868114819E+03 -0.56994865521E+02  0.21427712455E+03  0.39647748736E+03  0.25500000920E-02 0. -1.
</event>
<event>
 5   0  0.6153659E-03  0.7994433E+03  0.7818609E-02  0.9560823E-01
       -2   -1    0    0    0  501  0.00000000000E+00  0.00000000000E+00  0.18281200493E+03  0.18281200495E+03  0.25500000920E-02 0. -1.
        2   -1    0    0  501    0  0.00000000000E+00  0.00000000000E+00 -0.87399835652E+03  0.87399835652E+03  0.25500000920E-02 0.  1.
    10030    2    1    2    0    0  0.00000000000E+00  0.00000000000E+00 -0.69118635158E+03  0.10568103615E+04  0.79944328598E+03 0.  0.
        2    1    3    3  502    0 -0.31665849963E+03  0.13052988088E+03 -0.61800995114E+03  0.70657409725E+03  0.25500000920E-02 0.  1.
       -2    1    3    3    0  502  0.31665849963E+03 -0.13052988088E+03 -0.73176400444E+02  0.35023626422E+03  0.25500000920E-02 0. -1.
</event>
<event>
 5   0  0.6536209E-03  0.8053273E+03  0.7818609E-02  0.9552338E-01
        2   -1    0    0  501    0  0.00000000000E+00  0.00000000000E+00  0.11106169355E+03  0.11106169358E+03  0.25500000920E-02 0. -1.
       -2   -1    0    0    0  501  0.00000000000E+00  0.00000000000E+00 -0.14598914561E+04  0.14598914561E+04  0.25500000920E-02 0.  1.
    10030    2    1    2    0    0  0.00000000000E+00  0.00000000000E+00 -0.13488297626E+04  0.15709531497E+04  0.80532730624E+03 0.  0.
        3    1    3    3  502    0 -0.23045017684E+03  0.31081393885E+03 -0.45697143361E+03  0.59877833120E+03  0.10100000352E+00 0. -1.
       -3    1    3    3    0  502  0.23045017684E+03 -0.31081393885E+03 -0.89185832897E+03  0.97217481850E+03  0.10100000352E+00 0.  1.
</event>
<event>
 5   0  0.6337108E-03  0.7843416E+03  0.7818609E-02  0.9582963E-01
        2   -1    0    0  501    0  0.00000000000E+00  0.00000000000E+00  0.49844798171E+03  0.49844798172E+03  0.25500000920E-02 0. -1.
       -2   -1    0    0    0  501  0.00000000000E+00  0.00000000000E+00 -0.30855360814E+03  0.30855360815E+03  0.25500000920E-02 0.  1.
    10030    2    1    2    0    0  0.00000000000E+00  0.00000000000E+00  0.18989437357E+03  0.80700158987E+03  0.78434156650E+03 0.  0.
        4    1    3    3  502    0  0.14000110078E+03 -0.30106855090E+03 -0.11977742945E+03  0.35297425694E+03  0.12699999809E+01 0.  1.
       -4    1    3    3    0  502 -0.14000110078E+03  0.30106855090E+03  0.30967180302E+03  0.45402733293E+03  0.12699999809E+01 0. -1.
</event>
<event>
 5   0  0.6256781E-03  0.7763774E+03  0.7818609E-02  0.9594854E-01
       -2   -1    0    0    0  501  0.00000000000E+00  0.00000000000E+00  0.12290065987E+03  0.12290065990E+03  0.25500000920E-02 0.  1.
        2   -1    0    0  501    0  0.00000000000E+00  0.00000000000E+00 -0.12261158859E+04  0.12261158859E+04  0.25500000920E-02 0. -1.
    10030    2    1    2    0    0  0.00000000000E+00  0.00000000000E+00 -0.11032152260E+04  0.13490165458E+04  0.77637736050E+03 0.  0.
        1    1    3    3  502    0  0.69532219113E+02  0.33025854485E+03 -0.88486507724E+03  0.94704363199E+03  0.50400001928E-02 0. -1.
       -1    1    3    3    0  502 -0.69532219113E+02 -0.33025854485E+03 -0.21835014881E+03  0.40197291383E+03  0.50400001928E-02 0.  1.
</event>
<event>
 5   0  0.3714448E-03  0.7988094E+03  0.7818609E-02  0.9561742E-01
        1   -1    0    0  501    0  0.00000000000E+00  0.00000000000E+00  0.11661865051E+04  0.11661865051E+04  0.50400001928E-02 0.  1.
       -1   -1    0    0    0  501  0.00000000000E+00  0.00000000000E+00 -0.13679125293E+03  0.13679125302E+03  0.50400001928E-02 0. -1.
    10030    2    1    2    0    0  0.00000000000E+00  0.00000000000E+00  0.10293952522E+04  0.13029777581E+04  0.79880939715E+03 0.  0.
        1    1    3    3  502    0 -0.21459753413E+03  0.15090863105E+03  0.10059380764E+04  0.10395849797E+04  0.50400001928E-02 0.  1.
       -1    1    3    3    0  502  0.21459753413E+03 -0.15090863105E+03  0.23457175795E+02  0.26339277838E+03  0.50400001928E-02 0. -1.
</event>
<event>
 5   0  0.3627496E-03  0.8007852E+03  0.7818609E-02  0.9558881E-01
        1   -1    0    0  501    0  0.00000000000E+00  0.00000000000E+00  0.13141785185E+04  0.13141785185E+04  0.50400001928E-02 0.  1.
       -1   -1    0    0    0  501  0.00000000000E+00  0.00000000000E+00 -0.12198815755E+03  0.12198815766E+03  0.50400001928E-02 0. -1.
    10030    2    1    2    0    0  0.00000000000E+00  0.00000000000E+00  0.11921903610E+04  0.14361666762E+04  0.80078515534E+03 0.  0.
        3    1    3    3  502    0  0.76889847096E+02  0.39293978171E+03  0.59484565158E+03  0.71704607944E+03  0.10100000352E+00 0. -1.
       -3    1    3    3    0  502 -0.76889847096E+02 -0.39293978171E+03  0.59734470940E+03  0.71912059676E+03  0.10100000352E+00 0.  1.
</event>
<event>
 5   0  0.3860515E-03  0.7981289E+03  0.7818609E-02  0.9562729E-01
       -1   -1    0    0    0  501  0.00000000000E+00  0.00000000000E+00  0.70430883730E+02  0.70430883910E+02  0.50400001928E-02 0. -1.
        1   -1    0    0  501    0  0.00000000000E+00  0.00000000000E+00 -0.22611165091E+04  0.22611165091E+04  0.50400001928E-02 0.  1.
    10030    2    1    2    0    0  0.00000000000E+00  0.00000000000E+00 -0.21906856253E+04  0.23315473930E+04  0.79812889728E+03 0.  0.
        4    1    3    3  502    0 -0.26514765706E+03 -0.20742479616E+03 -0.17213566761E+04  0.17539665747E+04  0.12699999809E+01 0. -1.
       -4    1    3    3    0  502  0.26514765706E+03  0.20742479616E+03 -0.46932894929E+03  0.57758081828E+03  0.12699999809E+01 0.  1.
</event>
<event>
 5   0  0.6337108E-03  0.7940859E+03  0.7818609E-02  0.9568617E-01
       -2   -1    0    0    0  501  0.00000000000E+00  0.00000000000E+00  0.25148358860E+03  0.25148358861E+03  0.25500000920E-02 0.  1.
        2   -1    0    0  501    0  0.00000000000E+00  0.00000000000E+00 -0.62685238642E+03  0.62685238642E+03  0.25500000920E-02 0. -1.
    10030    2    1    2    0    0  0.00000000000E+00  0.00000000000E+00 -0.37536879782E+03  0.87833597504E+03  0.79408585850E+03 0.  0.
        4    1    3    3  502    0  0.21510273124E+03  0.13316895372E+03  0.15078547114E+03  0.29451829557E+03  0.12699999809E+01 0.  1.
       -4    1    3    3    0  502 -0.21510273124E+03 -0.13316895372E+03 -0.52615426895E+03  0.58381767947E+03  0.12699999809E+01 0. -1.
</event>
<event>
 5   0  0.6153659E-03  0.8044580E+03  0.7818609E-02  0.9553587E-01
        2   -1    0    0  501    0  0.00000000000E+00  0.00000000000E+00  0.15488965957E+04  0.15488965957E+04  0.25500000920E-02 0.  1.
       -2   -1    0    0    0  501  0.00000000000E+00  0.00000000000E+00 -0.10445383242E+03  0.10445383245E+03  0.25500000920E-02 0. -1.
    10030    2    1    2    0    0  0.00000000000E+00  0.00000000000E+00  0.14444427633E+04  0.16533504281E+04  0.80445804233E+03 0.  0.
        2    1    3    3  502    0 -0.21513827788E+03 -0.32549308916E+03  0.92315102918E+03  0.10022165696E+04  0.25500000920E-02 0.  1.
       -2    1    3    3    0  502  0.21513827788E+03  0.32549308916E+03  0.52129173409E+03  0.65113385854E+03  0.25500000920E-02 0. -1.
</event>
<event>
 5   0  0.6153659E-03  0.7990195E+03  0.7818609E-02  0.9561437E-01
        2   -1    0    0  501    0  0.00000000000E+00  0.00000000000E+00  0.42612373994E+03  0.42612373995E+03  0.25500000920E-02 0. -1.
       -2   -1    0    0    0  501  0.00000000000E+00  0.00000000000E+00 -0.37455799375E+03  0.37455799376E+03  0.25500000920E-02 0.  1.
    10030    2    1    2    0    0  0.00000000000E+00  0.00000000000E+00  0.51565746196E+02  0.80068173371E+03  0.79901953199E+03 0.  0.
        2    1    3    3  502    0 -0.29598256496E+02  0.38086975664E+02 -0.37162931182E+03  0.37474660761E+03  0.25500000920E-02 0.  1.
       -2    1    3    3    0  502  0.29598256496E+02 -0.38086975664E+02  0.42319505802E+03  0.42593512609E+03  0.25500000920E-02 0. -1.
</event>
<event>
 5   0  0.6256781E-03  0.7983718E+03  0.7818609E-02  0.9562377E-01
        2   -1    0    0  501    0  0.00000000000E+00  0.00000000000E+00  0.46117706068E+03  0.46117706069E+03  0.25500000920E-02 0.  1.
       -2   -1    0    0    0  501  0.00000000000E+00  0.00000000000E+00 -0.34552755155E+03  0.34552755156E+03  0.25500000920E-02 0. -1.
    10030    2    1    2    0    0  0.00000000000E+00  0.00000000000E+00  0.11564950913E+03  0.80670461224E+03  0.79837179463E+03 0.  0.
        1    1    3    3  502    0  0.32285053170E+03  0.16800711468E+03  0.22351959630E+03  0.42710638763E+03  0.50400001928E-02 0. -1.
       -1    1    3    3    0  502 -0.32285053170E+03 -0.16800711468E+03 -0.10787008717E+03  0.37959822461E+03  0.50400001928E-02 0.  1.
</event>
<event>
 5   0  0.5813850E-03  0.7998117E+03  0.7818609E-02  0.9560290E-01
       -2   -1    0    0    0  501  0.00000000000E+00  0.00000000000E+00  0.18132284889E+03  0.18132284891E+03  0.25500000920E-02 0. -1.
        2   -1    0    0  501    0  0.00000000000E+00  0.00000000000E+00 -0.88198870125E+03  0.88198870126E+03  0.25500000920E-02 0.  1.
    10030    2    1    2    0    0  0.00000000000E+00  0.00000000000E+00 -0.70066585236E+03  0.10633115502E+04  0.79981173788E+03 0.  0.
        5    1    3    3  502    0  0.37155957777E+03 -0.14629328161E+03 -0.32230796015E+03  0.51318881053E+03  0.46999998093E+01 0. -1.
       -5    1    3    3    0  502 -0.37155957777E+03  0.14629328161E+03 -0.37835789221E+03  0.55012273964E+03  0.46999998093E+01 0.  1.
</event>
<event>
 5   0  0.3671128E-03  0.7972263E+03  0.7818609E-02  0.9564041E-01
       -1   -1    0    0    0  501  0.00000000000E+00  0.00000000000E+00  0.87774748819E+03  0.87774748821E+03  0.50400001928E-02 0. -1.
        1   -1    0    0  501    0  0.00000000000E+00  0.00000000000E+00 -0.18102295862E+03  0.18102295869E+03  0.50400001928E-02 0.  1.
    10030    2    1    2    0    0  0.00000000000E+00  0.00000000000E+00  0.69672452958E+03  0.10587704469E+04  0.79722630984E+03 0.  0.
        2    1    3    3  502    0 -0.17810196817E+03 -0.13442675198E+03  0.78703002464E+03  0.81805080674E+03  0.25500000920E-02 0. -1.
       -2    1    3    3    0  502  0.17810196817E+03  0.13442675198E+03 -0.90305495063E+02  0.24071964016E+03  0.25500000920E-02 0.  1.
</event>
<event>
 5   0  0.3627496E-03  0.7925202E+03  0.7818609E-02  0.9570907E-01
       -1   -1    0    0    0  501  0.00000000000E+00  0.00000000000E+00  0.20387921819E+03  0.20387921826E+03  0.50400001928E-02 0.  1.
        1   -1    0    0  501    0  0.00000000000E+00  0.00000000000E+00 -0.77017202211E+03  0.77017202212E+03  0.50400001928E-02 0. -1.
    10030    2    1    2    0    0  0.00000000000E+00  0.00000000000E+00 -0.56629280391E+03  0.97405124038E+03  0.79252020739E+03 0.  0.
        3    1    3    3  502    0  0.22062981554E+03 -0.15034130482E+03  0.76742418111E+02  0.27779386670E+03  0.10100000352E+00 0.  1.
       -3    1    3    3    0  502 -0.22062981554E+03  0.15034130482E+03 -0.64303522202E+03  0.69625737368E+03  0.10100000352E+00 0. -1.
</event>
<event>
 5   0  0.3714448E-03  0.8003714E+03  0.7818609E-02  0.9559480E-01
        1   -1    0    0  501    0  0.00000000000E+00  0.00000000000E+00  0.19204330036E+03  0.19204330043E+03  0.50400001928E-02 0. -1.
       -1   -1    0    0    0  501  0.00000000000E+00  0.00000000000E+00 -0.83391923449E+03  0.83391923450E+03  0.50400001928E-02 0.  1.
    10030    2    1    2    0    0  0.00000000000E+00  0.00000000000E+00 -0.64187593413E+03  0.10259625349E+04  0.80037141894E+03 0.  0.
        1    1    3    3  502    0  0.18448775186E+03 -0.32537074223E+03 -0.50333493186E+03  0.62709481272E+03  0.50400001928E-02 0.  1.
       -1    1    3    3    0  502 -0.18448775186E+03  0.32537074223E+03 -0.13854100227E+03  0.39886772221E+03  0.50400001928E-02 0. -1.
</event>
<event>
 5   0  0.3671128E-03  0.7962000E+03  0.7818609E-02  0.9565534E-01
        1   -1    0    0  501    0  0.00000000000E+00  0.00000000000E+00  0.74307038092E+03  0.74307038093E+03  0.50400001928E-02 0. -1.
       -1   -1    0    0    0  501  0.00000000000E+00  0.00000000000E+00 -0.21328212180E+03  0.21328212186E+03  0.50400001928E-02 0.  1.
    10030    2    1    2    0    0  0.00000000000E+00  0.00000000000E+00  0.52978825912E+03  0.95635250279E+03  0.79620004402E+03 0.  0.
        2    1    3    3  502    0  0.55388934777E+02  0.39344613779E+03  0.29470167738E+03  0.49468866583E+03  0.25500000920E-02 0.  1.
       -2    1    3    3    0  502 -0.55388934777E+02 -0.39344613779E+03  0.23508658173E+03  0.46166383696E+03  0.25500000920E-02 0. -1.
</event>
<event>
 5   0  0.6536209E-03  0.8074993E+03  0.7818609E-02  0.9549225E-01
        2   -1    0    0  501    0  0.00000000000E+00  0.00000000000E+00  0.34511908895E+03  0.34511908896E+03  0.25500000920E-02 0.  1.
       -2   -1    0    0    0  501  0.00000000000E+00  0.00000000000E+00 -0.47234064978E+03  0.47234064978E+03  0.25500000920E-02 0. -1.
    10030    2    1    2    0    0  0.00000000000E+00  0.00000000000E+00 -0.12722156083E+03  0.81745973875E+03  0.80749928726E+03 0.  0.
        3    1    3    3  502    0 -0.17747321643E+03  0.35626980372E+03  0.49658442430E+01  0.39805726397E+03  0.10100000352E+00 0. -1.
       -3    1    3    3    0  502  0.17747321643E+03 -0.35626980372E+03 -0.13218740507E+03  0.41940247478E+03  0.10100000352E+00 0.  1.
</event>
<event>
 5   0  0.3671128E-03  0.8009453E+03  0.7818609E-02  0.9558650E-01
       -1   -1    0    0    0  501  0.00000000000E+00  0.00000000000E+00  0.98004409875E+02  0.98004410004E+02  0.50400001928E-02 0. -1.
        1   -1    0    0  501    0  0.00000000000E+00  0.00000000000E+00 -0.16364399933E+04  0.16364399933E+04  0.50400001928E-02 0.  1.
    10030    2    1    2    0    0  0.00000000000E+00  0.00000000000E+00 -0.15384355834E+04  0.17344444033E+04  0.80094528141E+03 0.  0.
        2    1    3    3  502    0  0.32504595103E+03 -0.29005843472E+02 -0.12718842428E+04  0.13130825322E+04  0.25500000920E-02 0.  1.
       -2    1    3    3    0  502 -0.32504595103E+03  0.29005843472E+02 -0.26655134061E+03  0.42136187111E+03  0.25500000920E-02 0. -1.
</event>
<event>
 5   0  0.5813850E-03  0.7965718E+03  0.7818609E-02  0.9564993E-01
       -2   -1    0    0    0  501  0.00000000000E+00  0.00000000000E+00  0.24839180360E+03  0.24839180362E+03  0.25500000920E-02 0. -1.
        2   -1    0    0  501    0  0.00000000000E+00  0.00000000000E+00 -0.63863477552E+03  0.63863477552E+03  0.25500000920E-02 0.  1.
    10030    2    1    2    0    0  0.00000000000E+00  0.00000000000E+00 -0.39024297191E+03  0.88702657914E+03  0.79657176386E+03 0.  0.
        5    1    3    3  502    0 -0.76888738277E+02  0.37037432761E+03 -0.56393192810E+02  0.38248046070E+03  0.46999998093E+01 0.  1.
       -5    1    3    3    0  502  0.76888738277E+02 -0.37037432761E+03 -0.33384977910E+03  0.50454611844E+03  0.46999998093E+01 0. -1.
</event>
<event>
 5   0  0.6337108E-03  0.7907602E+03  0.7818609E-02  0.9573489E-01
       -2   -1    0    0    0  501  0.00000000000E+00  0.00000000000E+00  0.45212403489E+03  0.45212403490E+03  0.25500000920E-02 0. -1.
        2   -1    0    0  501    0  0.00000000000E+00  0.00000000000E+00 -0.34575779058E+03  0.34575779059E+03  0.25500000920E-02 0.  1.
    10030    2    1    2    0    0  0.00000000000E+00  0.00000000000E+00  0.10636624431E+03  0.79788182549E+03  0.79076015929E+03 0.  0.
        4    1    3    3  502    0 -0.97270023497E+02 -0.77353901293E+02  0.43190158426E+03  0.44942816434E+03  0.12699999809E+01 0. -1.
       -4    1    3    3    0  502  0.97270023497E+02  0.77353901293E+02 -0.32553533994E+03  0.34845366115E+03  0.12699999809E+01 0.  1.
</event>
<event>
 5   0  0.3753450E-03  0.8018798E+03  0.7818609E-02  0.9557300E-01
        1   -1    0    0  501    0  0.00000000000E+00  0.00000000000E+00  0.84320764918E+03  0.84320764920E+03  0.50400001928E-02 0.  1.
       -1   -1    0    0    0  501  0.00000000000E+00  0.00000000000E+00 -0.19064439394E+03  0.19064439401E+03  0.50400001928E-02 0. -1.
    10030    2    1    2    0    0  0.00000000000E+00  0.00000000000E+00  0.65256325524E+03  0.10338520432E+04  0.80187981964E+03 0.  0.
        5    1    3    3  502    0 -0.10211333545E+03 -0.51016198746E+02  0.82177828530E+03  0.82968152083E+03  0.46999998093E+01 0.  1.
       -5    1    3    3    0  502  0.10211333545E+03  0.51016198746E+02 -0.16921503006E+03  0.20417052238E+03  0.46999998093E+01 0. -1.
</event>
<event>
 5   0  0.3627496E-03  0.7973723E+03  0.7818609E-02  0.9563828E-01
        1   -1    0    0  501    0  0.00000000000E+00  0.00000000000E+00  0.20779354170E+03  0.20779354176E+03  0.50400001928E-02 0. -1.
       -1   -1    0    0    0  501  0.00000000000E+00  0.00000000000E+00 -0.76494501085E+03  0.76494501086E+03  0.50400001928E-02 0.  1.
    10030    2    1    2    0    0  0.00000000000E+00  0.00000000000E+00 -0.55715146915E+03  0.97273855262E+03  0.79737226700E+03 0.  0.
        3    1    3    3  502    0  0.27695638078E+03  0.21594830932E+02  0.70289017925E+02  0.28655144359E+03  0.10100000352E+00 0. -1.
       -3    1    3    3    0  502 -0.27695638078E+03 -0.21594830932E+02 -0.62744048708E+03  0.68618710903E+03  0.10100000352E+00 0.  1.
</event>
<event>
 5   0  0.3860515E-03  0.8121691E+03  0.7818609E-02  0.9542568E-01
        1   -1    0    0  501    0  0.00000000000E+00  0.00000000000E+00  0.80913329940E+03  0.80913329942E+03  0.50400001928E-02 0.  1.
       -1   -1    0    0    0  501  0.00000000000E+00  0.00000000000E+00 -0.20380409357E+03  0.20380409363E+03  0.50400001928E-02 0. -1.
    10030    2    1    2    0    0  0.00000000000E+00  0.00000000000E+00  0.60532920583E+03  0.10129373930E+04  0.81216914174E+03 0.  0.
        4    1    3    3  502    0  0.27605919238E+03 -0.10108574781E+03 -0.46720765426E+02  0.29767675242E+03  0.12699999809E+01 0. -1.
       -4    1    3    3    0  502 -0.27605919238E+03  0.10108574781E+03  0.65204997126E+03  0.71526064063E+03  0.12699999809E+01 0.  1.
</event>
<event>
 5   0  0.3753450E-03  0.8038421E+03  0.7818609E-02  0.9554472E-01
        1   -1    0    0  501    0  0.00000000000E+00  0.00000000000E+00  0.11258645486E+04  0.11258645486E+04  0.50400001928E-02 0.  1.
       -1   -1    0    0    0  501  0.00000000000E+00  0.00000000000E+00 -0.14348132998E+03  0.14348133007E+03  0.50400001928E-02 0. -1.
    10030    2    1    2    0    0  0.00000000000E+00  0.00000000000E+00  0.98238321857E+03  0.12693458786E+04  0.80384213095E+03 0.  0.
        5    1    3    3  502    0 -0.10347173903E+02 -0.36971428742E+03  0.73948060133E+03  0.82683091868E+03  0.46999998093E+01 0.  1.
       -5    1    3    3    0  502  0.10347173903E+02  0.36971428742E+03  0.24290261724E+03  0.44251495996E+03  0.46999998093E+01 0. -1.
</event>
<event>
 5   0  0.6153659E-03  0.7981896E+03  0.7818609E-02  0.9562641E-01
       -2   -1    0    0    0  501  0.00000000000E+00  0.00000000000E+00  0.16649129779E+03  0.16649129781E+03  0.25500000920E-02 0.  1.
        2   -1    0    0  501    0  0.00000000000E+00  0.00000000000E+00 -0.95666667481E+03  0.95666667481E+03  0.25500000920E-02 0. -1.
    10030    2    1    2    0    0  0.00000000000E+00  0.00000000000E+00 -0.79017537702E+03  0.11231579726E+04  0.79818964225E+03 0.  0.
        2    1    3    3  502    0  0.23990116538E+03  0.31412261002E+03 -0.47281300100E+03  0.61626107876E+03  0.25500000920E-02 0. -1.
       -2    1    3    3    0  502 -0.23990116538E+03 -0.31412261002E+03 -0.31736237602E+03  0.50689689385E+03  0.25500000920E-02 0.  1.
</event>
<event>
 5   0  0.3671128E-03  0.7990017E+03  0.7818609E-02  0.9561463E-01
        1   -1    0    0  501    0  0.00000000000E+00  0.00000000000E+00  0.98436738421E+03  0.98436738422E+03  0.50400001928E-02 0. -1.
       -1   -1    0    0    0  501  0.00000000000E+00  0.00000000000E+00 -0.16213553692E+03  0.16213553700E+03  0.50400001928E-02 0.  1.
    10030    2    1    2    0    0  0.00000000000E+00  0.00000000000E+00  0.82223184729E+03  0.11465029212E+04  0.79900171318E+03 0.  0.
        2    1    3    3  502    0  0.15341836038E+03  0.26490368031E+03  0.42786436750E+02  0.30909841851E+03  0.25500000920E-02 0.  1.
       -2    1    3    3    0  502 -0.15341836038E+03 -0.26490368031E+03  0.77944541054E+03  0.83740450271E+03  0.25500000920E-02 0. -1.
</event>
<event>
 5   0  0.5813850E-03  0.8005647E+03  0.7818609E-02  0.9559200E-01
       -2   -1    0    0    0  501  0.00000000000E+00  0.00000000000E+00  0.19378225506E+03  0.19378225508E+03  0.25500000920E-02 0.  1.
        2   -1    0    0  501    0  0.00000000000E+00  0.00000000000E+00 -0.82683501779E+03  0.82683501779E+03  0.25500000920E-02 0. -1.
    10030    2    1    2    0    0  0.00000000000E+00  0.00000000000E+00 -0.63305276273E+03  0.10206172729E+04  0.80056468651E+03 0.  0.
        5    1    3    3  502    0  0.74788463954E+02 -0.37848036250E+03 -0.45242534502E+03  0.59460195253E+03  0.46999998093E+01 0. -1.
       -5    1    3    3    0  502 -0.74788463954E+02  0.37848036250E+03 -0.18062741771E+03  0.42601532034E+03  0.46999998093E+01 0.  1.
</event>
<event>
 5   0  0.3714448E-03  0.7982145E+03  0.7818609E-02  0.9562605E-01
       -1   -1    0    0    0  501  0.00000000000E+00  0.00000000000E+00  0.15147284475E+03  0.15147284484E+03  0.50400001928E-02 0.  1.
        1   -1    0    0  501    0  0.00000000000E+00  0.00000000000E+00 -0.10515852739E+04  0.10515852739E+04  0.50400001928E-02 0. -1.
    10030    2    1    2    0    0  0.00000000000E+00  0.00000000000E+00 -0.90011242914E+03  0.12030581187E+04  0.79821454008E+03 0.  0.
        1    1    3    3  502    0  0.27496604307E+03 -0.12051912587E+03 -0.84640735473E+03  0.89807382475E+03  0.50400001928E-02 0. -1.
       -1    1    3    3    0  502 -0.27496604307E+03  0.12051912587E+03 -0.53705074411E+02  0.30498429399E+03  0.50400001928E-02 0.  1.
</event>
<event>
 5   0  0.6536209E-03  0.8044055E+03  0.7818609E-02  0.9553662E-01
       -2   -1    0    0    0  501  0.00000000000E+00  0.00000000000E+00  0.18584291547E+03  0.18584291549E+03  0.25500000920E-02 0.  1.
        2   -1    0    0  501    0  0.00000000000E+00  0.00000000000E+00 -0.87045042026E+03  0.87045042027E+03  0.25500000920E-02 0. -1.
    10030    2    1    2    0    0  0.00000000000E+00  0.00000000000E+00 -0.68460750480E+03  0.10562933358E+04  0.80440547955E+03 0.  0.
        3    1    3    3  502    0 -0.17622628393E+03 -0.26702933271E+02 -0.81575834003E+03  0.83500325108E+03  0.10100000352E+00 0. -1.
       -3    1    3    3    0  502  0.17622628393E+03  0.26702933271E+02  0.13115083523E+03  0.22129008467E+03  0.10100000352E+00 0.  1.
</event>
<event>
 5   0  0.5813850E-03  0.8084956E+03  0.7818609E-02  0.9547801E-01
        2   -1    0    0  501    0  0.00000000000E+00  0.00000000000E+00  0.19524645330E+04  0.19524645330E+04  0.25500000920E-02 0.  1.
       -2   -1    0    0    0  501  0.00000000000E+00  0.00000000000E+00 -0.83697436617E+02  0.83697436656E+02  0.25500000920E-02 0. -1.
    10030    2    1    2    0    0  0.00000000000E+00  0.00000000000E+00  0.18687670964E+04  0.20361619696E+04  0.80849558202E+03 0.  0.
        5    1    3    3  502    0 -0.17899575718E+03  0.94368824913E+02  0.53106011279E+02  0.20925413888E+03  0.46999998093E+01 0. -1.
       -5    1    3    3    0  502  0.17899575718E+03 -0.94368824913E+02  0.18156610851E+04  0.18269078308E+04  0.46999998093E+01 0.  1.
</event>
<event>
 5   0  0.5813850E-03  0.8007368E+03  0.7818609E-02  0.9558951E-01
       -2   -1    0    0    0  501  0.00000000000E+00  0.00000000000E+00  0.28677460634E+03  0.28677460636E+03  0.25500000920E-02 0.  1.
        2   -1    0    0  501    0  0.00000000000E+00  0.00000000000E+00 -0.55895765034E+03  0.55895765035E+03  0.25500000920E-02 0. -1.
    10030    2    1    2    0    0  0.00000000000E+00  0.00000000000E+00 -0.27218304400E+03  0.84573225670E+03  0.80073681106E+03 0.  0.
        5    1    3    3  502    0 -0.35594721627E+03  0.46032711929E+02 -0.32341416843E+03  0.48315240419E+03  0.46999998093E+01 0. -1.
       -5    1    3    3    0  502  0.35594721627E+03 -0.46032711929E+02  0.51231124431E+02  0.36257985251E+03  0.46999998093E+01 0.  1.
</event>
<event>
 5   0  0.6536209E-03  0.8007612E+03  0.7818609E-02  0.9558916E-01
        2   -1    0    0  501    0  0.00000000000E+00  0.00000000000E+00  0.13493666972E+04  0.13493666972E+04  0.25500000920E-02 0. -1.
       -2   -1    0    0    0  501  0.00000000000E+00  0.00000000000E+00 -0.11879989162E+03  0.11879989165E+03  0.25500000920E-02 0.  1.
    10030    2    1    2    0    0  0.00000000000E+00  0.00000000000E+00  0.12305668056E+04  0.14681665889E+04  0.80076118140E+03 0.  0.
        3    1    3    3  502    0  0.16102659286E+03 -0.60899377762E+02 -0.47473313262E+02  0.17858337967E+03  0.10100000352E+00 0.  1.
       -3    1    3    3    0  502 -0.16102659286E+03  0.60899377762E+02  0.12780401189E+04  0.12895832092E+04  0.10100000352E+00 0. -1.
</event>
<event>
 5   0  0.3714448E-03  0.7992830E+03  0.7818609E-02  0.9561055E-01
        1   -1    0    0  501    0  0.00000000000E+00  0.00000000000E+00  0.75204671884E+03  0.75204671885E+03  0.50400001928E-02 0. -1.
       -1   -1    0    0    0  501  0.00000000000E+00  0.00000000000E+00 -0.21237157807E+03  0.21237157813E+03  0.50400001928E-02 0.  1.
    10030    2    1    2    0    0  0.00000000000E+00  0.00000000000E+00  0.53967514077E+03  0.96441829698E+03  0.79928304999E+03 0.  0.
        1    1    3    3  502    0 -0.18856031137E+03  0.35249352207E+02  0.69286523122E+03  0.71892957688E+03  0.50400001928E-02 0. -1.
       -1    1    3    3    0  502  0.18856031137E+03 -0.35249352207E+02 -0.15319009046E+03  0.24548872010E+03  0.50400001928E-02 0.  1.
</event>
<event>
 5   0  0.3671128E-03  0.7978042E+03  0.7818609E-02  0.9563201E-01
       -1   -1    0    0    0  501  0.00000000000E+00  0.00000000000E+00  0.11246276967E+03  0.11246276978E+03  0.50400001928E-02 0. -1.
        1   -1    0    0  501    0  0.00000000000E+00  0.00000000000E+00 -0.14148937818E+04  0.14148937818E+04  0.50400001928E-02 0.  1.
    10030    2    1    2    0    0  0.00000000000E+00  0.00000000000E+00 -0.13024310121E+04  0.15273565516E+04  0.79780417041E+03 0.  0.
        2    1    3    3  502    0  0.22826411218E+03  0.27668538644E+03 -0.98536014441E+03  0.10486152403E+04  0.25500000920E-02 0.  1.
       -2    1    3    3    0  502 -0.22826411218E+03 -0.27668538644E+03 -0.31707086773E+03  0.47874131131E+03  0.25500000920E-02 0. -1.
</event>
<event>
 5   0  0.3753450E-03  0.8007812E+03  0.7818609E-02  0.9558887E-01
        1   -1    0    0  501    0  0.00000000000E+00  0.00000000000E+00  0.40170371750E+03  0.40170371753E+03  0.50400001928E-02 0.  1.
       -1   -1    0    0    0  501  0.00000000000E+00  0.00000000000E+00 -0.39908181979E+03  0.39908181982E+03  0.50400001928E-02 0. -1.
    10030    2    1    2    0    0  0.00000000000E+00  0.00000000000E+00  0.26218977104E+01  0.80078553735E+03  0.80078124509E+03 0.  0.
        5    1    3    3  502    0 -0.26104981446E+03 -0.10794564229E+03 -0.28240044709E+03  0.39946385297E+03  0.46999998093E+01 0. -1.
       -5    1    3    3    0  502  0.26104981446E+03  0.10794564229E+03  0.28502234480E+03  0.40132168438E+03  0.46999998093E+01 0.  1.
</event>
<event>
 5   0  0.6153659E-03  0.7994577E+03  0.7818609E-02  0.9560802E-01
        2   -1    0    0  501    0  0.00000000000E+00  0.00000000000E+00  0.94898934672E+03  0.94898934672E+03  0.25500000920E-02 0. -1.
       -2   -1    0    0    0  501  0.00000000000E+00  0.00000000000E+00 -0.16837191689E+03  0.16837191691E+03  0.25500000920E-02 0.  1.
    10030    2    1    2    0    0  0.00000000000E+00  0.00000000000E+00  0.78061742983E+03  0.11173612636E+04  0.79945770477E+03 0.  0.
        2    1    3    3  502    0  0.30233960494E+03 -0.73006722429E+02  0.74123813824E+03  0.80384898820E+03  0.25500000920E-02 0. -1.
       -2    1    3    3    0  502 -0.30233960494E+03  0.73006722429E+02  0.39379291585E+02  0.31351227544E+03  0.25500000920E-02 0.  1.
</event>
<event>
 5   0  0.3627496E-03  0.8000566E+03  0.7818609E-02  0.9559935E-01
       -1   -1    0    0    0  501  0.00000000000E+00  0.00000000000E+00  0.44773288146E+03  0.44773288149E+03  0.50400001928E-02 0. -1.
        1   -1    0    0  501    0  0.00000000000E+00  0.00000000000E+00 -0.35740652084E+03  0.35740652087E+03  0.50400001928E-02 0.  1.
    10030    2    1    2    0    0  0.00000000000E+00  0.00000000000E+00  0.90326360620E+02  0.80513940236E+03  0.80005662663E+03 0.  0.
        3    1    3    3  502    0  0.21593408069E+03  0.21550105113E+03  0.30556256351E+03  0.43178318710E+03  0.10100000352E+00 0. -1.
       -3    1    3    3    0  502 -0.21593408069E+03 -0.21550105113E+03 -0.21523620288E+03  0.37335621526E+03  0.10100000352E+00 0.  1.
</event>
<event>
 5   0  0.3860515E-03  0.7987247E+03  0.7818609E-02  0.9561865E-01
        1   -1    0    0  501    0  0.00000000000E+00  0.00000000000E+00  0.19753615363E+03  0.19753615370E+03  0.50400001928E-02 0.  1.
       -1   -1    0    0    0  501  0.00000000000E+00  0.00000000000E+00 -0.80739789312E+03  0.80739789314E+03  0.50400001928E-02 0. -1.
    10030    2    1    2    0    0  0.00000000000E+00  0.00000000000E+00 -0.60986173949E+03  0.10049340468E+04  0.79872466921E+03 0.  0.
        4    1    3    3  502    0  0.33939078682E+03  0.20779155067E+03 -0.34713553654E+03  0.52807966097E+03  0.12699999809E+01 0.  1.
       -4    1    3    3    0  502 -0.33939078682E+03 -0.20779155067E+03 -0.26272620295E+03  0.47685438587E+03  0.12699999809E+01 0. -1.
</event>
<event>
 5   0  0.6337108E-03  0.7998038E+03  0.7818609E-02  0.9560301E-01
        2   -1    0    0  501    0  0.00000000000E+00  0.00000000000E+00  0.20266403695E+04  0.20266403695E+04  0.25500000920E-02 0. -1.
       -2   -1    0    0    0  501  0.00000000000E+00  0.00000000000E+00 -0.78909664557E+02  0.78909664599E+02  0.25500000920E-02 0.  1.
    10030    2    1    2    0    0  0.00000000000E+00  0.00000000000E+00  0.19477307050E+04  0.21055500341E+04  0.79980375539E+03 0.  0.
        4    1    3    3  502    0 -0.20294612820E+02  0.12793478681E+03 -0.22144701963E+02  0.13141986802E+03  0.12699999809E+01 0.  1.
       -4    1    3    3    0  502  0.20294612820E+02 -0.12793478681E+03  0.19698754069E+04  0.19741301661E+04  0.12699999809E+01 0. -1.
</event>
<event>
 5   0  0.2478000E-03  0.7949630E+03  0.7818609E-02  0.9567337E-01
       -3   -1    0    0    0  501  0.00000000000E+00  0.00000000000E+00  0.11645459772E+04  0.11645459816E+04  0.10100000352E+00 0. -1.
        3   -1    0    0  501    0  0.00000000000E+00  0.00000000000E+00 -0.13566791835E+03  0.13566795595E+03  0.10100000352E+00 0.  1.
    10030    2    1    2    0    0  0.00000000000E+00  0.00000000000E+00  0.10288780588E+04  0.13002139375E+04  0.79496303271E+03 0.  0.
        4    1    3    3  502    0 -0.20664284400E+03  0.61690686990E+02 -0.31660854861E+02  0.21797024675E+03  0.12699999809E+01 0.  1.
       -4    1    3    3    0  502  0.20664284400E+03 -0.61690686990E+02  0.10605389137E+04  0.10822436908E+04  0.12699999809E+01 0. -1.
</event>
<event>
 5   0  0.3860515E-03  0.7957348E+03  0.7818609E-02  0.9566211E-01
        1   -1    0    0  501    0  0.00000000000E+00  0.00000000000E+00  0.23243958796E+03  0.23243958801E+03  0.50400001928E-02 0.  1.
       -1   -1    0    0    0  501  0.00000000000E+00  0.00000000000E+00 -0.68103056229E+03  0.68103056231E+03  0.50400001928E-02 0. -1.
    10030    2    1    2    0    0  0.00000000000E+00  0.00000000000E+00 -0.44859097434E+03  0.91347015032E+03  0.79573478828E+03 0.  0.
        4    1    3    3  502    0 -0.88202567342E+02  0.27613294419E+02 -0.66853398614E+03  0.67489368825E+03  0.12699999809E+01 0. -1.
       -4    1    3    3    0  502  0.88202567342E+02 -0.27613294419E+02  0.21994301180E+03  0.23857646207E+03  0.12699999809E+01 0.  1.
</event>
<event>
 5   0  0.3860515E-03  0.7991962E+03  0.7818609E-02  0.9561181E-01
       -1   -1    0    0    0  501  0.00000000000E+00  0.00000000000E+00  0.33320871539E+03  0.33320871543E+03  0.50400001928E-02 0. -1.
        1   -1    0    0  501    0  0.00000000000E+00  0.00000000000E+00 -0.47921506172E+03  0.47921506174E+03  0.50400001928E-02 0.  1.
    10030    2    1    2    0    0  0.00000000000E+00  0.00000000000E+00 -0.14600634633E+03  0.81242377717E+03  0.79919618402E+03 0.  0.
        4    1    3    3  502    0  0.23879958126E+03 -0.25294384411E+03  0.12690153109E+03  0.37028561919E+03  0.12699999809E+01 0. -1.
       -4    1    3    3    0  502 -0.23879958126E+03  0.25294384411E+03 -0.27290787742E+03  0.44213815798E+03  0.12699999809E+01 0.  1.
</event>
<event>
 5   0  0.3714448E-03  0.7859890E+03  0.7818609E-02  0.9580522E-01
        1   -1    0    0  501    0  0.00000000000E+00  0.00000000000E+00  0.92276023279E+03  0.92276023280E+03  0.50400001928E-02 0. -1.
       -1   -1    0    0    0  501  0.00000000000E+00  0.00000000000E+00 -0.16737249552E+03  0.16737249560E+03  0.50400001928E-02 0.  1.
    10030    2    1    2    0    0  0.00000000000E+00  0.00000000000E+00  0.75538773727E+03  0.10901327284E+04  0.78598901513E+03 0.  0.
        1    1    3    3  502    0  0.12865958820E+03 -0.31398858184E+03  0.10273144792E+03  0.35453613297E+03  0.50400001928E-02 0.  1.
       -1    1    3    3    0  502 -0.12865958820E+03  0.31398858184E+03  0.65265628934E+03  0.73559659543E+03  0.50400001928E-02 0. -1.
</event>
<event>
 5   0  0.6256781E-03  0.8009789E+03  0.7818609E-02  0.9558601E-01
       -2   -1    0    0    0  501  0.00000000000E+00  0.00000000000E+00  0.29429742344E+03  0.29429742346E+03  0.25500000920E-02 0.  1.
        2   -1    0    0  501    0  0.00000000000E+00  0.00000000000E+00 -0.54499895246E+03  0.54499895246E+03  0.25500000920E-02 0. -1.
    10030    2    1    2    0    0  0.00000000000E+00  0.00000000000E+00 -0.25070152901E+03  0.83929637592E+03  0.80097886987E+03 0.  0.
        1    1    3    3  502    0 -0.12327160573E+03 -0.25765472498E+03  0.16881003058E+03  0.33178106114E+03  0.50400001928E-02 0.  1.
       -1    1    3    3    0  502  0.12327160573E+03  0.25765472498E+03 -0.41951155959E+03  0.50751531478E+03  0.50400001928E-02 0. -1.
</event>
<event>
 5   0  0.3627496E-03  0.8005089E+03  0.7818609E-02  0.9559281E-01
       -1   -1    0    0    0  501  0.00000000000E+00  0.00000000000E+00  0.19818745778E+03  0.19818745785E+03  0.50400001928E-02 0.  1.
        1   -1    0    0  501    0  0.00000000000E+00  0.00000000000E+00 -0.80834382537E+03  0.80834382538E+03  0.50400001928E-02 0. -1.
    10030    2    1    2    0    0  0.00000000000E+00  0.00000000000E+00 -0.61015636758E+03  0.10065312832E+04  0.80050885767E+03 0.  0.
        3    1    3    3  502    0  0.58083088109E+02 -0.10465383316E+03 -0.78531486913E+03  0.79438373838E+03  0.10100000352E+00 0. -1.
       -3    1    3    3    0  502 -0.58083088109E+02  0.10465383316E+03  0.17515850155E+03  0.21214754485E+03  0.10100000352E+00 0.  1.
</event>
<event>
 5   0  0.6153659E-03  0.8028104E+03  0.7818609E-02  0.9555958E-01
        2   -1    0    0  501    0  0.00000000000E+00  0.00000000000E+00  0.63420756689E+03  0.63420756689E+03  0.25500000920E-02 0. -1.
       -2   -1    0    0    0  501  0.00000000000E+00  0.00000000000E+00 -0.25405896563E+03  0.25405896564E+03  0.25500000920E-02 0.  1.
    10030    2    1    2    0    0  0.00000000000E+00  0.00000000000E+00  0.38014860126E+03  0.88826653253E+03  0.80281035979E+03 0.  0.
        2    1    3    3  502    0 -0.25665970615E+03  0.21957409163E+03 -0.49897373136E+02  0.34143335269E+03  0.25500000920E-02 0.  1.
       -2    1    3    3    0  502  0.25665970615E+03 -0.21957409163E+03  0.43004597439E+03  0.54683317984E+03  0.25500000920E-02 0. -1.
</event>
<event>
 5   0  0.6536209E-03  0.7994843E+03  0.7818609E-02  0.9560764E-01
        2   -1    0    0  501    0  0.00000000000E+00  0.00000000000E+00  0.17689487880E+04  0.17689487880E+04  0.25500000920E-02 0.  1.
       -2   -1    0    0    0  501  0.00000000000E+00  0.00000000000E+00 -0.90332635579E+02  0.90332635615E+02  0.25500000920E-02 0. -1.
    10030    2    1    2    0    0  0.00000000000E+00  0.00000000000E+00  0.16786161524E+04  0.18592814236E+04  0.79948434946E+03 0.  0.
        3    1    3    3  502    0  0.49322790214E+02 -0.39540367593E+03  0.76514396068E+03  0.86268307932E+03  0.10100000352E+00 0.  1.
       -3    1    3    3    0  502 -0.49322790214E+02  0.39540367593E+03  0.91347219172E+03  0.99659834428E+03  0.10100000352E+00 0. -1.
</event>
<event>
 5   0  0.3753450E-03  0.7992269E+03  0.7818609E-02  0.9561137E-01
        1   -1    0    0  501    0  0.00000000000E+00  0.00000000000E+00  0.11857938087E+04  0.11857938087E+04  0.50400001928E-02 0.  1.
       -1   -1    0    0    0  501  0.00000000000E+00  0.00000000000E+00 -0.13467004535E+03  0.13467004545E+03  0.50400001928E-02 0. -1.
    10030    2    1    2    0    0  0.00000000000E+00  0.00000000000E+00  0.10511237634E+04  0.13204638542E+04  0.79922689162E+03 0.  0.
        5    1    3    3  502    0 -0.18624134522E+03 -0.34172806091E+03  0.37590615689E+03  0.54110205606E+03  0.46999998093E+01 0. -1.
       -5    1    3    3    0  502  0.18624134522E+03  0.34172806091E+03  0.67521760647E+03  0.77936179812E+03  0.46999998093E+01 0.  1.
</event>
<event>
 5   0  0.3753450E-03  0.8054306E+03  0.7818609E-02  0.9552190E-01
        1   -1    0    0  501    0  0.00000000000E+00  0.00000000000E+00  0.33472764310E+03  0.33472764313E+03  0.50400001928E-02 0. -1.
       -1   -1    0    0    0  501  0.00000000000E+00  0.00000000000E+00 -0.48451211999E+03  0.48451212001E+03  0.50400001928E-02 0.  1.
    10030    2    1    2    0    0  0.00000000000E+00  0.00000000000E+00 -0.14978447689E+03  0.81923976315E+03  0.80543056808E+03 0.  0.
        5    1    3    3  502    0  0.49171859936E+02  0.29495541075E+03  0.19943717898E+03  0.35946327281E+03  0.46999998093E+01 0. -1.
       -5    1    3    3    0  502 -0.49171859936E+02 -0.29495541075E+03 -0.34922165587E+03  0.45977649034E+03  0.46999998093E+01 0.  1.
</event>
<event>
 5   0  0.6337108E-03  0.7973287E+03  0.7818609E-02  0.9563892E-01
        2   -1    0    0  501    0  0.00000000000E+00  0.00000000000E+00  0.93027959811E+03  0.93027959811E+03  0.25500000920E-02 0. -1.
       -2   -1    0    0    0  501  0.00000000000E+00  0.00000000000E+00 -0.17084460880E+03  0.17084460882E+03  0.25500000920E-02 0.  1.
    10030    2    1    2    0    0  0.00000000000E+00  0.00000000000E+00  0.75943498931E+03  0.11011242069E+04  0.79732867507E+03 0.  0.
        4    1    3    3  502    0  0.38694597772E+02  0.17224453333E+03  0.87335357929E+03  0.89101825936E+03  0.12699999809E+01 0. -1.
       -4    1    3    3    0  502 -0.38694597772E+02 -0.17224453333E+03 -0.11391858998E+03  0.21010594757E+03  0.12699999809E+01 0.  1.
</event>
<event>
 5   0  0.6337108E-03  0.7989927E+03  0.7818609E-02  0.9561476E-01
        2   -1    0    0  501    0  0.00000000000E+00  0.00000000000E+00  0.37377460334E+03  0.37377460335E+03  0.25500000920E-02 0.  1.
       -2   -1    0    0    0  501  0.00000000000E+00  0.00000000000E+00 -0.42698821563E+03  0.42698821564E+03  0.25500000920E-02 0. -1.
    10030    2    1    2    0    0  0.00000000000E+00  0.00000000000E+00 -0.53213612292E+02  0.80076281898E+03  0.79899274323E+03 0.  0.
        4    1    3    3  502    0 -0.89309496719E+02  0.13351430238E+03 -0.39319505940E+03  0.42474253705E+03  0.12699999809E+01 0. -1.
       -4    1    3    3    0  502  0.89309496719E+02 -0.13351430238E+03  0.33998144711E+03  0.37602028193E+03  0.12699999809E+01 0.  1.
</event>
<event>
 5   0  0.6153659E-03  0.8011122E+03  0.7818609E-02  0.9558409E-01
        2   -1    0    0  501    0  0.00000000000E+00  0.00000000000E+00  0.24880522692E+04  0.24880522692E+04  0.25500000920E-02 0.  1.
       -2   -1    0    0    0  501  0.00000000000E+00  0.00000000000E+00 -0.64486266312E+02  0.64486266363E+02  0.25500000920E-02 0. -1.
    10030    2    1    2    0    0  0.00000000000E+00  0.00000000000E+00  0.24235660029E+04  0.25525385355E+04  0.80111223008E+03 0.  0.
        2    1    3    3  502    0 -0.36853585207E+03  0.66292878037E+02  0.16649893729E+04  0.17065764067E+04  0.25500000920E-02 0.  1.
       -2    1    3    3    0  502  0.36853585207E+03 -0.66292878037E+02  0.75857662994E+03  0.84596212884E+03  0.25500000920E-02 0. -1.
</event>
<event>
 5   0  0.3627496E-03  0.8014312E+03  0.7818609E-02  0.9557948E-01
       -1   -1    0    0    0  501  0.00000000000E+00  0.00000000000E+00  0.34366951000E+03  0.34366951003E+03  0.50400001928E-02 0. -1.
        1   -1    0    0  501    0  0.00000000000E+00  0.00000000000E+00 -0.46723082942E+03  0.46723082945E+03  0.50400001928E-02 0.  1.
    10030    2    1    2    0    0  0.00000000000E+00  0.00000000000E+00 -0.12356131942E+03  0.81090033948E+03  0.80143119537E+03 0.  0.
        3    1    3    3  502    0 -0.19398759662E+03 -0.20027818957E+03 -0.35298391201E+03  0.44982240184E+03  0.10100000352E+00 0.  1.
       -3    1    3    3    0  502  0.19398759662E+03  0.20027818957E+03  0.22942259259E+03  0.36107793764E+03  0.10100000352E+00 0. -1.
</event>
<event>
 5   0  0.6536209E-03  0.7799439E+03  0.7818609E-02  0.9589510E-01
        2   -1    0    0  501    0  0.00000000000E+00  0.00000000000E+00  0.36661083694E+03  0.36661083695E+03  0.25500000920E-02 0.  1.
       -2   -1    0    0    0  501  0.00000000000E+00  0.00000000000E+00 -0.41482163633E+03  0.41482163634E+03  0.25500000920E-02 0. -1.
    10030    2    1    2    0    0  0.00000000000E+00  0.00000000000E+00 -0.48210799385E+02  0.78143247329E+03  0.77994386281E+03 0.  0.
        3    1    3    3  502    0 -0.32350022803E+03  0.80252929943E+02 -0.22693973031E+03  0.40323018450E+03  0.10100000352E+00 0. -1.
       -3    1    3    3    0  502  0.32350022803E+03 -0.80252929943E+02  0.17872893092E+03  0.37820228879E+03  0.10100000352E+00 0.  1.
</event>
<event>
 5   0  0.3753450E-03  0.7939813E+03  0.7818609E-02  0.9568770E-01
       -1   -1    0    0    0  501  0.00000000000E+00  0.00000000000E+00  0.29674283770E+03  0.29674283774E+03  0.50400001928E-02 0.  1.
        1   -1    0    0  501    0  0.00000000000E+00  0.00000000000E+00 -0.53110488714E+03  0.53110488716E+03  0.50400001928E-02 0. -1.
    10030    2    1    2    0    0  0.00000000000E+00  0.00000000000E+00 -0.23436204944E+03  0.82784772490E+03  0.79398128782E+03 0.  0.
        5    1    3    3  502    0 -0.17080664699E+03 -0.35831488301E+03 -0.11314078306E+03  0.41278007805E+03  0.46999998093E+01 0. -1.
       -5    1    3    3    0  502  0.17080664699E+03  0.35831488301E+03 -0.12122126638E+03  0.41506764685E+03  0.46999998093E+01 0.  1.
</event>
<event>
 5   0  0.3627496E-03  0.8000224E+03  0.7818609E-02  0.9559985E-01
        1   -1    0    0  501    0  0.00000000000E+00  0.00000000000E+00  0.13569251399E+04  0.13569251399E+04  0.50400001928E-02 0.  1.
       -1   -1    0    0    0  501  0.00000000000E+00  0.00000000000E+00 -0.11792024388E+03  0.11792024398E+03  0.50400001928E-02 0. -1.
    10030    2    1    2    0    0  0.00000000000E+00  0.00000000000E+00  0.12390048960E+04  0.14748453839E+04  0.80002235845E+03 0.  0.
        3    1    3    3  502    0  0.19884593930E+03 -0.65665226326E+02  0.12478032732E+04  0.12652528001E+04  0.10100000352E+00 0.  1.
       -3    1    3    3    0  502 -0.19884593930E+03  0.65665226326E+02 -0.87983771433E+01  0.20959258376E+03  0.10100000352E+00 0. -1.
</event>
<event>
 5   0  0.3753450E-03  0.8055153E+03  0.7818609E-02  0.9552068E-01
       -1   -1    0    0    0  501  0.00000000000E+00  0.00000000000E+00  0.30017769243E+03  0.30017769247E+03  0.50400001928E-02 0. -1.
        1   -1    0    0  501    0  0.00000000000E+00  0.00000000000E+00 -0.54039237936E+03  0.54039237938E+03  0.50400001928E-02 0.  1.
    10030    2    1    2    0    0  0.00000000000E+00  0.00000000000E+00 -0.24021468693E+03  0.84057007186E+03  0.80551533188E+03 0.  0.
        5    1    3    3  502    0 -0.12402053741E+03  0.30986829724E+03 -0.35528637115E+03  0.48749353930E+03  0.46999998093E+01 0.  1.
       -5    1    3    3    0  502  0.12402053741E+03 -0.30986829724E+03  0.11507168422E+03  0.35307653256E+03  0.46999998093E+01 0. -1.
</event>
<event>
 5   0  0.6337108E-03  0.7999315E+03  0.7818609E-02  0.9560116E-01
       -2   -1    0    0    0  501  0.00000000000E+00  0.00000000000E+00  0.13299213016E+03  0.13299213019E+03  0.25500000920E-02 0.  1.
        2   -1    0    0  501    0  0.00000000000E+00  0.00000000000E+00 -0.12028725424E+04  0.12028725425E+04  0.25500000920E-02 0. -1.
    10030    2    1    2    0    0  0.00000000000E+00  0.00000000000E+00 -0.10698804123E+04  0.13358646726E+04  0.79993145145E+03 0.  0.
        4    1    3    3  502    0 -0.32467386183E+03  0.12979408154E+03 -0.21064112013E+03  0.40820450089E+03  0.12699999809E+01 0.  1.
       -4    1    3    3    0  502  0.32467386183E+03 -0.12979408154E+03 -0.85923929216E+03  0.92766017175E+03  0.12699999809E+01 0. -1.
</event>
<event>
 5   0  0.3671128E-03  0.7993120E+03  0.7818609E-02  0.9561013E-01
        1   -1    0    0  501    0  0.00000000000E+00  0.00000000000E+00  0.23070660318E+03  0.23070660324E+03  0.50400001928E-02 0.  1.
       -1   -1    0    0    0  501  0.00000000000E+00  0.00000000000E+00 -0.69232921767E+03  0.69232921769E+03  0.50400001928E-02 0. -1.
    10030    2    1    2    0    0  0.00000000000E+00  0.00000000000E+00 -0.46162261448E+03  0.92303582093E+03  0.79931200949E+03 0.  0.
        2    1    3    3  502    0 -0.33270514555E+03  0.17261839938E+03 -0.39096958911E+03  0.54161521886E+03  0.25500000920E-02 0.  1.
       -2    1    3    3    0  502  0.33270514555E+03 -0.17261839938E+03 -0.70653025371E+02  0.38142060207E+03  0.25500000920E-02 0. -1.
</event>
<event>
 5   0  0.3627496E-03  0.7998486E+03  0.7818609E-02  0.9560236E-01
        1   -1    0    0  501    0  0.00000000000E+00  0.00000000000E+00  0.64312889666E+03  0.64312889668E+03  0.50400001928E-02 0. -1.
       -1   -1    0    0    0  501  0.00000000000E+00  0.00000000000E+00 -0.24868958562E+03  0.24868958567E+03  0.50400001928E-02 0.  1.
    10030    2    1    2    0    0  0.00000000000E+00  0.00000000000E+00  0.39443931105E+03  0.89181848236E+03  0.79984863279E+03 0.  0.
        3    1    3    3  502    0  0.13683874694E+03 -0.27772060852E+03 -0.85040646962E+02  0.32106930856E+03  0.10100000352E+00 0.  1.
       -3    1    3    3    0  502 -0.13683874694E+03  0.27772060852E+03  0.47947995801E+03  0.57074917380E+03  0.10100000352E+00 0. -1.
</event>
<event>
 5   0  0.6153659E-03  0.8113824E+03  0.7818609E-02  0.9543686E-01
        2   -1    0    0  501    0  0.00000000000E+00  0.00000000000E+00  0.10325027430E+04  0.10325027430E+04  0.25500000920E-02 0. -1.
       -2   -1    0    0    0  501  0.00000000000E+00  0.00000000000E+00 -0.15940429175E+03  0.15940429177E+03  0.25500000920E-02 0.  1.
    10030    2    1    2    0    0  0.00000000000E+00  0.00000000000E+00  0.87309845125E+03  0.11919070348E+04  0.81138244617E+03 0.  0.
        2    1    3    3  502    0 -0.36988344118E+03 -0.76331315909E+02  0.65416277858E+03  0.75536029201E+03  0.25500000920E-02 0. -1.
       -2    1    3    3    0  502  0.36988344118E+03  0.76331315909E+02  0.21893567267E+03  0.43654674277E+03  0.25500000920E-02 0.  1.
</event>
<event>
 5   0  0.3627496E-03  0.8009632E+03  0.7818609E-02  0.9558624E-01
       -1   -1    0    0    0  501  0.00000000000E+00  0.00000000000E+00  0.11212794430E+03  0.11212794442E+03  0.50400001928E-02 0. -1.
        1   -1    0    0  501    0  0.00000000000E+00  0.00000000000E+00 -0.14303793517E+04  0.14303793517E+04  0.50400001928E-02 0.  1.
    10030    2    1    2    0    0  0.00000000000E+00  0.00000000000E+00 -0.13182514074E+04  0.15425072961E+04  0.80096316113E+03 0.  0.
        3    1    3    3  502    0  0.20943757237E+03  0.23749095082E+02 -0.13149143043E+04  0.13317010754E+04  0.10100000352E+00 0.  1.
       -3    1    3    3    0  502 -0.20943757237E+03 -0.23749095082E+02 -0.33371030417E+01  0.21080622072E+03  0.10100000352E+00 0. -1.
</event>
<event>
 5   0  0.6337108E-03  0.8037330E+03  0.7818609E-02  0.9554629E-01
        2   -1    0    0  501    0  0.00000000000E+00  0.00000000000E+00  0.85231701945E+03  0.85231701946E+03  0.25500000920E-02 0.  1.
       -2   -1    0    0    0  501  0.00000000000E+00  0.00000000000E+00 -0.18947961579E+03  0.18947961581E+03  0.25500000920E-02 0. -1.
    10030    2    1    2    0    0  0.00000000000E+00  0.00000000000E+00  0.66283740366E+03  0.10417966353E+04  0.80373304372E+03 0.  0.
        4    1    3    3  502    0  0.11408193259E+03  0.30462213177E+03  0.63729314691E+03  0.71550925816E+03  0.12699999809E+01 0.  1.
       -4    1    3    3    0  502 -0.11408193259E+03 -0.30462213177E+03  0.25544256753E+02  0.32628737711E+03  0.12699999809E+01 0. -1.
</event>
<event>
 5   0  0.6256781E-03  0.7993021E+03  0.7818609E-02  0.9561028E-01
       -2   -1    0    0    0  501  0.00000000000E+00  0.00000000000E+00  0.16776274599E+03  0.16776274601E+03  0.25500000920E-02 0. -1.
        2   -1    0    0  501    0  0.00000000000E+00  0.00000000000E+00 -0.95206450883E+03  0.95206450883E+03  0.25500000920E-02 0.  1.
    10030    2    1    2    0    0  0.00000000000E+00  0.00000000000E+00 -0.78430176283E+03  0.11198272548E+04  0.79930208651E+03 0.  0.
        1    1    3    3  502    0  0.19330773646E+03 -0.99613305281E+02  0.77615251127E+02  0.23090001905E+03  0.50400001928E-02 0. -1.
       -1    1    3    3    0  502 -0.19330773646E+03  0.99613305281E+02 -0.86191701396E+03  0.88892723580E+03  0.50400001928E-02 0.  1.
</event>
<event>
 5   0  0.6256781E-03  0.7998693E+03  0.7818609E-02  0.9560206E-01
       -2   -1    0    0    0  501  0.00000000000E+00  0.00000000000E+00  0.92891788458E+03  0.92891788458E+03  0.25500000920E-02 0.  1.
        2   -1    0    0  501    0  0.00000000000E+00  0.00000000000E+00 -0.17218715934E+03  0.17218715936E+03  0.25500000920E-02 0. -1.
    10030    2    1    2    0    0  0.00000000000E+00  0.00000000000E+00  0.75673072524E+03  0.11011050439E+04  0.79986931888E+03 0.  0.
        1    1    3    3  502    0 -0.33500852352E+03  0.11364636361E+03  0.12155718379E+03  0.37406196780E+03  0.50400001928E-02 0. -1.
       -1    1    3    3    0  502  0.33500852352E+03 -0.11364636361E+03  0.63517354145E+03  0.72704307615E+03  0.50400001928E-02 0.  1.
</event>
<event>
 5   0  0.6536209E-03  0.7998702E+03  0.7818609E-02  0.9560205E-01
        2   -1    0    0  501    0  0.00000000000E+00  0.00000000000E+00  0.13721548965E+04  0.13721548965E+04  0.25500000920E-02 0. -1.
       -2   -1    0    0    0  501  0.00000000000E+00  0.00000000000E+00 -0.11656707456E+03  0.11656707459E+03  0.25500000920E-02 0.  1.
    10030    2    1    2    0    0  0.00000000000E+00  0.00000000000E+00  0.12555878219E+04  0.14887219711E+04  0.79987019484E+03 0.  0.
        3    1    3    3  502    0  0.95213747231E+02  0.23762454273E+03  0.11996926796E+04  0.12267002962E+04  0.10100000352E+00 0. -1.
       -3    1    3    3    0  502 -0.95213747231E+02 -0.23762454273E+03  0.55895142304E+02  0.26202167488E+03  0.10100000352E+00 0.  1.
</event>
<event>
 5   0  0.5813850E-03  0.8004711E+03  0.7818609E-02  0.9559335E-01
        2   -1    0    0  501    0  0.00000000000E+00  0.00000000000E+00  0.65085952258E+03  0.65085952258E+03  0.25500000920E-02 0.  1.
       -2   -1    0    0    0  501  0.00000000000E+00  0.00000000000E+00 -0.24611839548E+03  0.24611839549E+03  0.25500000920E-02 0. -1.
    10030    2    1    2    0    0  0.00000000000E+00  0.00000000000E+00  0.40474112710E+03  0.89697791807E+03  0.80047111475E+03 0.  0.
        5    1    3    3  502    0 -0.17792895752E+03 -0.22581677570E+03 -0.10960997923E+03  0.30771475047E+03  0.46999998093E+01 0. -1.
       -5    1    3    3    0  502  0.17792895752E+03  0.22581677570E+03  0.51435110633E+03  0.58926316760E+03  0.46999998093E+01 0.  1.
</event>
<event>
 5   0  0.3627496E-03  0.8017169E+03  0.7818609E-02  0.9557535E-01
        1   -1    0    0  501    0  0.00000000000E+00  0.00000000000E+00  0.43466490928E+03  0.43466490931E+03  0.50400001928E-02 0.  1.
       -1   -1    0    0    0  501  0.00000000000E+00  0.00000000000E+00 -0.36968129383E+03  0.36968129386E+03  0.50400001928E-02 0. -1.
    10030    2    1    2    0    0  0.00000000000E+00  0.00000000000E+00  0.64983615454E+02  0.80434620317E+03  0.80171687289E+03 0.  0.
        3    1    3    3  502    0  0.11196607633E+03 -0.97442887609E+02 -0.34109476536E+03  0.37199081676E+03  0.10100000352E+00 0. -1.
       -3    1    3    3    0  502 -0.11196607633E+03  0.97442887609E+02  0.40607838082E+03  0.43235538641E+03  0.10100000352E+00 0.  1.
</event>
<event>
 5   0  0.3860515E-03  0.8026715E+03  0.7818609E-02  0.9556158E-01
       -1   -1    0    0    0  501  0.00000000000E+00  0.00000000000E+00  0.17361295158E+03  0.17361295165E+03  0.50400001928E-02 0.  1.
        1   -1    0    0  501    0  0.00000000000E+00  0.00000000000E+00 -0.92775568700E+03  0.92775568701E+03  0.50400001928E-02 0. -1.
    10030    2    1    2    0    0  0.00000000000E+00  0.00000000000E+00 -0.75414273542E+03  0.11013686387E+04  0.80267154730E+03 0.  0.
        4    1    3    3  502    0  0.46181055548E+02 -0.29672378974E+03 -0.74240585692E+03  0.80084066242E+03  0.12699999809E+01 0. -1.
       -4    1    3    3    0  502 -0.46181055548E+02  0.29672378974E+03 -0.11736878498E+02  0.30052797625E+03  0.12699999809E+01 0.  1.
</event>
<event>
 5   0  0.6337108E-03  0.7830677E+03  0.7818609E-02  0.9584854E-01
       -2   -1    0    0    0  501  0.00000000000E+00  0.00000000000E+00  0.12638917354E+03  0.12638917357E+03  0.25500000920E-02 0.  1.
        2   -1    0    0  501    0  0.00000000000E+00  0.00000000000E+00 -0.12129105728E+04  0.12129105728E+04  0.25500000920E-02 0. -1.
    10030    2    1    2    0    0  0.00000000000E+00  0.00000000000E+00 -0.10865213993E+04  0.13392997464E+04  0.78306772350E+03 0.  0.
        4    1    3    3  502    0 -0.23102651355E+02 -0.62605286273E+02 -0.12031090357E+04  0.12049589699E+04  0.12699999809E+01 0. -1.
       -4    1    3    3    0  502  0.23102651355E+02  0.62605286273E+02  0.11658763643E+03  0.13434077652E+03  0.12699999809E+01 0.  1.
</event>
<event>
 5   0  0.3627496E-03  0.7990163E+03  0.7818609E-02  0.9561442E-01
        1   -1    0    0  501    0  0.00000000000E+00  0.00000000000E+00  0.75461624798E+03  0.75461624800E+03  0.50400001928E-02 0.  1.
       -1   -1    0    0    0  501  0.00000000000E+00  0.00000000000E+00 -0.21150719915E+03  0.21150719921E+03  0.50400001928E-02 0. -1.
    10030    2    1    2    0    0  0.00000000000E+00  0.00000000000E+00  0.54310904883E+03  0.96612344722E+03  0.79901631794E+03 0.  0.
        3    1    3    3  502    0  0.25880124762E+03 -0.14452578226E+03  0.59541697658E+03  0.66512192394E+03  0.10100000352E+00 0.  1.
       -3    1    3    3    0  502 -0.25880124762E+03  0.14452578226E+03 -0.52307927747E+02  0.30100152328E+03  0.10100000352E+00 0. -1.
</event>
<event>
 5   0  0.3671128E-03  0.8019267E+03  0.7818609E-02  0.9557233E-01
       -1   -1    0    0    0  501  0.00000000000E+00  0.00000000000E+00  0.25186595880E+03  0.25186595885E+03  0.50400001928E-02 0.  1.
        1   -1    0    0  501    0  0.00000000000E+00  0.00000000000E+00 -0.63832203513E+03  0.63832203515E+03  0.50400001928E-02 0. -1.
    10030    2    1    2    0    0  0.00000000000E+00  0.00000000000E+00 -0.38645607633E+03  0.89018799400E+03  0.80192665857E+03 0.  0.
        2    1    3    3  502    0 -0.98459387013E+02  0.28375586028E+03  0.10163899549E+03  0.31708378159E+03  0.25500000920E-02 0.  1.
       -2    1    3    3    0  502  0.98459387013E+02 -0.28375586028E+03 -0.48809507182E+03  0.57310421241E+03  0.25500000920E-02 0. -1.
</event>
<event>
 5   0  0.3627496E-03  0.7978042E+03  0.7818609E-02  0.9563201E-01
       -1   -1    0    0    0  501  0.00000000000E+00  0.00000000000E+00  0.62445936710E+03  0.62445936712E+03  0.50400001928E-02 0. -1.
        1   -1    0    0  501    0  0.00000000000E+00  0.00000000000E+00 -0.25481704849E+03  0.25481704854E+03  0.50400001928E-02 0.  1.
    10030    2    1    2    0    0  0.00000000000E+00  0.00000000000E+00  0.36964231861E+03  0.87927641566E+03  0.79780421874E+03 0.  0.
        3    1    3    3  502    0  0.71187460703E+02 -0.29480747926E+03  0.47040391762E+03  0.55969541744E+03  0.10100000352E+00 0. -1.
       -3    1    3    3    0  502 -0.71187460703E+02  0.29480747926E+03 -0.10076159901E+03  0.31958099822E+03  0.10100000352E+00 0.  1.
</event>
<event>
 5   0  0.3714448E-03  0.8060035E+03  0.7818609E-02  0.9551368E-01
       -1   -1    0    0    0  501  0.00000000000E+00  0.00000000000E+00  0.98982529431E+03  0.98982529433E+03  0.50400001928E-02 0. -1.
        1   -1    0    0  501    0  0.00000000000E+00  0.00000000000E+00 -0.16407987111E+03  0.16407987119E+03  0.50400001928E-02 0.  1.
    10030    2    1    2    0    0  0.00000000000E+00  0.00000000000E+00  0.82574542320E+03  0.11539051655E+04  0.80600349073E+03 0.  0.
        1    1    3    3  502    0  0.26570907348E+03  0.30171836293E+03  0.37301439770E+03  0.54842959728E+03  0.50400001928E-02 0.  1.
       -1    1    3    3    0  502 -0.26570907348E+03 -0.30171836293E+03  0.45273102550E+03  0.60547556824E+03  0.50400001928E-02 0. -1.
</event>
<event>
 5   0  0.3753450E-03  0.7997483E+03  0.7818609E-02  0.9560382E-01
       -1   -1    0    0    0  501  0.00000000000E+00  0.00000000000E+00  0.31512106106E+03  0.31512106110E+03  0.50400001928E-02 0. -1.
        1   -1    0    0  501    0  0.00000000000E+00  0.00000000000E+00 -0.50742190756E+03  0.50742190759E+03  0.50400001928E-02 0.  1.
    10030    2    1    2    0    0  0.00000000000E+00  0.00000000000E+00 -0.19230084650E+03  0.82254296868E+03  0.79974828525E+03 0.  0.
        5    1    3    3  502    0 -0.10267863387E+03 -0.13132839937E+03 -0.46994726410E+03  0.49866077785E+03  0.46999998093E+01 0.  1.
       -5    1    3    3    0  502  0.10267863387E+03  0.13132839937E+03  0.27764641760E+03  0.32388219083E+03  0.46999998093E+01 0. -1.
</event>
<event>
 5   0  0.2478000E-03  0.7992433E+03  0.7818609E-02  0.9561113E-01
        4   -1    0    0  501    0  0.00000000000E+00  0.00000000000E+00  0.38298182017E+03  0.38298392588E+03  0.12699999809E+01 0.  1.
       -4   -1    0    0    0  501  0.00000000000E+00  0.00000000000E+00 -0.41698024013E+03  0.41698217415E+03  0.12699999809E+01 0. -1.
    10030    2    1    2    0    0  0.00000000000E+00  0.00000000000E+00 -0.33998419962E+02  0.79996610003E+03  0.79924331004E+03 0.  0.
        5    1    3    3  502    0 -0.10285765301E+03 -0.14630093898E+03 -0.37466214383E+03  0.41518366243E+03  0.46999998093E+01 0. -1.
       -5    1    3    3    0  502  0.10285765301E+03  0.14630093898E+03  0.34066372387E+03  0.38478243760E+03  0.46999998093E+01 0.  1.
</event>
<event>
 5   0  0.2478000E-03  0.8021568E+03  0.7818609E-02  0.9556900E-01
       -3   -1    0    0    0  501  0.00000000000E+00  0.00000000000E+00  0.67297794901E+03  0.67297795659E+03  0.10100000352E+00 0. -1.
        3   -1    0    0  501    0  0.00000000000E+00  0.00000000000E+00 -0.23903290207E+03  0.23903292340E+03  0.10100000352E+00 0.  1.
    10030    2    1    2    0    0  0.00000000000E+00  0.00000000000E+00  0.43394504695E+03  0.91201088000E+03  0.80215680603E+03 0.  0.
        2    1    3    3  502    0 -0.12865696893E+03 -0.18543532018E+03  0.59392708839E+03  0.63536466691E+03  0.25500000920E-02 0. -1.
       -2    1    3    3    0  502  0.12865696893E+03  0.18543532018E+03 -0.15998204145E+03  0.27664621309E+03  0.25500000920E-02 0.  1.
</event>
<event>
 5   0  0.2478000E-03  0.8026382E+03  0.7818609E-02  0.9556206E-01
        4   -1    0    0  501    0  0.00000000000E+00  0.00000000000E+00  0.12995907994E+03  0.12996528521E+03  0.12699999809E+01 0. -1.
       -4   -1    0    0    0  501  0.00000000000E+00  0.00000000000E+00 -0.12392542143E+04  0.12392548650E+04  0.12699999809E+01 0.  1.
    10030    2    1    2    0    0  0.00000000000E+00  0.00000000000E+00 -0.11092951343E+04  0.13692201502E+04  0.80263822782E+03 0.  0.
        4    1    3    3  502    0  0.72728909684E+02  0.39458273244E+03 -0.56895997702E+03  0.69620549796E+03  0.12699999809E+01 0.  1.
       -4    1    3    3    0  502 -0.72728909684E+02 -0.39458273244E+03 -0.54033515732E+03  0.67301465228E+03  0.12699999809E+01 0. -1.
</event>
<event>
 5   0  0.5813850E-03  0.8014399E+03  0.7818609E-02  0.9557935E-01
        2   -1    0    0  501    0  0.00000000000E+00  0.00000000000E+00  0.47032124626E+03  0.47032124626E+03  0.25500000920E-02 0. -1.
       -2   -1    0    0    0  501  0.00000000000E+00  0.00000000000E+00 -0.34141874404E+03  0.34141874404E+03  0.25500000920E-02 0.  1.
    10030    2    1    2    0    0  0.00000000000E+00  0.00000000000E+00  0.12890250222E+03  0.81173999031E+03  0.80143992712E+03 0.  0.
        5    1    3    3  502    0 -0.22481425523E+03  0.25819358052E+03  0.27533136776E+03  0.43935728792E+03  0.46999998093E+01 0. -1.
       -5    1    3    3    0  502  0.22481425523E+03 -0.25819358052E+03 -0.14642886553E+03  0.37238270239E+03  0.46999998093E+01 0.  1.
</event>
<event>
 5   0  0.3714448E-03  0.7993095E+03  0.7818609E-02  0.9561017E-01
       -1   -1    0    0    0  501  0.00000000000E+00  0.00000000000E+00  0.14765525428E+03  0.14765525437E+03  0.50400001928E-02 0. -1.
        1   -1    0    0  501    0  0.00000000000E+00  0.00000000000E+00 -0.10817353018E+04  0.10817353018E+04  0.50400001928E-02 0.  1.
    10030    2    1    2    0    0  0.00000000000E+00  0.00000000000E+00 -0.93408004750E+03  0.12293905562E+04  0.79930945475E+03 0.  0.
        1    1    3    3  502    0 -0.12140416843E+01  0.18111142317E+03  0.80911074005E+02  0.19836689094E+03  0.50400001928E-02 0. -1.
       -1    1    3    3    0  502  0.12140416843E+01 -0.18111142317E+03 -0.10149911215E+04  0.10310236652E+04  0.50400001928E-02 0.  1.
</event>
<event>
 5   0  0.5813850E-03  0.7988758E+03  0.7818609E-02  0.9561646E-01
        2   -1    0    0  501    0  0.00000000000E+00  0.00000000000E+00  0.12675895534E+04  0.12675895534E+04  0.25500000920E-02 0. -1.
       -2   -1    0    0    0  501  0.00000000000E+00  0.00000000000E+00 -0.12586933292E+03  0.12586933294E+03  0.25500000920E-02 0.  1.
    10030    2    1    2    0    0  0.00000000000E+00  0.00000000000E+00  0.11417202205E+04  0.13934588864E+04  0.79887583896E+03 0.  0.
        5    1    3    3  502    0 -0.27832945739E+03  0.23306361669E+03  0.28033167133E+03  0.45868711800E+03  0.46999998093E+01 0.  1.
       -5    1    3    3    0  502  0.27832945739E+03 -0.23306361669E+03  0.86138854918E+03  0.93477176837E+03  0.46999998093E+01 0. -1.
</event>
<event>
 5   0  0.3627496E-03  0.8038387E+03  0.7818609E-02  0.9554477E-01
       -1   -1    0    0    0  501  0.00000000000E+00  0.00000000000E+00  0.17570429006E+03  0.17570429013E+03  0.50400001928E-02 0. -1.
        1   -1    0    0  501    0  0.00000000000E+00  0.00000000000E+00 -0.91938082743E+03  0.91938082744E+03  0.50400001928E-02 0.  1.
    10030    2    1    2    0    0  0.00000000000E+00  0.00000000000E+00 -0.74367653736E+03  0.10950851176E+04  0.80383867940E+03 0.  0.
        3    1    3    3  502    0  0.79394982749E+02  0.26808520945E+03 -0.76518288040E+03  0.81466440542E+03  0.10100000352E+00 0.  1.
       -3    1    3    3    0  502 -0.79394982749E+02 -0.26808520945E+03  0.21506343032E+02  0.28042071215E+03  0.10100000352E+00 0. -1.
</event>
<event>
 5   0  0.6337108E-03  0.8013132E+03  0.7818609E-02  0.9558118E-01
        2   -1    0    0  501    0  0.00000000000E+00  0.00000000000E+00  0.12349684663E+04  0.12349684663E+04  0.25500000920E-02 0.  1.
       -2   -1    0    0    0  501  0.00000000000E+00  0.00000000000E+00 -0.12998365663E+03  0.12998365665E+03  0.25500000920E-02 0. -1.
    10030    2    1    2    0    0  0.00000000000E+00  0.00000000000E+00  0.11049848097E+04  0.13649521230E+04  0.80131321490E+03 0.  0.
        4    1    3    3  502    0 -0.10751438877E+03 -0.24138560313E+03  0.39497121086E+02  0.26718530773E+03  0.12699999809E+01 0. -1.
       -4    1    3    3    0  502  0.10751438877E+03  0.24138560313E+03  0.10654876886E+04  0.10977668153E+04  0.12699999809E+01 0.  1.
</event>
<event>
 5   0  0.3860515E-03  0.8000563E+03  0.7818609E-02  0.9559936E-01
       -1   -1    0    0    0  501  0.00000000000E+00  0.00000000000E+00  0.28768560249E+03  0.28768560254E+03  0.50400001928E-02 0. -1.
        1   -1    0    0  501    0  0.00000000000E+00  0.00000000000E+00 -0.55624099837E+03  0.55624099839E+03  0.50400001928E-02 0.  1.
    10030    2    1    2    0    0  0.00000000000E+00  0.00000000000E+00 -0.26855539587E+03  0.84392660093E+03  0.80005631496E+03 0.  0.
        4    1    3    3  502    0 -0.22945098518E+03  0.22953223250E+03 -0.38095579528E+03  0.50046151822E+03  0.12699999809E+01 0.  1.
       -4    1    3    3    0  502  0.22945098518E+03 -0.22953223250E+03  0.11240039941E+03  0.34346508271E+03  0.12699999809E+01 0. -1.
</event>
<event>
 5   0  0.6337108E-03  0.8012187E+03  0.7818609E-02  0.9558255E-01
       -2   -1    0    0    0  501  0.00000000000E+00  0.00000000000E+00  0.64516636858E+02  0.64516636908E+02  0.25500000920E-02 0.  1.
        2   -1    0    0  501    0  0.00000000000E+00  0.00000000000E+00 -0.24875420343E+04  0.24875420343E+04  0.25500000920E-02 0. -1.
    10030    2    1    2    0    0  0.00000000000E+00  0.00000000000E+00 -0.24230253974E+04  0.25520586712E+04  0.80121868715E+03 0.  0.
        4    1    3    3  502    0 -0.25359485465E+03 -0.44137506516E+02 -0.21892654036E+04  0.22043464089E+04  0.12699999809E+01 0.  1.
       -4    1    3    3    0  502  0.25359485465E+03  0.44137506516E+02 -0.23375999380E+03  0.34771226234E+03  0.12699999809E+01 0. -1.
</event>
<event>
 5   0  0.6153659E-03  0.7987910E+03  0.7818609E-02  0.9561769E-01
       -2   -1    0    0    0  501  0.00000000000E+00  0.00000000000E+00  0.21034112653E+03  0.21034112655E+03  0.25500000920E-02 0.  1.
        2   -1    0    0  501    0  0.00000000000E+00  0.00000000000E+00 -0.75837175680E+03  0.75837175680E+03  0.25500000920E-02 0. -1.
    10030    2    1    2    0    0  0.00000000000E+00  0.00000000000E+00 -0.54803063026E+03  0.96871288335E+03  0.79879101063E+03 0.  0.
        2    1    3    3  502    0  0.22335478351E+03  0.81437278226E+02  0.11518662428E+03  0.26417295096E+03  0.25500000920E-02 0.  1.
       -2    1    3    3    0  502 -0.22335478351E+03 -0.81437278226E+02 -0.66321725454E+03  0.70453993239E+03  0.25500000920E-02 0. -1.
</event>
<event>
 5   0  0.3714448E-03  0.7958294E+03  0.7818609E-02  0.9566074E-01
        1   -1    0    0  501    0  0.00000000000E+00  0.00000000000E+00  0.61522625677E+03  0.61522625679E+03  0.50400001928E-02 0. -1.
       -1   -1    0    0    0  501  0.00000000000E+00  0.00000000000E+00 -0.25736242905E+03  0.25736242910E+03  0.50400001928E-02 0.  1.
    10030    2    1    2    0    0  0.00000000000E+00  0.00000000000E+00  0.35786382772E+03  0.87258868589E+03  0.79582943873E+03 0.  0.
        1    1    3    3  502    0 -0.25722550573E+03  0.54981265883E+02 -0.14844339704E+03  0.30203202239E+03  0.50400001928E-02 0.  1.
       -1    1    3    3    0  502  0.25722550573E+03 -0.54981265883E+02  0.50630722476E+03  0.57055666350E+03  0.50400001928E-02 0. -1.
</event>
<event>
 5   0  0.3753450E-03  0.7971018E+03  0.7818609E-02  0.9564222E-01
       -1   -1    0    0    0  501  0.00000000000E+00  0.00000000000E+00  0.14493415941E+03  0.14493415950E+03  0.50400001928E-02 0. -1.
        1   -1    0    0  501    0  0.00000000000E+00  0.00000000000E+00 -0.10959652870E+04  0.10959652870E+04  0.50400001928E-02 0.  1.
    10030    2    1    2    0    0  0.00000000000E+00  0.00000000000E+00 -0.95103112758E+03  0.12408994465E+04  0.79710176936E+03 0.  0.
        5    1    3    3  502    0  0.13832871928E+03 -0.24545616126E+03 -0.36747851733E+02  0.28417610083E+03  0.46999998093E+01 0. -1.
       -5    1    3    3    0  502 -0.13832871928E+03  0.24545616126E+03 -0.91428327585E+03  0.95672334568E+03  0.46999998093E+01 0.  1.
</event>
<event>
 5   0  0.3714448E-03  0.8021310E+03  0.7818609E-02  0.9556938E-01
        1   -1    0    0  501    0  0.00000000000E+00  0.00000000000E+00  0.80298151517E+03  0.80298151519E+03  0.50400001928E-02 0.  1.
       -1   -1    0    0    0  501  0.00000000000E+00  0.00000000000E+00 -0.20032036758E+03  0.20032036764E+03  0.50400001928E-02 0. -1.
    10030    2    1    2    0    0  0.00000000000E+00  0.00000000000E+00  0.60266114760E+03  0.10033018828E+04  0.80213104245E+03 0.  0.
        1    1    3    3  502    0 -0.14820188663E+03  0.29331649918E+03  0.13769498073E+02  0.32891939285E+03  0.50400001928E-02 0. -1.
       -1    1    3    3    0  502  0.14820188663E+03 -0.29331649918E+03  0.58889164952E+03  0.67438248998E+03  0.50400001928E-02 0.  1.
</event>
<event>
 5   0  0.5813850E-03  0.8022417E+03  0.7818609E-02  0.9556778E-01
        2   -1    0    0  501    0  0.00000000000E+00  0.00000000000E+00  0.47972148334E+03  0.47972148335E+03  0.25500000920E-02 0.  1.
       -2   -1    0    0    0  501  0.00000000000E+00  0.00000000000E+00 -0.33539863166E+03  0.33539863167E+03  0.25500000920E-02 0. -1.
    10030    2    1    2    0    0  0.00000000000E+00  0.00000000000E+00  0.14432285168E+03  0.81512011502E+03  0.80224168203E+03 0.  0.
        5    1    3    3  502    0  0.21717949605E+03  0.29707083649E+03 -0.89955001734E+02  0.37885618344E+03  0.46999998093E+01 0. -1.
       -5    1    3    3    0  502 -0.21717949605E+03 -0.29707083649E+03  0.23427785341E+03  0.43626393158E+03  0.46999998093E+01 0.  1.
</event>
<event>
 5   0  0.6536209E-03  0.7963147E+03  0.7818609E-02  0.9565367E-01
       -2   -1    0    0    0  501  0.00000000000E+00  0.00000000000E+00  0.22496279982E+03  0.22496279983E+03  0.25500000920E-02 0. -1.
        2   -1    0    0  501    0  0.00000000000E+00  0.00000000000E+00 -0.70469100819E+03  0.70469100819E+03  0.25500000920E-02 0.  1.
    10030    2    1    2    0    0  0.00000000000E+00  0.00000000000E+00 -0.47972820837E+03  0.92965380803E+03  0.79631466700E+03 0.  0.
        3    1    3    3  502    0  0.30685978818E+03 -0.17907667588E+03 -0.44967278624E+03  0.57309424211E+03  0.10100000352E+00 0.  1.
       -3    1    3    3    0  502 -0.30685978818E+03  0.17907667588E+03 -0.30055422124E+02  0.35655956592E+03  0.10100000352E+00 0. -1.
</event>
<event>
 5   0  0.5813850E-03  0.7941926E+03  0.7818609E-02  0.9568461E-01
        2   -1    0    0  501    0  0.00000000000E+00  0.00000000000E+00  0.58896719316E+03  0.58896719317E+03  0.25500000920E-02 0.  1.
       -2   -1    0    0    0  501  0.00000000000E+00  0.00000000000E+00 -0.26773221065E+03  0.26773221066E+03  0.25500000920E-02 0. -1.
    10030    2    1    2    0    0  0.00000000000E+00  0.00000000000E+00  0.32123498252E+03  0.85669940383E+03  0.79419264321E+03 0.  0.
        5    1    3    3  502    0  0.24848933928E+03  0.21612812216E+03  0.39989814335E+03  0.51807232311E+03  0.46999998093E+01 0.  1.
       -5    1    3    3    0  502 -0.24848933928E+03 -0.21612812216E+03 -0.78663160835E+02  0.33862708071E+03  0.46999998093E+01 0. -1.
</event>
<event>
 5   0  0.3671128E-03  0.7868059E+03  0.7818609E-02  0.9579314E-01
        1   -1    0    0  501    0  0.00000000000E+00  0.00000000000E+00  0.62173747640E+03  0.62173747643E+03  0.50400001928E-02 0.  1.
       -1   -1    0    0    0  501  0.00000000000E+00  0.00000000000E+00 -0.24892479934E+03  0.24892479939E+03  0.50400001928E-02 0. -1.
    10030    2    1    2    0    0  0.00000000000E+00  0.00000000000E+00  0.37281267706E+03  0.87066227582E+03  0.78680588861E+03 0.  0.
        2    1    3    3  502    0  0.16896361245E+03 -0.15300669378E+03  0.54121288388E+03  0.58725729997E+03  0.25500000920E-02 0.  1.
       -2    1    3    3    0  502 -0.16896361245E+03  0.15300669378E+03 -0.16840020682E+03  0.28340497585E+03  0.25500000920E-02 0. -1.
</event>
<event>
 5   0  0.6337108E-03  0.7987016E+03  0.7818609E-02  0.9561898E-01
       -2   -1    0    0    0  501  0.00000000000E+00  0.00000000000E+00  0.22608334108E+03  0.22608334110E+03  0.25500000920E-02 0.  1.
        2   -1    0    0  501    0  0.00000000000E+00  0.00000000000E+00 -0.70540831657E+03  0.70540831657E+03  0.25500000920E-02 0. -1.
    10030    2    1    2    0    0  0.00000000000E+00  0.00000000000E+00 -0.47932497549E+03  0.93149165767E+03  0.79870161899E+03 0.  0.
        4    1    3    3  502    0  0.32883802297E+03 -0.10899792082E+03 -0.79777051474E+01  0.34652597128E+03  0.12699999809E+01 0.  1.
       -4    1    3    3    0  502 -0.32883802297E+03  0.10899792082E+03 -0.47134727034E+03  0.58496568639E+03  0.12699999809E+01 0. -1.
</event>
<event>
 5   0  0.3714448E-03  0.7991531E+03  0.7818609E-02  0.9561244E-01
        1   -1    0    0  501    0  0.00000000000E+00  0.00000000000E+00  0.14936586821E+03  0.14936586829E+03  0.50400001928E-02 0.  1.
       -1   -1    0    0    0  501  0.00000000000E+00  0.00000000000E+00 -0.10689284210E+04  0.10689284210E+04  0.50400001928E-02 0. -1.
    10030    2    1    2    0    0  0.00000000000E+00  0.00000000000E+00 -0.91956255275E+03  0.12182942893E+04  0.79915310600E+03 0.  0.
        1    1    3    3  502    0 -0.10662390497E+03 -0.72962473810E+02 -0.10362072264E+04  0.10442306239E+04  0.50400001928E-02 0. -1.
       -1    1    3    3    0  502  0.10662390497E+03  0.72962473810E+02  0.11664467366E+03  0.17406366541E+03  0.50400001928E-02 0.  1.
</event>
<event>
 5   0  0.6536209E-03  0.7964767E+03  0.7818609E-02  0.9565131E-01
        2   -1    0    0  501    0  0.00000000000E+00  0.00000000000E+00  0.23961159466E+04  0.23961159466E+04  0.25500000920E-02 0. -1.
       -2   -1    0    0    0  501  0.00000000000E+00  0.00000000000E+00 -0.66187857258E+02  0.66187857307E+02  0.25500000920E-02 0.  1.
    10030    2    1    2    0    0  0.00000000000E+00  0.00000000000E+00  0.23299280893E+04  0.24623038039E+04  0.79647669221E+03 0.  0.
        3    1    3    3  502    0  0.80425162301E+02 -0.14303928592E+03  0.22867352145E+04  0.22926156232E+04  0.10100000352E+00 0. -1.
       -3    1    3    3    0  502 -0.80425162301E+02  0.14303928592E+03  0.43192874825E+02  0.16968818075E+03  0.10100000352E+00 0.  1.
</event>
<event>
 5   0  0.3714448E-03  0.7975905E+03  0.7818609E-02  0.9563511E-01
       -1   -1    0    0    0  501  0.00000000000E+00  0.00000000000E+00  0.17320645240E+03  0.17320645247E+03  0.50400001928E-02 0.  1.
        1   -1    0    0  501    0  0.00000000000E+00  0.00000000000E+00 -0.91819706939E+03  0.91819706941E+03  0.50400001928E-02 0. -1.
    10030    2    1    2    0    0  0.00000000000E+00  0.00000000000E+00 -0.74499061700E+03  0.10914035219E+04  0.79759051408E+03 0.  0.
        1    1    3    3  502    0  0.29980337999E+03 -0.25895607792E+03 -0.30982817965E+03  0.50292526072E+03  0.50400001928E-02 0.  1.
       -1    1    3    3    0  502 -0.29980337999E+03  0.25895607792E+03 -0.43516243735E+03  0.58847826115E+03  0.50400001928E-02 0. -1.
</event>
<event>
 5   0  0.5813850E-03  0.7908610E+03  0.7818609E-02  0.9573340E-01
        2   -1    0    0  501    0  0.00000000000E+00  0.00000000000E+00  0.67811686071E+03  0.67811686072E+03  0.25500000920E-02 0. -1.
       -2   -1    0    0    0  501  0.00000000000E+00  0.00000000000E+00 -0.23058749465E+03  0.23058749467E+03  0.25500000920E-02 0.  1.
    10030    2    1    2    0    0  0.00000000000E+00  0.00000000000E+00  0.44752936606E+03  0.90870435539E+03  0.79086096883E+03 0.  0.
        5    1    3    3  502    0  0.21672020292E+03 -0.46755854667E+01  0.60372579478E+03  0.64147987710E+03  0.46999998093E+01 0. -1.
       -5    1    3    3    0  502 -0.21672020292E+03  0.46755854667E+01 -0.15619642872E+03  0.26722447828E+03  0.46999998093E+01 0.  1.
</event>
<event>
 5   0  0.3753450E-03  0.8004590E+03  0.7818609E-02  0.9559353E-01
       -1   -1    0    0    0  501  0.00000000000E+00  0.00000000000E+00  0.55619213149E+03  0.55619213151E+03  0.50400001928E-02 0.  1.
        1   -1    0    0  501    0  0.00000000000E+00  0.00000000000E+00 -0.28800058184E+03  0.28800058189E+03  0.50400001928E-02 0. -1.
    10030    2    1    2    0    0  0.00000000000E+00  0.00000000000E+00  0.26819154964E+03  0.84419271340E+03  0.80045901210E+03 0.  0.
        5    1    3    3  502    0 -0.15747807788E+02  0.39820623562E+03  0.95412516902E+02  0.40980707402E+03  0.46999998093E+01 0. -1.
       -5    1    3    3    0  502  0.15747807788E+02 -0.39820623562E+03  0.17277903274E+03  0.43438563937E+03  0.46999998093E+01 0.  1.
</event>
<event>
 5   0  0.3671128E-03  0.8024363E+03  0.7818609E-02  0.9556497E-01
       -1   -1    0    0    0  501  0.00000000000E+00  0.00000000000E+00  0.13889280172E+03  0.13889280181E+03  0.50400001928E-02 0.  1.
        1   -1    0    0  501    0  0.00000000000E+00  0.00000000000E+00 -0.11589946003E+04  0.11589946004E+04  0.50400001928E-02 0. -1.
    10030    2    1    2    0    0  0.00000000000E+00  0.00000000000E+00 -0.10201017986E+04  0.12978874022E+04  0.80243630846E+03 0.  0.
        2    1    3    3  502    0  0.35154018512E+03 -0.18299043114E+03 -0.61118910589E+03  0.72843539371E+03  0.25500000920E-02 0. -1.
       -2    1    3    3    0  502 -0.35154018512E+03  0.18299043114E+03 -0.40891269274E+03  0.56945200846E+03  0.25500000920E-02 0.  1.
</event>
<event>
 5   0  0.6153659E-03  0.7962012E+03  0.7818609E-02  0.9565532E-01
        2   -1    0    0  501    0  0.00000000000E+00  0.00000000000E+00  0.11622806420E+04  0.11622806420E+04  0.25500000920E-02 0. -1.
       -2   -1    0    0    0  501  0.00000000000E+00  0.00000000000E+00 -0.13635614436E+03  0.13635614439E+03  0.25500000920E-02 0.  1.
    10030    2    1    2    0    0  0.00000000000E+00  0.00000000000E+00  0.10259244976E+04  0.12986367864E+04  0.79620124850E+03 0.  0.
        2    1    3    3  502    0 -0.14419514257E+03 -0.36737747867E+03  0.42780916661E+03  0.58204736406E+03  0.25500000920E-02 0.  1.
       -2    1    3    3    0  502  0.14419514257E+03  0.36737747867E+03  0.59811533100E+03  0.71658942231E+03  0.25500000920E-02 0. -1.
</event>
<event>
 5   0  0.6536209E-03  0.8030568E+03  0.7818609E-02  0.9555603E-01
       -2   -1    0    0    0  501  0.00000000000E+00  0.00000000000E+00  0.35490637546E+03  0.35490637547E+03  0.25500000920E-02 0.  1.
        2   -1    0    0  501    0  0.00000000000E+00  0.00000000000E+00 -0.45427485252E+03  0.45427485252E+03  0.25500000920E-02 0. -1.
    10030    2    1    2    0    0  0.00000000000E+00  0.00000000000E+00 -0.99368477059E+02  0.80918122799E+03  0.80305676356E+03 0.  0.
        3    1    3    3  502    0  0.67734183718E+02  0.25277282834E+03  0.25717566597E+03  0.36690783006E+03  0.10100000352E+00 0.  1.
       -3    1    3    3    0  502 -0.67734183718E+02 -0.25277282834E+03 -0.35654414303E+03  0.44227339793E+03  0.10100000352E+00 0. -1.
</event>
<event>
 5   0  0.3627496E-03  0.8011367E+03  0.7818609E-02  0.9558373E-01
       -1   -1    0    0    0  501  0.00000000000E+00  0.00000000000E+00  0.17785722520E+03  0.17785722527E+03  0.50400001928E-02 0. -1.
        1   -1    0    0  501    0  0.00000000000E+00  0.00000000000E+00 -0.90215627398E+03  0.90215627400E+03  0.50400001928E-02 0.  1.
    10030    2    1    2    0    0  0.00000000000E+00  0.00000000000E+00 -0.72429904878E+03  0.10800134993E+04  0.80113672150E+03 0.  0.
        3    1    3    3  502    0 -0.22531128325E+03  0.22839113665E+03 -0.38809400677E+02  0.32316228964E+03  0.10100000352E+00 0. -1.
       -3    1    3    3    0  502  0.22531128325E+03 -0.22839113665E+03 -0.68548964811E+03  0.75685120963E+03  0.10100000352E+00 0.  1.
</event>
<event>
 5   0  0.5813850E-03  0.8016296E+03  0.7818609E-02  0.9557661E-01
        2   -1    0    0  501    0  0.00000000000E+00  0.00000000000E+00  0.10242281861E+04  0.10242281861E+04  0.25500000920E-02 0.  1.
       -2   -1    0    0    0  501  0.00000000000E+00  0.00000000000E+00 -0.15685227538E+03  0.15685227540E+03  0.25500000920E-02 0. -1.
    10030    2    1    2    0    0  0.00000000000E+00  0.00000000000E+00  0.86737591074E+03  0.11810804615E+04  0.80162964396E+03 0.  0.
        5    1    3    3  502    0  0.27635475761E+03 -0.20166982609E+02  0.70476914485E+01  0.27721908159E+03  0.46999998093E+01 0. -1.
       -5    1    3    3    0  502 -0.27635475761E+03  0.20166982609E+02  0.86032821929E+03  0.90386137994E+03  0.46999998093E+01 0.  1.
</event>
<event>
 5   0  0.6337108E-03  0.8014922E+03  0.7818609E-02  0.9557860E-01
        2   -1    0    0  501    0  0.00000000000E+00  0.00000000000E+00  0.91316750818E+03  0.91316750818E+03  0.25500000920E-02 0. -1.
       -2   -1    0    0    0  501  0.00000000000E+00  0.00000000000E+00 -0.17586856082E+03  0.17586856084E+03  0.25500000920E-02 0.  1.
    10030    2    1    2    0    0  0.00000000000E+00  0.00000000000E+00  0.73729894735E+03  0.10890360690E+04  0.80149224691E+03 0.  0.
        4    1    3    3  502    0 -0.17993618923E+02  0.40016015380E+03  0.35234867528E+03  0.53348207175E+03  0.12699999809E+01 0.  1.
       -4    1    3    3    0  502  0.17993618923E+02 -0.40016015380E+03  0.38495027208E+03  0.55555399727E+03  0.12699999809E+01 0. -1.
</event>
<event>
 5   0  0.6153659E-03  0.8001031E+03  0.7818609E-02  0.9559868E-01
       -2   -1    0    0    0  501  0.00000000000E+00  0.00000000000E+00  0.17322336180E+03  0.17322336181E+03  0.25500000920E-02 0.  1.
        2   -1    0    0  501    0  0.00000000000E+00  0.00000000000E+00 -0.92390095240E+03  0.92390095240E+03  0.25500000920E-02 0. -1.
    10030    2    1    2    0    0  0.00000000000E+00  0.00000000000E+00 -0.75067759060E+03  0.10971243142E+04  0.80010306574E+03 0.  0.
        2    1    3    3  502    0 -0.19654119919E+03  0.31082634842E+03 -0.59127909834E+03  0.69631345958E+03  0.25500000920E-02 0.  1.
       -2    1    3    3    0  502  0.19654119919E+03 -0.31082634842E+03 -0.15939849226E+03  0.40081085464E+03  0.25500000920E-02 0. -1.
</event>
<event>
 5   0  0.2478000E-03  0.7996562E+03  0.7818609E-02  0.9560515E-01
       -4   -1    0    0    0  501  0.00000000000E+00  0.00000000000E+00  0.39444095220E+03  0.39444299674E+03  0.12699999809E+01 0. -1.
        4   -1    0    0  501    0  0.00000000000E+00  0.00000000000E+00 -0.40528478069E+03  0.40528677052E+03  0.12699999809E+01 0.  1.
    10030    2    1    2    0    0  0.00000000000E+00  0.00000000000E+00 -0.10843828492E+02  0.79972976726E+03  0.79965624616E+03 0.  0.
        3    1    3    3  502    0 -0.15751789554E+03  0.15017626671E+02  0.36179722237E+03  0.39488562501E+03  0.10100000352E+00 0. -1.
       -3    1    3    3    0  502  0.15751789554E+03 -0.15017626671E+02 -0.37264105086E+03  0.40484414225E+03  0.10100000352E+00 0.  1.
</event>
<event>
 5   0  0.6153659E-03  0.7988621E+03  0.7818609E-02  0.9561666E-01
       -2   -1    0    0    0  501  0.00000000000E+00  0.00000000000E+00  0.37516133098E+03  0.37516133099E+03  0.25500000920E-02 0.  1.
        2   -1    0    0  501    0  0.00000000000E+00  0.00000000000E+00 -0.42527081961E+03  0.42527081962E+03  0.25500000920E-02 0. -1.
    10030    2    1    2    0    0  0.00000000000E+00  0.00000000000E+00 -0.50109488637E+02  0.80043215061E+03  0.79886210755E+03 0.  0.
        2    1    3    3  502    0 -0.20464379452E+03 -0.23829408879E+03 -0.27228248411E+03  0.41569328422E+03  0.25500000920E-02 0. -1.
       -2    1    3    3    0  502  0.20464379452E+03  0.23829408879E+03  0.22217299548E+03  0.38473886639E+03  0.25500000920E-02 0.  1.
</event>
<event>
 5   0  0.5813850E-03  0.8198304E+03  0.7818609E-02  0.9531749E-01
        2   -1    0    0  501    0  0.00000000000E+00  0.00000000000E+00  0.96796542297E+03  0.96796542298E+03  0.25500000920E-02 0. -1.
       -2   -1    0    0    0  501  0.00000000000E+00  0.00000000000E+00 -0.17359141788E+03  0.17359141790E+03  0.25500000920E-02 0.  1.
    10030    2    1    2    0    0  0.00000000000E+00  0.00000000000E+00  0.79437400509E+03  0.11415568409E+04  0.81983044648E+03 0.  0.
        5    1    3    3  502    0 -0.36423119726E+03 -0.18397482324E+03  0.34330696959E+03  0.53328497636E+03  0.46999998093E+01 0. -1.
       -5    1    3    3    0  502  0.36423119726E+03  0.18397482324E+03  0.45106703550E+03  0.60827186451E+03  0.46999998093E+01 0.  1.
</event>
<event>
 5   0  0.6337108E-03  0.7947987E+03  0.7818609E-02  0.9567576E-01
       -2   -1    0    0    0  501  0.00000000000E+00  0.00000000000E+00  0.16092375065E+04  0.16092375065E+04  0.25500000920E-02 0.  1.
        2   -1    0    0  501    0  0.00000000000E+00  0.00000000000E+00 -0.98137319521E+02  0.98137319554E+02  0.25500000920E-02 0. -1.
    10030    2    1    2    0    0  0.00000000000E+00  0.00000000000E+00  0.15111001869E+04  0.17073748260E+04  0.79479873021E+03 0.  0.
        4    1    3    3  502    0  0.23704944252E+03 -0.14316093128E+03  0.13678286562E+04  0.13955802865E+04  0.12699999809E+01 0.  1.
       -4    1    3    3    0  502 -0.23704944252E+03  0.14316093128E+03  0.14327153070E+03  0.31179453948E+03  0.12699999809E+01 0. -1.
</event>
<event>
 5   0  0.6153659E-03  0.8018735E+03  0.7818609E-02  0.9557309E-01
       -2   -1    0    0    0  501  0.00000000000E+00  0.00000000000E+00  0.14620494101E+03  0.14620494103E+03  0.25500000920E-02 0.  1.
        2   -1    0    0  501    0  0.00000000000E+00  0.00000000000E+00 -0.10994860616E+04  0.10994860617E+04  0.25500000920E-02 0. -1.
    10030    2    1    2    0    0  0.00000000000E+00  0.00000000000E+00 -0.95328112064E+03  0.12456910027E+04  0.80187354314E+03 0.  0.
        2    1    3    3  502    0 -0.28034147664E+03 -0.24935503343E+03 -0.69623091223E+03  0.79088985287E+03  0.25500000920E-02 0. -1.
       -2    1    3    3    0  502  0.28034147664E+03  0.24935503343E+03 -0.25705020841E+03  0.45480114981E+03  0.25500000920E-02 0.  1.
</event>
<event>
 5   0  0.5813850E-03  0.8075223E+03  0.7818609E-02  0.9549192E-01
        2   -1    0    0  501    0  0.00000000000E+00  0.00000000000E+00  0.17556663821E+04  0.17556663821E+04  0.25500000920E-02 0.  1.
       -2   -1    0    0    0  501  0.00000000000E+00  0.00000000000E+00 -0.92855373464E+02  0.92855373499E+02  0.25500000920E-02 0. -1.
    10030    2    1    2    0    0  0.00000000000E+00  0.00000000000E+00  0.16628110087E+04  0.18485217556E+04  0.80752227864E+03 0.  0.
        5    1    3    3  502    0 -0.30602306952E+03  0.23108544659E+03  0.54230066250E+03  0.66420079889E+03  0.46999998093E+01 0. -1.
       -5    1    3    3    0  502  0.30602306952E+03 -0.23108544659E+03  0.11205103462E+04  0.11843209567E+04  0.46999998093E+01 0.  1.
</event>
<event>
 5   0  0.3714448E-03  0.7993262E+03  0.7818609E-02  0.9560993E-01
       -1   -1    0    0    0  501  0.00000000000E+00  0.00000000000E+00  0.69029255646E+03  0.69029255648E+03  0.50400001928E-02 0.  1.
        1   -1    0    0  501    0  0.00000000000E+00  0.00000000000E+00 -0.23139552567E+03  0.23139552573E+03  0.50400001928E-02 0. -1.
    10030    2    1    2    0    0  0.00000000000E+00  0.00000000000E+00  0.45889703079E+03  0.92168808221E+03  0.79932623879E+03 0.  0.
        1    1    3    3  502    0 -0.16920122516E+03 -0.31924573778E+02 -0.18643253567E+03  0.25378203914E+03  0.50400001928E-02 0. -1.
       -1    1    3    3    0  502  0.16920122516E+03  0.31924573778E+02  0.64532956645E+03  0.66790604307E+03  0.50400001928E-02 0.  1.
</event>
<event>
 5   0  0.6536209E-03  0.8008362E+03  0.7818609E-02  0.9558808E-01
       -2   -1    0    0    0  501  0.00000000000E+00  0.00000000000E+00  0.54572698497E+03  0.54572698498E+03  0.25500000920E-02 0.  1.
        2   -1    0    0  501    0  0.00000000000E+00  0.00000000000E+00 -0.29380009220E+03  0.29380009222E+03  0.25500000920E-02 0. -1.
    10030    2    1    2    0    0  0.00000000000E+00  0.00000000000E+00  0.25192689277E+03  0.83952707720E+03  0.80083615930E+03 0.  0.
        3    1    3    3  502    0  0.98437159933E+02 -0.59669804614E+02  0.52800796549E+03  0.54040982769E+03  0.10100000352E+00 0.  1.
       -3    1    3    3    0  502 -0.98437159933E+02  0.59669804614E+02 -0.27608107272E+03  0.29911724951E+03  0.10100000352E+00 0. -1.
</event>
<event>
 5   0  0.3714448E-03  0.7974802E+03  0.7818609E-02  0.9563672E-01
        1   -1    0    0  501    0  0.00000000000E+00  0.00000000000E+00  0.14442944066E+03  0.14442944075E+03  0.50400001928E-02 0.  1.
       -1   -1    0    0    0  501  0.00000000000E+00  0.00000000000E+00 -0.11008396086E+04  0.11008396086E+04  0.50400001928E-02 0. -1.
    10030    2    1    2    0    0  0.00000000000E+00  0.00000000000E+00 -0.95641016793E+03  0.12452690493E+04  0.79748015395E+03 0.  0.
        1    1    3    3  502    0  0.38296747786E+03 -0.39018205976E+02 -0.31587512160E+03  0.49795943807E+03  0.50400001928E-02 0.  1.
       -1    1    3    3    0  502 -0.38296747786E+03  0.39018205976E+02 -0.64053504633E+03  0.74730961127E+03  0.50400001928E-02 0. -1.
</event>
<event>
 5   0  0.6153659E-03  0.7998414E+03  0.7818609E-02  0.9560247E-01
       -2   -1    0    0    0  501  0.00000000000E+00  0.00000000000E+00  0.45907456242E+03  0.45907456243E+03  0.25500000920E-02 0. -1.
        2   -1    0    0  501    0  0.00000000000E+00  0.00000000000E+00 -0.34838906977E+03  0.34838906978E+03  0.25500000920E-02 0.  1.
    10030    2    1    2    0    0  0.00000000000E+00  0.00000000000E+00  0.11068549265E+03  0.80746363221E+03  0.79984138368E+03 0.  0.
        2    1    3    3  502    0 -0.24302500095E+03 -0.12330880834E+02 -0.26505112386E+03  0.35981286799E+03  0.25500000920E-02 0.  1.
       -2    1    3    3    0  502  0.24302500095E+03  0.12330880834E+02  0.37573661650E+03  0.44765076421E+03  0.25500000920E-02 0. -1.
</event>
<event>
 5   0  0.5813850E-03  0.7998074E+03  0.7818609E-02  0.9560296E-01
        2   -1    0    0  501    0  0.00000000000E+00  0.00000000000E+00  0.18251539766E+04  0.18251539766E+04  0.25500000920E-02 0. -1.
       -2   -1    0    0    0  501  0.00000000000E+00  0.00000000000E+00 -0.87621630116E+02  0.87621630153E+02  0.25500000920E-02 0.  1.
    10030    2    1    2    0    0  0.00000000000E+00  0.00000000000E+00  0.17375323465E+04  0.19127756067E+04  0.79980739351E+03 0.  0.
        5    1    3    3  502    0 -0.55460454958E+02 -0.36553340159E+03  0.50441562592E+03  0.62541805492E+03  0.46999998093E+01 0. -1.
       -5    1    3    3    0  502  0.55460454958E+02  0.36553340159E+03  0.12331167205E+04  0.12873575518E+04  0.46999998093E+01 0.  1.
</event>
<event>
 5   0  0.3714448E-03  0.7981698E+03  0.7818609E-02  0.9562670E-01
       -1   -1    0    0    0  501  0.00000000000E+00  0.00000000000E+00  0.11968323346E+03  0.11968323356E+03  0.50400001928E-02 0. -1.
        1   -1    0    0  501    0  0.00000000000E+00  0.00000000000E+00 -0.13307525722E+04  0.13307525723E+04  0.50400001928E-02 0.  1.
    10030    2    1    2    0    0  0.00000000000E+00  0.00000000000E+00 -0.12110693388E+04  0.14504358058E+04  0.79816983371E+03 0.  0.
        1    1    3    3  502    0 -0.17939667036E+03 -0.16108253146E+03 -0.11834449677E+04  0.12077552479E+04  0.50400001928E-02 0.  1.
       -1    1    3    3    0  502  0.17939667036E+03  0.16108253146E+03 -0.27624371087E+02  0.24268055789E+03  0.50400001928E-02 0. -1.
</event>
<event>
 5   0  0.3860515E-03  0.7815887E+03  0.7818609E-02  0.9587056E-01
       -1   -1    0    0    0  501  0.00000000000E+00  0.00000000000E+00  0.25730190346E+03  0.25730190351E+03  0.50400001928E-02 0.  1.
        1   -1    0    0  501    0  0.00000000000E+00  0.00000000000E+00 -0.59354489173E+03  0.59354489176E+03  0.50400001928E-02 0. -1.
    10030    2    1    2    0    0  0.00000000000E+00  0.00000000000E+00 -0.33624298827E+03  0.85084679527E+03  0.78158871656E+03 0.  0.
        4    1    3    3  502    0  0.33706202066E+03  0.18017519569E+02 -0.38250669314E+03  0.51014548903E+03  0.12699999809E+01 0. -1.
       -4    1    3    3    0  502 -0.33706202066E+03 -0.18017519569E+02  0.46263704871E+02  0.34070130624E+03  0.12699999809E+01 0.  1.
</event>
<event>
 5   0  0.3627496E-03  0.7994711E+03  0.7818609E-02  0.9560783E-01
        1   -1    0    0  501    0  0.00000000000E+00  0.00000000000E+00  0.61160616125E+03  0.61160616127E+03  0.50400001928E-02 0.  1.
       -1   -1    0    0    0  501  0.00000000000E+00  0.00000000000E+00 -0.26126047756E+03  0.26126047761E+03  0.50400001928E-02 0. -1.
    10030    2    1    2    0    0  0.00000000000E+00  0.00000000000E+00  0.35034568369E+03  0.87286663888E+03  0.79947111967E+03 0.  0.
        3    1    3    3  502    0 -0.78192905520E+02 -0.27617893123E+03 -0.12857584102E+03  0.31451659673E+03  0.10100000352E+00 0. -1.
       -3    1    3    3    0  502  0.78192905520E+02  0.27617893123E+03  0.47892152471E+03  0.55835004214E+03  0.10100000352E+00 0.  1.
</event>
<event>
 5   0  0.3753450E-03  0.8029429E+03  0.7818609E-02  0.9555767E-01
        1   -1    0    0  501    0  0.00000000000E+00  0.00000000000E+00  0.74873500460E+03  0.74873500462E+03  0.50400001928E-02 0.  1.
       -1   -1    0    0    0  501  0.00000000000E+00  0.00000000000E+00 -0.21526885447E+03  0.21526885452E+03  0.50400001928E-02 0. -1.
    10030    2    1    2    0    0  0.00000000000E+00  0.00000000000E+00  0.53346615014E+03  0.96400385915E+03  0.80294290401E+03 0.  0.
        5    1    3    3  502    0  0.35441151262E+03 -0.13109640389E+03  0.42942696357E+03  0.57203443466E+03  0.46999998093E+01 0.  1.
       -5    1    3    3    0  502 -0.35441151262E+03  0.13109640389E+03  0.10403918657E+03  0.39196942449E+03  0.46999998093E+01 0. -1.
</event>
<event>
 5   0  0.3753450E-03  0.7997427E+03  0.7818609E-02  0.9560390E-01
       -1   -1    0    0    0  501  0.00000000000E+00  0.00000000000E+00  0.19527473660E+03  0.19527473667E+03  0.50400001928E-02 0. -1.
        1   -1    0    0  501    0  0.00000000000E+00  0.00000000000E+00 -0.81883143678E+03  0.81883143680E+03  0.50400001928E-02 0.  1.
    10030    2    1    2    0    0  0.00000000000E+00  0.00000000000E+00 -0.62355670018E+03  0.10141061735E+04  0.79974269157E+03 0.  0.
        5    1    3    3  502    0  0.12940879324E+03  0.15843290691E+03 -0.74741512326E+03  0.77491875589E+03  0.46999998093E+01 0.  1.
       -5    1    3    3    0  502 -0.12940879324E+03 -0.15843290691E+03  0.12385842308E+03  0.23918741757E+03  0.46999998093E+01 0. -1.
</event>
<event>
 5   0  0.3627496E-03  0.7984604E+03  0.7818609E-02  0.9562248E-01
        1   -1    0    0  501    0  0.00000000000E+00  0.00000000000E+00  0.96626570696E+03  0.96626570697E+03  0.50400001928E-02 0.  1.
       -1   -1    0    0    0  501  0.00000000000E+00  0.00000000000E+00 -0.16494918640E+03  0.16494918647E+03  0.50400001928E-02 0. -1.
    10030    2    1    2    0    0  0.00000000000E+00  0.00000000000E+00  0.80131652056E+03  0.11312148934E+04  0.79846037411E+03 0.  0.
        3    1    3    3  502    0  0.37659083601E+03 -0.11930100255E+03  0.48242968366E+03  0.62353171279E+03  0.10100000352E+00 0. -1.
       -3    1    3    3    0  502 -0.37659083601E+03  0.11930100255E+03  0.31888683690E+03  0.50768318066E+03  0.10100000352E+00 0.  1.
</event>
<event>
 5   0  0.5813850E-03  0.8003279E+03  0.7818609E-02  0.9559543E-01
        2   -1    0    0  501    0  0.00000000000E+00  0.00000000000E+00  0.82066875180E+03  0.82066875181E+03  0.25500000920E-02 0. -1.
       -2   -1    0    0    0  501  0.00000000000E+00  0.00000000000E+00 -0.19512278619E+03  0.19512278620E+03  0.25500000920E-02 0.  1.
    10030    2    1    2    0    0  0.00000000000E+00  0.00000000000E+00  0.62554596562E+03  0.10157915380E+04  0.80032786631E+03 0.  0.
        5    1    3    3  502    0 -0.11759044056E+03 -0.20920374703E+02  0.79748166715E+03  0.80638965347E+03  0.46999998093E+01 0. -1.
       -5    1    3    3    0  502  0.11759044056E+03  0.20920374703E+02 -0.17193570153E+03  0.20940188454E+03  0.46999998093E+01 0.  1.
</event>
<event>
 5   0  0.2478000E-03  0.7935915E+03  0.7818609E-02  0.9569340E-01
        3   -1    0    0  501    0  0.00000000000E+00  0.00000000000E+00  0.10031906940E+04  0.10031906991E+04  0.10100000352E+00 0.  1.
       -3   -1    0    0    0  501  0.00000000000E+00  0.00000000000E+00 -0.15694606081E+03  0.15694609331E+03  0.10100000352E+00 0. -1.
    10030    2    1    2    0    0  0.00000000000E+00  0.00000000000E+00  0.84624463323E+03  0.11601367924E+04  0.79359145528E+03 0.  0.
        3    1    3    3  502    0 -0.25783251117E+03 -0.73355046514E+02 -0.45580835442E+01  0.26810325062E+03  0.10100000352E+00 0. -1.
       -3    1    3    3    0  502  0.25783251117E+03  0.73355046514E+02  0.85080271677E+03  0.89203354182E+03  0.10100000352E+00 0.  1.
</event>
<event>
 5   0  0.3753450E-03  0.7998952E+03  0.7818609E-02  0.9560169E-01
        1   -1    0    0  501    0  0.00000000000E+00  0.00000000000E+00  0.66721521572E+03  0.66721521574E+03  0.50400001928E-02 0. -1.
       -1   -1    0    0    0  501  0.00000000000E+00  0.00000000000E+00 -0.23973984245E+03  0.23973984250E+03  0.50400001928E-02 0.  1.
    10030    2    1    2    0    0  0.00000000000E+00  0.00000000000E+00  0.42747537327E+03  0.90695505824E+03  0.79989516995E+03 0.  0.
        5    1    3    3  502    0  0.18870827472E+03  0.35156412985E+03  0.18314851017E+03  0.43905992429E+03  0.46999998093E+01 0.  1.
       -5    1    3    3    0  502 -0.18870827472E+03 -0.35156412985E+03  0.24432686310E+03  0.46789513395E+03  0.46999998093E+01 0. -1.
</event>
<event>
 5   0  0.5813850E-03  0.7972938E+03  0.7818609E-02  0.9563943E-01
       -2   -1    0    0    0  501  0.00000000000E+00  0.00000000000E+00  0.40658409672E+03  0.40658409673E+03  0.25500000920E-02 0.  1.
        2   -1    0    0  501    0  0.00000000000E+00  0.00000000000E+00 -0.39086462197E+03  0.39086462198E+03  0.25500000920E-02 0. -1.
    10030    2    1    2    0    0  0.00000000000E+00  0.00000000000E+00  0.15719474756E+02  0.79744871871E+03  0.79729377088E+03 0.  0.
        5    1    3    3  502    0  0.14836124369E+03 -0.19418282427E+03 -0.30712879347E+03  0.39251524002E+03  0.46999998093E+01 0. -1.
       -5    1    3    3    0  502 -0.14836124369E+03  0.19418282427E+03  0.32284826822E+03  0.40493347869E+03  0.46999998093E+01 0.  1.
</event>
<event>
 5   0  0.3860515E-03  0.7996330E+03  0.7818609E-02  0.9560548E-01
        1   -1    0    0  501    0  0.00000000000E+00  0.00000000000E+00  0.20915940702E+03  0.20915940708E+03  0.50400001928E-02 0. -1.
       -1   -1    0    0    0  501  0.00000000000E+00  0.00000000000E+00 -0.76426509282E+03  0.76426509284E+03  0.50400001928E-02 0.  1.
    10030    2    1    2    0    0  0.00000000000E+00  0.00000000000E+00 -0.55510568580E+03  0.97342449992E+03  0.79963299996E+03 0.  0.
        4    1    3    3  502    0 -0.33862883016E+03 -0.58792580205E+02 -0.28888968455E+02  0.34490902786E+03  0.12699999809E+01 0. -1.
       -4    1    3    3    0  502  0.33862883016E+03  0.58792580205E+02 -0.52621671734E+03  0.62851547206E+03  0.12699999809E+01 0.  1.
</event>
<event>
 5   0  0.3753450E-03  0.7994275E+03  0.7818609E-02  0.9560846E-01
        1   -1    0    0  501    0  0.00000000000E+00  0.00000000000E+00  0.14449733144E+04  0.14449733144E+04  0.50400001928E-02 0.  1.
       -1   -1    0    0    0  501  0.00000000000E+00  0.00000000000E+00 -0.11057027382E+03  0.11057027394E+03  0.50400001928E-02 0. -1.
    10030    2    1    2    0    0  0.00000000000E+00  0.00000000000E+00  0.13344030406E+04  0.15555435884E+04  0.79942753302E+03 0.  0.
        5    1    3    3  502    0  0.24121677410E+03  0.20813195329E+03  0.11368044300E+04  0.11806146044E+04  0.46999998093E+01 0.  1.
       -5    1    3    3    0  502 -0.24121677410E+03 -0.20813195329E+03  0.19759861056E+03  0.37492898392E+03  0.46999998093E+01 0. -1.
</event>
<event>
 5   0  0.6536209E-03  0.7998105E+03  0.7818609E-02  0.9560291E-01
       -2   -1    0    0    0  501  0.00000000000E+00  0.00000000000E+00  0.10845012768E+03  0.10845012771E+03  0.25500000920E-02 0.  1.
        2   -1    0    0  501    0  0.00000000000E+00  0.00000000000E+00 -0.14746336818E+04  0.14746336818E+04  0.25500000920E-02 0. -1.
    10030    2    1    2    0    0  0.00000000000E+00  0.00000000000E+00 -0.13661835542E+04  0.15830838096E+04  0.79981050532E+03 0.  0.
        3    1    3    3  502    0  0.56578557877E+02 -0.51597994019E+02 -0.14599875479E+04  0.14619942327E+04  0.10100000352E+00 0. -1.
       -3    1    3    3    0  502 -0.56578557877E+02  0.51597994019E+02  0.93803993705E+02  0.12108957690E+03  0.10100000352E+00 0.  1.
</event>
<event>
 5   0  0.5813850E-03  0.8007704E+03  0.7818609E-02  0.9558903E-01
       -2   -1    0    0    0  501  0.00000000000E+00  0.00000000000E+00  0.27946926580E+03  0.27946926581E+03  0.25500000920E-02 0. -1.
        2   -1    0    0  501    0  0.00000000000E+00  0.00000000000E+00 -0.57361691888E+03  0.57361691889E+03  0.25500000920E-02 0.  1.
    10030    2    1    2    0    0  0.00000000000E+00  0.00000000000E+00 -0.29414765308E+03  0.85308618470E+03  0.80077037701E+03 0.  0.
        5    1    3    3  502    0 -0.36128075057E+03  0.15411028281E+03 -0.22967964130E+03  0.45502591973E+03  0.46999998093E+01 0.  1.
       -5    1    3    3    0  502  0.36128075057E+03 -0.15411028281E+03 -0.64468011785E+02  0.39806026496E+03  0.46999998093E+01 0. -1.
</event>
<event>
 5   0  0.3753450E-03  0.8001332E+03  0.7818609E-02  0.9559824E-01
        1   -1    0    0  501    0  0.00000000000E+00  0.00000000000E+00  0.13086697546E+04  0.13086697546E+04  0.50400001928E-02 0.  1.
       -1   -1    0    0    0  501  0.00000000000E+00  0.00000000000E+00 -0.12230226471E+03  0.12230226482E+03  0.50400001928E-02 0. -1.
    10030    2    1    2    0    0  0.00000000000E+00  0.00000000000E+00  0.11863674899E+04  0.14309720194E+04  0.80013317599E+03 0.  0.
        5    1    3    3  502    0 -0.34888504369E+03  0.16639114950E+03  0.77752434583E+03  0.86831617899E+03  0.46999998093E+01 0. -1.
       -5    1    3    3    0  502  0.34888504369E+03 -0.16639114950E+03  0.40884314408E+03  0.56265584046E+03  0.46999998093E+01 0.  1.
</event>
<event>
 5   0  0.6337108E-03  0.7952957E+03  0.7818609E-02  0.9566852E-01
        2   -1    0    0  501    0  0.00000000000E+00  0.00000000000E+00  0.30013351776E+03  0.30013351777E+03  0.25500000920E-02 0. -1.
       -2   -1    0    0    0  501  0.00000000000E+00  0.00000000000E+00 -0.52684485416E+03  0.52684485416E+03  0.25500000920E-02 0.  1.
    10030    2    1    2    0    0  0.00000000000E+00  0.00000000000E+00 -0.22671133640E+03  0.82697837193E+03  0.79529566678E+03 0.  0.
        4    1    3    3  502    0 -0.10064258841E+03  0.34718578837E+03  0.58941645967E+02  0.36625487407E+03  0.12699999809E+01 0. -1.
       -4    1    3    3    0  502  0.10064258841E+03 -0.34718578837E+03 -0.28565298236E+03  0.46072349786E+03  0.12699999809E+01 0.  1.
</event>
<event>
 5   0  0.3714448E-03  0.7654896E+03  0.7818609E-02  0.9611358E-01
        1   -1    0    0  501    0  0.00000000000E+00  0.00000000000E+00  0.32444676671E+03  0.32444676675E+03  0.50400001928E-02 0.  1.
       -1   -1    0    0    0  501  0.00000000000E+00  0.00000000000E+00 -0.45151807178E+03  0.45151807181E+03  0.50400001928E-02 0. -1.
    10030    2    1    2    0    0  0.00000000000E+00  0.00000000000E+00 -0.12707130507E+03  0.77596483855E+03  0.76548959111E+03 0.  0.
        1    1    3    3  502    0  0.13754670474E+03  0.22319447508E+03  0.21913275550E+03  0.34169289464E+03  0.50400001928E-02 0.  1.
       -1    1    3    3    0  502 -0.13754670474E+03 -0.22319447508E+03 -0.34620406057E+03  0.43427194391E+03  0.50400001928E-02 0. -1.
</event>
<event>
 5   0  0.3671128E-03  0.8033668E+03  0.7818609E-02  0.9555157E-01
       -1   -1    0    0    0  501  0.00000000000E+00  0.00000000000E+00  0.97007758501E+03  0.97007758502E+03  0.50400001928E-02 0.  1.
        1   -1    0    0  501    0  0.00000000000E+00  0.00000000000E+00 -0.16632643340E+03  0.16632643347E+03  0.50400001928E-02 0. -1.
    10030    2    1    2    0    0  0.00000000000E+00  0.00000000000E+00  0.80375115161E+03  0.11364040185E+04  0.80336677772E+03 0.  0.
        2    1    3    3  502    0 -0.16311422380E+03  0.30062240105E+03  0.69983765621E+03  0.77894340171E+03  0.25500000920E-02 0.  1.
       -2    1    3    3    0  502  0.16311422380E+03 -0.30062240105E+03  0.10391349540E+03  0.35746061678E+03  0.25500000920E-02 0. -1.
</event>
<event>
 5   0  0.3860515E-03  0.7995821E+03  0.7818609E-02  0.9560622E-01
        1   -1    0    0  501    0  0.00000000000E+00  0.00000000000E+00  0.49187079077E+03  0.49187079079E+03  0.50400001928E-02 0.  1.
       -1   -1    0    0    0  501  0.00000000000E+00  0.00000000000E+00 -0.32494890579E+03  0.32494890583E+03  0.50400001928E-02 0. -1.
    10030    2    1    2    0    0  0.00000000000E+00  0.00000000000E+00  0.16692188498E+03  0.81681969662E+03  0.79958207903E+03 0.  0.
        4    1    3    3  502    0 -0.22474405671E+03 -0.28397698647E+03  0.25645888209E+03  0.44376298964E+03  0.12699999809E+01 0.  1.
       -4    1    3    3    0  502  0.22474405671E+03  0.28397698647E+03 -0.89536997117E+02  0.37305670698E+03  0.12699999809E+01 0. -1.
</event>
<event>
 5   0  0.3860515E-03  0.8001995E+03  0.7818609E-02  0.9559728E-01
       -1   -1    0    0    0  501  0.00000000000E+00  0.00000000000E+00  0.25740514711E+03  0.25740514716E+03  0.50400001928E-02 0. -1.
        1   -1    0    0  501    0  0.00000000000E+00  0.00000000000E+00 -0.62189832224E+03  0.62189832226E+03  0.50400001928E-02 0.  1.
    10030    2    1    2    0    0  0.00000000000E+00  0.00000000000E+00 -0.36449317513E+03  0.87930346941E+03  0.80019954799E+03 0.  0.
        4    1    3    3  502    0 -0.95587131472E+02 -0.26855785547E+03  0.12625199714E+03  0.31177139240E+03  0.12699999809E+01 0. -1.
       -4    1    3    3    0  502  0.95587131472E+02  0.26855785547E+03 -0.49074517227E+03  0.56753207701E+03  0.12699999809E+01 0.  1.
</event>
<event>
 5   0  0.3714448E-03  0.8067243E+03  0.7818609E-02  0.9550335E-01
        1   -1    0    0  501    0  0.00000000000E+00  0.00000000000E+00  0.11677757212E+04  0.11677757212E+04  0.50400001928E-02 0.  1.
       -1   -1    0    0    0  501  0.00000000000E+00  0.00000000000E+00 -0.13932557314E+03  0.13932557323E+03  0.50400001928E-02 0. -1.
    10030    2    1    2    0    0  0.00000000000E+00  0.00000000000E+00  0.10284501481E+04  0.13071012944E+04  0.80672429421E+03 0.  0.
        1    1    3    3  502    0  0.21750677096E+03  0.10078201109E+03  0.10398353228E+04  0.10671099792E+04  0.50400001928E-02 0.  1.
       -1    1    3    3    0  502 -0.21750677096E+03 -0.10078201109E+03 -0.11385174698E+02  0.23999131526E+03  0.50400001928E-02 0. -1.
</event>
<event>
 5   0  0.3753450E-03  0.7655340E+03  0.7818609E-02  0.9611290E-01
       -1   -1    0    0    0  501  0.00000000000E+00  0.00000000000E+00  0.35235690625E+03  0.35235690628E+03  0.50400001928E-02 0.  1.
        1   -1    0    0  501    0  0.00000000000E+00  0.00000000000E+00 -0.41580160818E+03  0.41580160821E+03  0.50400001928E-02 0. -1.
    10030    2    1    2    0    0  0.00000000000E+00  0.00000000000E+00 -0.63444701932E+02  0.76815851449E+03  0.76553397911E+03 0.  0.
        5    1    3    3  502    0  0.27498531441E+03 -0.16371210159E+03 -0.24237039152E+03  0.40147736179E+03  0.46999998093E+01 0. -1.
       -5    1    3    3    0  502 -0.27498531441E+03  0.16371210159E+03  0.17892568958E+03  0.36668115270E+03  0.46999998093E+01 0.  1.
</event>
<event>
 5   0  0.6337108E-03  0.7993478E+03  0.7818609E-02  0.9560962E-01
       -2   -1    0    0    0  501  0.00000000000E+00  0.00000000000E+00  0.31134595870E+03  0.31134595871E+03  0.25500000920E-02 0.  1.
        2   -1    0    0  501    0  0.00000000000E+00  0.00000000000E+00 -0.51306025705E+03  0.51306025706E+03  0.25500000920E-02 0. -1.
    10030    2    1    2    0    0  0.00000000000E+00  0.00000000000E+00 -0.20171429835E+03  0.82440621577E+03  0.79934782820E+03 0.  0.
        4    1    3    3  502    0 -0.33229102136E+03  0.13351212972E+03 -0.28388828536E+03  0.45698685224E+03  0.12699999809E+01 0. -1.
       -4    1    3    3    0  502  0.33229102136E+03 -0.13351212972E+03  0.82173987005E+02  0.36741936353E+03  0.12699999809E+01 0.  1.
</event>
<event>
 5   0  0.3753450E-03  0.8003788E+03  0.7818609E-02  0.9559469E-01
        1   -1    0    0  501    0  0.00000000000E+00  0.00000000000E+00  0.70049277330E+03  0.70049277332E+03  0.50400001928E-02 0. -1.
       -1   -1    0    0    0  501  0.00000000000E+00  0.00000000000E+00 -0.22862697651E+03  0.22862697657E+03  0.50400001928E-02 0.  1.
    10030    2    1    2    0    0  0.00000000000E+00  0.00000000000E+00  0.47186579679E+03  0.92911974988E+03  0.80037877248E+03 0.  0.
        5    1    3    3  502    0  0.15310242791E+03 -0.27963783306E+03 -0.44819556759E+02  0.32197601428E+03  0.46999998093E+01 0.  1.
       -5    1    3    3    0  502 -0.15310242791E+03  0.27963783306E+03  0.51668535355E+03  0.60714373560E+03  0.46999998093E+01 0. -1.
</event>
<event>
 5   0  0.6337108E-03  0.7905557E+03  0.7818609E-02  0.9573789E-01
       -2   -1    0    0    0  501  0.00000000000E+00  0.00000000000E+00  0.20195681464E+03  0.20195681465E+03  0.25500000920E-02 0. -1.
        2   -1    0    0  501    0  0.00000000000E+00  0.00000000000E+00 -0.77365344338E+03  0.77365344338E+03  0.25500000920E-02 0.  1.
    10030    2    1    2    0    0  0.00000000000E+00  0.00000000000E+00 -0.57169662874E+03  0.97561025803E+03  0.79055571610E+03 0.  0.
        4    1    3    3  502    0 -0.58019780507E+01  0.36442387376E+03 -0.47464484851E+03  0.59843777273E+03  0.12699999809E+01 0.  1.
       -4    1    3    3    0  502  0.58019780507E+01 -0.36442387376E+03 -0.97051780232E+02  0.37717248530E+03  0.12699999809E+01 0. -1.
</event>
<event>
 5   0  0.3714448E-03  0.8050313E+03  0.7818609E-02  0.9552763E-01
        1   -1    0    0  501    0  0.00000000000E+00  0.00000000000E+00  0.12932231138E+04  0.12932231138E+04  0.50400001928E-02 0.  1.
       -1   -1    0    0    0  501  0.00000000000E+00  0.00000000000E+00 -0.12528299552E+03  0.12528299563E+03  0.50400001928E-02 0. -1.
    10030    2    1    2    0    0  0.00000000000E+00  0.00000000000E+00  0.11679401183E+04  0.14185061095E+04  0.80503134264E+03 0.  0.
        1    1    3    3  502    0  0.17979559855E+03  0.17004210374E+03  0.24597077303E+02  0.24868813912E+03  0.50400001928E-02 0. -1.
       -1    1    3    3    0  502 -0.17979559855E+03 -0.17004210374E+03  0.11433430410E+04  0.11698179703E+04  0.50400001928E-02 0.  1.
</event>
<event>
 5   0  0.2478000E-03  0.7992067E+03  0.7818609E-02  0.9561166E-01
       -3   -1    0    0    0  501  0.00000000000E+00  0.00000000000E+00  0.26106919980E+03  0.26106921934E+03  0.10100000352E+00 0.  1.
        3   -1    0    0  501    0  0.00000000000E+00  0.00000000000E+00 -0.61164936373E+03  0.61164937207E+03  0.10100000352E+00 0. -1.
    10030    2    1    2    0    0  0.00000000000E+00  0.00000000000E+00 -0.35058016393E+03  0.87271859141E+03  0.79920666192E+03 0.  0.
        4    1    3    3  502    0 -0.27139013587E+03 -0.11851496239E+03 -0.46826437952E+03  0.55405012787E+03  0.12699999809E+01 0. -1.
       -4    1    3    3    0  502  0.27139013587E+03  0.11851496239E+03  0.11768421559E+03  0.31866846354E+03  0.12699999809E+01 0.  1.
</event>
<event>
 5   0  0.6256781E-03  0.8081386E+03  0.7818609E-02  0.9548311E-01
        2   -1    0    0  501    0  0.00000000000E+00  0.00000000000E+00  0.44781429486E+03  0.44781429487E+03  0.25500000920E-02 0. -1.
       -2   -1    0    0    0  501  0.00000000000E+00  0.00000000000E+00 -0.36459752115E+03  0.36459752116E+03  0.25500000920E-02 0.  1.
    10030    2    1    2    0    0  0.00000000000E+00  0.00000000000E+00  0.83216773714E+02  0.81241181603E+03  0.80813855705E+03 0.  0.
        1    1    3    3  502    0 -0.22866007236E+03 -0.26708039372E+03  0.24179603625E+03  0.42671148165E+03  0.50400001928E-02 0. -1.
       -1    1    3    3    0  502  0.22866007236E+03  0.26708039372E+03 -0.15857926253E+03  0.38570033437E+03  0.50400001928E-02 0.  1.
</event>
<event>
 5   0  0.3714448E-03  0.7966478E+03  0.7818609E-02  0.9564882E-01
        1   -1    0    0  501    0  0.00000000000E+00  0.00000000000E+00  0.12630433718E+04  0.12630433718E+04  0.50400001928E-02 0. -1.
       -1   -1    0    0    0  501  0.00000000000E+00  0.00000000000E+00 -0.12561875462E+03  0.12561875472E+03  0.50400001928E-02 0.  1.
    10030    2    1    2    0    0  0.00000000000E+00  0.00000000000E+00  0.11374246172E+04  0.13886621265E+04  0.79664781547E+03 0.  0.
        1    1    3    3  502    0 -0.67515498027E+02  0.19731868550E+03  0.11602710634E+04  0.11788646855E+04  0.50400001928E-02 0. -1.
       -1    1    3    3    0  502  0.67515498027E+02 -0.19731868550E+03 -0.22846446248E+02  0.20979744101E+03  0.50400001928E-02 0.  1.
</event>
<event>
 5   0  0.6153659E-03  0.7991415E+03  0.7818609E-02  0.9561261E-01
       -2   -1    0    0    0  501  0.00000000000E+00  0.00000000000E+00  0.76032032926E+02  0.76032032968E+02  0.25500000920E-02 0. -1.
        2   -1    0    0  501    0  0.00000000000E+00  0.00000000000E+00 -0.20998621457E+04  0.20998621457E+04  0.25500000920E-02 0.  1.
    10030    2    1    2    0    0  0.00000000000E+00  0.00000000000E+00 -0.20238301128E+04  0.21758941787E+04  0.79914150900E+03 0.  0.
        2    1    3    3  502    0  0.96688395335E+02 -0.31768504609E+03 -0.16169894406E+04  0.16507353771E+04  0.25500000920E-02 0.  1.
       -2    1    3    3    0  502 -0.96688395335E+02  0.31768504609E+03 -0.40684067222E+03  0.52515880158E+03  0.25500000920E-02 0. -1.
</event>
<event>
 5   0  0.3714448E-03  0.8004382E+03  0.7818609E-02  0.9559383E-01
        1   -1    0    0  501    0  0.00000000000E+00  0.00000000000E+00  0.10115686423E+04  0.10115686423E+04  0.50400001928E-02 0.  1.
       -1   -1    0    0    0  501  0.00000000000E+00  0.00000000000E+00 -0.15834351844E+03  0.15834351852E+03  0.50400001928E-02 0. -1.
    10030    2    1    2    0    0  0.00000000000E+00  0.00000000000E+00  0.85322512386E+03  0.11699121608E+04  0.80043822501E+03 0.  0.
        1    1    3    3  502    0  0.26436242476E+03 -0.27820656173E+03  0.26067897736E+03  0.46393955628E+03  0.50400001928E-02 0. -1.
       -1    1    3    3    0  502 -0.26436242476E+03  0.27820656173E+03  0.59254614649E+03  0.70597260454E+03  0.50400001928E-02 0.  1.
</event>
<event>
 5   0  0.3627496E-03  0.8000951E+03  0.7818609E-02  0.9559880E-01
       -1   -1    0    0    0  501  0.00000000000E+00  0.00000000000E+00  0.88925573251E+02  0.88925573394E+02  0.50400001928E-02 0. -1.
        1   -1    0    0  501    0  0.00000000000E+00  0.00000000000E+00 -0.17996850434E+04  0.17996850434E+04  0.50400001928E-02 0.  1.
    10030    2    1    2    0    0  0.00000000000E+00  0.00000000000E+00 -0.17107594702E+04  0.18886106168E+04  0.80009505510E+03 0.  0.
        3    1    3    3  502    0 -0.35824697058E+03  0.11751624331E+03 -0.53968287801E+03  0.65833773885E+03  0.10100000352E+00 0. -1.
       -3    1    3    3    0  502  0.35824697058E+03 -0.11751624331E+03 -0.11710765922E+04  0.12302728780E+04  0.10100000352E+00 0.  1.
</event>
<event>
 5   0  0.3714448E-03  0.7996626E+03  0.7818609E-02  0.9560506E-01
        1   -1    0    0  501    0  0.00000000000E+00  0.00000000000E+00  0.68994333125E+03  0.68994333126E+03  0.50400001928E-02 0. -1.
       -1   -1    0    0    0  501  0.00000000000E+00  0.00000000000E+00 -0.23170752938E+03  0.23170752944E+03  0.50400001928E-02 0.  1.
    10030    2    1    2    0    0  0.00000000000E+00  0.00000000000E+00  0.45823580186E+03  0.92165086070E+03  0.79966259068E+03 0.  0.
        1    1    3    3  502    0  0.22946767440E+03  0.29612009219E+03  0.68080097696E+02  0.38075900819E+03  0.50400001928E-02 0.  1.
       -1    1    3    3    0  502 -0.22946767440E+03 -0.29612009219E+03  0.39015570417E+03  0.54089185251E+03  0.50400001928E-02 0. -1.
</event>
<event>
 5   0  0.5813850E-03  0.7994299E+03  0.7818609E-02  0.9560843E-01
       -2   -1    0    0    0  501  0.00000000000E+00  0.00000000000E+00  0.20090590450E+03  0.20090590451E+03  0.25500000920E-02 0. -1.
        2   -1    0    0  501    0  0.00000000000E+00  0.00000000000E+00 -0.79525798119E+03  0.79525798119E+03  0.25500000920E-02 0.  1.
    10030    2    1    2    0    0  0.00000000000E+00  0.00000000000E+00 -0.59435207669E+03  0.99616388571E+03  0.79942985691E+03 0.  0.
        5    1    3    3  502    0 -0.21518936586E+03  0.16927035499E+03  0.65672479167E+02  0.28159169160E+03  0.46999998093E+01 0. -1.
       -5    1    3    3    0  502  0.21518936586E+03 -0.16927035499E+03 -0.66002455586E+03  0.71457219411E+03  0.46999998093E+01 0.  1.
</event>
<event>
 5   0  0.6536209E-03  0.8017718E+03  0.7818609E-02  0.9557456E-01
        2   -1    0    0  501    0  0.00000000000E+00  0.00000000000E+00  0.66603684437E+03  0.66603684438E+03  0.25500000920E-02 0. -1.
       -2   -1    0    0    0  501  0.00000000000E+00  0.00000000000E+00 -0.24129223549E+03  0.24129223550E+03  0.25500000920E-02 0.  1.
    10030    2    1    2    0    0  0.00000000000E+00  0.00000000000E+00  0.42474460888E+03  0.90732907988E+03  0.80177183564E+03 0.  0.
        3    1    3    3  502    0  0.13586072235E+03 -0.94436989563E+02 -0.20084919081E+03  0.26022468854E+03  0.10100000352E+00 0.  1.
       -3    1    3    3    0  502 -0.13586072235E+03  0.94436989563E+02  0.62559379969E+03  0.64710439134E+03  0.10100000352E+00 0. -1.
</event>
<event>
 5   0  0.6256781E-03  0.8029475E+03  0.7818609E-02  0.9555761E-01
        2   -1    0    0  501    0  0.00000000000E+00  0.00000000000E+00  0.11517879787E+04  0.11517879787E+04  0.25500000920E-02 0.  1.
       -2   -1    0    0    0  501  0.00000000000E+00  0.00000000000E+00 -0.13993996291E+03  0.13993996293E+03  0.25500000920E-02 0. -1.
    10030    2    1    2    0    0  0.00000000000E+00  0.00000000000E+00  0.10118480158E+04  0.12917279416E+04  0.80294748777E+03 0.  0.
        1    1    3    3  502    0  0.22806081088E+03  0.78213848866E+02  0.10223548611E+04  0.10503992582E+04  0.50400001928E-02 0.  1.
       -1    1    3    3    0  502 -0.22806081088E+03 -0.78213848866E+02 -0.10506845311E+02  0.24132868341E+03  0.50400001928E-02 0. -1.
</event>
<event>
 5   0  0.3671128E-03  0.8054988E+03  0.7818609E-02  0.9552092E-01
       -1   -1    0    0    0  501  0.00000000000E+00  0.00000000000E+00  0.38713088607E+03  0.38713088610E+03  0.50400001928E-02 0.  1.
        1   -1    0    0  501    0  0.00000000000E+00  0.00000000000E+00 -0.41899801142E+03  0.41899801145E+03  0.50400001928E-02 0. -1.
    10030    2    1    2    0    0  0.00000000000E+00  0.00000000000E+00 -0.31867125349E+02  0.80612889755E+03  0.80549878075E+03 0.  0.
        2    1    3    3  502    0 -0.19469771122E+02  0.33124849906E+03  0.21250456779E+03  0.39403404860E+03  0.25500000920E-02 0.  1.
       -2    1    3    3    0  502  0.19469771122E+02 -0.33124849906E+03 -0.24437169314E+03  0.41209484895E+03  0.25500000920E-02 0. -1.
</event>
<event>
 5   0  0.3714448E-03  0.7996862E+03  0.7818609E-02  0.9560471E-01
        1   -1    0    0  501    0  0.00000000000E+00  0.00000000000E+00  0.12838196027E+04  0.12838196027E+04  0.50400001928E-02 0.  1.
       -1   -1    0    0    0  501  0.00000000000E+00  0.00000000000E+00 -0.12453035219E+03  0.12453035229E+03  0.50400001928E-02 0. -1.
    10030    2    1    2    0    0  0.00000000000E+00  0.00000000000E+00  0.11592892505E+04  0.14083499550E+04  0.79968620684E+03 0.  0.
        1    1    3    3  502    0  0.11186169519E+03 -0.38350156962E+03  0.54975653193E+03  0.67957246647E+03  0.50400001928E-02 0.  1.
       -1    1    3    3    0  502 -0.11186169519E+03  0.38350156962E+03  0.60953271861E+03  0.72877748857E+03  0.50400001928E-02 0. -1.
</event>
<event>
 5   0  0.5813850E-03  0.7953064E+03  0.7818609E-02  0.9566836E-01
        2   -1    0    0  501    0  0.00000000000E+00  0.00000000000E+00  0.10597697203E+04  0.10597697203E+04  0.25500000920E-02 0. -1.
       -2   -1    0    0    0  501  0.00000000000E+00  0.00000000000E+00 -0.14920983254E+03  0.14920983256E+03  0.25500000920E-02 0.  1.
    10030    2    1    2    0    0  0.00000000000E+00  0.00000000000E+00  0.91055988779E+03  0.12089795529E+04  0.79530638755E+03 0.  0.
        5    1    3    3  502    0 -0.28118436061E+03 -0.16204325691E+03  0.10603285167E+03  0.34144943607E+03  0.46999998093E+01 0.  1.
       -5    1    3    3    0  502  0.28118436061E+03  0.16204325691E+03  0.80452703611E+03  0.86753011682E+03  0.46999998093E+01 0. -1.
</event>
<event>
 5   0  0.3627496E-03  0.7990187E+03  0.7818609E-02  0.9561439E-01
        1   -1    0    0  501    0  0.00000000000E+00  0.00000000000E+00  0.80549557691E+03  0.80549557692E+03  0.50400001928E-02 0. -1.
       -1   -1    0    0    0  501  0.00000000000E+00  0.00000000000E+00 -0.19814846755E+03  0.19814846762E+03  0.50400001928E-02 0.  1.
    10030    2    1    2    0    0  0.00000000000E+00  0.00000000000E+00  0.60734710935E+03  0.10036440445E+04  0.79901868370E+03 0.  0.
        3    1    3    3  502    0 -0.60759534824E+02  0.49514227253E+01 -0.19227193883E+03  0.20170460164E+03  0.10100000352E+00 0.  1.
       -3    1    3    3    0  502  0.60759534824E+02 -0.49514227253E+01  0.79961904819E+03  0.80193944290E+03  0.10100000352E+00 0. -1.
</event>
<event>
 5   0  0.3860515E-03  0.7910347E+03  0.7818609E-02  0.9573085E-01
       -1   -1    0    0    0  501  0.00000000000E+00  0.00000000000E+00  0.21288907575E+03  0.21288907581E+03  0.50400001928E-02 0. -1.
        1   -1    0    0  501    0  0.00000000000E+00  0.00000000000E+00 -0.73481450995E+03  0.73481450997E+03  0.50400001928E-02 0.  1.
    10030    2    1    2    0    0  0.00000000000E+00  0.00000000000E+00 -0.52192543420E+03  0.94770358578E+03  0.79103471961E+03 0.  0.
        4    1    3    3  502    0  0.19373647026E+03  0.40414921260E+02 -0.67122493300E+03  0.69979404781E+03  0.12699999809E+01 0.  1.
       -4    1    3    3    0  502 -0.19373647026E+03 -0.40414921260E+02  0.14929949880E+03  0.24790953797E+03  0.12699999809E+01 0. -1.
</event>
<event>
 5   0  0.5813850E-03  0.8025135E+03  0.7818609E-02  0.9556386E-01
       -2   -1    0    0    0  501  0.00000000000E+00  0.00000000000E+00  0.82442536132E+02  0.82442536171E+02  0.25500000920E-02 0.  1.
        2   -1    0    0  501    0  0.00000000000E+00  0.00000000000E+00 -0.19529598489E+04  0.19529598489E+04  0.25500000920E-02 0. -1.
    10030    2    1    2    0    0  0.00000000000E+00  0.00000000000E+00 -0.18705173128E+04  0.20354023851E+04  0.80251345896E+03 0.  0.
        5    1    3    3  502    0  0.13802109344E+03 -0.13753637142E+03 -0.45681355259E+02  0.20018729209E+03  0.46999998093E+01 0.  1.
       -5    1    3    3    0  502 -0.13802109344E+03  0.13753637142E+03 -0.18248359575E+04  0.18352150930E+04  0.46999998093E+01 0. -1.
</event>
<event>
 5   0  0.3753450E-03  0.7998759E+03  0.7818609E-02  0.9560197E-01
       -1   -1    0    0    0  501  0.00000000000E+00  0.00000000000E+00  0.13002712493E+03  0.13002712503E+03  0.50400001928E-02 0.  1.
        1   -1    0    0  501    0  0.00000000000E+00  0.00000000000E+00 -0.12301306496E+04  0.12301306496E+04  0.50400001928E-02 0. -1.
    10030    2    1    2    0    0  0.00000000000E+00  0.00000000000E+00 -0.11001035247E+04  0.13601577746E+04  0.79987586969E+03 0.  0.
        5    1    3    3  502    0  0.16541787181E+03  0.25268832238E+02 -0.11676883320E+04  0.11796269397E+04  0.46999998093E+01 0. -1.
       -5    1    3    3    0  502 -0.16541787181E+03 -0.25268832238E+02  0.67584807292E+02  0.18053083496E+03  0.46999998093E+01 0.  1.
</event>
<event>
 5   0  0.5813850E-03  0.8006901E+03  0.7818609E-02  0.9559019E-01
        2   -1    0    0  501    0  0.00000000000E+00  0.00000000000E+00  0.22855230005E+03  0.22855230006E+03  0.25500000920E-02 0.  1.
       -2   -1    0    0    0  501  0.00000000000E+00  0.00000000000E+00 -0.70126691228E+03  0.70126691229E+03  0.25500000920E-02 0. -1.
    10030    2    1    2    0    0  0.00000000000E+00  0.00000000000E+00 -0.47271461224E+03  0.92981921235E+03  0.80069011673E+03 0.  0.
        5    1    3    3  502    0 -0.74482573946E+02 -0.38407303289E+03 -0.33485569910E+03  0.51498560915E+03  0.46999998093E+01 0. -1.
       -5    1    3    3    0  502  0.74482573946E+02  0.38407303289E+03 -0.13785891314E+03  0.41483360320E+03  0.46999998093E+01 0.  1.
</event>
<event>
 5   0  0.6337108E-03  0.8026299E+03  0.7818609E-02  0.9556218E-01
       -2   -1    0    0    0  501  0.00000000000E+00  0.00000000000E+00  0.25704640845E+03  0.25704640846E+03  0.25500000920E-02 0. -1.
        2   -1    0    0  501    0  0.00000000000E+00  0.00000000000E+00 -0.62655485907E+03  0.62655485907E+03  0.25500000920E-02 0.  1.
    10030    2    1    2    0    0  0.00000000000E+00  0.00000000000E+00 -0.36950845062E+03  0.88360126753E+03  0.80262986794E+03 0.  0.
        4    1    3    3  502    0 -0.34454293331E+03 -0.13536252283E+03 -0.35537049555E+03  0.51314973204E+03  0.12699999809E+01 0.  1.
       -4    1    3    3    0  502  0.34454293331E+03  0.13536252283E+03 -0.14137955068E+02  0.37045153550E+03  0.12699999809E+01 0. -1.
</event>
<event>
 5   0  0.6256781E-03  0.7970946E+03  0.7818609E-02  0.9564232E-01
       -2   -1    0    0    0  501  0.00000000000E+00  0.00000000000E+00  0.18755744944E+03  0.18755744945E+03  0.25500000920E-02 0. -1.
        2   -1    0    0  501    0  0.00000000000E+00  0.00000000000E+00 -0.84688701285E+03  0.84688701285E+03  0.25500000920E-02 0.  1.
    10030    2    1    2    0    0  0.00000000000E+00  0.00000000000E+00 -0.65932956342E+03  0.10344444623E+04  0.79709464457E+03 0.  0.
        1    1    3    3  502    0  0.39509056648E+02  0.26782036242E+03  0.49921477402E+02  0.27528324688E+03  0.50400001928E-02 0. -1.
       -1    1    3    3    0  502 -0.39509056648E+02 -0.26782036242E+03 -0.70925104082E+03  0.75916121543E+03  0.50400001928E-02 0.  1.
</event>
<event>
 5   0  0.6256781E-03  0.7979575E+03  0.7818609E-02  0.9562978E-01
       -2   -1    0    0    0  501  0.00000000000E+00  0.00000000000E+00  0.14918776552E+03  0.14918776554E+03  0.25500000920E-02 0. -1.
        2   -1    0    0  501    0  0.00000000000E+00  0.00000000000E+00 -0.10670047028E+04  0.10670047028E+04  0.25500000920E-02 0.  1.
    10030    2    1    2    0    0  0.00000000000E+00  0.00000000000E+00 -0.91781693728E+03  0.12161924683E+04  0.79795751120E+03 0.  0.
        1    1    3    3  502    0  0.26480216990E+01  0.31454538243E+03 -0.84833479802E+02  0.32579522548E+03  0.50400001928E-02 0. -1.
       -1    1    3    3    0  502 -0.26480216990E+01 -0.31454538243E+03 -0.83298345748E+03  0.89039724285E+03  0.50400001928E-02 0.  1.
</event>
<event>
 5   0  0.3671128E-03  0.7948541E+03  0.7818609E-02  0.9567496E-01
       -1   -1    0    0    0  501  0.00000000000E+00  0.00000000000E+00  0.24665351934E+03  0.24665351939E+03  0.50400001928E-02 0.  1.
        1   -1    0    0  501    0  0.00000000000E+00  0.00000000000E+00 -0.64036493216E+03  0.64036493218E+03  0.50400001928E-02 0. -1.
    10030    2    1    2    0    0  0.00000000000E+00  0.00000000000E+00 -0.39371141282E+03  0.88701845156E+03  0.79485411041E+03 0.  0.
        2    1    3    3  502    0  0.29400399197E+03  0.20594985727E+03 -0.38720498050E+03  0.52799752645E+03  0.25500000920E-02 0. -1.
       -2    1    3    3    0  502 -0.29400399197E+03 -0.20594985727E+03 -0.65064323225E+01  0.35902092512E+03  0.25500000920E-02 0.  1.
</event>
<event>
 5   0  0.6256781E-03  0.7975455E+03  0.7818609E-02  0.9563577E-01
       -2   -1    0    0    0  501  0.00000000000E+00  0.00000000000E+00  0.17008188062E+03  0.17008188064E+03  0.25500000920E-02 0.  1.
        2   -1    0    0  501    0  0.00000000000E+00  0.00000000000E+00 -0.93495959519E+03  0.93495959520E+03  0.25500000920E-02 0. -1.
    10030    2    1    2    0    0  0.00000000000E+00  0.00000000000E+00 -0.76487771457E+03  0.11050414758E+04  0.79754545017E+03 0.  0.
        1    1    3    3  502    0 -0.36402507822E+03  0.14252537169E+03 -0.27341118109E+03  0.47705493721E+03  0.50400001928E-02 0.  1.
       -1    1    3    3    0  502  0.36402507822E+03 -0.14252537169E+03 -0.49146653348E+03  0.62798653863E+03  0.50400001928E-02 0. -1.
</event>
<event>
 5   0  0.3753450E-03  0.8014991E+03  0.7818609E-02  0.9557850E-01
        1   -1    0    0  501    0  0.00000000000E+00  0.00000000000E+00  0.19032177685E+04  0.19032177685E+04  0.50400001928E-02 0.  1.
       -1   -1    0    0    0  501  0.00000000000E+00  0.00000000000E+00 -0.84383519301E+02  0.84383519451E+02  0.50400001928E-02 0. -1.
    10030    2    1    2    0    0  0.00000000000E+00  0.00000000000E+00  0.18188342492E+04  0.19876012880E+04  0.80149912903E+03 0.  0.
        5    1    3    3  502    0 -0.23805811356E+03  0.70848065412E+02  0.12959448968E+03  0.28019267577E+03  0.46999998093E+01 0. -1.
       -5    1    3    3    0  502  0.23805811356E+03 -0.70848065412E+02  0.16892397595E+04  0.17074086122E+04  0.46999998093E+01 0.  1.
</event>
<event>
 5   0  0.3627496E-03  0.8168329E+03  0.7818609E-02  0.9535967E-01
       -1   -1    0    0    0  501  0.00000000000E+00  0.00000000000E+00  0.59845089332E+03  0.59845089334E+03  0.50400001928E-02 0.  1.
        1   -1    0    0  501    0  0.00000000000E+00  0.00000000000E+00 -0.27872627407E+03  0.27872627412E+03  0.50400001928E-02 0. -1.
    10030    2    1    2    0    0  0.00000000000E+00  0.00000000000E+00  0.31972461925E+03  0.87717716746E+03  0.81683287823E+03 0.  0.
        3    1    3    3  502    0  0.15273721820E+03 -0.35683297443E+03  0.23410121421E+02  0.38885276577E+03  0.10100000352E+00 0. -1.
       -3    1    3    3    0  502 -0.15273721820E+03  0.35683297443E+03  0.29631449783E+03  0.48832440169E+03  0.10100000352E+00 0.  1.
</event>
<event>
 5   0  0.6337108E-03  0.7969192E+03  0.7818609E-02  0.9564487E-01
       -2   -1    0    0    0  501  0.00000000000E+00  0.00000000000E+00  0.45562866346E+03  0.45562866346E+03  0.25500000920E-02 0. -1.
        2   -1    0    0  501    0  0.00000000000E+00  0.00000000000E+00 -0.34846369700E+03  0.34846369701E+03  0.25500000920E-02 0.  1.
    10030    2    1    2    0    0  0.00000000000E+00  0.00000000000E+00  0.10716496646E+03  0.80409236047E+03  0.79691918921E+03 0.  0.
        4    1    3    3  502    0 -0.13517046440E+03  0.62228234986E+02 -0.31937281699E+03  0.35234076802E+03  0.12699999809E+01 0.  1.
       -4    1    3    3    0  502  0.13517046440E+03 -0.62228234986E+02  0.42653778345E+03  0.45175159245E+03  0.12699999809E+01 0. -1.
</event>
<event>
 5   0  0.3860515E-03  0.7871561E+03  0.7818609E-02  0.9578797E-01
       -1   -1    0    0    0  501  0.00000000000E+00  0.00000000000E+00  0.15592966580E+03  0.15592966588E+03  0.50400001928E-02 0. -1.
        1   -1    0    0  501    0  0.00000000000E+00  0.00000000000E+00 -0.99342012430E+03  0.99342012431E+03  0.50400001928E-02 0.  1.
    10030    2    1    2    0    0  0.00000000000E+00  0.00000000000E+00 -0.83749045850E+03  0.11493497902E+04  0.78715606594E+03 0.  0.
        4    1    3    3  502    0  0.19830362117E+03  0.86908653351E+02  0.61156967384E+02  0.22498717242E+03  0.12699999809E+01 0. -1.
       -4    1    3    3    0  502 -0.19830362117E+03 -0.86908653351E+02 -0.89864742588E+03  0.92436261777E+03  0.12699999809E+01 0.  1.
</event>
<event>
 5   0  0.6536209E-03  0.7956081E+03  0.7818609E-02  0.9566396E-01
       -2   -1    0    0    0  501  0.00000000000E+00  0.00000000000E+00  0.34991766874E+03  0.34991766875E+03  0.25500000920E-02 0.  1.
        2   -1    0    0  501    0  0.00000000000E+00  0.00000000000E+00 -0.45224368633E+03  0.45224368633E+03  0.25500000920E-02 0. -1.
    10030    2    1    2    0    0  0.00000000000E+00  0.00000000000E+00 -0.10232601758E+03  0.80216135508E+03  0.79560808550E+03 0.  0.
        3    1    3    3  502    0  0.23546124629E+03  0.27261667398E+03  0.11900573100E+03  0.37937346197E+03  0.10100000352E+00 0. -1.
       -3    1    3    3    0  502 -0.23546124629E+03 -0.27261667398E+03 -0.22133174859E+03  0.42278789312E+03  0.10100000352E+00 0.  1.
</event>
<event>
 5   0  0.6536209E-03  0.7993851E+03  0.7818609E-02  0.9560908E-01
        2   -1    0    0  501    0  0.00000000000E+00  0.00000000000E+00  0.17516544137E+04  0.17516544137E+04  0.25500000920E-02 0.  1.
       -2   -1    0    0    0  501  0.00000000000E+00  0.00000000000E+00 -0.91201866708E+02  0.91201866743E+02  0.25500000920E-02 0. -1.
    10030    2    1    2    0    0  0.00000000000E+00  0.00000000000E+00  0.16604525469E+04  0.18428562804E+04  0.79938514469E+03 0.  0.
        3    1    3    3  502    0 -0.17567740715E+03 -0.15373434823E+03  0.15781573715E+04  0.15953299034E+04  0.10100000352E+00 0.  1.
       -3    1    3    3    0  502  0.17567740715E+03  0.15373434823E+03  0.82295175420E+02  0.24752637699E+03  0.10100000352E+00 0. -1.
</event>
<event>
 5   0  0.6536209E-03  0.8016499E+03  0.7818609E-02  0.9557632E-01
        2   -1    0    0  501    0  0.00000000000E+00  0.00000000000E+00  0.46508890946E+03  0.46508890946E+03  0.25500000920E-02 0.  1.
       -2   -1    0    0    0  501  0.00000000000E+00  0.00000000000E+00 -0.34544074722E+03  0.34544074723E+03  0.25500000920E-02 0. -1.
    10030    2    1    2    0    0  0.00000000000E+00  0.00000000000E+00  0.11964816224E+03  0.81052965669E+03  0.80164994957E+03 0.  0.
        3    1    3    3  502    0  0.56758701293E+02  0.22353240648E+03 -0.27163699799E+03  0.35633545403E+03  0.10100000352E+00 0. -1.
       -3    1    3    3    0  502 -0.56758701293E+02 -0.22353240648E+03  0.39128516023E+03  0.45419420267E+03  0.10100000352E+00 0.  1.
</event>
<event>
 5   0  0.3671128E-03  0.7988845E+03  0.7818609E-02  0.9561633E-01
        1   -1    0    0  501    0  0.00000000000E+00  0.00000000000E+00  0.15424993393E+03  0.15424993401E+03  0.50400001928E-02 0. -1.
       -1   -1    0    0    0  501  0.00000000000E+00  0.00000000000E+00 -0.10343868764E+04  0.10343868764E+04  0.50400001928E-02 0.  1.
    10030    2    1    2    0    0  0.00000000000E+00  0.00000000000E+00 -0.88013694243E+03  0.11886368104E+04  0.79888449076E+03 0.  0.
        2    1    3    3  502    0 -0.39400991110E+03  0.65411948780E+02 -0.44842896746E+03  0.60050901072E+03  0.25500000920E-02 0. -1.
       -2    1    3    3    0  502  0.39400991110E+03 -0.65411948780E+02 -0.43170797497E+03  0.58812779967E+03  0.25500000920E-02 0.  1.
</event>
<event>
 5   0  0.5813850E-03  0.7979191E+03  0.7818609E-02  0.9563034E-01
        2   -1    0    0  501    0  0.00000000000E+00  0.00000000000E+00  0.15153396195E+04  0.15153396195E+04  0.25500000920E-02 0.  1.
       -2   -1    0    0    0  501  0.00000000000E+00  0.00000000000E+00 -0.10503830782E+03  0.10503830785E+03  0.25500000920E-02 0. -1.
    10030    2    1    2    0    0  0.00000000000E+00  0.00000000000E+00  0.14103013117E+04  0.16203779274E+04  0.79791906718E+03 0.  0.
        5    1    3    3  502    0  0.18618036555E+03  0.18202145581E+03  0.91366397256E+02  0.27597979534E+03  0.46999998093E+01 0. -1.
       -5    1    3    3    0  502 -0.18618036555E+03 -0.18202145581E+03  0.13189349145E+04  0.13443981321E+04  0.46999998093E+01 0.  1.
</event>
<event>
 5   0  0.5813850E-03  0.8009072E+03  0.7818609E-02  0.9558705E-01
        2   -1    0    0  501    0  0.00000000000E+00  0.00000000000E+00  0.70564710771E+03  0.70564710771E+03  0.25500000920E-02 0. -1.
       -2   -1    0    0    0  501  0.00000000000E+00  0.00000000000E+00 -0.22725678821E+03  0.22725678823E+03  0.25500000920E-02 0.  1.
    10030    2    1    2    0    0  0.00000000000E+00  0.00000000000E+00  0.47839031950E+03  0.93290389594E+03  0.80090722389E+03 0.  0.
        5    1    3    3  502    0  0.25836540045E+03 -0.18106567797E+03  0.52641811587E+03  0.61373901832E+03  0.46999998093E+01 0. -1.
       -5    1    3    3    0  502 -0.25836540045E+03  0.18106567797E+03 -0.48027796378E+02  0.31916487763E+03  0.46999998093E+01 0.  1.
</event>
<event>
 5   0  0.6337108E-03  0.7979749E+03  0.7818609E-02  0.9562953E-01
        2   -1    0    0  501    0  0.00000000000E+00  0.00000000000E+00  0.66691752540E+03  0.66691752540E+03  0.25500000920E-02 0.  1.
       -2   -1    0    0    0  501  0.00000000000E+00  0.00000000000E+00 -0.23869667106E+03  0.23869667107E+03  0.25500000920E-02 0. -1.
    10030    2    1    2    0    0  0.00000000000E+00  0.00000000000E+00  0.42822085434E+03  0.90561419647E+03  0.79797491988E+03 0.  0.
        4    1    3    3  502    0  0.34007563265E+03  0.20777887312E+03  0.23581872835E+03  0.46307189677E+03  0.12699999809E+01 0.  1.
       -4    1    3    3    0  502 -0.34007563265E+03 -0.20777887312E+03  0.19240212599E+03  0.44254229970E+03  0.12699999809E+01 0. -1.
</event>
<event>
 5   0  0.6337108E-03  0.7977919E+03  0.7818609E-02  0.9563219E-01
       -2   -1    0    0    0  501  0.00000000000E+00  0.00000000000E+00  0.10207196442E+04  0.10207196442E+04  0.25500000920E-02 0.  1.
        2   -1    0    0  501    0  0.00000000000E+00  0.00000000000E+00 -0.15588805102E+03  0.15588805104E+03  0.25500000920E-02 0. -1.
    10030    2    1    2    0    0  0.00000000000E+00  0.00000000000E+00  0.86483159319E+03  0.11766076952E+04  0.79779194276E+03 0.  0.
        4    1    3    3  502    0  0.10756435474E+03  0.37380653644E+03  0.56279417781E+03  0.68413472107E+03  0.12699999809E+01 0.  1.
       -4    1    3    3    0  502 -0.10756435474E+03 -0.37380653644E+03  0.30203741538E+03  0.49247297417E+03  0.12699999809E+01 0. -1.
</event>
<event>
 5   0  0.3671128E-03  0.8024471E+03  0.7818609E-02  0.9556482E-01
       -1   -1    0    0    0  501  0.00000000000E+00  0.00000000000E+00  0.16027090926E+03  0.16027090934E+03  0.50400001928E-02 0. -1.
        1   -1    0    0  501    0  0.00000000000E+00  0.00000000000E+00 -0.10044264041E+04  0.10044264041E+04  0.50400001928E-02 0.  1.
    10030    2    1    2    0    0  0.00000000000E+00  0.00000000000E+00 -0.84415549484E+03  0.11646973135E+04  0.80244709016E+03 0.  0.
        2    1    3    3  502    0 -0.29017776944E+02 -0.34027883701E+03 -0.72773640190E+03  0.80388555713E+03  0.25500000920E-02 0.  1.
       -2    1    3    3    0  502  0.29017776944E+02  0.34027883701E+03 -0.11641909293E+03  0.36081175633E+03  0.25500000920E-02 0. -1.
</event>
<event>
 5   0  0.6536209E-03  0.7998322E+03  0.7818609E-02  0.9560260E-01
        2   -1    0    0  501    0  0.00000000000E+00  0.00000000000E+00  0.83898823445E+03  0.83898823445E+03  0.25500000920E-02 0.  1.
       -2   -1    0    0    0  501  0.00000000000E+00  0.00000000000E+00 -0.19062591977E+03  0.19062591978E+03  0.25500000920E-02 0. -1.
    10030    2    1    2    0    0  0.00000000000E+00  0.00000000000E+00  0.64836231468E+03  0.10296141542E+04  0.79983224210E+03 0.  0.
        3    1    3    3  502    0  0.22466660014E+03  0.27686229516E+03  0.91025390933E+02  0.36798565691E+03  0.10100000352E+00 0. -1.
       -3    1    3    3    0  502 -0.22466660014E+03 -0.27686229516E+03  0.55733692375E+03  0.66162849733E+03  0.10100000352E+00 0.  1.
</event>
<event>
 5   0  0.3860515E-03  0.8031264E+03  0.7818609E-02  0.9555503E-01
       -1   -1    0    0    0  501  0.00000000000E+00  0.00000000000E+00  0.21829528939E+03  0.21829528945E+03  0.50400001928E-02 0. -1.
        1   -1    0    0  501    0  0.00000000000E+00  0.00000000000E+00 -0.73869209054E+03  0.73869209055E+03  0.50400001928E-02 0.  1.
    10030    2    1    2    0    0  0.00000000000E+00  0.00000000000E+00 -0.52039680115E+03  0.95698738000E+03  0.80312640029E+03 0.  0.
        4    1    3    3  502    0  0.21172346653E+03  0.17825922629E+03  0.86483528884E+02  0.28997274304E+03  0.12699999809E+01 0. -1.
       -4    1    3    3    0  502 -0.21172346653E+03 -0.17825922629E+03 -0.60688033003E+03  0.66701463696E+03  0.12699999809E+01 0.  1.
</event>
<event>
 5   0  0.6256781E-03  0.8034388E+03  0.7818609E-02  0.9555053E-01
       -2   -1    0    0    0  501  0.00000000000E+00  0.00000000000E+00  0.93353784320E+02  0.93353784355E+02  0.25500000920E-02 0.  1.
        2   -1    0    0  501    0  0.00000000000E+00  0.00000000000E+00 -0.17286762665E+04  0.17286762665E+04  0.25500000920E-02 0. -1.
    10030    2    1    2    0    0  0.00000000000E+00  0.00000000000E+00 -0.16353224821E+04  0.18220300508E+04  0.80343878764E+03 0.  0.
        1    1    3    3  502    0 -0.23791463547E+03 -0.20336576985E+03 -0.13887546753E+04  0.14235872149E+04  0.50400001928E-02 0. -1.
       -1    1    3    3    0  502  0.23791463547E+03  0.20336576985E+03 -0.24656780680E+03  0.39844283592E+03  0.50400001928E-02 0.  1.
</event>
<event>
 5   0  0.6153659E-03  0.7972015E+03  0.7818609E-02  0.9564077E-01
        2   -1    0    0  501    0  0.00000000000E+00  0.00000000000E+00  0.46229939857E+03  0.46229939858E+03  0.25500000920E-02 0.  1.
       -2   -1    0    0    0  501  0.00000000000E+00  0.00000000000E+00 -0.34367891270E+03  0.34367891271E+03  0.25500000920E-02 0. -1.
    10030    2    1    2    0    0  0.00000000000E+00  0.00000000000E+00  0.11862048588E+03  0.80597831129E+03  0.79720149185E+03 0.  0.
        2    1    3    3  502    0  0.38380702130E+03 -0.24774816993E+02 -0.46536871670E+02  0.38741102409E+03  0.25500000920E-02 0. -1.
       -2    1    3    3    0  502 -0.38380702130E+03  0.24774816993E+02  0.16515735755E+03  0.41856728720E+03  0.25500000920E-02 0.  1.
</event>
<event>
 5   0  0.3860515E-03  0.7979434E+03  0.7818609E-02  0.9562999E-01
       -1   -1    0    0    0  501  0.00000000000E+00  0.00000000000E+00  0.54914710703E+03  0.54914710706E+03  0.50400001928E-02 0. -1.
        1   -1    0    0  501    0  0.00000000000E+00  0.00000000000E+00 -0.28986479755E+03  0.28986479759E+03  0.50400001928E-02 0.  1.
    10030    2    1    2    0    0  0.00000000000E+00  0.00000000000E+00  0.25928230949E+03  0.83901190465E+03  0.79794339406E+03 0.  0.
        4    1    3    3  502    0 -0.28666022311E+03  0.10665966052E+03 -0.13972029898E+03  0.33626439232E+03  0.12699999809E+01 0.  1.
       -4    1    3    3    0  502  0.28666022311E+03 -0.10665966052E+03  0.39900260846E+03  0.50274751233E+03  0.12699999809E+01 0. -1.
</event>
<event>
 5   0  0.3671128E-03  0.7989728E+03  0.7818609E-02  0.9561505E-01
        1   -1    0    0  501    0  0.00000000000E+00  0.00000000000E+00  0.10652298076E+04  0.10652298077E+04  0.50400001928E-02 0. -1.
       -1   -1    0    0    0  501  0.00000000000E+00  0.00000000000E+00 -0.14981685918E+03  0.14981685926E+03  0.50400001928E-02 0.  1.
    10030    2    1    2    0    0  0.00000000000E+00  0.00000000000E+00  0.91541294847E+03  0.12150466669E+04  0.79897280089E+03 0.  0.
        2    1    3    3  502    0 -0.17613078806E+03 -0.31737057923E+03  0.20394780485E+03  0.41634222242E+03  0.25500000920E-02 0.  1.
       -2    1    3    3    0  502  0.17613078806E+03  0.31737057923E+03  0.71146514362E+03  0.79870444450E+03  0.25500000920E-02 0. -1.
</event>
<event>
 5   0  0.6337108E-03  0.7966836E+03  0.7818609E-02  0.9564830E-01
        2   -1    0    0  501    0  0.00000000000E+00  0.00000000000E+00  0.21713578666E+04  0.21713578666E+04  0.25500000920E-02 0. -1.
       -2   -1    0    0    0  501  0.00000000000E+00  0.00000000000E+00 -0.73076940258E+02  0.73076940302E+02  0.25500000920E-02 0.  1.
    10030    2    1    2    0    0  0.00000000000E+00  0.00000000000E+00  0.20982809264E+04  0.22444348069E+04  0.79668359880E+03 0.  0.
        4    1    3    3  502    0 -0.26655206209E+02 -0.23735951491E+03  0.15104933037E+03  0.28260847907E+03  0.12699999809E+01 0.  1.
       -4    1    3    3    0  502  0.26655206209E+02  0.23735951491E+03  0.19472315960E+04  0.19618263278E+04  0.12699999809E+01 0. -1.
</event>
<event>
 5   0  0.6337108E-03  0.8040080E+03  0.7818609E-02  0.9554234E-01
       -2   -1    0    0    0  501  0.00000000000E+00  0.00000000000E+00  0.93145954245E+02  0.93145954280E+02  0.25500000920E-02 0. -1.
        2   -1    0    0  501    0  0.00000000000E+00  0.00000000000E+00 -0.17349890732E+04  0.17349890732E+04  0.25500000920E-02 0.  1.
    10030    2    1    2    0    0  0.00000000000E+00  0.00000000000E+00 -0.16418431190E+04  0.18281350275E+04  0.80400799216E+03 0.  0.
        4    1    3    3  502    0  0.12454947843E+01  0.23323675432E+03 -0.15654044929E+04  0.15826856207E+04  0.12699999809E+01 0.  1.
       -4    1    3    3    0  502 -0.12454947843E+01 -0.23323675432E+03 -0.76438626077E+02  0.24544940676E+03  0.12699999809E+01 0. -1.
</event>
<event>
 5   0  0.3860515E-03  0.7963271E+03  0.7818609E-02  0.9565349E-01
        1   -1    0    0  501    0  0.00000000000E+00  0.00000000000E+00  0.19121670147E+03  0.19121670153E+03  0.50400001928E-02 0.  1.
       -1   -1    0    0    0  501  0.00000000000E+00  0.00000000000E+00 -0.82908147995E+03  0.82908147997E+03  0.50400001928E-02 0. -1.
    10030    2    1    2    0    0  0.00000000000E+00  0.00000000000E+00 -0.63786477849E+03  0.10202981815E+04  0.79632713349E+03 0.  0.
        4    1    3    3  502    0  0.77044995693E+02  0.13808264225E+03  0.14926049042E+03  0.21744667013E+03  0.12699999809E+01 0.  1.
       -4    1    3    3    0  502 -0.77044995693E+02 -0.13808264225E+03 -0.78712526891E+03  0.80285151137E+03  0.12699999809E+01 0. -1.
</event>
<event>
 5   0  0.3671128E-03  0.8017665E+03  0.7818609E-02  0.9557464E-01
       -1   -1    0    0    0  501  0.00000000000E+00  0.00000000000E+00  0.10435491375E+03  0.10435491388E+03  0.50400001928E-02 0. -1.
        1   -1    0    0  501    0  0.00000000000E+00  0.00000000000E+00 -0.15400077954E+04  0.15400077954E+04  0.50400001928E-02 0.  1.
    10030    2    1    2    0    0  0.00000000000E+00  0.00000000000E+00 -0.14356528817E+04  0.16443627093E+04  0.80176650162E+03 0.  0.
        2    1    3    3  502    0 -0.15989983217E+03 -0.31867100774E+03 -0.10937012003E+04  0.11503484181E+04  0.25500000920E-02 0.  1.
       -2    1    3    3    0  502  0.15989983217E+03  0.31867100774E+03 -0.34195168134E+03  0.49401429117E+03  0.25500000920E-02 0. -1.
</event>
<event>
 5   0  0.5813850E-03  0.8018795E+03  0.7818609E-02  0.9557301E-01
        2   -1    0    0  501    0  0.00000000000E+00  0.00000000000E+00  0.49429806664E+03  0.49429806664E+03  0.25500000920E-02 0.  1.
       -2   -1    0    0    0  501  0.00000000000E+00  0.00000000000E+00 -0.32521406264E+03  0.32521406265E+03  0.25500000920E-02 0. -1.
    10030    2    1    2    0    0  0.00000000000E+00  0.00000000000E+00  0.16908400399E+03  0.81951212929E+03  0.80187949821E+03 0.  0.
        5    1    3    3  502    0 -0.44799970470E+02 -0.15636244487E+03 -0.28995021000E+03  0.33248979804E+03  0.46999998093E+01 0. -1.
       -5    1    3    3    0  502  0.44799970470E+02  0.15636244487E+03  0.45903421400E+03  0.48702233125E+03  0.46999998093E+01 0.  1.
</event>
<event>
 5   0  0.5813850E-03  0.8021068E+03  0.7818609E-02  0.9556973E-01
        2   -1    0    0  501    0  0.00000000000E+00  0.00000000000E+00  0.12644091555E+04  0.12644091555E+04  0.25500000920E-02 0. -1.
       -2   -1    0    0    0  501  0.00000000000E+00  0.00000000000E+00 -0.12720869618E+03  0.12720869621E+03  0.25500000920E-02 0.  1.
    10030    2    1    2    0    0  0.00000000000E+00  0.00000000000E+00  0.11372004593E+04  0.13916178517E+04  0.80210682611E+03 0.  0.
        5    1    3    3  502    0 -0.14474568219E+03 -0.35918302578E+03  0.38781517297E+03  0.54807522924E+03  0.46999998093E+01 0.  1.
       -5    1    3    3    0  502  0.14474568219E+03  0.35918302578E+03  0.74938528631E+03  0.84354262243E+03  0.46999998093E+01 0. -1.
</event>
<event>
 5   0  0.3627496E-03  0.8035604E+03  0.7818609E-02  0.9554878E-01
       -1   -1    0    0    0  501  0.00000000000E+00  0.00000000000E+00  0.16701806705E+03  0.16701806712E+03  0.50400001928E-02 0. -1.
        1   -1    0    0  501    0  0.00000000000E+00  0.00000000000E+00 -0.96652617022E+03  0.96652617023E+03  0.50400001928E-02 0.  1.
    10030    2    1    2    0    0  0.00000000000E+00  0.00000000000E+00 -0.79950810317E+03  0.11335442374E+04  0.80356040906E+03 0.  0.
        3    1    3    3  502    0 -0.49145609583E+02 -0.11768523313E+01 -0.96226767383E+03  0.96352258002E+03  0.10100000352E+00 0.  1.
       -3    1    3    3    0  502  0.49145609583E+02  0.11768523313E+01  0.16275957065E+03  0.17002165733E+03  0.10100000352E+00 0. -1.
</event>
<event>
 5   0  0.6153659E-03  0.7995875E+03  0.7818609E-02  0.9560614E-01
        2   -1    0    0  501    0  0.00000000000E+00  0.00000000000E+00  0.46321164476E+03  0.46321164476E+03  0.25500000920E-02 0.  1.
       -2   -1    0    0    0  501  0.00000000000E+00  0.00000000000E+00 -0.34505834852E+03  0.34505834853E+03  0.25500000920E-02 0. -1.
    10030    2    1    2    0    0  0.00000000000E+00  0.00000000000E+00  0.11815329624E+03  0.80826999329E+03  0.79958750655E+03 0.  0.
        2    1    3    3  502    0  0.17301894447E+03  0.10974555134E+03 -0.28795190281E+03  0.35340619622E+03  0.25500000920E-02 0. -1.
       -2    1    3    3    0  502 -0.17301894447E+03 -0.10974555134E+03  0.40610519905E+03  0.45486379707E+03  0.25500000920E-02 0.  1.
</event>
<event>
 5   0  0.3860515E-03  0.8031217E+03  0.7818609E-02  0.9555510E-01
       -1   -1    0    0    0  501  0.00000000000E+00  0.00000000000E+00  0.46091102347E+03  0.46091102350E+03  0.50400001928E-02 0.  1.
        1   -1    0    0  501    0  0.00000000000E+00  0.00000000000E+00 -0.34985303029E+03  0.34985303032E+03  0.50400001928E-02 0. -1.
    10030    2    1    2    0    0  0.00000000000E+00  0.00000000000E+00  0.11105799319E+03  0.81076405382E+03  0.80312170505E+03 0.  0.
        4    1    3    3  502    0 -0.17920628522E+03  0.22476474974E+03 -0.22752350123E+03  0.36660965876E+03  0.12699999809E+01 0. -1.
       -4    1    3    3    0  502  0.17920628522E+03 -0.22476474974E+03  0.33858149442E+03  0.44415439506E+03  0.12699999809E+01 0.  1.
</event>
<event>
 5   0  0.6536209E-03  0.8030688E+03  0.7818609E-02  0.9555586E-01
        2   -1    0    0  501    0  0.00000000000E+00  0.00000000000E+00  0.13967677089E+04  0.13967677089E+04  0.25500000920E-02 0. -1.
       -2   -1    0    0    0  501  0.00000000000E+00  0.00000000000E+00 -0.11543070327E+03  0.11543070330E+03  0.25500000920E-02 0.  1.
    10030    2    1    2    0    0  0.00000000000E+00  0.00000000000E+00  0.12813370056E+04  0.15121984122E+04  0.80306881143E+03 0.  0.
        3    1    3    3  502    0  0.12216885129E+03 -0.36115073466E+03  0.87792055461E+03  0.95713091674E+03  0.10100000352E+00 0. -1.
       -3    1    3    3    0  502 -0.12216885129E+03  0.36115073466E+03  0.40341645104E+03  0.55506749548E+03  0.10100000352E+00 0.  1.
</event>
<event>
 5   0  0.5813850E-03  0.8003964E+03  0.7818609E-02  0.9559443E-01
        2   -1    0    0  501    0  0.00000000000E+00  0.00000000000E+00  0.68786579620E+03  0.68786579620E+03  0.25500000920E-02 0.  1.
       -2   -1    0    0    0  501  0.00000000000E+00  0.00000000000E+00 -0.23283410067E+03  0.23283410068E+03  0.25500000920E-02 0. -1.
    10030    2    1    2    0    0  0.00000000000E+00  0.00000000000E+00  0.45503169553E+03  0.92069989689E+03  0.80039643689E+03 0.  0.
        5    1    3    3  502    0  0.68673726216E+02  0.19175392994E+03 -0.16871512276E+03  0.26452321820E+03  0.46999998093E+01 0. -1.
       -5    1    3    3    0  502 -0.68673726216E+02 -0.19175392994E+03  0.62374681829E+03  0.65617667868E+03  0.46999998093E+01 0.  1.
</event>
<event>
 5   0  0.6153659E-03  0.8025967E+03  0.7818609E-02  0.9556266E-01
        2   -1    0    0  501    0  0.00000000000E+00  0.00000000000E+00  0.91267716907E+03  0.91267716907E+03  0.25500000920E-02 0. -1.
       -2   -1    0    0    0  501  0.00000000000E+00  0.00000000000E+00 -0.17644834667E+03  0.17644834669E+03  0.25500000920E-02 0.  1.
    10030    2    1    2    0    0  0.00000000000E+00  0.00000000000E+00  0.73622882239E+03  0.10891255158E+04  0.80259672948E+03 0.  0.
        2    1    3    3  502    0  0.32664910437E+03 -0.10960803136E+03  0.88931799496E+02  0.35584044583E+03  0.25500000920E-02 0.  1.
       -2    1    3    3    0  502 -0.32664910437E+03  0.10960803136E+03  0.64729702290E+03  0.73328506993E+03  0.25500000920E-02 0. -1.
</event>
<event>
 5   0  0.3714448E-03  0.8002868E+03  0.7818609E-02  0.9559602E-01
        1   -1    0    0  501    0  0.00000000000E+00  0.00000000000E+00  0.41643317307E+03  0.41643317310E+03  0.50400001928E-02 0. -1.
       -1   -1    0    0    0  501  0.00000000000E+00  0.00000000000E+00 -0.38449083780E+03  0.38449083783E+03  0.50400001928E-02 0.  1.
    10030    2    1    2    0    0  0.00000000000E+00  0.00000000000E+00  0.31942335272E+02  0.80092401093E+03  0.80028679765E+03 0.  0.
        1    1    3    3  502    0  0.35420476272E+03 -0.15338612786E+03 -0.89594673955E+02  0.39625184388E+03  0.50400001928E-02 0. -1.
       -1    1    3    3    0  502 -0.35420476272E+03  0.15338612786E+03  0.12153700923E+03  0.40467216705E+03  0.50400001928E-02 0.  1.
</event>
<event>
 5   0  0.6153659E-03  0.8001484E+03  0.7818609E-02  0.9559802E-01
        2   -1    0    0  501    0  0.00000000000E+00  0.00000000000E+00  0.19263006421E+04  0.19263006421E+04  0.25500000920E-02 0. -1.
       -2   -1    0    0    0  501  0.00000000000E+00  0.00000000000E+00 -0.83091588146E+02  0.83091588185E+02  0.25500000920E-02 0.  1.
    10030    2    1    2    0    0  0.00000000000E+00  0.00000000000E+00  0.18432090540E+04  0.20093922303E+04  0.80014843533E+03 0.  0.
        2    1    3    3  502    0  0.31829272633E+03  0.31373461933E+02  0.15251720911E+04  0.15583467077E+04  0.25500000920E-02 0. -1.
       -2    1    3    3    0  502 -0.31829272633E+03 -0.31373461933E+02  0.31803696287E+03  0.45104552265E+03  0.25500000920E-02 0.  1.
</event>
<event>
 5   0  0.3627496E-03  0.8033530E+03  0.7818609E-02  0.9555176E-01
       -1   -1    0    0    0  501  0.00000000000E+00  0.00000000000E+00  0.61880974064E+03  0.61880974066E+03  0.50400001928E-02 0.  1.
        1   -1    0    0  501    0  0.00000000000E+00  0.00000000000E+00 -0.26073284908E+03  0.26073284913E+03  0.50400001928E-02 0. -1.
    10030    2    1    2    0    0  0.00000000000E+00  0.00000000000E+00  0.35807689156E+03  0.87954258979E+03  0.80335304007E+03 0.  0.
        3    1    3    3  502    0 -0.65395570873E+02 -0.32763609954E+03  0.42317051031E+03  0.53916165053E+03  0.10100000352E+00 0.  1.
       -3    1    3    3    0  502  0.65395570873E+02  0.32763609954E+03 -0.65093618746E+02  0.34038093926E+03  0.10100000352E+00 0. -1.
</event>
<event>
 5   0  0.3860515E-03  0.8034090E+03  0.7818609E-02  0.9555096E-01
       -1   -1    0    0    0  501  0.00000000000E+00  0.00000000000E+00  0.17217740907E+03  0.17217740914E+03  0.50400001928E-02 0. -1.
        1   -1    0    0  501    0  0.00000000000E+00  0.00000000000E+00 -0.93721062689E+03  0.93721062690E+03  0.50400001928E-02 0.  1.
    10030    2    1    2    0    0  0.00000000000E+00  0.00000000000E+00 -0.76503321782E+03  0.11093880360E+04  0.80340898063E+03 0.  0.
        4    1    3    3  502    0 -0.34831469029E+03  0.51476083454E+02 -0.64953181380E+03  0.73882751754E+03  0.12699999809E+01 0.  1.
       -4    1    3    3    0  502  0.34831469029E+03 -0.51476083454E+02 -0.11550140402E+03  0.37056051850E+03  0.12699999809E+01 0. -1.
</event>
<event>
 5   0  0.6536209E-03  0.8026456E+03  0.7818609E-02  0.9556196E-01
       -2   -1    0    0    0  501  0.00000000000E+00  0.00000000000E+00  0.51187200784E+03  0.51187200785E+03  0.25500000920E-02 0. -1.
        2   -1    0    0  501    0  0.00000000000E+00  0.00000000000E+00 -0.31464894535E+03  0.31464894536E+03  0.25500000920E-02 0.  1.
    10030    2    1    2    0    0  0.00000000000E+00  0.00000000000E+00  0.19722306250E+03  0.82652095321E+03  0.80264559409E+03 0.  0.
        3    1    3    3  502    0  0.30966098768E+02 -0.29984576611E+03  0.37143315102E+03  0.47836072017E+03  0.10100000352E+00 0. -1.
       -3    1    3    3    0  502 -0.30966098768E+02  0.29984576611E+03 -0.17421008852E+03  0.34816023304E+03  0.10100000352E+00 0.  1.
</event>
<event>
 5   0  0.3714448E-03  0.7999355E+03  0.7818609E-02  0.9560110E-01
       -1   -1    0    0    0  501  0.00000000000E+00  0.00000000000E+00  0.90950055070E+02  0.90950055209E+02  0.50400001928E-02 0.  1.
        1   -1    0    0  501    0  0.00000000000E+00  0.00000000000E+00 -0.17589237040E+04  0.17589237040E+04  0.50400001928E-02 0. -1.
    10030    2    1    2    0    0  0.00000000000E+00  0.00000000000E+00 -0.16679736490E+04  0.18498737592E+04  0.79993551710E+03 0.  0.
        1    1    3    3  502    0 -0.17222806047E+02 -0.26795817529E+03 -0.14846347800E+03  0.30682179368E+03  0.50400001928E-02 0.  1.
       -1    1    3    3    0  502  0.17222806047E+02  0.26795817529E+03 -0.15195101710E+04  0.15430519656E+04  0.50400001928E-02 0. -1.
</event>
<event>
 5   0  0.3671128E-03  0.8034386E+03  0.7818609E-02  0.9555053E-01
       -1   -1    0    0    0  501  0.00000000000E+00  0.00000000000E+00  0.63203986355E+02  0.63203986556E+02  0.50400001928E-02 0.  1.
        1   -1    0    0  501    0  0.00000000000E+00  0.00000000000E+00 -0.25532947591E+04  0.25532947592E+04  0.50400001928E-02 0. -1.
    10030    2    1    2    0    0  0.00000000000E+00  0.00000000000E+00 -0.24900907728E+04  0.26164987457E+04  0.80343862837E+03 0.  0.
        2    1    3    3  502    0 -0.26559061818E+03  0.97215243856E+02 -0.31596929274E+03  0.42405869176E+03  0.25500000920E-02 0.  1.
       -2    1    3    3    0  502  0.26559061818E+03 -0.97215243856E+02 -0.21741214801E+04  0.21924400539E+04  0.25500000920E-02 0. -1.
</event>
<event>
 5   0  0.3671128E-03  0.8000173E+03  0.7818609E-02  0.9559992E-01
       -1   -1    0    0    0  501  0.00000000000E+00  0.00000000000E+00  0.48606765738E+03  0.48606765740E+03  0.50400001928E-02 0.  1.
        1   -1    0    0  501    0  0.00000000000E+00  0.00000000000E+00 -0.32918647848E+03  0.32918647852E+03  0.50400001928E-02 0. -1.
    10030    2    1    2    0    0  0.00000000000E+00  0.00000000000E+00  0.15688117890E+03  0.81525413592E+03  0.80001725097E+03 0.  0.
        2    1    3    3  502    0 -0.15056061292E+02  0.12836129091E+03 -0.30732385869E+03  0.33339355140E+03  0.25500000920E-02 0. -1.
       -2    1    3    3    0  502  0.15056061292E+02 -0.12836129091E+03  0.46420503759E+03  0.48186058452E+03  0.25500000920E-02 0.  1.
</event>
<event>
 5   0  0.6337108E-03  0.7996880E+03  0.7818609E-02  0.9560469E-01
       -2   -1    0    0    0  501  0.00000000000E+00  0.00000000000E+00  0.11901420500E+04  0.11901420500E+04  0.25500000920E-02 0. -1.
        2   -1    0    0  501    0  0.00000000000E+00  0.00000000000E+00 -0.13433289992E+03  0.13433289994E+03  0.25500000920E-02 0.  1.
    10030    2    1    2    0    0  0.00000000000E+00  0.00000000000E+00  0.10558091501E+04  0.13244749499E+04  0.79968802143E+03 0.  0.
        4    1    3    3  502    0  0.10600999096E+03 -0.15159683839E+02  0.11659453417E+04  0.11708535719E+04  0.12699999809E+01 0. -1.
       -4    1    3    3    0  502 -0.10600999096E+03  0.15159683839E+02 -0.11013619158E+03  0.15362137804E+03  0.12699999809E+01 0.  1.
</event>
<event>
 5   0  0.3860515E-03  0.8011576E+03  0.7818609E-02  0.9558343E-01
        1   -1    0    0  501    0  0.00000000000E+00  0.00000000000E+00  0.59558782144E+03  0.59558782146E+03  0.50400001928E-02 0.  1.
       -1   -1    0    0    0  501  0.00000000000E+00  0.00000000000E+00 -0.26942016804E+03  0.26942016808E+03  0.50400001928E-02 0. -1.
    10030    2    1    2    0    0  0.00000000000E+00  0.00000000000E+00  0.32616765340E+03  0.86500798954E+03  0.80115758989E+03 0.  0.
        4    1    3    3  502    0  0.17172081298E+03 -0.57481804545E+02  0.54886928428E+03  0.57797171176E+03  0.12699999809E+01 0.  1.
       -4    1    3    3    0  502 -0.17172081298E+03  0.57481804545E+02 -0.22270163089E+03  0.28703627778E+03  0.12699999809E+01 0. -1.
</event>
<event>
 5   0  0.3860515E-03  0.7971918E+03  0.7818609E-02  0.9564091E-01
       -1   -1    0    0    0  501  0.00000000000E+00  0.00000000000E+00  0.47620565625E+03  0.47620565628E+03  0.50400001928E-02 0.  1.
        1   -1    0    0  501    0  0.00000000000E+00  0.00000000000E+00 -0.33363459296E+03  0.33363459300E+03  0.50400001928E-02 0. -1.
    10030    2    1    2    0    0  0.00000000000E+00  0.00000000000E+00  0.14257106329E+03  0.80984024928E+03  0.79719177195E+03 0.  0.
        4    1    3    3  502    0 -0.15635667089E+03  0.27514081098E+03  0.31746746137E+03  0.44826005436E+03  0.12699999809E+01 0.  1.
       -4    1    3    3    0  502  0.15635667089E+03 -0.27514081098E+03 -0.17489639808E+03  0.36158019492E+03  0.12699999809E+01 0. -1.
</event>
<event>
 5   0  0.5813850E-03  0.8011475E+03  0.7818609E-02  0.9558358E-01
        2   -1    0    0  501    0  0.00000000000E+00  0.00000000000E+00  0.12939457359E+04  0.12939457359E+04  0.25500000920E-02 0. -1.
       -2   -1    0    0    0  501  0.00000000000E+00  0.00000000000E+00 -0.12400777888E+03  0.12400777891E+03  0.25500000920E-02 0.  1.
    10030    2    1    2    0    0  0.00000000000E+00  0.00000000000E+00  0.11699379570E+04  0.14179535148E+04  0.80114751880E+03 0.  0.
        5    1    3    3  502    0 -0.23472229209E+03  0.32372155230E+03  0.54357257834E+03  0.67482103979E+03  0.46999998093E+01 0. -1.
       -5    1    3    3    0  502  0.23472229209E+03 -0.32372155230E+03  0.62636537865E+03  0.74313247499E+03  0.46999998093E+01 0.  1.
</event>
<event>
 5   0  0.6256781E-03  0.8001105E+03  0.7818609E-02  0.9559857E-01
       -2   -1    0    0    0  501  0.00000000000E+00  0.00000000000E+00  0.10246598329E+03  0.10246598332E+03  0.25500000920E-02 0.  1.
        2   -1    0    0  501    0  0.00000000000E+00  0.00000000000E+00 -0.15619253084E+04  0.15619253084E+04  0.25500000920E-02 0. -1.
    10030    2    1    2    0    0  0.00000000000E+00  0.00000000000E+00 -0.14594593251E+04  0.16643912917E+04  0.80011052381E+03 0.  0.
        1    1    3    3  502    0  0.25833219616E+03 -0.29141619173E+03 -0.53924300910E+03  0.66516309524E+03  0.50400001928E-02 0.  1.
       -1    1    3    3    0  502 -0.25833219616E+03  0.29141619173E+03 -0.92021631600E+03  0.99922819648E+03  0.50400001928E-02 0. -1.
</event>
<event>
 5   0  0.6256781E-03  0.8070050E+03  0.7818609E-02  0.9549933E-01
        2   -1    0    0  501    0  0.00000000000E+00  0.00000000000E+00  0.12056567583E+04  0.12056567583E+04  0.25500000920E-02 0. -1.
       -2   -1    0    0    0  501  0.00000000000E+00  0.00000000000E+00 -0.13504198541E+03  0.13504198543E+03  0.25500000920E-02 0.  1.
    10030    2    1    2    0    0  0.00000000000E+00  0.00000000000E+00  0.10706147729E+04  0.13406987438E+04  0.80700503686E+03 0.  0.
        1    1    3    3  502    0 -0.45670702921E+02  0.26658764898E+03  0.37853188153E+02  0.27310739934E+03  0.50400001928E-02 0.  1.
       -1    1    3    3    0  502  0.45670702921E+02 -0.26658764898E+03  0.10327615848E+04  0.10675913444E+04  0.50400001928E-02 0. -1.
</event>
<event>
 5   0  0.2478000E-03  0.8009295E+03  0.7818609E-02  0.9558673E-01
        3   -1    0    0  501    0  0.00000000000E+00  0.00000000000E+00  0.14342463023E+04  0.14342463058E+04  0.10100000352E+00 0. -1.
       -3   -1    0    0    0  501  0.00000000000E+00  0.00000000000E+00 -0.11181620109E+03  0.11181624670E+03  0.10100000352E+00 0.  1.
    10030    2    1    2    0    0  0.00000000000E+00  0.00000000000E+00  0.13224301012E+04  0.15460625525E+04  0.80092948741E+03 0.  0.
        3    1    3    3  502    0 -0.21864889186E+03 -0.28159739173E+03  0.30913345033E+03  0.47187702768E+03  0.10100000352E+00 0.  1.
       -3    1    3    3    0  502  0.21864889186E+03  0.28159739173E+03  0.10132966508E+04  0.10741855248E+04  0.10100000352E+00 0. -1.
</event>
<event>
 5   0  0.3627496E-03  0.8014896E+03  0.7818609E-02  0.9557863E-01
        1   -1    0    0  501    0  0.00000000000E+00  0.00000000000E+00  0.26674142754E+03  0.26674142758E+03  0.50400001928E-02 0. -1.
       -1   -1    0    0    0  501  0.00000000000E+00  0.00000000000E+00 -0.60206770976E+03  0.60206770979E+03  0.50400001928E-02 0.  1.
    10030    2    1    2    0    0  0.00000000000E+00  0.00000000000E+00 -0.33532628223E+03  0.86880913737E+03  0.80148961417E+03 0.  0.
        3    1    3    3  502    0  0.57344970857E+01 -0.37491807986E+03 -0.32096266914E+03  0.49357217937E+03  0.10100000352E+00 0.  1.
       -3    1    3    3    0  502 -0.57344970857E+01  0.37491807986E+03 -0.14363613087E+02  0.37523695800E+03  0.10100000352E+00 0. -1.
</event>
<event>
 5   0  0.5813850E-03  0.7990397E+03  0.7818609E-02  0.9561408E-01
       -2   -1    0    0    0  501  0.00000000000E+00  0.00000000000E+00  0.35363031630E+03  0.35363031631E+03  0.25500000920E-02 0.  1.
        2   -1    0    0  501    0  0.00000000000E+00  0.00000000000E+00 -0.45136428713E+03  0.45136428714E+03  0.25500000920E-02 0. -1.
    10030    2    1    2    0    0  0.00000000000E+00  0.00000000000E+00 -0.97733970828E+02  0.80499460345E+03  0.79903966268E+03 0.  0.
        5    1    3    3  502    0  0.29952701162E+01 -0.19503905759E+03 -0.40009797175E+03  0.44514007079E+03  0.46999998093E+01 0. -1.
       -5    1    3    3    0  502 -0.29952701162E+01  0.19503905759E+03  0.30236400092E+03  0.35985453266E+03  0.46999998093E+01 0.  1.
</event>
<event>
 5   0  0.6153659E-03  0.7973685E+03  0.7818609E-02  0.9563834E-01
        2   -1    0    0  501    0  0.00000000000E+00  0.00000000000E+00  0.44689218460E+03  0.44689218461E+03  0.25500000920E-02 0.  1.
       -2   -1    0    0    0  501  0.00000000000E+00  0.00000000000E+00 -0.35567669308E+03  0.35567669309E+03  0.25500000920E-02 0. -1.
    10030    2    1    2    0    0  0.00000000000E+00  0.00000000000E+00  0.91215491516E+02  0.80256887770E+03  0.79736850800E+03 0.  0.
        2    1    3    3  502    0 -0.14980983001E+03 -0.36912330497E+03  0.61653325908E+02  0.40310808978E+03  0.25500000920E-02 0.  1.
       -2    1    3    3    0  502  0.14980983001E+03  0.36912330497E+03  0.29562165608E+02  0.39946078792E+03  0.25500000920E-02 0. -1.
</event>
<event>
 5   0  0.3753450E-03  0.8008436E+03  0.7818609E-02  0.9558797E-01
        1   -1    0    0  501    0  0.00000000000E+00  0.00000000000E+00  0.36141096897E+03  0.36141096901E+03  0.50400001928E-02 0. -1.
       -1   -1    0    0    0  501  0.00000000000E+00  0.00000000000E+00 -0.44364347290E+03  0.44364347293E+03  0.50400001928E-02 0.  1.
    10030    2    1    2    0    0  0.00000000000E+00  0.00000000000E+00 -0.82232503927E+02  0.80505444194E+03  0.80084359883E+03 0.  0.
        5    1    3    3  502    0 -0.15410714928E+03 -0.35740609968E+03  0.53331971888E+02  0.39287978157E+03  0.46999998093E+01 0.  1.
       -5    1    3    3    0  502  0.15410714928E+03  0.35740609968E+03 -0.13556447582E+03  0.41217466036E+03  0.46999998093E+01 0. -1.
</event>
<event>
 5   0  0.6256781E-03  0.7976969E+03  0.7818609E-02  0.9563357E-01
       -2   -1    0    0    0  501  0.00000000000E+00  0.00000000000E+00  0.18915350866E+03  0.18915350868E+03  0.25500000920E-02 0.  1.
        2   -1    0    0  501    0  0.00000000000E+00  0.00000000000E+00 -0.84101047692E+03  0.84101047693E+03  0.25500000920E-02 0. -1.
    10030    2    1    2    0    0  0.00000000000E+00  0.00000000000E+00 -0.65185696826E+03  0.10301639856E+04  0.79769689116E+03 0.  0.
        1    1    3    3  502    0 -0.21278852101E+03  0.31716303862E+03 -0.47435075544E+03  0.60899916827E+03  0.50400001928E-02 0.  1.
       -1    1    3    3    0  502  0.21278852101E+03 -0.31716303862E+03 -0.17750621282E+03  0.42116481733E+03  0.50400001928E-02 0. -1.
</event>
<event>
 5   0  0.6337108E-03  0.7852176E+03  0.7818609E-02  0.9581664E-01
        2   -1    0    0  501    0  0.00000000000E+00  0.00000000000E+00  0.51625739504E+03  0.51625739505E+03  0.25500000920E-02 0.  1.
       -2   -1    0    0    0  501  0.00000000000E+00  0.00000000000E+00 -0.29857522384E+03  0.29857522385E+03  0.25500000920E-02 0. -1.
    10030    2    1    2    0    0  0.00000000000E+00  0.00000000000E+00  0.21768217121E+03  0.81483261889E+03  0.78521759351E+03 0.  0.
        4    1    3    3  502    0 -0.28710690308E+03  0.26369539597E+03  0.15723045641E+03  0.42034350831E+03  0.12699999809E+01 0.  1.
       -4    1    3    3    0  502  0.28710690308E+03 -0.26369539597E+03  0.60451714795E+02  0.39448911059E+03  0.12699999809E+01 0. -1.
</event>
<event>
 5   0  0.6256781E-03  0.7937844E+03  0.7818609E-02  0.9569058E-01
       -2   -1    0    0    0  501  0.00000000000E+00  0.00000000000E+00  0.95086282076E+02  0.95086282110E+02  0.25500000920E-02 0.  1.
        2   -1    0    0  501    0  0.00000000000E+00  0.00000000000E+00 -0.16566367870E+04  0.16566367870E+04  0.25500000920E-02 0. -1.
    10030    2    1    2    0    0  0.00000000000E+00  0.00000000000E+00 -0.15615505050E+04  0.17517230691E+04  0.79378443638E+03 0.  0.
        1    1    3    3  502    0  0.11565120414E+03  0.85515224761E+02 -0.15970983188E+04  0.16035620021E+04  0.50400001928E-02 0. -1.
       -1    1    3    3    0  502 -0.11565120414E+03 -0.85515224761E+02  0.35547813858E+02  0.14816106702E+03  0.50400001928E-02 0.  1.
</event>
<event>
 5   0  0.6153659E-03  0.8033820E+03  0.7818609E-02  0.9555135E-01
       -2   -1    0    0    0  501  0.00000000000E+00  0.00000000000E+00  0.10380875537E+04  0.10380875537E+04  0.25500000920E-02 0. -1.
        2   -1    0    0  501    0  0.00000000000E+00  0.00000000000E+00 -0.15543551407E+03  0.15543551409E+03  0.25500000920E-02 0.  1.
    10030    2    1    2    0    0  0.00000000000E+00  0.00000000000E+00  0.88265203959E+03  0.11935230677E+04  0.80338203257E+03 0.  0.
        2    1    3    3  502    0 -0.24016363198E+03 -0.31895398205E+03  0.37579908853E+03  0.54830207709E+03  0.25500000920E-02 0. -1.
       -2    1    3    3    0  502  0.24016363198E+03  0.31895398205E+03  0.50685295106E+03  0.64522099066E+03  0.25500000920E-02 0.  1.
</event>
<event>
 5   0  0.3671128E-03  0.7983650E+03  0.7818609E-02  0.9562387E-01
       -1   -1    0    0    0  501  0.00000000000E+00  0.00000000000E+00  0.63927353166E+03  0.63927353168E+03  0.50400001928E-02 0. -1.
        1   -1    0    0  501    0  0.00000000000E+00  0.00000000000E+00 -0.24926208314E+03  0.24926208320E+03  0.50400001928E-02 0.  1.
    10030    2    1    2    0    0  0.00000000000E+00  0.00000000000E+00  0.39001144852E+03  0.88853561488E+03  0.79836495973E+03 0.  0.
        2    1    3    3  502    0  0.35725914273E+03 -0.19306526496E+02  0.39203083864E+03  0.53074948467E+03  0.25500000920E-02 0. -1.
       -2    1    3    3    0  502 -0.35725914273E+03  0.19306526496E+02 -0.20193901183E+01  0.35778613021E+03  0.25500000920E-02 0.  1.
</event>
<event>
 5   0  0.3671128E-03  0.7868507E+03  0.7818609E-02  0.9579248E-01
       -1   -1    0    0    0  501  0.00000000000E+00  0.00000000000E+00  0.62120506724E+03  0.62120506726E+03  0.50400001928E-02 0.  1.
        1   -1    0    0  501    0  0.00000000000E+00  0.00000000000E+00 -0.24916650350E+03  0.24916650355E+03  0.50400001928E-02 0. -1.
    10030    2    1    2    0    0  0.00000000000E+00  0.00000000000E+00  0.37203856373E+03  0.87037157081E+03  0.78685067095E+03 0.  0.
        2    1    3    3  502    0  0.30026085503E+03 -0.97894827407E+02 -0.73497509194E+02  0.32425585910E+03  0.25500000920E-02 0. -1.
       -2    1    3    3    0  502 -0.30026085503E+03  0.97894827407E+02  0.44553607293E+03  0.54611571171E+03  0.25500000920E-02 0.  1.
</event>
<event>
 5   0  0.6256781E-03  0.8032084E+03  0.7818609E-02  0.9555385E-01
       -2   -1    0    0    0  501  0.00000000000E+00  0.00000000000E+00  0.20570299550E+03  0.20570299552E+03  0.25500000920E-02 0. -1.
        2   -1    0    0  501    0  0.00000000000E+00  0.00000000000E+00 -0.78407184459E+03  0.78407184459E+03  0.25500000920E-02 0.  1.
    10030    2    1    2    0    0  0.00000000000E+00  0.00000000000E+00 -0.57836884909E+03  0.98977484011E+03  0.80320838424E+03 0.  0.
        1    1    3    3  502    0  0.11000204459E+03 -0.33994857421E+03 -0.51513315225E+03  0.62691917142E+03  0.50400001928E-02 0. -1.
       -1    1    3    3    0  502 -0.11000204459E+03  0.33994857421E+03 -0.63235696833E+02  0.36285566869E+03  0.50400001928E-02 0.  1.
</event>
<event>
 5   0  0.3714448E-03  0.8056622E+03  0.7818609E-02  0.9551857E-01
       -1   -1    0    0    0  501  0.00000000000E+00  0.00000000000E+00  0.98305223071E+02  0.98305223200E+02  0.50400001928E-02 0. -1.
        1   -1    0    0  501    0  0.00000000000E+00  0.00000000000E+00 -0.16507048677E+04  0.16507048678E+04  0.50400001928E-02 0.  1.
    10030    2    1    2    0    0  0.00000000000E+00  0.00000000000E+00 -0.15523996447E+04  0.17490100910E+04  0.80566223783E+03 0.  0.
        1    1    3    3  502    0 -0.18493851271E+02  0.22549201196E+03 -0.14997447971E+04  0.15167145831E+04  0.50400001928E-02 0.  1.
       -1    1    3    3    0  502  0.18493851271E+02 -0.22549201196E+03 -0.52654847570E+02  0.23229550790E+03  0.50400001928E-02 0. -1.
</event>
<event>
 5   0  0.3753450E-03  0.7962539E+03  0.7818609E-02  0.9565455E-01
       -1   -1    0    0    0  501  0.00000000000E+00  0.00000000000E+00  0.13121101928E+03  0.13121101937E+03  0.50400001928E-02 0. -1.
        1   -1    0    0  501    0  0.00000000000E+00  0.00000000000E+00 -0.12080164450E+04  0.12080164450E+04  0.50400001928E-02 0.  1.
    10030    2    1    2    0    0  0.00000000000E+00  0.00000000000E+00 -0.10768054257E+04  0.13392274644E+04  0.79625390203E+03 0.  0.
        5    1    3    3  502    0 -0.72892008385E+01  0.28400564221E+03 -0.10074435056E+04  0.10467458355E+04  0.46999998093E+01 0.  1.
       -5    1    3    3    0  502  0.72892008385E+01 -0.28400564221E+03 -0.69361920142E+02  0.29248162886E+03  0.46999998093E+01 0. -1.
</event>
<event>
 5   0  0.6256781E-03  0.7979137E+03  0.7818609E-02  0.9563042E-01
       -2   -1    0    0    0  501  0.00000000000E+00  0.00000000000E+00  0.10348641929E+03  0.10348641932E+03  0.25500000920E-02 0. -1.
        2   -1    0    0  501    0  0.00000000000E+00  0.00000000000E+00 -0.15380431756E+04  0.15380431756E+04  0.25500000920E-02 0.  1.
    10030    2    1    2    0    0  0.00000000000E+00  0.00000000000E+00 -0.14345567563E+04  0.16415295949E+04  0.79791373213E+03 0.  0.
        1    1    3    3  502    0  0.12305481091E+02 -0.52490732403E+02 -0.15305142359E+04  0.15314635249E+04  0.50400001928E-02 0.  1.
       -1    1    3    3    0  502 -0.12305481091E+02  0.52490732403E+02  0.95957479582E+02  0.11006607000E+03  0.50400001928E-02 0. -1.
</event>
<event>
 5   0  0.3860515E-03  0.8011903E+03  0.7818609E-02  0.9558296E-01
        1   -1    0    0  501    0  0.00000000000E+00  0.00000000000E+00  0.42637204563E+03  0.42637204565E+03  0.50400001928E-02 0. -1.
       -1   -1    0    0    0  501  0.00000000000E+00  0.00000000000E+00 -0.37637662013E+03  0.37637662016E+03  0.50400001928E-02 0.  1.
    10030    2    1    2    0    0  0.00000000000E+00  0.00000000000E+00  0.49995425500E+02  0.80274866581E+03  0.80119028819E+03 0.  0.
        4    1    3    3  502    0  0.66433013309E+02 -0.25880661947E+03  0.32404205673E+03  0.41999890353E+03  0.12699999809E+01 0. -1.
       -4    1    3    3    0  502 -0.66433013309E+02  0.25880661947E+03 -0.27404663123E+03  0.38274976228E+03  0.12699999809E+01 0.  1.
</event>
<event>
 5   0  0.6153659E-03  0.7998261E+03  0.7818609E-02  0.9560269E-01
       -2   -1    0    0    0  501  0.00000000000E+00  0.00000000000E+00  0.28208747212E+03  0.28208747213E+03  0.25500000920E-02 0. -1.
        2   -1    0    0  501    0  0.00000000000E+00  0.00000000000E+00 -0.56695331626E+03  0.56695331627E+03  0.25500000920E-02 0.  1.
    10030    2    1    2    0    0  0.00000000000E+00  0.00000000000E+00 -0.28486584414E+03  0.84904078840E+03  0.79982605059E+03 0.  0.
        2    1    3    3  502    0  0.21145473630E+03  0.61005172189E+02 -0.49688869303E+03  0.54344559048E+03  0.25500000920E-02 0.  1.
       -2    1    3    3    0  502 -0.21145473630E+03 -0.61005172189E+02  0.21202284889E+03  0.30559519792E+03  0.25500000920E-02 0. -1.
</event>
<event>
 5   0  0.3860515E-03  0.8062588E+03  0.7818609E-02  0.9551002E-01
       -1   -1    0    0    0  501  0.00000000000E+00  0.00000000000E+00  0.39432968270E+03  0.39432968273E+03  0.50400001928E-02 0.  1.
        1   -1    0    0  501    0  0.00000000000E+00  0.00000000000E+00 -0.41212545973E+03  0.41212545976E+03  0.50400001928E-02 0. -1.
    10030    2    1    2    0    0  0.00000000000E+00  0.00000000000E+00 -0.17795777031E+02  0.80645514249E+03  0.80625877184E+03 0.  0.
        4    1    3    3  502    0 -0.85070945155E+02  0.25193580937E+03  0.29416595831E+03  0.39653996227E+03  0.12699999809E+01 0.  1.
       -4    1    3    3    0  502  0.85070945155E+02 -0.25193580937E+03 -0.31196173534E+03  0.40991518021E+03  0.12699999809E+01 0. -1.
</event>
<event>
 5   0  0.3714448E-03  0.8011859E+03  0.7818609E-02  0.9558302E-01
       -1   -1    0    0    0  501  0.00000000000E+00  0.00000000000E+00  0.21059014068E+03  0.21059014074E+03  0.50400001928E-02 0. -1.
        1   -1    0    0  501    0  0.00000000000E+00  0.00000000000E+00 -0.76202386024E+03  0.76202386025E+03  0.50400001928E-02 0.  1.
    10030    2    1    2    0    0  0.00000000000E+00  0.00000000000E+00 -0.55143371956E+03  0.97261400099E+03  0.80118590093E+03 0.  0.
        1    1    3    3  502    0  0.17793230452E+03  0.34774359862E+03 -0.38354288782E+03  0.54744009918E+03  0.50400001928E-02 0. -1.
       -1    1    3    3    0  502 -0.17793230452E+03 -0.34774359862E+03 -0.16789083175E+03  0.42517390181E+03  0.50400001928E-02 0.  1.
</event>
<event>
 5   0  0.5813850E-03  0.7964821E+03  0.7818609E-02  0.9565123E-01
        2   -1    0    0  501    0  0.00000000000E+00  0.00000000000E+00  0.21526283014E+03  0.21526283016E+03  0.25500000920E-02 0. -1.
       -2   -1    0    0    0  501  0.00000000000E+00  0.00000000000E+00 -0.73675489352E+03  0.73675489352E+03  0.25500000920E-02 0.  1.
    10030    2    1    2    0    0  0.00000000000E+00  0.00000000000E+00 -0.52149206338E+03  0.95201772368E+03  0.79648212411E+03 0.  0.
        5    1    3    3  502    0  0.35766985900E+03  0.15776917808E+03 -0.35142198169E+03  0.52567893319E+03  0.46999998093E+01 0.  1.
       -5    1    3    3    0  502 -0.35766985900E+03 -0.15776917808E+03 -0.17007008169E+03  0.42633879049E+03  0.46999998093E+01 0. -1.
</event>
<event>
 5   0  0.3627496E-03  0.7932361E+03  0.7818609E-02  0.9569859E-01
        1   -1    0    0  501    0  0.00000000000E+00  0.00000000000E+00  0.55238011160E+03  0.55238011162E+03  0.50400001928E-02 0.  1.
       -1   -1    0    0    0  501  0.00000000000E+00  0.00000000000E+00 -0.28477834103E+03  0.28477834107E+03  0.50400001928E-02 0. -1.
    10030    2    1    2    0    0  0.00000000000E+00  0.00000000000E+00  0.26760177057E+03  0.83715845269E+03  0.79323613590E+03 0.  0.
        3    1    3    3  502    0  0.17944000098E+03  0.16324701946E+03  0.46495469150E+03  0.52443415093E+03  0.10100000352E+00 0.  1.
       -3    1    3    3    0  502 -0.17944000098E+03 -0.16324701946E+03 -0.19735292092E+03  0.31272430176E+03  0.10100000352E+00 0. -1.
</event>
<event>
 5   0  0.2478000E-03  0.8081919E+03  0.7818609E-02  0.9548235E-01
       -3   -1    0    0    0  501  0.00000000000E+00  0.00000000000E+00  0.14191767750E+03  0.14191771344E+03  0.10100000352E+00 0. -1.
        3   -1    0    0  501    0  0.00000000000E+00  0.00000000000E+00 -0.11506212375E+04  0.11506212419E+04  0.10100000352E+00 0.  1.
    10030    2    1    2    0    0  0.00000000000E+00  0.00000000000E+00 -0.10087035600E+04  0.12925389554E+04  0.80819185791E+03 0.  0.
        5    1    3    3  502    0  0.23733240342E+03 -0.26931354432E+03 -0.20766178658E+03  0.41473119303E+03  0.46999998093E+01 0. -1.
       -5    1    3    3    0  502 -0.23733240342E+03  0.26931354432E+03 -0.80104177343E+03  0.87780776235E+03  0.46999998093E+01 0.  1.
</event>
<event>
 5   0  0.3627496E-03  0.7998311E+03  0.7818609E-02  0.9560262E-01
       -1   -1    0    0    0  501  0.00000000000E+00  0.00000000000E+00  0.22343625865E+03  0.22343625871E+03  0.50400001928E-02 0.  1.
        1   -1    0    0  501    0  0.00000000000E+00  0.00000000000E+00 -0.71578557530E+03  0.71578557532E+03  0.50400001928E-02 0. -1.
    10030    2    1    2    0    0  0.00000000000E+00  0.00000000000E+00 -0.49234931665E+03  0.93922183403E+03  0.79983110961E+03 0.  0.
        3    1    3    3  502    0 -0.71042139223E+02  0.38440651304E+03 -0.34523984329E+03  0.52154186064E+03  0.10100000352E+00 0.  1.
       -3    1    3    3    0  502  0.71042139223E+02 -0.38440651304E+03 -0.14710947337E+03  0.41767997338E+03  0.10100000352E+00 0. -1.
</event>
<event>
 5   0  0.6153659E-03  0.7917180E+03  0.7818609E-02  0.9572083E-01
       -2   -1    0    0    0  501  0.00000000000E+00  0.00000000000E+00  0.72113326545E+03  0.72113326545E+03  0.25500000920E-02 0. -1.
        2   -1    0    0  501    0  0.00000000000E+00  0.00000000000E+00 -0.21730292178E+03  0.21730292180E+03  0.25500000920E-02 0.  1.
    10030    2    1    2    0    0  0.00000000000E+00  0.00000000000E+00  0.50383034366E+03  0.93843618725E+03  0.79171804473E+03 0.  0.
        2    1    3    3  502    0  0.28768663739E+03 -0.10596998716E+03  0.54874429047E+03  0.62858057227E+03  0.25500000920E-02 0. -1.
       -2    1    3    3    0  502 -0.28768663739E+03  0.10596998716E+03 -0.44913946808E+02  0.30985561498E+03  0.25500000920E-02 0.  1.
</event>
<event>
 5   0  0.6337108E-03  0.7996864E+03  0.7818609E-02  0.9560471E-01
        2   -1    0    0  501    0  0.00000000000E+00  0.00000000000E+00  0.77559766629E+03  0.77559766629E+03  0.25500000920E-02 0. -1.
       -2   -1    0    0    0  501  0.00000000000E+00  0.00000000000E+00 -0.20613083850E+03  0.20613083852E+03  0.25500000920E-02 0.  1.
    10030    2    1    2    0    0  0.00000000000E+00  0.00000000000E+00  0.56946682779E+03  0.98172850481E+03  0.79968643180E+03 0.  0.
        4    1    3    3  502    0  0.19776588619E+03  0.34394907006E+02 -0.13978688231E+03  0.24461467808E+03  0.12699999809E+01 0.  1.
       -4    1    3    3    0  502 -0.19776588619E+03 -0.34394907006E+02  0.70925371010E+03  0.73711382673E+03  0.12699999809E+01 0. -1.
</event>
<event>
 5   0  0.3627496E-03  0.7999466E+03  0.7818609E-02  0.9560094E-01
       -1   -1    0    0    0  501  0.00000000000E+00  0.00000000000E+00  0.17490938935E+03  0.17490938942E+03  0.50400001928E-02 0. -1.
        1   -1    0    0  501    0  0.00000000000E+00  0.00000000000E+00 -0.91463719587E+03  0.91463719589E+03  0.50400001928E-02 0.  1.
    10030    2    1    2    0    0  0.00000000000E+00  0.00000000000E+00 -0.73972780652E+03  0.10895465853E+04  0.79994658184E+03 0.  0.
        3    1    3    3  502    0  0.25946519453E+03 -0.26501558290E+03 -0.57381844861E+03  0.68324451591E+03  0.10100000352E+00 0.  1.
       -3    1    3    3    0  502 -0.25946519453E+03  0.26501558290E+03 -0.16590935792E+03  0.40630206940E+03  0.10100000352E+00 0. -1.
</event>
<event>
 5   0  0.6153659E-03  0.7989539E+03  0.7818609E-02  0.9561532E-01
        2   -1    0    0  501    0  0.00000000000E+00  0.00000000000E+00  0.14222726781E+04  0.14222726781E+04  0.25500000920E-02 0. -1.
       -2   -1    0    0    0  501  0.00000000000E+00  0.00000000000E+00 -0.11220200246E+03  0.11220200249E+03  0.25500000920E-02 0.  1.
    10030    2    1    2    0    0  0.00000000000E+00  0.00000000000E+00  0.13100706757E+04  0.15344746806E+04  0.79895392247E+03 0.  0.
        2    1    3    3  502    0  0.31674210339E+03  0.48065918153E+01  0.11224695705E+04  0.11663132513E+04  0.25500000920E-02 0. -1.
       -2    1    3    3    0  502 -0.31674210339E+03 -0.48065918153E+01  0.18760110514E+03  0.36816142932E+03  0.25500000920E-02 0.  1.
</event>
<event>
 5   0  0.6337108E-03  0.8326790E+03  0.7818609E-02  0.9513884E-01
       -2   -1    0    0    0  501  0.00000000000E+00  0.00000000000E+00  0.44856445023E+03  0.44856445024E+03  0.25500000920E-02 0.  1.
        2   -1    0    0  501    0  0.00000000000E+00  0.00000000000E+00 -0.38642961386E+03  0.38642961387E+03  0.25500000920E-02 0. -1.
    10030    2    1    2    0    0  0.00000000000E+00  0.00000000000E+00  0.62134836372E+02  0.83499406411E+03  0.83267901931E+03 0.  0.
        4    1    3    3  502    0 -0.41619630445E+02  0.19137912932E+03 -0.33734864968E+03  0.39008190052E+03  0.12699999809E+01 0. -1.
       -4    1    3    3    0  502  0.41619630445E+02 -0.19137912932E+03  0.39948348605E+03  0.44491216358E+03  0.12699999809E+01 0.  1.
</event>
<event>
 5   0  0.6536209E-03  0.7986970E+03  0.7818609E-02  0.9561905E-01
        2   -1    0    0  501    0  0.00000000000E+00  0.00000000000E+00  0.12670590094E+04  0.12670590094E+04  0.25500000920E-02 0.  1.
       -2   -1    0    0    0  501  0.00000000000E+00  0.00000000000E+00 -0.12586565767E+03  0.12586565770E+03  0.25500000920E-02 0. -1.
    10030    2    1    2    0    0  0.00000000000E+00  0.00000000000E+00  0.11411933517E+04  0.13929246671E+04  0.79869697769E+03 0.  0.
        3    1    3    3  502    0 -0.36100421833E+03  0.94595533566E+02  0.81850712965E+03  0.89957005959E+03  0.10100000352E+00 0.  1.
       -3    1    3    3    0  502  0.36100421833E+03 -0.94595533566E+02  0.32268622203E+03  0.49335460747E+03  0.10100000352E+00 0. -1.
</event>
<event>
 5   0  0.3627496E-03  0.8018650E+03  0.7818609E-02  0.9557321E-01
       -1   -1    0    0    0  501  0.00000000000E+00  0.00000000000E+00  0.18914954991E+03  0.18914954997E+03  0.50400001928E-02 0.  1.
        1   -1    0    0  501    0  0.00000000000E+00  0.00000000000E+00 -0.84984018935E+03  0.84984018936E+03  0.50400001928E-02 0. -1.
    10030    2    1    2    0    0  0.00000000000E+00  0.00000000000E+00 -0.66069063944E+03  0.10389897393E+04  0.80186504937E+03 0.  0.
        3    1    3    3  502    0  0.25201912633E+03 -0.23315644366E+03 -0.59862844751E+03  0.69009535256E+03  0.10100000352E+00 0. -1.
       -3    1    3    3    0  502 -0.25201912633E+03  0.23315644366E+03 -0.62062191935E+02  0.34889438678E+03  0.10100000352E+00 0.  1.
</event>
<event>
 5   0  0.6153659E-03  0.8009383E+03  0.7818609E-02  0.9558660E-01
        2   -1    0    0  501    0  0.00000000000E+00  0.00000000000E+00  0.73691143052E+03  0.73691143052E+03  0.25500000920E-02 0.  1.
       -2   -1    0    0    0  501  0.00000000000E+00  0.00000000000E+00 -0.21763203379E+03  0.21763203381E+03  0.25500000920E-02 0. -1.
    10030    2    1    2    0    0  0.00000000000E+00  0.00000000000E+00  0.51927939673E+03  0.95454346433E+03  0.80093828316E+03 0.  0.
        2    1    3    3  502    0 -0.29481774387E+02 -0.36261670595E+03  0.60161373635E+02  0.36875390349E+03  0.25500000920E-02 0. -1.
       -2    1    3    3    0  502  0.29481774387E+02  0.36261670595E+03  0.45911802309E+03  0.58578956084E+03  0.25500000920E-02 0.  1.
</event>
<event>
 5   0  0.3753450E-03  0.8004566E+03  0.7818609E-02  0.9559356E-01
       -1   -1    0    0    0  501  0.00000000000E+00  0.00000000000E+00  0.13853701845E+03  0.13853701854E+03  0.50400001928E-02 0. -1.
        1   -1    0    0  501    0  0.00000000000E+00  0.00000000000E+00 -0.11562446841E+04  0.11562446841E+04  0.50400001928E-02 0.  1.
    10030    2    1    2    0    0  0.00000000000E+00  0.00000000000E+00 -0.10177076656E+04  0.12947817026E+04  0.80045659769E+03 0.  0.
        5    1    3    3  502    0 -0.23076424638E+03 -0.16016107098E+03 -0.47760463744E+02  0.28496817009E+03  0.46999998093E+01 0. -1.
       -5    1    3    3    0  502  0.23076424638E+03  0.16016107098E+03 -0.96994720188E+03  0.10098135325E+04  0.46999998093E+01 0.  1.
</event>
<event>
 5   0  0.3671128E-03  0.7959707E+03  0.7818609E-02  0.9565868E-01
        1   -1    0    0  501    0  0.00000000000E+00  0.00000000000E+00  0.24502005662E+03  0.24502005668E+03  0.50400001928E-02 0.  1.
       -1   -1    0    0    0  501  0.00000000000E+00  0.00000000000E+00 -0.64644637404E+03  0.64644637406E+03  0.50400001928E-02 0. -1.
    10030    2    1    2    0    0  0.00000000000E+00  0.00000000000E+00 -0.40142631741E+03  0.89146643073E+03  0.79597067082E+03 0.  0.
        2    1    3    3  502    0  0.14039510209E+03 -0.25288947584E+03  0.10544859124E+03  0.30786892841E+03  0.25500000920E-02 0.  1.
       -2    1    3    3    0  502 -0.14039510209E+03  0.25288947584E+03 -0.50687490865E+03  0.58359750232E+03  0.25500000920E-02 0. -1.
</event>
<event>
 5   0  0.6153659E-03  0.8007076E+03  0.7818609E-02  0.9558993E-01
       -2   -1    0    0    0  501  0.00000000000E+00  0.00000000000E+00  0.10054861560E+03  0.10054861563E+03  0.25500000920E-02 0.  1.
        2   -1    0    0  501    0  0.00000000000E+00  0.00000000000E+00 -0.15940861633E+04  0.15940861633E+04  0.25500000920E-02 0. -1.
    10030    2    1    2    0    0  0.00000000000E+00  0.00000000000E+00 -0.14935375477E+04  0.16946347790E+04  0.80070757933E+03 0.  0.
        2    1    3    3  502    0 -0.20717946094E+03 -0.15613091012E+03 -0.10140605267E+03  0.27853792858E+03  0.25500000920E-02 0.  1.
       -2    1    3    3    0  502  0.20717946094E+03  0.15613091012E+03 -0.13921314951E+04  0.14160968504E+04  0.25500000920E-02 0. -1.
</event>
<event>
 5   0  0.3627496E-03  0.8006588E+03  0.7818609E-02  0.9559064E-01
        1   -1    0    0  501    0  0.00000000000E+00  0.00000000000E+00  0.31699547020E+03  0.31699547024E+03  0.50400001928E-02 0. -1.
       -1   -1    0    0    0  501  0.00000000000E+00  0.00000000000E+00 -0.50557074790E+03  0.50557074793E+03  0.50400001928E-02 0.  1.
    10030    2    1    2    0    0  0.00000000000E+00  0.00000000000E+00 -0.18857527771E+03  0.82256621816E+03  0.80065882116E+03 0.  0.
        3    1    3    3  502    0 -0.14465794112E+03 -0.20626673751E+03 -0.41391395178E+03  0.48455820766E+03  0.10100000352E+00 0.  1.
       -3    1    3    3    0  502  0.14465794112E+03  0.20626673751E+03  0.22533867407E+03  0.33800801050E+03  0.10100000352E+00 0. -1.
</event>
<event>
 5   0  0.3627496E-03  0.7979502E+03  0.7818609E-02  0.9562989E-01
        1   -1    0    0  501    0  0.00000000000E+00  0.00000000000E+00  0.32987834945E+03  0.32987834949E+03  0.50400001928E-02 0. -1.
       -1   -1    0    0    0  501  0.00000000000E+00  0.00000000000E+00 -0.48254493002E+03  0.48254493005E+03  0.50400001928E-02 0.  1.
    10030    2    1    2    0    0  0.00000000000E+00  0.00000000000E+00 -0.15266658057E+03  0.81242327953E+03  0.79795018661E+03 0.  0.
        3    1    3    3  502    0  0.17568821959E+03 -0.41509330819E+02 -0.43858401508E+03  0.47428401147E+03  0.10100000352E+00 0.  1.
       -3    1    3    3    0  502 -0.17568821959E+03  0.41509330819E+02  0.28591743451E+03  0.33813926806E+03  0.10100000352E+00 0. -1.
</event>
<event>
 5   0  0.3627496E-03  0.8011555E+03  0.7818609E-02  0.9558346E-01
        1   -1    0    0  501    0  0.00000000000E+00  0.00000000000E+00  0.61048977654E+03  0.61048977656E+03  0.50400001928E-02 0.  1.
       -1   -1    0    0    0  501  0.00000000000E+00  0.00000000000E+00 -0.26284227573E+03  0.26284227578E+03  0.50400001928E-02 0. -1.
    10030    2    1    2    0    0  0.00000000000E+00  0.00000000000E+00  0.34764750080E+03  0.87333205234E+03  0.80115547107E+03 0.  0.
        3    1    3    3  502    0  0.28204145865E+03  0.16626763867E+03 -0.77772845137E+02  0.33651290868E+03  0.10100000352E+00 0. -1.
       -3    1    3    3    0  502 -0.28204145865E+03 -0.16626763867E+03  0.42542034594E+03  0.53681914367E+03  0.10100000352E+00 0.  1.
</event>
<event>
 5   0  0.3671128E-03  0.8052366E+03  0.7818609E-02  0.9552468E-01
        1   -1    0    0  501    0  0.00000000000E+00  0.00000000000E+00  0.37282511316E+03  0.37282511319E+03  0.50400001928E-02 0. -1.
       -1   -1    0    0    0  501  0.00000000000E+00  0.00000000000E+00 -0.43479229976E+03  0.43479229979E+03  0.50400001928E-02 0.  1.
    10030    2    1    2    0    0  0.00000000000E+00  0.00000000000E+00 -0.61967186598E+02  0.80761741298E+03  0.80523658234E+03 0.  0.
        2    1    3    3  502    0 -0.12950888466E+03  0.87200258133E+02 -0.40319411873E+03  0.43236782212E+03  0.25500000920E-02 0.  1.
       -2    1    3    3    0  502  0.12950888466E+03 -0.87200258133E+02  0.34122693213E+03  0.37524959086E+03  0.25500000920E-02 0. -1.
</event>
<event>
 5   0  0.5813850E-03  0.7980197E+03  0.7818609E-02  0.9562888E-01
       -2   -1    0    0    0  501  0.00000000000E+00  0.00000000000E+00  0.91253771994E+02  0.91253772030E+02  0.25500000920E-02 0. -1.
        2   -1    0    0  501    0  0.00000000000E+00  0.00000000000E+00 -0.17446825479E+04  0.17446825479E+04  0.25500000920E-02 0.  1.
    10030    2    1    2    0    0  0.00000000000E+00  0.00000000000E+00 -0.16534287759E+04  0.18359363200E+04  0.79801970769E+03 0.  0.
        5    1    3    3  502    0 -0.17726326842E+03  0.16756957422E+01 -0.43877924854E+01  0.17738775890E+03  0.46999998093E+01 0. -1.
       -5    1    3    3    0  502  0.17726326842E+03 -0.16756957422E+01 -0.16490409834E+04  0.16585485611E+04  0.46999998093E+01 0.  1.
</event>
<event>
 5   0  0.3860515E-03  0.8006242E+03  0.7818609E-02  0.9559114E-01
        1   -1    0    0  501    0  0.00000000000E+00  0.00000000000E+00  0.41608518627E+03  0.41608518630E+03  0.50400001928E-02 0.  1.
       -1   -1    0    0    0  501  0.00000000000E+00  0.00000000000E+00 -0.38513692044E+03  0.38513692047E+03  0.50400001928E-02 0. -1.
    10030    2    1    2    0    0  0.00000000000E+00  0.00000000000E+00  0.30948265835E+02  0.80122210678E+03  0.80062417477E+03 0.  0.
        4    1    3    3  502    0  0.13708808510E+03  0.17232893724E+02  0.39146477137E+03  0.41513419015E+03  0.12699999809E+01 0.  1.
       -4    1    3    3    0  502 -0.13708808510E+03 -0.17232893724E+02 -0.36051650554E+03  0.38608791663E+03  0.12699999809E+01 0. -1.
</event>
<event>
 5   0  0.3627496E-03  0.7879379E+03  0.7818609E-02  0.9577642E-01
        1   -1    0    0  501    0  0.00000000000E+00  0.00000000000E+00  0.65636433058E+03  0.65636433060E+03  0.50400001928E-02 0. -1.
       -1   -1    0    0    0  501  0.00000000000E+00  0.00000000000E+00 -0.23647161952E+03  0.23647161958E+03  0.50400001928E-02 0.  1.
    10030    2    1    2    0    0  0.00000000000E+00  0.00000000000E+00  0.41989271106E+03  0.89283595018E+03  0.78793790690E+03 0.  0.
        3    1    3    3  502    0  0.58501375122E+02 -0.27032409361E+03  0.52785743562E+03  0.59592869457E+03  0.10100000352E+00 0. -1.
       -3    1    3    3    0  502 -0.58501375122E+02  0.27032409361E+03 -0.10796472456E+03  0.29690725560E+03  0.10100000352E+00 0.  1.
</event>
<event>
 5   0  0.6153659E-03  0.7986728E+03  0.7818609E-02  0.9561940E-01
       -2   -1    0    0    0  501  0.00000000000E+00  0.00000000000E+00  0.10522370983E+04  0.10522370983E+04  0.25500000920E-02 0.  1.
        2   -1    0    0  501    0  0.00000000000E+00  0.00000000000E+00 -0.15155285969E+03  0.15155285971E+03  0.25500000920E-02 0. -1.
    10030    2    1    2    0    0  0.00000000000E+00  0.00000000000E+00  0.90068423860E+03  0.12037899580E+04  0.79867275233E+03 0.  0.
        2    1    3    3  502    0  0.16105936663E+03 -0.62191844235E+02  0.99307674501E+03  0.10079728997E+04  0.25500000920E-02 0.  1.
       -2    1    3    3    0  502 -0.16105936663E+03  0.62191844235E+02 -0.92392506410E+02  0.19581705829E+03  0.25500000920E-02 0. -1.
</event>
<event>
 5   0  0.2478000E-03  0.7997990E+03  0.7818609E-02  0.9560308E-01
       -4   -1    0    0    0  501  0.00000000000E+00  0.00000000000E+00  0.30244740190E+03  0.30245006830E+03  0.12699999809E+01 0. -1.
        4   -1    0    0  501    0  0.00000000000E+00  0.00000000000E+00 -0.52874602702E+03  0.52874755223E+03  0.12699999809E+01 0.  1.
    10030    2    1    2    0    0  0.00000000000E+00  0.00000000000E+00 -0.22629862512E+03  0.83119762053E+03  0.79979898515E+03 0.  0.
        1    1    3    3  502    0 -0.13223088433E+03 -0.34838762591E+03 -0.26396948247E+03  0.45666052200E+03  0.50400001928E-02 0.  1.
       -1    1    3    3    0  502  0.13223088433E+03  0.34838762591E+03  0.37670857350E+02  0.37453709853E+03  0.50400001928E-02 0. -1.
</event>
<event>
 5   0  0.5813850E-03  0.7994784E+03  0.7818609E-02  0.9560772E-01
        2   -1    0    0  501    0  0.00000000000E+00  0.00000000000E+00  0.12135300256E+04  0.12135300256E+04  0.25500000920E-02 0.  1.
       -2   -1    0    0    0  501  0.00000000000E+00  0.00000000000E+00 -0.13167487484E+03  0.13167487486E+03  0.25500000920E-02 0. -1.
    10030    2    1    2    0    0  0.00000000000E+00  0.00000000000E+00  0.10818551507E+04  0.13452049004E+04  0.79947836556E+03 0.  0.
        5    1    3    3  502    0 -0.25063950734E+03  0.38709149087E+02  0.21085499977E+02  0.25452946621E+03  0.46999998093E+01 0. -1.
       -5    1    3    3    0  502  0.25063950734E+03 -0.38709149087E+02  0.10607696507E+04  0.10906754342E+04  0.46999998093E+01 0.  1.
</event>
<event>
 5   0  0.3714448E-03  0.8017339E+03  0.7818609E-02  0.9557511E-01
        1   -1    0    0  501    0  0.00000000000E+00  0.00000000000E+00  0.59784792504E+03  0.59784792506E+03  0.50400001928E-02 0.  1.
       -1   -1    0    0    0  501  0.00000000000E+00  0.00000000000E+00 -0.26878791406E+03  0.26878791411E+03  0.50400001928E-02 0. -1.
    10030    2    1    2    0    0  0.00000000000E+00  0.00000000000E+00  0.32906001098E+03  0.86663583917E+03  0.80173386289E+03 0.  0.
        1    1    3    3  502    0 -0.84844212511E+02  0.22760136196E+03  0.50923910749E+03  0.56420332238E+03  0.50400001928E-02 0.  1.
       -1    1    3    3    0  502  0.84844212511E+02 -0.22760136196E+03 -0.18017909651E+03  0.30243251679E+03  0.50400001928E-02 0. -1.
</event>
<event>
 5   0  0.6536209E-03  0.7987454E+03  0.7818609E-02  0.9561835E-01
       -2   -1    0    0    0  501  0.00000000000E+00  0.00000000000E+00  0.25869690735E+03  0.25869690736E+03  0.25500000920E-02 0.  1.
        2   -1    0    0  501    0  0.00000000000E+00  0.00000000000E+00 -0.61654601127E+03  0.61654601128E+03  0.25500000920E-02 0. -1.
    10030    2    1    2    0    0  0.00000000000E+00  0.00000000000E+00 -0.35784910392E+03  0.87524291864E+03  0.79874538211E+03 0.  0.
        3    1    3    3  502    0 -0.86559084347E+02  0.10808615972E+03 -0.58939827610E+03  0.60544647251E+03  0.10100000352E+00 0. -1.
       -3    1    3    3    0  502  0.86559084347E+02 -0.10808615972E+03  0.23154917218E+03  0.26979644613E+03  0.10100000352E+00 0.  1.
</event>
<event>
 5   0  0.5813850E-03  0.7933915E+03  0.7818609E-02  0.9569632E-01
        2   -1    0    0  501    0  0.00000000000E+00  0.00000000000E+00  0.83817975477E+03  0.83817975477E+03  0.25500000920E-02 0. -1.
       -2   -1    0    0    0  501  0.00000000000E+00  0.00000000000E+00 -0.18774914679E+03  0.18774914681E+03  0.25500000920E-02 0.  1.
    10030    2    1    2    0    0  0.00000000000E+00  0.00000000000E+00  0.65043060798E+03  0.10259289016E+04  0.79339153972E+03 0.  0.
        5    1    3    3  502    0 -0.16400082027E+02 -0.27521926164E+03  0.69398678386E+03  0.74676257997E+03  0.46999998093E+01 0. -1.
       -5    1    3    3    0  502  0.16400082027E+02  0.27521926164E+03 -0.43556175882E+02  0.27916632161E+03  0.46999998093E+01 0.  1.
</event>
<event>
 5   0  0.3714448E-03  0.8068329E+03  0.7818609E-02  0.9550179E-01
        1   -1    0    0  501    0  0.00000000000E+00  0.00000000000E+00  0.19078011027E+03  0.19078011033E+03  0.50400001928E-02 0. -1.
       -1   -1    0    0    0  501  0.00000000000E+00  0.00000000000E+00 -0.85304931111E+03  0.85304931113E+03  0.50400001928E-02 0.  1.
    10030    2    1    2    0    0  0.00000000000E+00  0.00000000000E+00 -0.66226920085E+03  0.10438294215E+04  0.80683292367E+03 0.  0.
        1    1    3    3  502    0  0.22300775210E+03  0.32212651362E+03 -0.20672787839E+03  0.44298348051E+03  0.50400001928E-02 0. -1.
       -1    1    3    3    0  502 -0.22300775210E+03 -0.32212651362E+03 -0.45554132245E+03  0.60084594095E+03  0.50400001928E-02 0.  1.
</event>
<event>
 5   0  0.6153659E-03  0.7984915E+03  0.7818609E-02  0.9562203E-01
        2   -1    0    0  501    0  0.00000000000E+00  0.00000000000E+00  0.10720693028E+04  0.10720693028E+04  0.25500000920E-02 0. -1.
       -2   -1    0    0    0  501  0.00000000000E+00  0.00000000000E+00 -0.14868177458E+03  0.14868177460E+03  0.25500000920E-02 0.  1.
    10030    2    1    2    0    0  0.00000000000E+00  0.00000000000E+00  0.92338752819E+03  0.12207510774E+04  0.79849149382E+03 0.  0.
        2    1    3    3  502    0  0.31609454653E+03  0.22122175806E+03  0.30472064537E+03  0.49163960408E+03  0.25500000920E-02 0. -1.
       -2    1    3    3    0  502 -0.31609454653E+03 -0.22122175806E+03  0.61866688282E+03  0.72911147329E+03  0.25500000920E-02 0.  1.
</event>
<event>
 5   0  0.5813850E-03  0.8007402E+03  0.7818609E-02  0.9558946E-01
        2   -1    0    0  501    0  0.00000000000E+00  0.00000000000E+00  0.66525333181E+03  0.66525333181E+03  0.25500000920E-02 0.  1.
       -2   -1    0    0    0  501  0.00000000000E+00  0.00000000000E+00 -0.24095516303E+03  0.24095516305E+03  0.25500000920E-02 0. -1.
    10030    2    1    2    0    0  0.00000000000E+00  0.00000000000E+00  0.42429816878E+03  0.90620849486E+03  0.80074022013E+03 0.  0.
        5    1    3    3  502    0 -0.32986553376E+02  0.36589022113E+03  0.32102154932E+02  0.36880401973E+03  0.46999998093E+01 0.  1.
       -5    1    3    3    0  502  0.32986553376E+02 -0.36589022113E+03  0.39219601384E+03  0.53740447513E+03  0.46999998093E+01 0. -1.
</event>
<event>
 5   0  0.3671128E-03  0.8018953E+03  0.7818609E-02  0.9557278E-01
       -1   -1    0    0    0  501  0.00000000000E+00  0.00000000000E+00  0.15626004326E+03  0.15626004334E+03  0.50400001928E-02 0.  1.
        1   -1    0    0  501    0  0.00000000000E+00  0.00000000000E+00 -0.10287915848E+04  0.10287915848E+04  0.50400001928E-02 0. -1.
    10030    2    1    2    0    0  0.00000000000E+00  0.00000000000E+00 -0.87253154154E+03  0.11850516282E+04  0.80189529890E+03 0.  0.
        2    1    3    3  502    0 -0.31090384459E+03  0.24114753761E+03 -0.55021737586E+03  0.67642626811E+03  0.25500000920E-02 0. -1.
       -2    1    3    3    0  502  0.31090384459E+03 -0.24114753761E+03 -0.32231416568E+03  0.50862536005E+03  0.25500000920E-02 0.  1.
</event>
<event>
 5   0  0.5813850E-03  0.8014652E+03  0.7818609E-02  0.9557899E-01
        2   -1    0    0  501    0  0.00000000000E+00  0.00000000000E+00  0.13859800791E+04  0.13859800791E+04  0.25500000920E-02 0.  1.
       -2   -1    0    0    0  501  0.00000000000E+00  0.00000000000E+00 -0.11586502163E+03  0.11586502166E+03  0.25500000920E-02 0. -1.
    10030    2    1    2    0    0  0.00000000000E+00  0.00000000000E+00  0.12701150574E+04  0.15018451007E+04  0.80146518793E+03 0.  0.
        5    1    3    3  502    0  0.20190943649E+03 -0.88169043869E+02  0.78739185784E+01  0.22051142699E+03  0.46999998093E+01 0. -1.
       -5    1    3    3    0  502 -0.20190943649E+03  0.88169043869E+02  0.12622411389E+04  0.12813336737E+04  0.46999998093E+01 0.  1.
</event>
<event>
 5   0  0.3860515E-03  0.7933165E+03  0.7818609E-02  0.9569742E-01
        1   -1    0    0  501    0  0.00000000000E+00  0.00000000000E+00  0.51307957179E+03  0.51307957181E+03  0.50400001928E-02 0.  1.
       -1   -1    0    0    0  501  0.00000000000E+00  0.00000000000E+00 -0.30665372787E+03  0.30665372791E+03  0.50400001928E-02 0. -1.
    10030    2    1    2    0    0  0.00000000000E+00  0.00000000000E+00  0.20642584391E+03  0.81973329972E+03  0.79331649021E+03 0.  0.
        4    1    3    3  502    0  0.28019892460E+02 -0.19728051881E+03 -0.25118224429E+03  0.32062259781E+03  0.12699999809E+01 0. -1.
       -4    1    3    3    0  502 -0.28019892460E+02  0.19728051881E+03  0.45760808820E+03  0.49911070192E+03  0.12699999809E+01 0.  1.
</event>
<event>
 5   0  0.3753450E-03  0.7985335E+03  0.7818609E-02  0.9562142E-01
       -1   -1    0    0    0  501  0.00000000000E+00  0.00000000000E+00  0.34376556042E+03  0.34376556046E+03  0.50400001928E-02 0. -1.
        1   -1    0    0  501    0  0.00000000000E+00  0.00000000000E+00 -0.46372860206E+03  0.46372860209E+03  0.50400001928E-02 0.  1.
    10030    2    1    2    0    0  0.00000000000E+00  0.00000000000E+00 -0.11996304164E+03  0.80749416255E+03  0.79853346279E+03 0.  0.
        5    1    3    3  502    0  0.15692002274E+02  0.21144743690E+03 -0.40206082489E+03  0.45456710661E+03  0.46999998093E+01 0.  1.
       -5    1    3    3    0  502 -0.15692002274E+02 -0.21144743690E+03  0.28209778324E+03  0.35292705594E+03  0.46999998093E+01 0. -1.
</event>
<event>
 5   0  0.3753450E-03  0.8028426E+03  0.7818609E-02  0.9555912E-01
        1   -1    0    0  501    0  0.00000000000E+00  0.00000000000E+00  0.11982644632E+04  0.11982644632E+04  0.50400001928E-02 0. -1.
       -1   -1    0    0    0  501  0.00000000000E+00  0.00000000000E+00 -0.13447703887E+03  0.13447703897E+03  0.50400001928E-02 0.  1.
    10030    2    1    2    0    0  0.00000000000E+00  0.00000000000E+00  0.10637874243E+04  0.13327415022E+04  0.80284259197E+03 0.  0.
        5    1    3    3  502    0  0.32999032993E+02 -0.23026733458E+03  0.10749158355E+04  0.10998082219E+04  0.46999998093E+01 0. -1.
       -5    1    3    3    0  502 -0.32999032993E+02  0.23026733458E+03 -0.11128411115E+02  0.23293328033E+03  0.46999998093E+01 0.  1.
</event>
<event>
 5   0  0.3753450E-03  0.7972077E+03  0.7818609E-02  0.9564068E-01
        1   -1    0    0  501    0  0.00000000000E+00  0.00000000000E+00  0.16604791948E+04  0.16604791948E+04  0.50400001928E-02 0.  1.
       -1   -1    0    0    0  501  0.00000000000E+00  0.00000000000E+00 -0.95686254915E+02  0.95686255048E+02  0.50400001928E-02 0. -1.
    10030    2    1    2    0    0  0.00000000000E+00  0.00000000000E+00  0.15647929398E+04  0.17561654498E+04  0.79720771605E+03 0.  0.
        5    1    3    3  502    0 -0.78251749371E+02  0.22743511946E+03  0.82260640939E+02  0.25424195738E+03  0.46999998093E+01 0. -1.
       -5    1    3    3    0  502  0.78251749371E+02 -0.22743511946E+03  0.14825322989E+04  0.15019234924E+04  0.46999998093E+01 0.  1.
</event>
<event>
 5   0  0.6536209E-03  0.8019416E+03  0.7818609E-02  0.9557211E-01
       -2   -1    0    0    0  501  0.00000000000E+00  0.00000000000E+00  0.10892723475E+03  0.10892723478E+03  0.25500000920E-02 0. -1.
        2   -1    0    0  501    0  0.00000000000E+00  0.00000000000E+00 -0.14760091601E+04  0.14760091601E+04  0.25500000920E-02 0.  1.
    10030    2    1    2    0    0  0.00000000000E+00  0.00000000000E+00 -0.13670819253E+04  0.15849363949E+04  0.80194163452E+03 0.  0.
        3    1    3    3  502    0 -0.11004102167E+03  0.18426819803E+03 -0.14154550063E+02  0.21509104292E+03  0.10100000352E+00 0. -1.
       -3    1    3    3    0  502  0.11004102167E+03 -0.18426819803E+03 -0.13529273753E+04  0.13698453519E+04  0.10100000352E+00 0.  1.
</event>
<event>
 5   0  0.3627496E-03  0.7985888E+03  0.7818609E-02  0.9562062E-01
       -1   -1    0    0    0  501  0.00000000000E+00  0.00000000000E+00  0.20167056337E+03  0.20167056343E+03  0.50400001928E-02 0. -1.
        1   -1    0    0  501    0  0.00000000000E+00  0.00000000000E+00 -0.79057654667E+03  0.79057654668E+03  0.50400001928E-02 0.  1.
    10030    2    1    2    0    0  0.00000000000E+00  0.00000000000E+00 -0.58890598330E+03  0.99224711012E+03  0.79858879930E+03 0.  0.
        3    1    3    3  502    0 -0.31343556942E+02 -0.49829628972E+02 -0.78515518044E+03  0.78735892582E+03  0.10100000352E+00 0.  1.
       -3    1    3    3    0  502  0.31343556942E+02  0.49829628972E+02  0.19624919714E+03  0.20488818430E+03  0.10100000352E+00 0. -1.
</event>
<event>
 5   0  0.3753450E-03  0.8015583E+03  0.7818609E-02  0.9557764E-01
       -1   -1    0    0    0  501  0.00000000000E+00  0.00000000000E+00  0.86152457146E+02  0.86152457293E+02  0.50400001928E-02 0. -1.
        1   -1    0    0  501    0  0.00000000000E+00  0.00000000000E+00 -0.18644149399E+04  0.18644149399E+04  0.50400001928E-02 0.  1.
    10030    2    1    2    0    0  0.00000000000E+00  0.00000000000E+00 -0.17782624827E+04  0.19505673972E+04  0.80155830321E+03 0.  0.
        5    1    3    3  502    0  0.28508298287E+03  0.20880828006E+03 -0.42915643393E+03  0.55594112973E+03  0.46999998093E+01 0. -1.
       -5    1    3    3    0  502 -0.28508298287E+03 -0.20880828006E+03 -0.13491060488E+04  0.13946262674E+04  0.46999998093E+01 0.  1.
</event>
<event>
 5   0  0.6536209E-03  0.8007934E+03  0.7818609E-02  0.9558869E-01
        2   -1    0    0  501    0  0.00000000000E+00  0.00000000000E+00  0.20318146845E+04  0.20318146845E+04  0.25500000920E-02 0. -1.
       -2   -1    0    0    0  501  0.00000000000E+00  0.00000000000E+00 -0.78903605205E+02  0.78903605246E+02  0.25500000920E-02 0.  1.
    10030    2    1    2    0    0  0.00000000000E+00  0.00000000000E+00  0.19529110793E+04  0.21107182897E+04  0.80079336600E+03 0.  0.
        3    1    3    3  502    0 -0.33187793264E+03 -0.21719625043E+03  0.11208310752E+04  0.11889404874E+04  0.10100000352E+00 0. -1.
       -3    1    3    3    0  502  0.33187793264E+03  0.21719625043E+03  0.83208000408E+03  0.92177780228E+03  0.10100000352E+00 0.  1.
</event>
<event>
 5   0  0.6256781E-03  0.8026805E+03  0.7818609E-02  0.9556145E-01
       -2   -1    0    0    0  501  0.00000000000E+00  0.00000000000E+00  0.14971388751E+03  0.14971388753E+03  0.25500000920E-02 0.  1.
        2   -1    0    0  501    0  0.00000000000E+00  0.00000000000E+00 -0.10758788183E+04  0.10758788183E+04  0.25500000920E-02 0. -1.
    10030    2    1    2    0    0  0.00000000000E+00  0.00000000000E+00 -0.92616493082E+03  0.12255927059E+04  0.80268051029E+03 0.  0.
        1    1    3    3  502    0  0.87834397397E+02  0.38140548266E+03 -0.59869935799E+03  0.71528032606E+03  0.50400001928E-02 0. -1.
       -1    1    3    3    0  502 -0.87834397397E+02 -0.38140548266E+03 -0.32746557283E+03  0.51031237980E+03  0.50400001928E-02 0.  1.
</event>
<event>
 5   0  0.6337108E-03  0.8151601E+03  0.7818609E-02  0.9538329E-01
       -2   -1    0    0    0  501  0.00000000000E+00  0.00000000000E+00  0.10930284326E+03  0.10930284329E+03  0.25500000920E-02 0. -1.
        2   -1    0    0  501    0  0.00000000000E+00  0.00000000000E+00 -0.15198276157E+04  0.15198276157E+04  0.25500000920E-02 0.  1.
    10030    2    1    2    0    0  0.00000000000E+00  0.00000000000E+00 -0.14105247724E+04  0.16291304590E+04  0.81516005712E+03 0.  0.
        4    1    3    3  502    0 -0.34895887637E+03 -0.26741914330E+02 -0.11227251265E+04  0.11760105229E+04  0.12699999809E+01 0.  1.
       -4    1    3    3    0  502  0.34895887637E+03  0.26741914330E+02 -0.28779964593E+03  0.45311993608E+03  0.12699999809E+01 0. -1.
</event>
<event>
 5   0  0.3671128E-03  0.7996991E+03  0.7818609E-02  0.9560453E-01
       -1   -1    0    0    0  501  0.00000000000E+00  0.00000000000E+00  0.38187948178E+03  0.38187948182E+03  0.50400001928E-02 0.  1.
        1   -1    0    0  501    0  0.00000000000E+00  0.00000000000E+00 -0.41866518729E+03  0.41866518732E+03  0.50400001928E-02 0. -1.
    10030    2    1    2    0    0  0.00000000000E+00  0.00000000000E+00 -0.36785705504E+02  0.80054466913E+03  0.79969905536E+03 0.  0.
        2    1    3    3  502    0  0.22430666482E+03 -0.65477896503E+02 -0.34320291181E+03  0.41519763185E+03  0.25500000920E-02 0. -1.
       -2    1    3    3    0  502 -0.22430666482E+03  0.65477896503E+02  0.30641720631E+03  0.38534703728E+03  0.25500000920E-02 0.  1.
</event>
<event>
 5   0  0.5813850E-03  0.7819530E+03  0.7818609E-02  0.9586513E-01
        2   -1    0    0  501    0  0.00000000000E+00  0.00000000000E+00  0.57645431173E+03  0.57645431174E+03  0.25500000920E-02 0.  1.
       -2   -1    0    0    0  501  0.00000000000E+00  0.00000000000E+00 -0.26517735530E+03  0.26517735531E+03  0.25500000920E-02 0. -1.
    10030    2    1    2    0    0  0.00000000000E+00  0.00000000000E+00  0.31127695644E+03  0.84163166705E+03  0.78195301609E+03 0.  0.
        5    1    3    3  502    0 -0.24723272552E+03 -0.15466594720E+03  0.43588493220E+03  0.52446481284E+03  0.46999998093E+01 0.  1.
       -5    1    3    3    0  502  0.24723272552E+03  0.15466594720E+03 -0.12460797576E+03  0.31716685421E+03  0.46999998093E+01 0. -1.
</event>
<event>
 5   0  0.3860515E-03  0.8014379E+03  0.7818609E-02  0.9557938E-01
        1   -1    0    0  501    0  0.00000000000E+00  0.00000000000E+00  0.13748307627E+04  0.13748307627E+04  0.50400001928E-02 0.  1.
       -1   -1    0    0    0  501  0.00000000000E+00  0.00000000000E+00 -0.11679669589E+03  0.11679669600E+03  0.50400001928E-02 0. -1.
    10030    2    1    2    0    0  0.00000000000E+00  0.00000000000E+00  0.12580340668E+04  0.14916274587E+04  0.80143793417E+03 0.  0.
        4    1    3    3  502    0 -0.29671146061E+03  0.25217218733E+03  0.45298382706E+03  0.59734785795E+03  0.12699999809E+01 0. -1.
       -4    1    3    3    0  502  0.29671146061E+03 -0.25217218733E+03  0.80505023976E+03  0.89427960077E+03  0.12699999809E+01 0.  1.
</event>
<event>
 5   0  0.6256781E-03  0.8003292E+03  0.7818609E-02  0.9559541E-01
        2   -1    0    0  501    0  0.00000000000E+00  0.00000000000E+00  0.16425564611E+04  0.16425564611E+04  0.25500000920E-02 0.  1.
       -2   -1    0    0    0  501  0.00000000000E+00  0.00000000000E+00 -0.97489315835E+02  0.97489315869E+02  0.25500000920E-02 0. -1.
    10030    2    1    2    0    0  0.00000000000E+00  0.00000000000E+00  0.15450671453E+04  0.17400457770E+04  0.80032919638E+03 0.  0.
        1    1    3    3  502    0 -0.31189103529E+03  0.17604662710E+03  0.38443932615E+03  0.52541605259E+03  0.50400001928E-02 0. -1.
       -1    1    3    3    0  502  0.31189103529E+03 -0.17604662710E+03  0.11606278191E+04  0.12146297244E+04  0.50400001928E-02 0.  1.
</event>
<event>
 5   0  0.5813850E-03  0.8006071E+03  0.7818609E-02  0.9559139E-01
        2   -1    0    0  501    0  0.00000000000E+00  0.00000000000E+00  0.12272879410E+04  0.12272879410E+04  0.25500000920E-02 0.  1.
       -2   -1    0    0    0  501  0.00000000000E+00  0.00000000000E+00 -0.13056671262E+03  0.13056671265E+03  0.25500000920E-02 0. -1.
    10030    2    1    2    0    0  0.00000000000E+00  0.00000000000E+00  0.10967212284E+04  0.13578546536E+04  0.80060714939E+03 0.  0.
        5    1    3    3  502    0 -0.18354776737E+03 -0.35511789617E+03  0.58321637863E+03  0.70707986634E+03  0.46999998093E+01 0. -1.
       -5    1    3    3    0  502  0.18354776737E+03  0.35511789617E+03  0.51350484974E+03  0.65077478730E+03  0.46999998093E+01 0.  1.
</event>
<event>
 5   0  0.6153659E-03  0.7997318E+03  0.7818609E-02  0.9560405E-01
        2   -1    0    0  501    0  0.00000000000E+00  0.00000000000E+00  0.18132010679E+04  0.18132010679E+04  0.25500000920E-02 0.  1.
       -2   -1    0    0    0  501  0.00000000000E+00  0.00000000000E+00 -0.88182570043E+02  0.88182570080E+02  0.25500000920E-02 0. -1.
    10030    2    1    2    0    0  0.00000000000E+00  0.00000000000E+00  0.17250184979E+04  0.19013836380E+04  0.79973178056E+03 0.  0.
        2    1    3    3  502    0  0.62536746520E+02  0.37571655559E+03  0.57308548113E+03  0.68811390300E+03  0.25500000920E-02 0. -1.
       -2    1    3    3    0  502 -0.62536746520E+02 -0.37571655559E+03  0.11519330167E+04  0.12132697350E+04  0.25500000920E-02 0.  1.
</event>
<event>
 5   0  0.3714448E-03  0.8032326E+03  0.7818609E-02  0.9555350E-01
        1   -1    0    0  501    0  0.00000000000E+00  0.00000000000E+00  0.41925840974E+03  0.41925840978E+03  0.50400001928E-02 0.  1.
       -1   -1    0    0    0  501  0.00000000000E+00  0.00000000000E+00 -0.38471659507E+03  0.38471659511E+03  0.50400001928E-02 0. -1.
    10030    2    1    2    0    0  0.00000000000E+00  0.00000000000E+00  0.34541814671E+02  0.80397500488E+03  0.80323263848E+03 0.  0.
        1    1    3    3  502    0  0.32458528140E+03 -0.18725357922E+03  0.16189029166E+03  0.40820089955E+03  0.50400001928E-02 0.  1.
       -1    1    3    3    0  502 -0.32458528140E+03  0.18725357922E+03 -0.12734847699E+03  0.39577410533E+03  0.50400001928E-02 0. -1.
</event>
<event>
 5   0  0.3860515E-03  0.8054790E+03  0.7818609E-02  0.9552120E-01
        1   -1    0    0  501    0  0.00000000000E+00  0.00000000000E+00  0.69920218528E+03  0.69920218529E+03  0.50400001928E-02 0. -1.
       -1   -1    0    0    0  501  0.00000000000E+00  0.00000000000E+00 -0.23197739354E+03  0.23197739359E+03  0.50400001928E-02 0.  1.
    10030    2    1    2    0    0  0.00000000000E+00  0.00000000000E+00  0.46722479174E+03  0.93117957889E+03  0.80547898925E+03 0.  0.
        4    1    3    3  502    0  0.95623624707E+02  0.39064089187E+03  0.25822592145E+03  0.47793976964E+03  0.12699999809E+01 0. -1.
       -4    1    3    3    0  502 -0.95623624707E+02 -0.39064089187E+03  0.20899887029E+03  0.45323980924E+03  0.12699999809E+01 0.  1.
</event>
<event>
 5   0  0.6153659E-03  0.7983679E+03  0.7818609E-02  0.9562383E-01
        2   -1    0    0  501    0  0.00000000000E+00  0.00000000000E+00  0.10762398526E+04  0.10762398526E+04  0.25500000920E-02 0.  1.
       -2   -1    0    0    0  501  0.00000000000E+00  0.00000000000E+00 -0.14805977093E+03  0.14805977096E+03  0.25500000920E-02 0. -1.
    10030    2    1    2    0    0  0.00000000000E+00  0.00000000000E+00  0.92818008165E+03  0.12242996235E+04  0.79836790031E+03 0.  0.
        2    1    3    3  502    0  0.21959556711E+03  0.31695725650E+03  0.62244760842E+03  0.73220566836E+03  0.25500000920E-02 0.  1.
       -2    1    3    3    0  502 -0.21959556711E+03 -0.31695725650E+03  0.30573247323E+03  0.49209395519E+03  0.25500000920E-02 0. -1.
</event>
<event>
 5   0  0.5813850E-03  0.7979084E+03  0.7818609E-02  0.9563050E-01
       -2   -1    0    0    0  501  0.00000000000E+00  0.00000000000E+00  0.23964824308E+03  0.23964824310E+03  0.25500000920E-02 0.  1.
        2   -1    0    0  501    0  0.00000000000E+00  0.00000000000E+00 -0.66415864245E+03  0.66415864246E+03  0.25500000920E-02 0. -1.
    10030    2    1    2    0    0  0.00000000000E+00  0.00000000000E+00 -0.42451039937E+03  0.90380688555E+03  0.79790839524E+03 0.  0.
        5    1    3    3  502    0  0.28509503838E+03  0.12327693222E+03 -0.49581099319E+03  0.58508718487E+03  0.46999998093E+01 0. -1.
       -5    1    3    3    0  502 -0.28509503838E+03 -0.12327693222E+03  0.71300593818E+02  0.31871970069E+03  0.46999998093E+01 0.  1.
</event>
<event>
 5   0  0.3860515E-03  0.8001772E+03  0.7818609E-02  0.9559761E-01
        1   -1    0    0  501    0  0.00000000000E+00  0.00000000000E+00  0.63780545647E+03  0.63780545649E+03  0.50400001928E-02 0. -1.
       -1   -1    0    0    0  501  0.00000000000E+00  0.00000000000E+00 -0.25097130700E+03  0.25097130705E+03  0.50400001928E-02 0.  1.
    10030    2    1    2    0    0  0.00000000000E+00  0.00000000000E+00  0.38683414947E+03  0.88877676354E+03  0.80017715302E+03 0.  0.
        4    1    3    3  502    0  0.30211892536E+03 -0.10916170183E+03 -0.71478923027E+02  0.32909416820E+03  0.12699999809E+01 0.  1.
       -4    1    3    3    0  502 -0.30211892536E+03  0.10916170183E+03  0.45831307250E+03  0.55968259534E+03  0.12699999809E+01 0. -1.
</event>
<event>
 5   0  0.3671128E-03  0.7961476E+03  0.7818609E-02  0.9565610E-01
        1   -1    0    0  501    0  0.00000000000E+00  0.00000000000E+00  0.46859050181E+03  0.46859050184E+03  0.50400001928E-02 0. -1.
       -1   -1    0    0    0  501  0.00000000000E+00  0.00000000000E+00 -0.33816890217E+03  0.33816890221E+03  0.50400001928E-02 0.  1.
    10030    2    1    2    0    0  0.00000000000E+00  0.00000000000E+00  0.13042159964E+03  0.80675940404E+03  0.79614756318E+03 0.  0.
        2    1    3    3  502    0 -0.15256491782E+03  0.34724208325E+03  0.18769212669E+03  0.42318016607E+03  0.25500000920E-02 0. -1.
       -2    1    3    3    0  502  0.15256491782E+03 -0.34724208325E+03 -0.57270527048E+02  0.38357923797E+03  0.25500000920E-02 0.  1.
</event>
<event>
 5   0  0.2478000E-03  0.8001496E+03  0.7818609E-02  0.9559801E-01
        3   -1    0    0  501    0  0.00000000000E+00  0.00000000000E+00  0.71766654703E+03  0.71766655414E+03  0.10100000352E+00 0. -1.
       -3   -1    0    0    0  501  0.00000000000E+00  0.00000000000E+00 -0.22302814148E+03  0.22302816435E+03  0.10100000352E+00 0.  1.
    10030    2    1    2    0    0  0.00000000000E+00  0.00000000000E+00  0.49463840555E+03  0.94069471848E+03  0.80014961172E+03 0.  0.
        1    1    3    3  502    0 -0.24178106872E+03  0.10634715388E+03  0.60058554254E+03  0.65610273301E+03  0.50400001928E-02 0. -1.
       -1    1    3    3    0  502  0.24178106872E+03 -0.10634715388E+03 -0.10594713699E+03  0.28459198547E+03  0.50400001928E-02 0.  1.
</event>
<event>
 5   0  0.6337108E-03  0.8082744E+03  0.7818609E-02  0.9548117E-01
        2   -1    0    0  501    0  0.00000000000E+00  0.00000000000E+00  0.65861579589E+03  0.65861579590E+03  0.25500000920E-02 0. -1.
       -2   -1    0    0    0  501  0.00000000000E+00  0.00000000000E+00 -0.24798508246E+03  0.24798508247E+03  0.25500000920E-02 0.  1.
    10030    2    1    2    0    0  0.00000000000E+00  0.00000000000E+00  0.41063071344E+03  0.90660087837E+03  0.80827443969E+03 0.  0.
        4    1    3    3  502    0  0.17452658748E+03 -0.24066752337E+03 -0.10174822563E+03  0.31422078363E+03  0.12699999809E+01 0.  1.
       -4    1    3    3    0  502 -0.17452658748E+03  0.24066752337E+03  0.51237893907E+03  0.59238009474E+03  0.12699999809E+01 0. -1.
</event>
<event>
 5   0  0.3753450E-03  0.8010104E+03  0.7818609E-02  0.9558556E-01
       -1   -1    0    0    0  501  0.00000000000E+00  0.00000000000E+00  0.20638686517E+03  0.20638686523E+03  0.50400001928E-02 0.  1.
        1   -1    0    0  501    0  0.00000000000E+00  0.00000000000E+00 -0.77720262050E+03  0.77720262052E+03  0.50400001928E-02 0. -1.
    10030    2    1    2    0    0  0.00000000000E+00  0.00000000000E+00 -0.57081575533E+03  0.98358948575E+03  0.80101039316E+03 0.  0.
        5    1    3    3  502    0  0.28924556408E+03 -0.27672627092E+03 -0.27078063271E+03  0.48330597597E+03  0.46999998093E+01 0. -1.
       -5    1    3    3    0  502 -0.28924556408E+03  0.27672627092E+03 -0.30003512262E+03  0.50028350978E+03  0.46999998093E+01 0.  1.
</event>
<event>
 5   0  0.6337108E-03  0.8020299E+03  0.7818609E-02  0.9557084E-01
        2   -1    0    0  501    0  0.00000000000E+00  0.00000000000E+00  0.61793703982E+03  0.61793703983E+03  0.25500000920E-02 0.  1.
       -2   -1    0    0    0  501  0.00000000000E+00  0.00000000000E+00 -0.26024173043E+03  0.26024173044E+03  0.25500000920E-02 0. -1.
    10030    2    1    2    0    0  0.00000000000E+00  0.00000000000E+00  0.35769530939E+03  0.87817877027E+03  0.80202993597E+03 0.  0.
        4    1    3    3  502    0 -0.22889274248E+03  0.19628114248E+03  0.46832186044E+03  0.55699654606E+03  0.12699999809E+01 0.  1.
       -4    1    3    3    0  502  0.22889274248E+03 -0.19628114248E+03 -0.11062655105E+03  0.32118222421E+03  0.12699999809E+01 0. -1.
</event>
<event>
 5   0  0.6337108E-03  0.7912770E+03  0.7818609E-02  0.9572730E-01
       -2   -1    0    0    0  501  0.00000000000E+00  0.00000000000E+00  0.26972704057E+03  0.26972704058E+03  0.25500000920E-02 0. -1.
        2   -1    0    0  501    0  0.00000000000E+00  0.00000000000E+00 -0.58032680088E+03  0.58032680088E+03  0.25500000920E-02 0.  1.
    10030    2    1    2    0    0  0.00000000000E+00  0.00000000000E+00 -0.31059976031E+03  0.85005384146E+03  0.79127701994E+03 0.  0.
        4    1    3    3  502    0 -0.15588791996E+03 -0.28641485107E+03  0.85381513395E+02  0.33708474637E+03  0.12699999809E+01 0. -1.
       -4    1    3    3    0  502  0.15588791996E+03  0.28641485107E+03 -0.39598127370E+03  0.51296909510E+03  0.12699999809E+01 0.  1.
</event>
<event>
 5   0  0.6536209E-03  0.8077014E+03  0.7818609E-02  0.9548936E-01
        2   -1    0    0  501    0  0.00000000000E+00  0.00000000000E+00  0.91895634882E+03  0.91895634882E+03  0.25500000920E-02 0. -1.
       -2   -1    0    0    0  501  0.00000000000E+00  0.00000000000E+00 -0.17747893446E+03  0.17747893448E+03  0.25500000920E-02 0.  1.
    10030    2    1    2    0    0  0.00000000000E+00  0.00000000000E+00  0.74147741436E+03  0.10964352833E+04  0.80770141418E+03 0.  0.
        3    1    3    3  502    0  0.26419947579E+03 -0.28938354969E+03  0.23807237870E+03  0.45850045751E+03  0.10100000352E+00 0.  1.
       -3    1    3    3    0  502 -0.26419947579E+03  0.28938354969E+03  0.50340503566E+03  0.63793482579E+03  0.10100000352E+00 0. -1.
</event>
<event>
 5   0  0.3671128E-03  0.7984519E+03  0.7818609E-02  0.9562261E-01
       -1   -1    0    0    0  501  0.00000000000E+00  0.00000000000E+00  0.18972165008E+03  0.18972165015E+03  0.50400001928E-02 0.  1.
        1   -1    0    0  501    0  0.00000000000E+00  0.00000000000E+00 -0.84007994306E+03  0.84007994307E+03  0.50400001928E-02 0. -1.
    10030    2    1    2    0    0  0.00000000000E+00  0.00000000000E+00 -0.65035829297E+03  0.10298015932E+04  0.79845188469E+03 0.  0.
        2    1    3    3  502    0 -0.92527514613E+02 -0.23429664281E+03 -0.72463696742E+03  0.76717337829E+03  0.25500000920E-02 0. -1.
       -2    1    3    3    0  502  0.92527514613E+02  0.23429664281E+03  0.74278674449E+02  0.26262821493E+03  0.25500000920E-02 0.  1.
</event>
<event>
 5   0  0.3860515E-03  0.8025261E+03  0.7818609E-02  0.9556368E-01
        1   -1    0    0  501    0  0.00000000000E+00  0.00000000000E+00  0.52641309940E+03  0.52641309943E+03  0.50400001928E-02 0.  1.
       -1   -1    0    0    0  501  0.00000000000E+00  0.00000000000E+00 -0.30586631653E+03  0.30586631657E+03  0.50400001928E-02 0. -1.
    10030    2    1    2    0    0  0.00000000000E+00  0.00000000000E+00  0.22054678288E+03  0.83227941600E+03  0.80252610104E+03 0.  0.
        4    1    3    3  502    0  0.19772990328E+03  0.33684609122E+03  0.20559413650E+03  0.44139887368E+03  0.12699999809E+01 0.  1.
       -4    1    3    3    0  502 -0.19772990328E+03 -0.33684609122E+03  0.14952646371E+02  0.39088054231E+03  0.12699999809E+01 0. -1.
</event>
<event>
 5   0  0.3753450E-03  0.7995017E+03  0.7818609E-02  0.9560739E-01
        1   -1    0    0  501    0  0.00000000000E+00  0.00000000000E+00  0.95888403780E+03  0.95888403782E+03  0.50400001928E-02 0.  1.
       -1   -1    0    0    0  501  0.00000000000E+00  0.00000000000E+00 -0.16665284601E+03  0.16665284608E+03  0.50400001928E-02 0. -1.
    10030    2    1    2    0    0  0.00000000000E+00  0.00000000000E+00  0.79223119180E+03  0.11255368839E+04  0.79950172968E+03 0.  0.
        5    1    3    3  502    0 -0.24130405702E+03  0.27046358734E+03  0.15886733315E+03  0.39577660309E+03  0.46999998093E+01 0. -1.
       -5    1    3    3    0  502  0.24130405702E+03 -0.27046358734E+03  0.63336385865E+03  0.72976028081E+03  0.46999998093E+01 0.  1.
</event>
<event>
 5   0  0.6256781E-03  0.7893483E+03  0.7818609E-02  0.9575564E-01
        2   -1    0    0  501    0  0.00000000000E+00  0.00000000000E+00  0.12887137992E+04  0.12887137992E+04  0.25500000920E-02 0. -1.
       -2   -1    0    0    0  501  0.00000000000E+00  0.00000000000E+00 -0.12087065221E+03  0.12087065224E+03  0.25500000920E-02 0.  1.
    10030    2    1    2    0    0  0.00000000000E+00  0.00000000000E+00  0.11678431470E+04  0.14095844515E+04  0.78934828168E+03 0.  0.
        1    1    3    3  502    0 -0.30068979341E+03  0.25402903793E+03  0.63513805940E+03  0.74722517255E+03  0.50400001928E-02 0. -1.
       -1    1    3    3    0  502  0.30068979341E+03 -0.25402903793E+03  0.53270508762E+03  0.66235927892E+03  0.50400001928E-02 0.  1.
</event>
<event>
 5   0  0.5813850E-03  0.8008338E+03  0.7818609E-02  0.9558811E-01
       -2   -1    0    0    0  501  0.00000000000E+00  0.00000000000E+00  0.27817208261E+03  0.27817208262E+03  0.25500000920E-02 0.  1.
        2   -1    0    0  501    0  0.00000000000E+00  0.00000000000E+00 -0.57638317056E+03  0.57638317057E+03  0.25500000920E-02 0. -1.
    10030    2    1    2    0    0  0.00000000000E+00  0.00000000000E+00 -0.29821108795E+03  0.85455525318E+03  0.80083383281E+03 0.  0.
        5    1    3    3  502    0  0.25583212782E+03 -0.28804716949E+03 -0.32747778100E+02  0.38667267352E+03  0.46999998093E+01 0.  1.
       -5    1    3    3    0  502 -0.25583212782E+03  0.28804716949E+03 -0.26546330985E+03  0.46788257967E+03  0.46999998093E+01 0. -1.
</event>
<event>
 5   0  0.6337108E-03  0.7998721E+03  0.7818609E-02  0.9560202E-01
       -2   -1    0    0    0  501  0.00000000000E+00  0.00000000000E+00  0.24667527342E+03  0.24667527343E+03  0.25500000920E-02 0. -1.
        2   -1    0    0  501    0  0.00000000000E+00  0.00000000000E+00 -0.64841867479E+03  0.64841867480E+03  0.25500000920E-02 0.  1.
    10030    2    1    2    0    0  0.00000000000E+00  0.00000000000E+00 -0.40174340137E+03  0.89509394823E+03  0.79987212454E+03 0.  0.
        4    1    3    3  502    0  0.21022663584E+03 -0.51602397626E+02 -0.57719284055E+03  0.61645051216E+03  0.12699999809E+01 0.  1.
       -4    1    3    3    0  502 -0.21022663584E+03  0.51602397626E+02  0.17544943918E+03  0.27864343607E+03  0.12699999809E+01 0. -1.
</event>
<event>
 5   0  0.3753450E-03  0.7875911E+03  0.7818609E-02  0.9578154E-01
       -1   -1    0    0    0  501  0.00000000000E+00  0.00000000000E+00  0.42621482771E+03  0.42621482774E+03  0.50400001928E-02 0. -1.
        1   -1    0    0  501    0  0.00000000000E+00  0.00000000000E+00 -0.36384220865E+03  0.36384220869E+03  0.50400001928E-02 0.  1.
    10030    2    1    2    0    0  0.00000000000E+00  0.00000000000E+00  0.62372619055E+02  0.79005703643E+03  0.78759112311E+03 0.  0.
        5    1    3    3  502    0  0.19420609825E+03 -0.92160068406E+02  0.36213343840E+03  0.42115579542E+03  0.46999998093E+01 0. -1.
       -5    1    3    3    0  502 -0.19420609825E+03  0.92160068406E+02 -0.29976081934E+03  0.36890124101E+03  0.46999998093E+01 0.  1.
</event>
<event>
 5   0  0.3714448E-03  0.8001107E+03  0.7818609E-02  0.9559857E-01
       -1   -1    0    0    0  501  0.00000000000E+00  0.00000000000E+00  0.23132968542E+03  0.23132968548E+03  0.50400001928E-02 0.  1.
        1   -1    0    0  501    0  0.00000000000E+00  0.00000000000E+00 -0.69184500582E+03  0.69184500584E+03  0.50400001928E-02 0. -1.
    10030    2    1    2    0    0  0.00000000000E+00  0.00000000000E+00 -0.46051532040E+03  0.92317469132E+03  0.80011071132E+03 0.  0.
        1    1    3    3  502    0  0.21029252995E+03 -0.27532083014E+03 -0.46107644662E+03  0.57672870339E+03  0.50400001928E-02 0. -1.
       -1    1    3    3    0  502 -0.21029252995E+03  0.27532083014E+03  0.56112621951E+00  0.34644598793E+03  0.50400001928E-02 0.  1.
</event>
<event>
 5   0  0.2478000E-03  0.7992261E+03  0.7818609E-02  0.9561138E-01
       -4   -1    0    0    0  501  0.00000000000E+00  0.00000000000E+00  0.20469879065E+03  0.20470273030E+03  0.12699999809E+01 0. -1.
        4   -1    0    0  501    0  0.00000000000E+00  0.00000000000E+00 -0.78011280477E+03  0.78011383853E+03  0.12699999809E+01 0.  1.
    10030    2    1    2    0    0  0.00000000000E+00  0.00000000000E+00 -0.57541401412E+03  0.98481656883E+03  0.79922611731E+03 0.  0.
        1    1    3    3  502    0 -0.27203189688E+02 -0.29791639413E+03  0.38762869750E+02  0.30165667823E+03  0.50400001928E-02 0. -1.
       -1    1    3    3    0  502  0.27203189688E+02  0.29791639413E+03 -0.61417688387E+03  0.68315989061E+03  0.50400001928E-02 0.  1.
</event>
<event>
 5   0  0.3671128E-03  0.7995360E+03  0.7818609E-02  0.9560689E-01
       -1   -1    0    0    0  501  0.00000000000E+00  0.00000000000E+00  0.12158007863E+03  0.12158007874E+03  0.50400001928E-02 0.  1.
        1   -1    0    0  501    0  0.00000000000E+00  0.00000000000E+00 -0.13144790593E+04  0.13144790593E+04  0.50400001928E-02 0. -1.
    10030    2    1    2    0    0  0.00000000000E+00  0.00000000000E+00 -0.11928989806E+04  0.14360591380E+04  0.79953603414E+03 0.  0.
        2    1    3    3  502    0  0.20019517777E+03 -0.33561718033E+03 -0.44513310444E+03  0.59233477156E+03  0.25500000920E-02 0.  1.
       -2    1    3    3    0  502 -0.20019517777E+03  0.33561718033E+03 -0.74776587619E+03  0.84372436644E+03  0.25500000920E-02 0. -1.
</event>
<event>
 5   0  0.3627496E-03  0.7873583E+03  0.7818609E-02  0.9578498E-01
        1   -1    0    0  501    0  0.00000000000E+00  0.00000000000E+00  0.15970631788E+03  0.15970631796E+03  0.50400001928E-02 0.  1.
       -1   -1    0    0    0  501  0.00000000000E+00  0.00000000000E+00 -0.97042664183E+03  0.97042664184E+03  0.50400001928E-02 0. -1.
    10030    2    1    2    0    0  0.00000000000E+00  0.00000000000E+00 -0.81072032394E+03  0.11301329598E+04  0.78735828133E+03 0.  0.
        3    1    3    3  502    0 -0.10771991207E+03 -0.27679147316E+03 -0.34478526374E+02  0.29900815716E+03  0.10100000352E+00 0.  1.
       -3    1    3    3    0  502  0.10771991207E+03  0.27679147316E+03 -0.77624179757E+03  0.83112480264E+03  0.10100000352E+00 0. -1.
</event>
<event>
 5   0  0.6256781E-03  0.8008940E+03  0.7818609E-02  0.9558724E-01
       -2   -1    0    0    0  501  0.00000000000E+00  0.00000000000E+00  0.12172597574E+03  0.12172597577E+03  0.25500000920E-02 0.  1.
        2   -1    0    0  501    0  0.00000000000E+00  0.00000000000E+00 -0.13173670616E+04  0.13173670616E+04  0.25500000920E-02 0. -1.
    10030    2    1    2    0    0  0.00000000000E+00  0.00000000000E+00 -0.11956410859E+04  0.14390930374E+04  0.80089397803E+03 0.  0.
        1    1    3    3  502    0  0.10895801347E+03 -0.19829837821E+03 -0.41398049519E+01  0.22629899141E+03  0.50400001928E-02 0.  1.
       -1    1    3    3    0  502 -0.10895801347E+03  0.19829837821E+03 -0.11915012809E+04  0.12127940460E+04  0.50400001928E-02 0. -1.
</event>
<event>
 5   0  0.3671128E-03  0.7960465E+03  0.7818609E-02  0.9565757E-01
        1   -1    0    0  501    0  0.00000000000E+00  0.00000000000E+00  0.77511282171E+03  0.77511282173E+03  0.50400001928E-02 0.  1.
       -1   -1    0    0    0  501  0.00000000000E+00  0.00000000000E+00 -0.20438637947E+03  0.20438637953E+03  0.50400001928E-02 0. -1.
    10030    2    1    2    0    0  0.00000000000E+00  0.00000000000E+00  0.57072644224E+03  0.97949920126E+03  0.79604648947E+03 0.  0.
        2    1    3    3  502    0  0.16609034773E+03  0.14553244621E+03 -0.12209534481E+03  0.25233503471E+03  0.25500000920E-02 0. -1.
       -2    1    3    3    0  502 -0.16609034773E+03 -0.14553244621E+03  0.69282178704E+03  0.72716416655E+03  0.25500000920E-02 0.  1.
</event>
<event>
 5   0  0.3860515E-03  0.7993684E+03  0.7818609E-02  0.9560932E-01
        1   -1    0    0  501    0  0.00000000000E+00  0.00000000000E+00  0.93194644764E+03  0.93194644766E+03  0.50400001928E-02 0. -1.
       -1   -1    0    0    0  501  0.00000000000E+00  0.00000000000E+00 -0.17141271842E+03  0.17141271849E+03  0.50400001928E-02 0.  1.
    10030    2    1    2    0    0  0.00000000000E+00  0.00000000000E+00  0.76053372923E+03  0.11033591661E+04  0.79936843585E+03 0.  0.
        4    1    3    3  502    0  0.18231324470E+03 -0.31952402656E+03  0.16460526431E+03  0.40302633745E+03  0.12699999809E+01 0.  1.
       -4    1    3    3    0  502 -0.18231324470E+03  0.31952402656E+03  0.59592846492E+03  0.70033282869E+03  0.12699999809E+01 0. -1.
</event>
<event>
 5   0  0.6337108E-03  0.8004286E+03  0.7818609E-02  0.9559397E-01
        2   -1    0    0  501    0  0.00000000000E+00  0.00000000000E+00  0.16143222383E+03  0.16143222385E+03  0.25500000920E-02 0. -1.
       -2   -1    0    0    0  501  0.00000000000E+00  0.00000000000E+00 -0.99219036072E+03  0.99219036072E+03  0.25500000920E-02 0.  1.
    10030    2    1    2    0    0  0.00000000000E+00  0.00000000000E+00 -0.83075813688E+03  0.11536225846E+04  0.80042862620E+03 0.  0.
        4    1    3    3  502    0 -0.21695445674E+03  0.32203384737E+03 -0.27568240779E+03  0.47621154755E+03  0.12699999809E+01 0.  1.
       -4    1    3    3    0  502  0.21695445674E+03 -0.32203384737E+03 -0.55507572909E+03  0.67741103702E+03  0.12699999809E+01 0. -1.
</event>
<event>
 5   0  0.3753450E-03  0.8005261E+03  0.7818609E-02  0.9559256E-01
       -1   -1    0    0    0  501  0.00000000000E+00  0.00000000000E+00  0.24436702211E+03  0.24436702216E+03  0.50400001928E-02 0.  1.
        1   -1    0    0  501    0  0.00000000000E+00  0.00000000000E+00 -0.65561432923E+03  0.65561432925E+03  0.50400001928E-02 0. -1.
    10030    2    1    2    0    0  0.00000000000E+00  0.00000000000E+00 -0.41124730713E+03  0.89998135141E+03  0.80052613029E+03 0.  0.
        5    1    3    3  502    0 -0.53384130731E+02 -0.34145603620E+03  0.21311777596E+02  0.34629232150E+03  0.46999998093E+01 0. -1.
       -5    1    3    3    0  502  0.53384130731E+02  0.34145603620E+03 -0.43255908472E+03  0.55368902991E+03  0.46999998093E+01 0.  1.
</event>
<event>
 5   0  0.3753450E-03  0.8045377E+03  0.7818609E-02  0.9553472E-01
       -1   -1    0    0    0  501  0.00000000000E+00  0.00000000000E+00  0.13929341855E+03  0.13929341864E+03  0.50400001928E-02 0.  1.
        1   -1    0    0  501    0  0.00000000000E+00  0.00000000000E+00 -0.11617220378E+04  0.11617220378E+04  0.50400001928E-02 0. -1.
    10030    2    1    2    0    0  0.00000000000E+00  0.00000000000E+00 -0.10224286193E+04  0.13010154565E+04  0.80453771602E+03 0.  0.
        5    1    3    3  502    0  0.28039614354E+03  0.14853517498E+03 -0.11144960853E+03  0.33634476473E+03  0.46999998093E+01 0.  1.
       -5    1    3    3    0  502 -0.28039614354E+03 -0.14853517498E+03 -0.91097901075E+03  0.96467069177E+03  0.46999998093E+01 0. -1.
</event>
<event>
 5   0  0.2478000E-03  0.7959440E+03  0.7818609E-02  0.9565907E-01
        3   -1    0    0  501    0  0.00000000000E+00  0.00000000000E+00  0.11704821356E+03  0.11704825714E+03  0.10100000352E+00 0. -1.
       -3   -1    0    0    0  501  0.00000000000E+00  0.00000000000E+00 -0.13531320068E+04  0.13531320105E+04  0.10100000352E+00 0.  1.
    10030    2    1    2    0    0  0.00000000000E+00  0.00000000000E+00 -0.12360837932E+04  0.14701802677E+04  0.79594401539E+03 0.  0.
        3    1    3    3  502    0 -0.24944462529E+03  0.22372967148E+03 -0.22143711638E+03  0.40163664387E+03  0.10100000352E+00 0. -1.
       -3    1    3    3    0  502  0.24944462529E+03 -0.22372967148E+03 -0.10146466768E+04  0.10685436238E+04  0.10100000352E+00 0.  1.
</event>
<event>
 5   0  0.3671128E-03  0.7949976E+03  0.7818609E-02  0.9567286E-01
       -1   -1    0    0    0  501  0.00000000000E+00  0.00000000000E+00  0.30843647724E+03  0.30843647728E+03  0.50400001928E-02 0.  1.
        1   -1    0    0  501    0  0.00000000000E+00  0.00000000000E+00 -0.51227827530E+03  0.51227827532E+03  0.50400001928E-02 0. -1.
    10030    2    1    2    0    0  0.00000000000E+00  0.00000000000E+00 -0.20384179806E+03  0.82071475260E+03  0.79499762673E+03 0.  0.
        2    1    3    3  502    0  0.70481927250E+02  0.99072715470E+01 -0.50564638935E+03  0.51063110674E+03  0.25500000920E-02 0. -1.
       -2    1    3    3    0  502 -0.70481927250E+02 -0.99072715470E+01  0.30180459129E+03  0.31008364586E+03  0.25500000920E-02 0.  1.
</event>
<event>
 5   0  0.6256781E-03  0.8025339E+03  0.7818609E-02  0.9556357E-01
        2   -1    0    0  501    0  0.00000000000E+00  0.00000000000E+00  0.20190901643E+04  0.20190901643E+04  0.25500000920E-02 0.  1.
       -2   -1    0    0    0  501  0.00000000000E+00  0.00000000000E+00 -0.79746404537E+02  0.79746404578E+02  0.25500000920E-02 0. -1.
    10030    2    1    2    0    0  0.00000000000E+00  0.00000000000E+00  0.19393437597E+04  0.20988365689E+04  0.80253393968E+03 0.  0.
        1    1    3    3  502    0 -0.55733679165E+02  0.11352753332E+03  0.19656041843E+04  0.19696686404E+04  0.50400001928E-02 0.  1.
       -1    1    3    3    0  502  0.55733679165E+02 -0.11352753332E+03 -0.26260424526E+02  0.12916792844E+03  0.50400001928E-02 0. -1.
</event>
<event>
 5   0  0.3671128E-03  0.8001980E+03  0.7818609E-02  0.9559731E-01
        1   -1    0    0  501    0  0.00000000000E+00  0.00000000000E+00  0.28450326390E+03  0.28450326394E+03  0.50400001928E-02 0.  1.
       -1   -1    0    0    0  501  0.00000000000E+00  0.00000000000E+00 -0.56266209455E+03  0.56266209457E+03  0.50400001928E-02 0. -1.
    10030    2    1    2    0    0  0.00000000000E+00  0.00000000000E+00 -0.27815883065E+03  0.84716535851E+03  0.80019798150E+03 0.  0.
        2    1    3    3  502    0 -0.75374672646E+02  0.22665068738E+03 -0.47889786438E+03  0.53515889218E+03  0.25500000920E-02 0. -1.
       -2    1    3    3    0  502  0.75374672646E+02 -0.22665068738E+03  0.20073903373E+03  0.31200646633E+03  0.25500000920E-02 0.  1.
</event>
<event>
 5   0  0.6256781E-03  0.8001282E+03  0.7818609E-02  0.9559832E-01
       -2   -1    0    0    0  501  0.00000000000E+00  0.00000000000E+00  0.16593960484E+03  0.16593960485E+03  0.25500000920E-02 0.  1.
        2   -1    0    0  501    0  0.00000000000E+00  0.00000000000E+00 -0.96451529510E+03  0.96451529511E+03  0.25500000920E-02 0. -1.
    10030    2    1    2    0    0  0.00000000000E+00  0.00000000000E+00 -0.79857569027E+03  0.11304549000E+04  0.80012820708E+03 0.  0.
        1    1    3    3  502    0 -0.25188124195E+03  0.12172976692E+03 -0.80334340228E+03  0.85066028367E+03  0.50400001928E-02 0. -1.
       -1    1    3    3    0  502  0.25188124195E+03 -0.12172976692E+03  0.47677120098E+01  0.27979461629E+03  0.50400001928E-02 0.  1.
</event>
<event>
 5   0  0.6536209E-03  0.7983830E+03  0.7818609E-02  0.9562361E-01
        2   -1    0    0  501    0  0.00000000000E+00  0.00000000000E+00  0.67952683877E+03  0.67952683878E+03  0.25500000920E-02 0.  1.
       -2   -1    0    0    0  501  0.00000000000E+00  0.00000000000E+00 -0.23450705756E+03  0.23450705758E+03  0.25500000920E-02 0. -1.
    10030    2    1    2    0    0  0.00000000000E+00  0.00000000000E+00  0.44501978121E+03  0.91403389635E+03  0.79838296451E+03 0.  0.
        3    1    3    3  502    0  0.40356810738E+02  0.30593816615E+01  0.67717186950E+03  0.67838026433E+03  0.10100000352E+00 0.  1.
       -3    1    3    3    0  502 -0.40356810738E+02 -0.30593816615E+01 -0.23215208829E+03  0.23565363203E+03  0.10100000352E+00 0. -1.
</event>
<event>
 5   0  0.6536209E-03  0.7978404E+03  0.7818609E-02  0.9563148E-01
        2   -1    0    0  501    0  0.00000000000E+00  0.00000000000E+00  0.61407464948E+03  0.61407464949E+03  0.25500000920E-02 0.  1.
       -2   -1    0    0    0  501  0.00000000000E+00  0.00000000000E+00 -0.25914980914E+03  0.25914980915E+03  0.25500000920E-02 0. -1.
    10030    2    1    2    0    0  0.00000000000E+00  0.00000000000E+00  0.35492484034E+03  0.87322445864E+03  0.79784040564E+03 0.  0.
        3    1    3    3  502    0  0.76668864610E+02  0.36854762711E+03  0.32957843515E+02  0.37787788755E+03  0.10100000352E+00 0.  1.
       -3    1    3    3    0  502 -0.76668864610E+02 -0.36854762711E+03  0.32196699683E+03  0.49534657109E+03  0.10100000352E+00 0. -1.
</event>
<event>
 5   0  0.3714448E-03  0.7944835E+03  0.7818609E-02  0.9568036E-01
       -1   -1    0    0    0  501  0.00000000000E+00  0.00000000000E+00  0.39005243518E+03  0.39005243521E+03  0.50400001928E-02 0.  1.
        1   -1    0    0  501    0  0.00000000000E+00  0.00000000000E+00 -0.40456361818E+03  0.40456361821E+03  0.50400001928E-02 0. -1.
    10030    2    1    2    0    0  0.00000000000E+00  0.00000000000E+00 -0.14511183003E+02  0.79461605342E+03  0.79448354163E+03 0.  0.
        1    1    3    3  502    0 -0.89520355797E+02 -0.29993315050E+03  0.23738127081E+03  0.39284049769E+03  0.50400001928E-02 0.  1.
       -1    1    3    3    0  502  0.89520355797E+02  0.29993315050E+03 -0.25189245381E+03  0.40177555573E+03  0.50400001928E-02 0. -1.
</event>
<event>
 5   0  0.3627496E-03  0.8099501E+03  0.7818609E-02  0.9545725E-01
        1   -1    0    0  501    0  0.00000000000E+00  0.00000000000E+00  0.19564680733E+04  0.19564680733E+04  0.50400001928E-02 0.  1.
       -1   -1    0    0    0  501  0.00000000000E+00  0.00000000000E+00 -0.83826971554E+02  0.83826971706E+02  0.50400001928E-02 0. -1.
    10030    2    1    2    0    0  0.00000000000E+00  0.00000000000E+00  0.18726411017E+04  0.20402950450E+04  0.80995010633E+03 0.  0.
        3    1    3    3  502    0 -0.26491625533E+03  0.54320526845E+02  0.17695097008E+03  0.32317641929E+03  0.10100000352E+00 0. -1.
       -3    1    3    3    0  502  0.26491625533E+03 -0.54320526845E+02  0.16956901316E+04  0.17171186257E+04  0.10100000352E+00 0.  1.
</event>
<event>
 5   0  0.6536209E-03  0.7989425E+03  0.7818609E-02  0.9561549E-01
        2   -1    0    0  501    0  0.00000000000E+00  0.00000000000E+00  0.10989036971E+04  0.10989036971E+04  0.25500000920E-02 0.  1.
       -2   -1    0    0    0  501  0.00000000000E+00  0.00000000000E+00 -0.14521497537E+03  0.14521497540E+03  0.25500000920E-02 0. -1.
    10030    2    1    2    0    0  0.00000000000E+00  0.00000000000E+00  0.95368872171E+03  0.12441186725E+04  0.79894248436E+03 0.  0.
        3    1    3    3  502    0  0.23708043212E+03 -0.27879860526E+03  0.22748955187E+03  0.43091449268E+03  0.10100000352E+00 0. -1.
       -3    1    3    3    0  502 -0.23708043212E+03  0.27879860526E+03  0.72619916984E+03  0.81320417981E+03  0.10100000352E+00 0.  1.
</event>
<event>
 5   0  0.3627496E-03  0.7924098E+03  0.7818609E-02  0.9571069E-01
       -1   -1    0    0    0  501  0.00000000000E+00  0.00000000000E+00  0.23253007110E+03  0.23253007116E+03  0.50400001928E-02 0. -1.
        1   -1    0    0  501    0  0.00000000000E+00  0.00000000000E+00 -0.67508833296E+03  0.67508833298E+03  0.50400001928E-02 0.  1.
    10030    2    1    2    0    0  0.00000000000E+00  0.00000000000E+00 -0.44255826186E+03  0.90761840413E+03  0.79240983865E+03 0.  0.
        3    1    3    3  502    0  0.12061633556E+02  0.18939521084E+02  0.23180069019E+03  0.23288572012E+03  0.10100000352E+00 0. -1.
       -3    1    3    3    0  502 -0.12061633556E+02 -0.18939521084E+02 -0.67435895205E+03  0.67473268401E+03  0.10100000352E+00 0.  1.
</event>
<event>
 5   0  0.6153659E-03  0.8053700E+03  0.7818609E-02  0.9552277E-01
        2   -1    0    0  501    0  0.00000000000E+00  0.00000000000E+00  0.12546297967E+04  0.12546297967E+04  0.25500000920E-02 0. -1.
       -2   -1    0    0    0  501  0.00000000000E+00  0.00000000000E+00 -0.12924547311E+03  0.12924547314E+03  0.25500000920E-02 0.  1.
    10030    2    1    2    0    0  0.00000000000E+00  0.00000000000E+00  0.11253843236E+04  0.13838752699E+04  0.80537003093E+03 0.  0.
        2    1    3    3  502    0 -0.33902810209E+03 -0.14506441723E+03  0.28471082061E+03  0.46587980267E+03  0.25500000920E-02 0. -1.
       -2    1    3    3    0  502  0.33902810209E+03  0.14506441723E+03  0.84067350301E+03  0.91799546721E+03  0.25500000920E-02 0.  1.
</event>
<event>
 5   0  0.3714448E-03  0.8250475E+03  0.7818609E-02  0.9524453E-01
        1   -1    0    0  501    0  0.00000000000E+00  0.00000000000E+00  0.47926281054E+03  0.47926281056E+03  0.50400001928E-02 0. -1.
       -1   -1    0    0    0  501  0.00000000000E+00  0.00000000000E+00 -0.35507830574E+03  0.35507830577E+03  0.50400001928E-02 0.  1.
    10030    2    1    2    0    0  0.00000000000E+00  0.00000000000E+00  0.12418450480E+03  0.83434111634E+03  0.82504745753E+03 0.  0.
        1    1    3    3  502    0 -0.69142168301E+02 -0.15304292649E+03  0.44312971107E+03  0.47388470924E+03  0.50400001928E-02 0. -1.
       -1    1    3    3    0  502  0.69142168301E+02  0.15304292649E+03 -0.31894520628E+03  0.36045640710E+03  0.50400001928E-02 0.  1.
</event>
<event>
 5   0  0.3714448E-03  0.8008023E+03  0.7818609E-02  0.9558857E-01
       -1   -1    0    0    0  501  0.00000000000E+00  0.00000000000E+00  0.25641205010E+03  0.25641205015E+03  0.50400001928E-02 0.  1.
        1   -1    0    0  501    0  0.00000000000E+00  0.00000000000E+00 -0.62524786072E+03  0.62524786074E+03  0.50400001928E-02 0. -1.
    10030    2    1    2    0    0  0.00000000000E+00  0.00000000000E+00 -0.36883581061E+03  0.88165991089E+03  0.80080231224E+03 0.  0.
        1    1    3    3  502    0  0.22945083813E+03 -0.25434039296E+03  0.43842731183E+02  0.34533883030E+03  0.50400001928E-02 0.  1.
       -1    1    3    3    0  502 -0.22945083813E+03  0.25434039296E+03 -0.41267854180E+03  0.53632108060E+03  0.50400001928E-02 0. -1.
</event>
<event>
 5   0  0.3671128E-03  0.7849303E+03  0.7818609E-02  0.9582090E-01
        1   -1    0    0  501    0  0.00000000000E+00  0.00000000000E+00  0.21170890325E+03  0.21170890331E+03  0.50400001928E-02 0. -1.
       -1   -1    0    0    0  501  0.00000000000E+00  0.00000000000E+00 -0.72755042821E+03  0.72755042823E+03  0.50400001928E-02 0.  1.
    10030    2    1    2    0    0  0.00000000000E+00  0.00000000000E+00 -0.51584152496E+03  0.93925933154E+03  0.78493032366E+03 0.  0.
        2    1    3    3  502    0  0.29722284934E+03 -0.14023513104E+03 -0.51462628781E+03  0.61061242229E+03  0.25500000920E-02 0.  1.
       -2    1    3    3    0  502 -0.29722284934E+03  0.14023513104E+03 -0.12152371569E+01  0.32864690924E+03  0.25500000920E-02 0. -1.
</event>
<event>
 5   0  0.6337108E-03  0.7972564E+03  0.7818609E-02  0.9563997E-01
       -2   -1    0    0    0  501  0.00000000000E+00  0.00000000000E+00  0.12069093774E+03  0.12069093777E+03  0.25500000920E-02 0.  1.
        2   -1    0    0  501    0  0.00000000000E+00  0.00000000000E+00 -0.13166227801E+04  0.13166227801E+04  0.25500000920E-02 0. -1.
    10030    2    1    2    0    0  0.00000000000E+00  0.00000000000E+00 -0.11959318423E+04  0.14373137178E+04  0.79725639038E+03 0.  0.
        4    1    3    3  502    0 -0.75538700098E+02 -0.35255050837E+03 -0.29145986233E+03  0.46362530174E+03  0.12699999809E+01 0. -1.
       -4    1    3    3    0  502  0.75538700098E+02  0.35255050837E+03 -0.90447197998E+03  0.97368841609E+03  0.12699999809E+01 0.  1.
</event>
<event>
 5   0  0.3627496E-03  0.7993370E+03  0.7818609E-02  0.9560977E-01
       -1   -1    0    0    0  501  0.00000000000E+00  0.00000000000E+00  0.16701790021E+03  0.16701790028E+03  0.50400001928E-02 0.  1.
        1   -1    0    0  501    0  0.00000000000E+00  0.00000000000E+00 -0.95639401984E+03  0.95639401985E+03  0.50400001928E-02 0. -1.
    10030    2    1    2    0    0  0.00000000000E+00  0.00000000000E+00 -0.78937611963E+03  0.11234119201E+04  0.79933702783E+03 0.  0.
        3    1    3    3  502    0  0.89204386254E+02  0.30448863264E+03 -0.73625129276E+03  0.80170862926E+03  0.10100000352E+00 0. -1.
       -3    1    3    3    0  502 -0.89204386254E+02 -0.30448863264E+03 -0.53124826872E+02  0.32170329088E+03  0.10100000352E+00 0.  1.
</event>
<event>
 5   0  0.3753450E-03  0.7996826E+03  0.7818609E-02  0.9560477E-01
        1   -1    0    0  501    0  0.00000000000E+00  0.00000000000E+00  0.14241214773E+03  0.14241214782E+03  0.50400001928E-02 0.  1.
       -1   -1    0    0    0  501  0.00000000000E+00  0.00000000000E+00 -0.11226082354E+04  0.11226082354E+04  0.50400001928E-02 0. -1.
    10030    2    1    2    0    0  0.00000000000E+00  0.00000000000E+00 -0.98019608762E+03  0.12650203832E+04  0.79968256183E+03 0.  0.
        5    1    3    3  502    0  0.32725700804E+02 -0.33117080573E+03 -0.13955070652E+03  0.36088996072E+03  0.46999998093E+01 0.  1.
       -5    1    3    3    0  502 -0.32725700804E+02  0.33117080573E+03 -0.84064538110E+03  0.90413042247E+03  0.46999998093E+01 0. -1.
</event>
<event>
 5   0  0.3671128E-03  0.7989727E+03  0.7818609E-02  0.9561505E-01
       -1   -1    0    0    0  501  0.00000000000E+00  0.00000000000E+00  0.92021349476E+02  0.92021349614E+02  0.50400001928E-02 0.  1.
        1   -1    0    0  501    0  0.00000000000E+00  0.00000000000E+00 -0.17342643254E+04  0.17342643254E+04  0.50400001928E-02 0. -1.
    10030    2    1    2    0    0  0.00000000000E+00  0.00000000000E+00 -0.16422429760E+04  0.18262856751E+04  0.79897269968E+03 0.  0.
        2    1    3    3  502    0  0.21129531608E+03 -0.20476514323E+03 -0.14387714633E+04  0.14685495559E+04  0.25500000920E-02 0. -1.
       -2    1    3    3    0  502 -0.21129531608E+03  0.20476514323E+03 -0.20347151264E+03  0.35773611915E+03  0.25500000920E-02 0.  1.
</event>
<event>
 5   0  0.6153659E-03  0.7988369E+03  0.7818609E-02  0.9561702E-01
        2   -1    0    0  501    0  0.00000000000E+00  0.00000000000E+00  0.13943863218E+04  0.13943863218E+04  0.25500000920E-02 0. -1.
       -2   -1    0    0    0  501  0.00000000000E+00  0.00000000000E+00 -0.11441240120E+03  0.11441240123E+03  0.25500000920E-02 0.  1.
    10030    2    1    2    0    0  0.00000000000E+00  0.00000000000E+00  0.12799739206E+04  0.15087987230E+04  0.79883687270E+03 0.  0.
        2    1    3    3  502    0 -0.13692370259E+03  0.21503912875E+03  0.12207418241E+04  0.12470767933E+04  0.25500000920E-02 0. -1.
       -2    1    3    3    0  502  0.13692370259E+03 -0.21503912875E+03  0.59232096438E+02  0.26172192969E+03  0.25500000920E-02 0.  1.
</event>
<event>
 5   0  0.2478000E-03  0.8063365E+03  0.7818609E-02  0.9550890E-01
       -3   -1    0    0    0  501  0.00000000000E+00  0.00000000000E+00  0.28448354013E+03  0.28448355806E+03  0.10100000352E+00 0.  1.
        3   -1    0    0  501    0  0.00000000000E+00  0.00000000000E+00 -0.57136739490E+03  0.57136740382E+03  0.10100000352E+00 0. -1.
    10030    2    1    2    0    0  0.00000000000E+00  0.00000000000E+00 -0.28688385477E+03  0.85585096188E+03  0.80633648239E+03 0.  0.
        4    1    3    3  502    0 -0.22622319936E+03 -0.13395286435E+02  0.21048055588E+03  0.30928958426E+03  0.12699999809E+01 0.  1.
       -4    1    3    3    0  502  0.22622319936E+03  0.13395286435E+02 -0.49736441065E+03  0.54656137762E+03  0.12699999809E+01 0. -1.
</event>
<event>
 5   0  0.6337108E-03  0.8047856E+03  0.7818609E-02  0.9553116E-01
       -2   -1    0    0    0  501  0.00000000000E+00  0.00000000000E+00  0.12192449430E+03  0.12192449433E+03  0.25500000920E-02 0.  1.
        2   -1    0    0  501    0  0.00000000000E+00  0.00000000000E+00 -0.13280346381E+04  0.13280346381E+04  0.25500000920E-02 0. -1.
    10030    2    1    2    0    0  0.00000000000E+00  0.00000000000E+00 -0.12061101438E+04  0.14499591325E+04  0.80478556571E+03 0.  0.
        4    1    3    3  502    0  0.93098955345E+02 -0.19001275261E+03 -0.12197060977E+04  0.12379244077E+04  0.12699999809E+01 0. -1.
       -4    1    3    3    0  502 -0.93098955345E+02  0.19001275261E+03  0.13595953837E+02  0.21203472475E+03  0.12699999809E+01 0.  1.
</event>
<event>
 5   0  0.6337108E-03  0.7975537E+03  0.7818609E-02  0.9563565E-01
       -2   -1    0    0    0  501  0.00000000000E+00  0.00000000000E+00  0.14071585086E+03  0.14071585088E+03  0.25500000920E-02 0. -1.
        2   -1    0    0  501    0  0.00000000000E+00  0.00000000000E+00 -0.11300999383E+04  0.11300999383E+04  0.25500000920E-02 0.  1.
    10030    2    1    2    0    0  0.00000000000E+00  0.00000000000E+00 -0.98938408744E+03  0.12708157892E+04  0.79755369573E+03 0.  0.
        4    1    3    3  502    0  0.66845614750E+02 -0.39061761508E+03 -0.56543047321E+03  0.69048076755E+03  0.12699999809E+01 0.  1.
       -4    1    3    3    0  502 -0.66845614750E+02  0.39061761508E+03 -0.42395361424E+03  0.58033502164E+03  0.12699999809E+01 0. -1.
</event>
<event>
 5   0  0.3860515E-03  0.7960924E+03  0.7818609E-02  0.9565690E-01
        1   -1    0    0  501    0  0.00000000000E+00  0.00000000000E+00  0.29610152330E+03  0.29610152335E+03  0.50400001928E-02 0. -1.
       -1   -1    0    0    0  501  0.00000000000E+00  0.00000000000E+00 -0.53508943559E+03  0.53508943561E+03  0.50400001928E-02 0.  1.
    10030    2    1    2    0    0  0.00000000000E+00  0.00000000000E+00 -0.23898791229E+03  0.83119095896E+03  0.79609244943E+03 0.  0.
        4    1    3    3  502    0  0.89249161276E+02 -0.22459674517E+03 -0.44971336796E+03  0.51054170931E+03  0.12699999809E+01 0.  1.
       -4    1    3    3    0  502 -0.89249161276E+02  0.22459674517E+03  0.21072545567E+03  0.32064924964E+03  0.12699999809E+01 0. -1.
</event>
<event>
 5   0  0.6153659E-03  0.8025583E+03  0.7818609E-02  0.9556321E-01
       -2   -1    0    0    0  501  0.00000000000E+00  0.00000000000E+00  0.13325897933E+03  0.13325897935E+03  0.25500000920E-02 0. -1.
        2   -1    0    0  501    0  0.00000000000E+00  0.00000000000E+00 -0.12083610922E+04  0.12083610922E+04  0.25500000920E-02 0.  1.
    10030    2    1    2    0    0  0.00000000000E+00  0.00000000000E+00 -0.10751021128E+04  0.13416200715E+04  0.80255832391E+03 0.  0.
        2    1    3    3  502    0  0.13100043927E+03 -0.29103300897E+03 -0.13093887936E+03  0.34497292290E+03  0.25500000920E-02 0. -1.
       -2    1    3    3    0  502 -0.13100043927E+03  0.29103300897E+03 -0.94416323348E+03  0.99664714862E+03  0.25500000920E-02 0.  1.
</event>
<event>
 5   0  0.2478000E-03  0.8036323E+03  0.7818609E-02  0.9554774E-01
       -3   -1    0    0    0  501  0.00000000000E+00  0.00000000000E+00  0.70691187869E+03  0.70691188590E+03  0.10100000352E+00 0. -1.
        3   -1    0    0  501    0  0.00000000000E+00  0.00000000000E+00 -0.22839652166E+03  0.22839654399E+03  0.10100000352E+00 0.  1.
    10030    2    1    2    0    0  0.00000000000E+00  0.00000000000E+00  0.47851535703E+03  0.93530842990E+03  0.80363232397E+03 0.  0.
        1    1    3    3  502    0  0.10858058116E+03 -0.38281275578E+03  0.30427602883E+03  0.50091840686E+03  0.50400001928E-02 0. -1.
       -1    1    3    3    0  502 -0.10858058116E+03  0.38281275578E+03  0.17423932820E+03  0.43439002303E+03  0.50400001928E-02 0.  1.
</event>
<event>
 5   0  0.6337108E-03  0.8003450E+03  0.7818609E-02  0.9559518E-01
       -2   -1    0    0    0  501  0.00000000000E+00  0.00000000000E+00  0.61558823239E+03  0.61558823239E+03  0.25500000920E-02 0. -1.
        2   -1    0    0  501    0  0.00000000000E+00  0.00000000000E+00 -0.26013823920E+03  0.26013823921E+03  0.25500000920E-02 0.  1.
    10030    2    1    2    0    0  0.00000000000E+00  0.00000000000E+00  0.35544999319E+03  0.87572647160E+03  0.80034502273E+03 0.  0.
        4    1    3    3  502    0  0.34714584749E+03 -0.18057057855E+03  0.26940482418E+03  0.47507530503E+03  0.12699999809E+01 0. -1.
       -4    1    3    3    0  502 -0.34714584749E+03  0.18057057855E+03  0.86045169010E+02  0.40065116657E+03  0.12699999809E+01 0.  1.
</event>
<event>
 5   0  0.5813850E-03  0.8001369E+03  0.7818609E-02  0.9559819E-01
        2   -1    0    0  501    0  0.00000000000E+00  0.00000000000E+00  0.13956453151E+04  0.13956453151E+04  0.25500000920E-02 0.  1.
       -2   -1    0    0    0  501  0.00000000000E+00  0.00000000000E+00 -0.11468154656E+03  0.11468154659E+03  0.25500000920E-02 0. -1.
    10030    2    1    2    0    0  0.00000000000E+00  0.00000000000E+00  0.12809637685E+04  0.15103268617E+04  0.80013689631E+03 0.  0.
        5    1    3    3  502    0  0.25044726548E+03 -0.24743787403E+03  0.28192339608E+03  0.45105678749E+03  0.46999998093E+01 0. -1.
       -5    1    3    3    0  502 -0.25044726548E+03  0.24743787403E+03  0.99904037246E+03  0.10592700742E+04  0.46999998093E+01 0.  1.
</event>
<event>
 5   0  0.2478000E-03  0.7993031E+03  0.7818609E-02  0.9561026E-01
       -4   -1    0    0    0  501  0.00000000000E+00  0.00000000000E+00  0.13906837461E+03  0.13907417344E+03  0.12699999809E+01 0. -1.
        4   -1    0    0  501    0  0.00000000000E+00  0.00000000000E+00 -0.11484795166E+04  0.11484802188E+04  0.12699999809E+01 0.  1.
    10030    2    1    2    0    0  0.00000000000E+00  0.00000000000E+00 -0.10094111420E+04  0.12875543922E+04  0.79930310858E+03 0.  0.
        2    1    3    3  502    0  0.39010172142E+03  0.80906185283E+01 -0.64399071921E+03  0.75297334454E+03  0.25500000920E-02 0.  1.
       -2    1    3    3    0  502 -0.39010172142E+03 -0.80906185283E+01 -0.36542042280E+03  0.53458104771E+03  0.25500000920E-02 0. -1.
</event>
<event>
 5   0  0.5813850E-03  0.7978951E+03  0.7818609E-02  0.9563069E-01
        2   -1    0    0  501    0  0.00000000000E+00  0.00000000000E+00  0.81307155756E+03  0.81307155756E+03  0.25500000920E-02 0. -1.
       -2   -1    0    0    0  501  0.00000000000E+00  0.00000000000E+00 -0.19575048552E+03  0.19575048554E+03  0.25500000920E-02 0.  1.
    10030    2    1    2    0    0  0.00000000000E+00  0.00000000000E+00  0.61732107204E+03  0.10088220431E+04  0.79789511132E+03 0.  0.
        5    1    3    3  502    0 -0.23118755199E+02  0.92248646938E+02 -0.18117315057E+03  0.20467068718E+03  0.46999998093E+01 0.  1.
       -5    1    3    3    0  502  0.23118755199E+02 -0.92248646938E+02  0.79849422260E+03  0.80415135592E+03  0.46999998093E+01 0. -1.
</event>
<event>
 5   0  0.3753450E-03  0.8018922E+03  0.7818609E-02  0.9557282E-01
        1   -1    0    0  501    0  0.00000000000E+00  0.00000000000E+00  0.26173396568E+03  0.26173396572E+03  0.50400001928E-02 0.  1.
       -1   -1    0    0    0  501  0.00000000000E+00  0.00000000000E+00 -0.61420293428E+03  0.61420293430E+03  0.50400001928E-02 0. -1.
    10030    2    1    2    0    0  0.00000000000E+00  0.00000000000E+00 -0.35246896860E+03  0.87593690002E+03  0.80189218664E+03 0.  0.
        5    1    3    3  502    0 -0.15279818865E+03  0.33561517587E+03 -0.43835597149E+01  0.36881721533E+03  0.46999998093E+01 0.  1.
       -5    1    3    3    0  502  0.15279818865E+03 -0.33561517587E+03 -0.34808540889E+03  0.50711968469E+03  0.46999998093E+01 0. -1.
</event>
<event>
 5   0  0.3671128E-03  0.7944337E+03  0.7818609E-02  0.9568109E-01
        1   -1    0    0  501    0  0.00000000000E+00  0.00000000000E+00  0.94646276829E+03  0.94646276830E+03  0.50400001928E-02 0. -1.
       -1   -1    0    0    0  501  0.00000000000E+00  0.00000000000E+00 -0.16670621201E+03  0.16670621208E+03  0.50400001928E-02 0.  1.
    10030    2    1    2    0    0  0.00000000000E+00  0.00000000000E+00  0.77975655628E+03  0.11131689804E+04  0.79443369253E+03 0.  0.
        2    1    3    3  502    0  0.37485839287E+03  0.80667793937E+02  0.53519345534E+03  0.65837538102E+03  0.25500000920E-02 0.  1.
       -2    1    3    3    0  502 -0.37485839287E+03 -0.80667793937E+02  0.24456310094E+03  0.45479359937E+03  0.25500000920E-02 0. -1.
</event>
<event>
 5   0  0.6256781E-03  0.8103422E+03  0.7818609E-02  0.9545167E-01
        2   -1    0    0  501    0  0.00000000000E+00  0.00000000000E+00  0.13803738235E+04  0.13803738235E+04  0.25500000920E-02 0.  1.
       -2   -1    0    0    0  501  0.00000000000E+00  0.00000000000E+00 -0.11892693588E+03  0.11892693591E+03  0.25500000920E-02 0. -1.
    10030    2    1    2    0    0  0.00000000000E+00  0.00000000000E+00  0.12614468876E+04  0.14993007594E+04  0.81034222208E+03 0.  0.
        1    1    3    3  502    0 -0.38549415687E+03 -0.63478487137E+02  0.43206630839E+03  0.58250884816E+03  0.50400001928E-02 0.  1.
       -1    1    3    3    0  502  0.38549415687E+03  0.63478487137E+02  0.82938057925E+03  0.91679191127E+03  0.50400001928E-02 0. -1.
</event>
<event>
 5   0  0.3860515E-03  0.8003769E+03  0.7818609E-02  0.9559472E-01
       -1   -1    0    0    0  501  0.00000000000E+00  0.00000000000E+00  0.22096370434E+03  0.22096370439E+03  0.50400001928E-02 0.  1.
        1   -1    0    0  501    0  0.00000000000E+00  0.00000000000E+00 -0.72478323243E+03  0.72478323245E+03  0.50400001928E-02 0. -1.
    10030    2    1    2    0    0  0.00000000000E+00  0.00000000000E+00 -0.50381952810E+03  0.94574693685E+03  0.80037688101E+03 0.  0.
        4    1    3    3  502    0  0.16042497819E+03 -0.39235459048E+02  0.17881488542E+03  0.24341727757E+03  0.12699999809E+01 0.  1.
       -4    1    3    3    0  502 -0.16042497819E+03  0.39235459048E+02 -0.68263441352E+03  0.70232965927E+03  0.12699999809E+01 0. -1.
</event>
<event>
 5   0  0.6536209E-03  0.7906544E+03  0.7818609E-02  0.9573644E-01
        2   -1    0    0  501    0  0.00000000000E+00  0.00000000000E+00  0.25522311191E+03  0.25522311192E+03  0.25500000920E-02 0.  1.
       -2   -1    0    0    0  501  0.00000000000E+00  0.00000000000E+00 -0.61234109358E+03  0.61234109358E+03  0.25500000920E-02 0. -1.
    10030    2    1    2    0    0  0.00000000000E+00  0.00000000000E+00 -0.35711798167E+03  0.86756420550E+03  0.79065441113E+03 0.  0.
        3    1    3    3  502    0 -0.77147809046E+02 -0.17264575267E+03 -0.55949668232E+03  0.59058859461E+03  0.10100000352E+00 0. -1.
       -3    1    3    3    0  502  0.77147809046E+02  0.17264575267E+03  0.20237870065E+03  0.27697561090E+03  0.10100000352E+00 0.  1.
</event>
<event>
 5   0  0.3627496E-03  0.7993199E+03  0.7818609E-02  0.9561002E-01
       -1   -1    0    0    0  501  0.00000000000E+00  0.00000000000E+00  0.39833173893E+03  0.39833173896E+03  0.50400001928E-02 0. -1.
        1   -1    0    0  501    0  0.00000000000E+00  0.00000000000E+00 -0.40099256890E+03  0.40099256893E+03  0.50400001928E-02 0.  1.
    10030    2    1    2    0    0  0.00000000000E+00  0.00000000000E+00 -0.26608299715E+01  0.79932430789E+03  0.79931987913E+03 0.  0.
        3    1    3    3  502    0 -0.10408493679E+03  0.38510568947E+03 -0.25579074311E+02  0.39974287407E+03  0.10100000352E+00 0.  1.
       -3    1    3    3    0  502  0.10408493679E+03 -0.38510568947E+03  0.22918244340E+02  0.39958143382E+03  0.10100000352E+00 0. -1.
</event>
<event>
 5   0  0.3627496E-03  0.7963504E+03  0.7818609E-02  0.9565315E-01
       -1   -1    0    0    0  501  0.00000000000E+00  0.00000000000E+00  0.16524243910E+03  0.16524243918E+03  0.50400001928E-02 0. -1.
        1   -1    0    0  501    0  0.00000000000E+00  0.00000000000E+00 -0.95945989839E+03  0.95945989840E+03  0.50400001928E-02 0.  1.
    10030    2    1    2    0    0  0.00000000000E+00  0.00000000000E+00 -0.79421745929E+03  0.11247023376E+04  0.79635041001E+03 0.  0.
        3    1    3    3  502    0 -0.10852638956E+03  0.53190200259E+02  0.13871083939E+03  0.18397793835E+03  0.10100000352E+00 0. -1.
       -3    1    3    3    0  502  0.10852638956E+03 -0.53190200259E+02 -0.93292829868E+03  0.94072439923E+03  0.10100000352E+00 0.  1.
</event>
<event>
 5   0  0.3753450E-03  0.7949454E+03  0.7818609E-02  0.9567362E-01
        1   -1    0    0  501    0  0.00000000000E+00  0.00000000000E+00  0.49894357030E+03  0.49894357032E+03  0.50400001928E-02 0. -1.
       -1   -1    0    0    0  501  0.00000000000E+00  0.00000000000E+00 -0.31663812206E+03  0.31663812210E+03  0.50400001928E-02 0.  1.
    10030    2    1    2    0    0  0.00000000000E+00  0.00000000000E+00  0.18230544823E+03  0.81558169243E+03  0.79494541987E+03 0.  0.
        5    1    3    3  502    0  0.31292660590E+03 -0.15518930034E+03  0.28569497825E+03  0.45127651193E+03  0.46999998093E+01 0. -1.
       -5    1    3    3    0  502 -0.31292660590E+03  0.15518930034E+03 -0.10338953001E+03  0.36430518050E+03  0.46999998093E+01 0.  1.
</event>
<event>
 5   0  0.6153659E-03  0.7954885E+03  0.7818609E-02  0.9566570E-01
       -2   -1    0    0    0  501  0.00000000000E+00  0.00000000000E+00  0.22797883381E+03  0.22797883382E+03  0.25500000920E-02 0.  1.
        2   -1    0    0  501    0  0.00000000000E+00  0.00000000000E+00 -0.69392625151E+03  0.69392625152E+03  0.25500000920E-02 0. -1.
    10030    2    1    2    0    0  0.00000000000E+00  0.00000000000E+00 -0.46594741770E+03  0.92190508534E+03  0.79548852306E+03 0.  0.
        2    1    3    3  502    0 -0.19097668567E+03  0.27575724919E+03 -0.48068482067E+03  0.58615019558E+03  0.25500000920E-02 0. -1.
       -2    1    3    3    0  502  0.19097668567E+03 -0.27575724919E+03  0.14737402966E+02  0.33575488976E+03  0.25500000920E-02 0.  1.
</event>
<event>
 5   0  0.5813850E-03  0.8027811E+03  0.7818609E-02  0.9556000E-01
        2   -1    0    0  501    0  0.00000000000E+00  0.00000000000E+00  0.20153305567E+03  0.20153305568E+03  0.25500000920E-02 0. -1.
       -2   -1    0    0    0  501  0.00000000000E+00  0.00000000000E+00 -0.79944382837E+03  0.79944382837E+03  0.25500000920E-02 0.  1.
    10030    2    1    2    0    0  0.00000000000E+00  0.00000000000E+00 -0.59791077270E+03  0.10009768841E+04  0.80278106000E+03 0.  0.
        5    1    3    3  502    0  0.10677977954E+03 -0.34968305796E+03 -0.50539741868E+03  0.62380189415E+03  0.46999998093E+01 0. -1.
       -5    1    3    3    0  502 -0.10677977954E+03  0.34968305796E+03 -0.92513354027E+02  0.37717498991E+03  0.46999998093E+01 0.  1.
</event>
<event>
 5   0  0.3860515E-03  0.7988179E+03  0.7818609E-02  0.9561730E-01
        1   -1    0    0  501    0  0.00000000000E+00  0.00000000000E+00  0.24859615415E+03  0.24859615420E+03  0.50400001928E-02 0.  1.
       -1   -1    0    0    0  501  0.00000000000E+00  0.00000000000E+00 -0.64171346128E+03  0.64171346130E+03  0.50400001928E-02 0. -1.
    10030    2    1    2    0    0  0.00000000000E+00  0.00000000000E+00 -0.39311730712E+03  0.89030961550E+03  0.79881787304E+03 0.  0.
        4    1    3    3  502    0  0.38642966519E+03 -0.96384804455E+02 -0.16297493346E+03  0.43032587478E+03  0.12699999809E+01 0. -1.
       -4    1    3    3    0  502 -0.38642966519E+03  0.96384804455E+02 -0.23014237366E+03  0.45998374072E+03  0.12699999809E+01 0.  1.
</event>
<event>
 5   0  0.6337108E-03  0.8024741E+03  0.7818609E-02  0.9556443E-01
       -2   -1    0    0    0  501  0.00000000000E+00  0.00000000000E+00  0.39721662324E+03  0.39721662325E+03  0.25500000920E-02 0. -1.
        2   -1    0    0  501    0  0.00000000000E+00  0.00000000000E+00 -0.40529819239E+03  0.40529819240E+03  0.25500000920E-02 0.  1.
    10030    2    1    2    0    0  0.00000000000E+00  0.00000000000E+00 -0.80815691450E+01  0.80251481565E+03  0.80247412268E+03 0.  0.
        4    1    3    3  502    0  0.19435785889E+03  0.34405236437E+03  0.65551247234E+02  0.40055659482E+03  0.12699999809E+01 0. -1.
       -4    1    3    3    0  502 -0.19435785889E+03 -0.34405236437E+03 -0.73632816379E+02  0.40195822082E+03  0.12699999809E+01 0.  1.
</event>
<event>
 5   0  0.3753450E-03  0.8018922E+03  0.7818609E-02  0.9557282E-01
        1   -1    0    0  501    0  0.00000000000E+00  0.00000000000E+00  0.14714789166E+04  0.14714789166E+04  0.50400001928E-02 0.  1.
       -1   -1    0    0    0  501  0.00000000000E+00  0.00000000000E+00 -0.10924910817E+03  0.10924910829E+03  0.50400001928E-02 0. -1.
    10030    2    1    2    0    0  0.00000000000E+00  0.00000000000E+00  0.13622298084E+04  0.15807280249E+04  0.80189216091E+03 0.  0.
        5    1    3    3  502    0  0.30104650681E+03  0.10756625974E+03  0.20418633726E+03  0.37935952581E+03  0.46999998093E+01 0. -1.
       -5    1    3    3    0  502 -0.30104650681E+03 -0.10756625974E+03  0.11580434711E+04  0.12013684991E+04  0.46999998093E+01 0.  1.
</event>
<event>
 5   0  0.6153659E-03  0.8073512E+03  0.7818609E-02  0.9549437E-01
        2   -1    0    0  501    0  0.00000000000E+00  0.00000000000E+00  0.75816392424E+03  0.75816392424E+03  0.25500000920E-02 0.  1.
       -2   -1    0    0    0  501  0.00000000000E+00  0.00000000000E+00 -0.21493237611E+03  0.21493237613E+03  0.25500000920E-02 0. -1.
    10030    2    1    2    0    0  0.00000000000E+00  0.00000000000E+00  0.54323154813E+03  0.97309630037E+03  0.80735115961E+03 0.  0.
        2    1    3    3  502    0 -0.68185418488E+02 -0.28222045111E+03 -0.66418092792E+02  0.29784055697E+03  0.25500000920E-02 0. -1.
       -2    1    3    3    0  502  0.68185418488E+02  0.28222045111E+03  0.60964964092E+03  0.67525574340E+03  0.25500000920E-02 0.  1.
</event>
<event>
 5   0  0.6536209E-03  0.8001224E+03  0.7818609E-02  0.9559840E-01
       -2   -1    0    0    0  501  0.00000000000E+00  0.00000000000E+00  0.12569915077E+03  0.12569915080E+03  0.25500000920E-02 0. -1.
        2   -1    0    0  501    0  0.00000000000E+00  0.00000000000E+00 -0.12732701587E+04  0.12732701587E+04  0.25500000920E-02 0.  1.
    10030    2    1    2    0    0  0.00000000000E+00  0.00000000000E+00 -0.11475710079E+04  0.13989693095E+04  0.80012243482E+03 0.  0.
        3    1    3    3  502    0  0.33312768243E+03 -0.15512822194E+03 -0.29727611501E+03  0.47266469807E+03  0.10100000352E+00 0. -1.
       -3    1    3    3    0  502 -0.33312768243E+03  0.15512822194E+03 -0.85029489292E+03  0.92630461143E+03  0.10100000352E+00 0.  1.
</event>
<event>
 5   0  0.3671128E-03  0.8022833E+03  0.7818609E-02  0.9556718E-01
        1   -1    0    0  501    0  0.00000000000E+00  0.00000000000E+00  0.15788565988E+03  0.15788565996E+03  0.50400001928E-02 0.  1.
       -1   -1    0    0    0  501  0.00000000000E+00  0.00000000000E+00 -0.10191845144E+04  0.10191845144E+04  0.50400001928E-02 0. -1.
    10030    2    1    2    0    0  0.00000000000E+00  0.00000000000E+00 -0.86129885449E+03  0.11770701743E+04  0.80228329073E+03 0.  0.
        2    1    3    3  502    0  0.19329328489E+03 -0.29966753636E+02 -0.94447537441E+03  0.96451751315E+03  0.25500000920E-02 0. -1.
       -2    1    3    3    0  502 -0.19329328489E+03  0.29966753636E+02  0.83176519920E+02  0.21255266119E+03  0.25500000920E-02 0.  1.
</event>
<event>
 5   0  0.3753450E-03  0.7995187E+03  0.7818609E-02  0.9560714E-01
       -1   -1    0    0    0  501  0.00000000000E+00  0.00000000000E+00  0.71044262734E+03  0.71044262735E+03  0.50400001928E-02 0. -1.
        1   -1    0    0  501    0  0.00000000000E+00  0.00000000000E+00 -0.22494079616E+03  0.22494079622E+03  0.50400001928E-02 0.  1.
    10030    2    1    2    0    0  0.00000000000E+00  0.00000000000E+00  0.48550183117E+03  0.93538342357E+03  0.79951868084E+03 0.  0.
        5    1    3    3  502    0 -0.11724912658E+03  0.35797971954E+03  0.39922746707E+03  0.54890937116E+03  0.46999998093E+01 0.  1.
       -5    1    3    3    0  502  0.11724912658E+03 -0.35797971954E+03  0.86274364105E+02  0.38647405241E+03  0.46999998093E+01 0. -1.
</event>
<event>
 5   0  0.6536209E-03  0.8006985E+03  0.7818609E-02  0.9559007E-01
       -2   -1    0    0    0  501  0.00000000000E+00  0.00000000000E+00  0.26486016842E+03  0.26486016843E+03  0.25500000920E-02 0.  1.
        2   -1    0    0  501    0  0.00000000000E+00  0.00000000000E+00 -0.60514774216E+03  0.60514774216E+03  0.25500000920E-02 0. -1.
    10030    2    1    2    0    0  0.00000000000E+00  0.00000000000E+00 -0.34028757373E+03  0.87000791060E+03  0.80069852733E+03 0.  0.
        3    1    3    3  502    0  0.25226042356E+03 -0.22131072794E+03 -0.40736714360E+03  0.52778950301E+03  0.10100000352E+00 0. -1.
       -3    1    3    3    0  502 -0.25226042356E+03  0.22131072794E+03  0.67079569871E+02  0.34221840759E+03  0.10100000352E+00 0.  1.
</event>
<event>
 5   0  0.6536209E-03  0.7995695E+03  0.7818609E-02  0.9560640E-01
        2   -1    0    0  501    0  0.00000000000E+00  0.00000000000E+00  0.26377160831E+03  0.26377160832E+03  0.25500000920E-02 0.  1.
       -2   -1    0    0    0  501  0.00000000000E+00  0.00000000000E+00 -0.60593272828E+03  0.60593272829E+03  0.25500000920E-02 0. -1.
    10030    2    1    2    0    0  0.00000000000E+00  0.00000000000E+00 -0.34216111998E+03  0.86970433661E+03  0.79956950986E+03 0.  0.
        3    1    3    3  502    0  0.24196450923E+03  0.21550932444E+03  0.83632524185E+02  0.33464234931E+03  0.10100000352E+00 0.  1.
       -3    1    3    3    0  502 -0.24196450923E+03 -0.21550932444E+03 -0.42579364416E+03  0.53506198730E+03  0.10100000352E+00 0. -1.
</event>
<event>
 5   0  0.6153659E-03  0.7529726E+03  0.7818609E-02  0.9630698E-01
        2   -1    0    0  501    0  0.00000000000E+00  0.00000000000E+00  0.19584135146E+04  0.19584135146E+04  0.25500000920E-02 0. -1.
       -2   -1    0    0    0  501  0.00000000000E+00  0.00000000000E+00 -0.72375887165E+02  0.72375887210E+02  0.25500000920E-02 0.  1.
    10030    2    1    2    0    0  0.00000000000E+00  0.00000000000E+00  0.18860376275E+04  0.20307894018E+04  0.75297255090E+03 0.  0.
        2    1    3    3  502    0  0.15073023284E+03  0.11234631514E+03  0.63271764434E+02  0.19835476752E+03  0.25500000920E-02 0.  1.
       -2    1    3    3    0  502 -0.15073023284E+03 -0.11234631514E+03  0.18227658630E+04  0.18324346343E+04  0.25500000920E-02 0. -1.
</event>
<event>
 5   0  0.3714448E-03  0.7988617E+03  0.7818609E-02  0.9561666E-01
       -1   -1    0    0    0  501  0.00000000000E+00  0.00000000000E+00  0.22676875291E+03  0.22676875297E+03  0.50400001928E-02 0.  1.
        1   -1    0    0  501    0  0.00000000000E+00  0.00000000000E+00 -0.70355806978E+03  0.70355806980E+03  0.50400001928E-02 0. -1.
    10030    2    1    2    0    0  0.00000000000E+00  0.00000000000E+00 -0.47678931687E+03  0.93032682277E+03  0.79886165541E+03 0.  0.
        1    1    3    3  502    0  0.20854283054E+03  0.10102763027E+03 -0.61727833372E+03  0.65933999997E+03  0.50400001928E-02 0. -1.
       -1    1    3    3    0  502 -0.20854283054E+03 -0.10102763027E+03  0.14048901686E+03  0.27098682280E+03  0.50400001928E-02 0.  1.
</event>
<event>
 5   0  0.6337108E-03  0.8061494E+03  0.7818609E-02  0.9551158E-01
       -2   -1    0    0    0  501  0.00000000000E+00  0.00000000000E+00  0.16489126112E+03  0.16489126114E+03  0.25500000920E-02 0.  1.
        2   -1    0    0  501    0  0.00000000000E+00  0.00000000000E+00 -0.98531134128E+03  0.98531134129E+03  0.25500000920E-02 0. -1.
    10030    2    1    2    0    0  0.00000000000E+00  0.00000000000E+00 -0.82042008016E+03  0.11502026024E+04  0.80614943943E+03 0.  0.
        4    1    3    3  502    0  0.29697491051E+03 -0.76592870165E+02 -0.37037889335E+02  0.30892391196E+03  0.12699999809E+01 0.  1.
       -4    1    3    3    0  502 -0.29697491051E+03  0.76592870165E+02 -0.78338219082E+03  0.84127869047E+03  0.12699999809E+01 0. -1.
</event>
<event>
 5   0  0.6536209E-03  0.8257090E+03  0.7818609E-02  0.9523532E-01
        2   -1    0    0  501    0  0.00000000000E+00  0.00000000000E+00  0.22271057241E+04  0.22271057241E+04  0.25500000920E-02 0.  1.
       -2   -1    0    0    0  501  0.00000000000E+00  0.00000000000E+00 -0.76533793910E+02  0.76533793952E+02  0.25500000920E-02 0. -1.
    10030    2    1    2    0    0  0.00000000000E+00  0.00000000000E+00  0.21505719302E+04  0.23036395180E+04  0.82570902999E+03 0.  0.
        3    1    3    3  502    0 -0.27588936069E+02 -0.26812403838E+03  0.19477563142E+04  0.19663179598E+04  0.10100000352E+00 0.  1.
       -3    1    3    3    0  502  0.27588936069E+02  0.26812403838E+03  0.20281561593E+03  0.33732155818E+03  0.10100000352E+00 0. -1.
</event>
<event>
 5   0  0.2478000E-03  0.8100600E+03  0.7818609E-02  0.9545569E-01
        4   -1    0    0  501    0  0.00000000000E+00  0.00000000000E+00  0.96617858718E+03  0.96617942186E+03  0.12699999809E+01 0.  1.
       -4   -1    0    0    0  501  0.00000000000E+00  0.00000000000E+00 -0.16978863391E+03  0.16979338357E+03  0.12699999809E+01 0. -1.
    10030    2    1    2    0    0  0.00000000000E+00  0.00000000000E+00  0.79638995327E+03  0.11359728054E+04  0.81006003297E+03 0.  0.
        1    1    3    3  502    0  0.79339173198E+02  0.44084319750E+01  0.95514343498E+03  0.95844307086E+03  0.50400001928E-02 0.  1.
       -1    1    3    3    0  502 -0.79339173198E+02 -0.44084319750E+01 -0.15875348171E+03  0.17752973457E+03  0.50400001928E-02 0. -1.
</event>
<event>
 5   0  0.3860515E-03  0.7973927E+03  0.7818609E-02  0.9563799E-01
        1   -1    0    0  501    0  0.00000000000E+00  0.00000000000E+00  0.53497433879E+03  0.53497433882E+03  0.50400001928E-02 0. -1.
       -1   -1    0    0    0  501  0.00000000000E+00  0.00000000000E+00 -0.29713343766E+03  0.29713343770E+03  0.50400001928E-02 0.  1.
    10030    2    1    2    0    0  0.00000000000E+00  0.00000000000E+00  0.23784090114E+03  0.83210777651E+03  0.79739266204E+03 0.  0.
        4    1    3    3  502    0  0.23351725686E+02 -0.34478454692E+03 -0.88571268716E+02  0.35674664599E+03  0.12699999809E+01 0.  1.
       -4    1    3    3    0  502 -0.23351725686E+02  0.34478454692E+03  0.32641216985E+03  0.47536113052E+03  0.12699999809E+01 0. -1.
</event>
<event>
 5   0  0.6256781E-03  0.7981693E+03  0.7818609E-02  0.9562671E-01
        2   -1    0    0  501    0  0.00000000000E+00  0.00000000000E+00  0.36873293256E+03  0.36873293257E+03  0.25500000920E-02 0.  1.
       -2   -1    0    0    0  501  0.00000000000E+00  0.00000000000E+00 -0.43193468634E+03  0.43193468634E+03  0.25500000920E-02 0. -1.
    10030    2    1    2    0    0  0.00000000000E+00  0.00000000000E+00 -0.63201753771E+02  0.80066761892E+03  0.79816926419E+03 0.  0.
        1    1    3    3  502    0 -0.72407472802E+01  0.39898538477E+03 -0.26409945571E+02  0.39992405645E+03  0.50400001928E-02 0.  1.
       -1    1    3    3    0  502  0.72407472802E+01 -0.39898538477E+03 -0.36791808200E+02  0.40074356246E+03  0.50400001928E-02 0. -1.
</event>
<event>
 5   0  0.3753450E-03  0.7679109E+03  0.7818609E-02  0.9607663E-01
       -1   -1    0    0    0  501  0.00000000000E+00  0.00000000000E+00  0.37854555954E+03  0.37854555958E+03  0.50400001928E-02 0.  1.
        1   -1    0    0  501    0  0.00000000000E+00  0.00000000000E+00 -0.38944261925E+03  0.38944261928E+03  0.50400001928E-02 0. -1.
    10030    2    1    2    0    0  0.00000000000E+00  0.00000000000E+00 -0.10897059710E+02  0.76798817886E+03  0.76791086524E+03 0.  0.
        5    1    3    3  502    0  0.15962137453E+03  0.17790601237E+03 -0.30592869491E+03  0.38825763201E+03  0.46999998093E+01 0. -1.
       -5    1    3    3    0  502 -0.15962137453E+03 -0.17790601237E+03  0.29503163520E+03  0.37973054685E+03  0.46999998093E+01 0.  1.
</event>
<event>
 5   0  0.3860515E-03  0.8085759E+03  0.7818609E-02  0.9547686E-01
        1   -1    0    0  501    0  0.00000000000E+00  0.00000000000E+00  0.10561956172E+04  0.10561956172E+04  0.50400001928E-02 0.  1.
       -1   -1    0    0    0  501  0.00000000000E+00  0.00000000000E+00 -0.15475233789E+03  0.15475233798E+03  0.50400001928E-02 0. -1.
    10030    2    1    2    0    0  0.00000000000E+00  0.00000000000E+00  0.90144327927E+03  0.12109479552E+04  0.80857588657E+03 0.  0.
        4    1    3    3  502    0  0.53796970084E+02 -0.39624218405E+03  0.53989225041E+03  0.67185358328E+03  0.12699999809E+01 0. -1.
       -4    1    3    3    0  502 -0.53796970084E+02  0.39624218405E+03  0.36155102886E+03  0.53909437187E+03  0.12699999809E+01 0.  1.
</event>
<event>
 5   0  0.6536209E-03  0.8005181E+03  0.7818609E-02  0.9559267E-01
        2   -1    0    0  501    0  0.00000000000E+00  0.00000000000E+00  0.13363471316E+04  0.13363471316E+04  0.25500000920E-02 0.  1.
       -2   -1    0    0    0  501  0.00000000000E+00  0.00000000000E+00 -0.11988450223E+03  0.11988450226E+03  0.25500000920E-02 0. -1.
    10030    2    1    2    0    0  0.00000000000E+00  0.00000000000E+00  0.12164626294E+04  0.14562316339E+04  0.80051810899E+03 0.  0.
        3    1    3    3  502    0 -0.30067420348E+03 -0.20280807636E+02  0.10874248088E+04  0.11284099489E+04  0.10100000352E+00 0.  1.
       -3    1    3    3    0  502  0.30067420348E+03  0.20280807636E+02  0.12903782059E+03  0.32782168498E+03  0.10100000352E+00 0. -1.
</event>
<event>
 5   0  0.3860515E-03  0.7966136E+03  0.7818609E-02  0.9564932E-01
       -1   -1    0    0    0  501  0.00000000000E+00  0.00000000000E+00  0.25034512088E+03  0.25034512093E+03  0.50400001928E-02 0. -1.
        1   -1    0    0  501    0  0.00000000000E+00  0.00000000000E+00 -0.63371842281E+03  0.63371842283E+03  0.50400001928E-02 0.  1.
    10030    2    1    2    0    0  0.00000000000E+00  0.00000000000E+00 -0.38337330193E+03  0.88406354376E+03  0.79661362076E+03 0.  0.
        4    1    3    3  502    0 -0.44342816599E+02 -0.67173570835E+02  0.24122333457E+03  0.25430077476E+03  0.12699999809E+01 0. -1.
       -4    1    3    3    0  502  0.44342816599E+02  0.67173570835E+02 -0.62459663649E+03  0.62976276900E+03  0.12699999809E+01 0.  1.
</event>
<event>
 5   0  0.3714448E-03  0.8004815E+03  0.7818609E-02  0.9559320E-01
        1   -1    0    0  501    0  0.00000000000E+00  0.00000000000E+00  0.52284278911E+03  0.52284278913E+03  0.50400001928E-02 0. -1.
       -1   -1    0    0    0  501  0.00000000000E+00  0.00000000000E+00 -0.30638783141E+03  0.30638783146E+03  0.50400001928E-02 0.  1.
    10030    2    1    2    0    0  0.00000000000E+00  0.00000000000E+00  0.21645495769E+03  0.82923062059E+03  0.80048152596E+03 0.  0.
        1    1    3    3  502    0 -0.30785247106E+03 -0.92402730023E+02  0.35529099664E+03  0.47910656515E+03  0.50400001928E-02 0. -1.
       -1    1    3    3    0  502  0.30785247106E+03  0.92402730023E+02 -0.13883603895E+03  0.35012405543E+03  0.50400001928E-02 0.  1.
</event>
<event>
 5   0  0.3671128E-03  0.7968408E+03  0.7818609E-02  0.9564601E-01
       -1   -1    0    0    0  501  0.00000000000E+00  0.00000000000E+00  0.20633232712E+03  0.20633232718E+03  0.50400001928E-02 0. -1.
        1   -1    0    0  501    0  0.00000000000E+00  0.00000000000E+00 -0.76933560976E+03  0.76933560977E+03  0.50400001928E-02 0.  1.
    10030    2    1    2    0    0  0.00000000000E+00  0.00000000000E+00 -0.56300328264E+03  0.97566793695E+03  0.79684077891E+03 0.  0.
        2    1    3    3  502    0 -0.19780109229E+03  0.22453891459E+03  0.40583271520E+02  0.30197681734E+03  0.25500000920E-02 0. -1.
       -2    1    3    3    0  502  0.19780109229E+03 -0.22453891459E+03 -0.60358655416E+03  0.67369111961E+03  0.25500000920E-02 0.  1.
</event>
<event>
 5   0  0.6256781E-03  0.7914989E+03  0.7818609E-02  0.9572404E-01
        2   -1    0    0  501    0  0.00000000000E+00  0.00000000000E+00  0.69420972135E+03  0.69420972136E+03  0.25500000920E-02 0.  1.
       -2   -1    0    0    0  501  0.00000000000E+00  0.00000000000E+00 -0.22560562062E+03  0.22560562063E+03  0.25500000920E-02 0. -1.
    10030    2    1    2    0    0  0.00000000000E+00  0.00000000000E+00  0.46860410074E+03  0.91981534199E+03  0.79149886932E+03 0.  0.
        1    1    3    3  502    0 -0.12874052142E+03 -0.33561597324E+03  0.41918243024E+02  0.36189686717E+03  0.50400001928E-02 0. -1.
       -1    1    3    3    0  502  0.12874052142E+03  0.33561597324E+03  0.42668585771E+03  0.55791847482E+03  0.50400001928E-02 0.  1.
</event>
<event>
 5   0  0.3753450E-03  0.8008475E+03  0.7818609E-02  0.9558791E-01
       -1   -1    0    0    0  501  0.00000000000E+00  0.00000000000E+00  0.29063987282E+03  0.29063987286E+03  0.50400001928E-02 0. -1.
        1   -1    0    0  501    0  0.00000000000E+00  0.00000000000E+00 -0.55167644979E+03  0.55167644981E+03  0.50400001928E-02 0.  1.
    10030    2    1    2    0    0  0.00000000000E+00  0.00000000000E+00 -0.26103657697E+03  0.84231632267E+03  0.80084748418E+03 0.  0.
        5    1    3    3  502    0  0.28575565333E+02 -0.31734314439E+03  0.12451175645E+03  0.34212351822E+03  0.46999998093E+01 0. -1.
       -5    1    3    3    0  502 -0.28575565333E+02  0.31734314439E+03 -0.38554833342E+03  0.50019280445E+03  0.46999998093E+01 0.  1.
</event>
<event>
 5   0  0.6536209E-03  0.7991229E+03  0.7818609E-02  0.9561288E-01
        2   -1    0    0  501    0  0.00000000000E+00  0.00000000000E+00  0.31083618934E+03  0.31083618935E+03  0.25500000920E-02 0.  1.
       -2   -1    0    0    0  501  0.00000000000E+00  0.00000000000E+00 -0.51361253106E+03  0.51361253106E+03  0.25500000920E-02 0. -1.
    10030    2    1    2    0    0  0.00000000000E+00  0.00000000000E+00 -0.20277634172E+03  0.82444872041E+03  0.79912292410E+03 0.  0.
        3    1    3    3  502    0 -0.10470373988E+03 -0.15922512873E+03 -0.46370723046E+03  0.50133812995E+03  0.10100000352E+00 0. -1.
       -3    1    3    3    0  502  0.10470373988E+03  0.15922512873E+03  0.26093088874E+03  0.32311059045E+03  0.10100000352E+00 0.  1.
</event>
<event>
 5   0  0.6153659E-03  0.8003806E+03  0.7818609E-02  0.9559466E-01
       -2   -1    0    0    0  501  0.00000000000E+00  0.00000000000E+00  0.13689283669E+03  0.13689283671E+03  0.25500000920E-02 0. -1.
        2   -1    0    0  501    0  0.00000000000E+00  0.00000000000E+00 -0.11699097355E+04  0.11699097355E+04  0.25500000920E-02 0.  1.
    10030    2    1    2    0    0  0.00000000000E+00  0.00000000000E+00 -0.10330168988E+04  0.13068025722E+04  0.80038056544E+03 0.  0.
        2    1    3    3  502    0 -0.22263348856E+03  0.19539372372E+01  0.26438236459E+02  0.22420630779E+03  0.25500000920E-02 0. -1.
       -2    1    3    3    0  502  0.22263348856E+03 -0.19539372372E+01 -0.10594551353E+04  0.10825962645E+04  0.25500000920E-02 0.  1.
</event>
<event>
 5   0  0.6337108E-03  0.7991030E+03  0.7818609E-02  0.9561316E-01
       -2   -1    0    0    0  501  0.00000000000E+00  0.00000000000E+00  0.19934113021E+03  0.19934113022E+03  0.25500000920E-02 0. -1.
        2   -1    0    0  501    0  0.00000000000E+00  0.00000000000E+00 -0.80084522698E+03  0.80084522698E+03  0.25500000920E-02 0.  1.
    10030    2    1    2    0    0  0.00000000000E+00  0.00000000000E+00 -0.60150409677E+03  0.10001863572E+04  0.79910297879E+03 0.  0.
        4    1    3    3  502    0  0.94459666988E+01 -0.31552205801E+03 -0.60732985748E+03  0.68446662743E+03  0.12699999809E+01 0.  1.
       -4    1    3    3    0  502 -0.94459666988E+01  0.31552205801E+03  0.58257607124E+01  0.31571972977E+03  0.12699999809E+01 0. -1.
</event>
<event>
 5   0  0.6536209E-03  0.8004707E+03  0.7818609E-02  0.9559336E-01
       -2   -1    0    0    0  501  0.00000000000E+00  0.00000000000E+00  0.99278965058E+02  0.99278965091E+02  0.25500000920E-02 0.  1.
        2   -1    0    0  501    0  0.00000000000E+00  0.00000000000E+00 -0.16135174127E+04  0.16135174127E+04  0.25500000920E-02 0. -1.
    10030    2    1    2    0    0  0.00000000000E+00  0.00000000000E+00 -0.15142384476E+04  0.17127963778E+04  0.80047070868E+03 0.  0.
        3    1    3    3  502    0 -0.28310804315E+02 -0.21092953344E+03 -0.14824095958E+04  0.14976084234E+04  0.10100000352E+00 0. -1.
       -3    1    3    3    0  502  0.28310804315E+02  0.21092953344E+03 -0.31828851796E+02  0.21518795441E+03  0.10100000352E+00 0.  1.
</event>
<event>
 5   0  0.3714448E-03  0.7996395E+03  0.7818609E-02  0.9560539E-01
       -1   -1    0    0    0  501  0.00000000000E+00  0.00000000000E+00  0.96016504555E+02  0.96016504687E+02  0.50400001928E-02 0.  1.
        1   -1    0    0  501    0  0.00000000000E+00  0.00000000000E+00 -0.16648785204E+04  0.16648785204E+04  0.50400001928E-02 0. -1.
    10030    2    1    2    0    0  0.00000000000E+00  0.00000000000E+00 -0.15688620158E+04  0.17608950251E+04  0.79963945915E+03 0.  0.
        1    1    3    3  502    0 -0.24426995577E+03 -0.81885573300E+02 -0.14577254159E+04  0.14803163333E+04  0.50400001928E-02 0. -1.
       -1    1    3    3    0  502  0.24426995577E+03  0.81885573300E+02 -0.11113659989E+03  0.28057869175E+03  0.50400001928E-02 0.  1.
</event>
<event>
 5   0  0.3753450E-03  0.7878890E+03  0.7818609E-02  0.9577715E-01
       -1   -1    0    0    0  501  0.00000000000E+00  0.00000000000E+00  0.22274002800E+03  0.22274002806E+03  0.50400001928E-02 0.  1.
        1   -1    0    0  501    0  0.00000000000E+00  0.00000000000E+00 -0.69674175722E+03  0.69674175724E+03  0.50400001928E-02 0. -1.
    10030    2    1    2    0    0  0.00000000000E+00  0.00000000000E+00 -0.47400172922E+03  0.91948178529E+03  0.78788902403E+03 0.  0.
        5    1    3    3  502    0 -0.75750136480E+02 -0.24688372033E+03  0.11013696794E+03  0.28078799163E+03  0.46999998093E+01 0.  1.
       -5    1    3    3    0  502  0.75750136480E+02  0.24688372033E+03 -0.58413869716E+03  0.63869379366E+03  0.46999998093E+01 0. -1.
</event>
<event>
 5   0  0.3753450E-03  0.7951956E+03  0.7818609E-02  0.9566997E-01
       -1   -1    0    0    0  501  0.00000000000E+00  0.00000000000E+00  0.12644171121E+03  0.12644171131E+03  0.50400001928E-02 0. -1.
        1   -1    0    0  501    0  0.00000000000E+00  0.00000000000E+00 -0.12502520688E+04  0.12502520688E+04  0.50400001928E-02 0.  1.
    10030    2    1    2    0    0  0.00000000000E+00  0.00000000000E+00 -0.11238103575E+04  0.13766937801E+04  0.79519560133E+03 0.  0.
        5    1    3    3  502    0  0.20540669404E+03  0.23488412124E+03 -0.13536907499E+03  0.34016075145E+03  0.46999998093E+01 0. -1.
       -5    1    3    3    0  502 -0.20540669404E+03 -0.23488412124E+03 -0.98844128255E+03  0.10365330286E+04  0.46999998093E+01 0.  1.
</event>
<event>
 5   0  0.6337108E-03  0.7995902E+03  0.7818609E-02  0.9560610E-01
       -2   -1    0    0    0  501  0.00000000000E+00  0.00000000000E+00  0.27283726076E+03  0.27283726078E+03  0.25500000920E-02 0.  1.
        2   -1    0    0  501    0  0.00000000000E+00  0.00000000000E+00 -0.58582952531E+03  0.58582952531E+03  0.25500000920E-02 0. -1.
    10030    2    1    2    0    0  0.00000000000E+00  0.00000000000E+00 -0.31299226454E+03  0.85866678609E+03  0.79959020246E+03 0.  0.
        4    1    3    3  502    0  0.26926987981E+03 -0.14765993963E+02  0.16045457414E+03  0.31380182602E+03  0.12699999809E+01 0. -1.
       -4    1    3    3    0  502 -0.26926987981E+03  0.14765993963E+02 -0.47344683868E+03  0.54486496007E+03  0.12699999809E+01 0.  1.
</event>
<event>
 5   0  0.6153659E-03  0.7982616E+03  0.7818609E-02  0.9562537E-01
       -2   -1    0    0    0  501  0.00000000000E+00  0.00000000000E+00  0.16101206498E+03  0.16101206500E+03  0.25500000920E-02 0. -1.
        2   -1    0    0  501    0  0.00000000000E+00  0.00000000000E+00 -0.98940045564E+03  0.98940045564E+03  0.25500000920E-02 0.  1.
    10030    2    1    2    0    0  0.00000000000E+00  0.00000000000E+00 -0.82838839066E+03  0.11504125206E+04  0.79826163749E+03 0.  0.
        2    1    3    3  502    0  0.66928957090E+02 -0.10879794386E+03 -0.95914782956E+03  0.96761616194E+03  0.25500000920E-02 0.  1.
       -2    1    3    3    0  502 -0.66928957090E+02  0.10879794386E+03  0.13075943891E+03  0.18279635870E+03  0.25500000920E-02 0. -1.
</event>
<event>
 5   0  0.3671128E-03  0.7997094E+03  0.7818609E-02  0.9560438E-01
       -1   -1    0    0    0  501  0.00000000000E+00  0.00000000000E+00  0.13773283158E+03  0.13773283167E+03  0.50400001928E-02 0. -1.
        1   -1    0    0  501    0  0.00000000000E+00  0.00000000000E+00 -0.11608255596E+04  0.11608255596E+04  0.50400001928E-02 0.  1.
    10030    2    1    2    0    0  0.00000000000E+00  0.00000000000E+00 -0.10230927280E+04  0.12985583913E+04  0.79970942563E+03 0.  0.
        2    1    3    3  502    0 -0.10240744931E+03 -0.16215597871E+03 -0.10812667033E+04  0.10981436750E+04  0.25500000920E-02 0.  1.
       -2    1    3    3    0  502  0.10240744931E+03  0.16215597871E+03  0.58173975322E+02  0.20041471631E+03  0.25500000920E-02 0. -1.
</event>
<event>
 5   0  0.2478000E-03  0.7997018E+03  0.7818609E-02  0.9560449E-01
       -4   -1    0    0    0  501  0.00000000000E+00  0.00000000000E+00  0.17713478443E+03  0.17713933712E+03  0.12699999809E+01 0.  1.
        4   -1    0    0  501    0  0.00000000000E+00  0.00000000000E+00 -0.90257720325E+03  0.90257809675E+03  0.12699999809E+01 0. -1.
    10030    2    1    2    0    0  0.00000000000E+00  0.00000000000E+00 -0.72544241882E+03  0.10797174339E+04  0.79970184067E+03 0.  0.
        2    1    3    3  502    0 -0.21020605413E+01 -0.37571931600E+03 -0.54740739433E+03  0.66394599061E+03  0.25500000920E-02 0. -1.
       -2    1    3    3    0  502  0.21020605413E+01  0.37571931600E+03 -0.17803502449E+03  0.41577144325E+03  0.25500000920E-02 0.  1.
</event>
<event>
 5   0  0.6256781E-03  0.8056241E+03  0.7818609E-02  0.9551912E-01
       -2   -1    0    0    0  501  0.00000000000E+00  0.00000000000E+00  0.72176506556E+02  0.72176506601E+02  0.25500000920E-02 0. -1.
        2   -1    0    0  501    0  0.00000000000E+00  0.00000000000E+00 -0.22480657363E+04  0.22480657363E+04  0.25500000920E-02 0.  1.
    10030    2    1    2    0    0  0.00000000000E+00  0.00000000000E+00 -0.21758892298E+04  0.23202422429E+04  0.80562405974E+03 0.  0.
        1    1    3    3  502    0 -0.34282126686E+03 -0.11562119292E+03 -0.57789941717E+03  0.68180819712E+03  0.50400001928E-02 0. -1.
       -1    1    3    3    0  502  0.34282126686E+03  0.11562119292E+03 -0.15979898126E+04  0.16384340458E+04  0.50400001928E-02 0.  1.
</event>
<event>
 5   0  0.3860515E-03  0.7961330E+03  0.7818609E-02  0.9565631E-01
       -1   -1    0    0    0  501  0.00000000000E+00  0.00000000000E+00  0.12163822940E+03  0.12163822951E+03  0.50400001928E-02 0.  1.
        1   -1    0    0  501    0  0.00000000000E+00  0.00000000000E+00 -0.13026902872E+04  0.13026902872E+04  0.50400001928E-02 0. -1.
    10030    2    1    2    0    0  0.00000000000E+00  0.00000000000E+00 -0.11810520578E+04  0.14243285167E+04  0.79613300414E+03 0.  0.
        4    1    3    3  502    0  0.20874898757E+03 -0.89867489673E+02 -0.58486233088E+01  0.22735022500E+03  0.12699999809E+01 0.  1.
       -4    1    3    3    0  502 -0.20874898757E+03  0.89867489673E+02 -0.11752034344E+04  0.11969782917E+04  0.12699999809E+01 0. -1.
</event>
<event>
 5   0  0.3753450E-03  0.8012538E+03  0.7818609E-02  0.9558204E-01
        1   -1    0    0  501    0  0.00000000000E+00  0.00000000000E+00  0.88946268038E+03  0.88946268039E+03  0.50400001928E-02 0. -1.
       -1   -1    0    0    0  501  0.00000000000E+00  0.00000000000E+00 -0.18044815504E+03  0.18044815511E+03  0.50400001928E-02 0.  1.
    10030    2    1    2    0    0  0.00000000000E+00  0.00000000000E+00  0.70901452534E+03  0.10699108355E+04  0.80125376678E+03 0.  0.
        5    1    3    3  502    0 -0.84942497342E+02 -0.20483521411E+03 -0.90983772058E+02  0.23973491521E+03  0.46999998093E+01 0.  1.
       -5    1    3    3    0  502  0.84942497342E+02  0.20483521411E+03  0.79999829740E+03  0.83017592029E+03  0.46999998093E+01 0. -1.
</event>
<event>
 5   0  0.3714448E-03  0.8000857E+03  0.7818609E-02  0.9559893E-01
        1   -1    0    0  501    0  0.00000000000E+00  0.00000000000E+00  0.43931438244E+03  0.43931438247E+03  0.50400001928E-02 0. -1.
       -1   -1    0    0    0  501  0.00000000000E+00  0.00000000000E+00 -0.36428192064E+03  0.36428192067E+03  0.50400001928E-02 0.  1.
    10030    2    1    2    0    0  0.00000000000E+00  0.00000000000E+00  0.75032461797E+02  0.80359630314E+03  0.80008571297E+03 0.  0.
        1    1    3    3  502    0  0.14287503712E+03  0.33973091055E+03  0.19377495071E+03  0.41638815949E+03  0.50400001928E-02 0. -1.
       -1    1    3    3    0  502 -0.14287503712E+03 -0.33973091055E+03 -0.11874248891E+03  0.38720814365E+03  0.50400001928E-02 0.  1.
</event>
<event>
 5   0  0.3627496E-03  0.8007769E+03  0.7818609E-02  0.9558893E-01
       -1   -1    0    0    0  501  0.00000000000E+00  0.00000000000E+00  0.12902015264E+03  0.12902015274E+03  0.50400001928E-02 0. -1.
        1   -1    0    0  501    0  0.00000000000E+00  0.00000000000E+00 -0.12425261532E+04  0.12425261532E+04  0.50400001928E-02 0.  1.
    10030    2    1    2    0    0  0.00000000000E+00  0.00000000000E+00 -0.11135060006E+04  0.13715463060E+04  0.80077690783E+03 0.  0.
        3    1    3    3  502    0 -0.30183739270E+03  0.21451304835E+03 -0.29593219484E+03  0.47402271432E+03  0.10100000352E+00 0. -1.
       -3    1    3    3    0  502  0.30183739270E+03 -0.21451304835E+03 -0.81757380576E+03  0.89752359167E+03  0.10100000352E+00 0.  1.
</event>
<event>
 5   0  0.6536209E-03  0.7997462E+03  0.7818609E-02  0.9560384E-01
       -2   -1    0    0    0  501  0.00000000000E+00  0.00000000000E+00  0.14349458659E+03  0.14349458661E+03  0.25500000920E-02 0.  1.
        2   -1    0    0  501    0  0.00000000000E+00  0.00000000000E+00 -0.11143174009E+04  0.11143174009E+04  0.25500000920E-02 0. -1.
    10030    2    1    2    0    0  0.00000000000E+00  0.00000000000E+00 -0.97082281435E+03  0.12578119876E+04  0.79974624674E+03 0.  0.
        3    1    3    3  502    0 -0.19925547155E+03 -0.11432723630E+03 -0.10001764265E+04  0.10262194474E+04  0.10100000352E+00 0. -1.
       -3    1    3    3    0  502  0.19925547155E+03  0.11432723630E+03  0.29353612157E+02  0.23159254014E+03  0.10100000352E+00 0.  1.
</event>
<event>
 5   0  0.6256781E-03  0.8019243E+03  0.7818609E-02  0.9557236E-01
       -2   -1    0    0    0  501  0.00000000000E+00  0.00000000000E+00  0.79722617760E+02  0.79722617801E+02  0.25500000920E-02 0.  1.
        2   -1    0    0  501    0  0.00000000000E+00  0.00000000000E+00 -0.20166253116E+04  0.20166253116E+04  0.25500000920E-02 0. -1.
    10030    2    1    2    0    0  0.00000000000E+00  0.00000000000E+00 -0.19369026938E+04  0.20963479294E+04  0.80192430797E+03 0.  0.
        1    1    3    3  502    0 -0.18145741493E+03 -0.29834680447E+03 -0.45330493483E+03  0.57220885447E+03  0.50400001928E-02 0.  1.
       -1    1    3    3    0  502  0.18145741493E+03  0.29834680447E+03 -0.14835977590E+04  0.15241390749E+04  0.50400001928E-02 0. -1.
</event>
<event>
 5   0  0.3753450E-03  0.7992438E+03  0.7818609E-02  0.9561112E-01
        1   -1    0    0  501    0  0.00000000000E+00  0.00000000000E+00  0.98481290265E+03  0.98481290267E+03  0.50400001928E-02 0.  1.
       -1   -1    0    0    0  501  0.00000000000E+00  0.00000000000E+00 -0.16216041265E+03  0.16216041273E+03  0.50400001928E-02 0. -1.
    10030    2    1    2    0    0  0.00000000000E+00  0.00000000000E+00  0.82265249000E+03  0.11469733154E+04  0.79924380943E+03 0.  0.
        5    1    3    3  502    0  0.50839534544E+02  0.32781461311E+03  0.91628481422E+02  0.34418737259E+03  0.46999998093E+01 0. -1.
       -5    1    3    3    0  502 -0.50839534544E+02 -0.32781461311E+03  0.73102400858E+03  0.80278594280E+03  0.46999998093E+01 0.  1.
</event>
<event>
 5   0  0.6337108E-03  0.8004098E+03  0.7818609E-02  0.9559424E-01
       -2   -1    0    0    0  501  0.00000000000E+00  0.00000000000E+00  0.65829650998E+02  0.65829651047E+02  0.25500000920E-02 0.  1.
        2   -1    0    0  501    0  0.00000000000E+00  0.00000000000E+00 -0.24330061982E+04  0.24330061982E+04  0.25500000920E-02 0. -1.
    10030    2    1    2    0    0  0.00000000000E+00  0.00000000000E+00 -0.23671765472E+04  0.24988358493E+04  0.80040976748E+03 0.  0.
        4    1    3    3  502    0 -0.21506375640E+03  0.21866109679E+03 -0.19862212810E+04  0.20097615990E+04  0.12699999809E+01 0. -1.
       -4    1    3    3    0  502  0.21506375640E+03 -0.21866109679E+03 -0.38095526620E+03  0.48907425031E+03  0.12699999809E+01 0.  1.
</event>
<event>
 5   0  0.3671128E-03  0.8005264E+03  0.7818609E-02  0.9559256E-01
       -1   -1    0    0    0  501  0.00000000000E+00  0.00000000000E+00  0.11147027686E+03  0.11147027697E+03  0.50400001928E-02 0. -1.
        1   -1    0    0  501    0  0.00000000000E+00  0.00000000000E+00 -0.14372496486E+04  0.14372496486E+04  0.50400001928E-02 0.  1.
    10030    2    1    2    0    0  0.00000000000E+00  0.00000000000E+00 -0.13257793717E+04  0.15487199256E+04  0.80052636767E+03 0.  0.
        2    1    3    3  502    0  0.33062515278E+03  0.20346881580E+03 -0.47434476887E+03  0.61295636909E+03  0.25500000920E-02 0. -1.
       -2    1    3    3    0  502 -0.33062515278E+03 -0.20346881580E+03 -0.85143460286E+03  0.93576355647E+03  0.25500000920E-02 0.  1.
</event>
<event>
 5   0  0.5813850E-03  0.8027246E+03  0.7818609E-02  0.9556082E-01
        2   -1    0    0  501    0  0.00000000000E+00  0.00000000000E+00  0.17241894527E+04  0.17241894527E+04  0.25500000920E-02 0.  1.
       -2   -1    0    0    0  501  0.00000000000E+00  0.00000000000E+00 -0.93430401154E+02  0.93430401188E+02  0.25500000920E-02 0. -1.
    10030    2    1    2    0    0  0.00000000000E+00  0.00000000000E+00  0.16307590516E+04  0.18176198539E+04  0.80272464087E+03 0.  0.
        5    1    3    3  502    0  0.30941544981E+03  0.11746088088E+03  0.13294067251E+04  0.13699924488E+04  0.46999998093E+01 0.  1.
       -5    1    3    3    0  502 -0.30941544981E+03 -0.11746088088E+03  0.30135232648E+03  0.44762740509E+03  0.46999998093E+01 0. -1.
</event>
<event>
 5   0  0.5813850E-03  0.7998255E+03  0.7818609E-02  0.9560270E-01
        2   -1    0    0  501    0  0.00000000000E+00  0.00000000000E+00  0.16215481603E+04  0.16215481603E+04  0.25500000920E-02 0. -1.
       -2   -1    0    0    0  501  0.00000000000E+00  0.00000000000E+00 -0.98628098421E+02  0.98628098454E+02  0.25500000920E-02 0.  1.
    10030    2    1    2    0    0  0.00000000000E+00  0.00000000000E+00  0.15229200619E+04  0.17201762588E+04  0.79982550992E+03 0.  0.
        5    1    3    3  502    0  0.48575026723E+02  0.15311651761E+03 -0.26126780323E+02  0.16281553929E+03  0.46999998093E+01 0.  1.
       -5    1    3    3    0  502 -0.48575026723E+02 -0.15311651761E+03  0.15490468422E+04  0.15573607195E+04  0.46999998093E+01 0. -1.
</event>
<event>
 5   0  0.6536209E-03  0.7933319E+03  0.7818609E-02  0.9569719E-01
       -2   -1    0    0    0  501  0.00000000000E+00  0.00000000000E+00  0.39377087284E+03  0.39377087285E+03  0.25500000920E-02 0. -1.
        2   -1    0    0  501    0  0.00000000000E+00  0.00000000000E+00 -0.39958229422E+03  0.39958229422E+03  0.25500000920E-02 0.  1.
    10030    2    1    2    0    0  0.00000000000E+00  0.00000000000E+00 -0.58114213729E+01  0.79335316707E+03  0.79333188206E+03 0.  0.
        3    1    3    3  502    0  0.35441153128E+03  0.12238894597E+03 -0.13235906204E+03  0.39762484719E+03  0.10100000352E+00 0.  1.
       -3    1    3    3    0  502 -0.35441153128E+03 -0.12238894597E+03  0.12654764067E+03  0.39572831988E+03  0.10100000352E+00 0. -1.
</event>
<event>
 5   0  0.5813850E-03  0.7952976E+03  0.7818609E-02  0.9566849E-01
        2   -1    0    0  501    0  0.00000000000E+00  0.00000000000E+00  0.29399235719E+03  0.29399235720E+03  0.25500000920E-02 0. -1.
       -2   -1    0    0    0  501  0.00000000000E+00  0.00000000000E+00 -0.53785266290E+03  0.53785266291E+03  0.25500000920E-02 0.  1.
    10030    2    1    2    0    0  0.00000000000E+00  0.00000000000E+00 -0.24386030572E+03  0.83184502011E+03  0.79529761019E+03 0.  0.
        5    1    3    3  502    0 -0.25804710971E+03  0.30243858608E+03 -0.11490798790E+03  0.41386392071E+03  0.46999998093E+01 0. -1.
       -5    1    3    3    0  502  0.25804710971E+03 -0.30243858608E+03 -0.12895231781E+03  0.41798109940E+03  0.46999998093E+01 0.  1.
</event>
<event>
 5   0  0.6153659E-03  0.8016301E+03  0.7818609E-02  0.9557661E-01
        2   -1    0    0  501    0  0.00000000000E+00  0.00000000000E+00  0.70378625452E+03  0.70378625453E+03  0.25500000920E-02 0.  1.
       -2   -1    0    0    0  501  0.00000000000E+00  0.00000000000E+00 -0.22826916315E+03  0.22826916316E+03  0.25500000920E-02 0. -1.
    10030    2    1    2    0    0  0.00000000000E+00  0.00000000000E+00  0.47551709138E+03  0.93205541769E+03  0.80163008767E+03 0.  0.
        2    1    3    3  502    0  0.13955059245E+02  0.36301617939E+03  0.40862874539E+02  0.36557525176E+03  0.25500000920E-02 0. -1.
       -2    1    3    3    0  502 -0.13955059245E+02 -0.36301617939E+03  0.43465421684E+03  0.56648016593E+03  0.25500000920E-02 0.  1.
</event>
<event>
 5   0  0.5813850E-03  0.7997677E+03  0.7818609E-02  0.9560353E-01
       -2   -1    0    0    0  501  0.00000000000E+00  0.00000000000E+00  0.25178784883E+03  0.25178784884E+03  0.25500000920E-02 0.  1.
        2   -1    0    0  501    0  0.00000000000E+00  0.00000000000E+00 -0.63508664537E+03  0.63508664537E+03  0.25500000920E-02 0. -1.
    10030    2    1    2    0    0  0.00000000000E+00  0.00000000000E+00 -0.38329879654E+03  0.88687449422E+03  0.79976771694E+03 0.  0.
        5    1    3    3  502    0 -0.39927274000E+02  0.31462016258E+03 -0.46169920080E+03  0.56015022622E+03  0.46999998093E+01 0. -1.
       -5    1    3    3    0  502  0.39927274000E+02 -0.31462016258E+03  0.78400404263E+02  0.32672426800E+03  0.46999998093E+01 0.  1.
</event>
<event>
 5   0  0.6153659E-03  0.8033233E+03  0.7818609E-02  0.9555219E-01
       -2   -1    0    0    0  501  0.00000000000E+00  0.00000000000E+00  0.22206564785E+03  0.22206564787E+03  0.25500000920E-02 0. -1.
        2   -1    0    0  501    0  0.00000000000E+00  0.00000000000E+00 -0.72650625254E+03  0.72650625255E+03  0.25500000920E-02 0.  1.
    10030    2    1    2    0    0  0.00000000000E+00  0.00000000000E+00 -0.50444060469E+03  0.94857190042E+03  0.80332330142E+03 0.  0.
        2    1    3    3  502    0  0.36547663917E+03 -0.74484590678E+01 -0.55682249400E+02  0.36976907149E+03  0.25500000920E-02 0. -1.
       -2    1    3    3    0  502 -0.36547663917E+03  0.74484590678E+01 -0.44875835529E+03  0.57880282893E+03  0.25500000920E-02 0.  1.
</event>
<event>
 5   0  0.6337108E-03  0.8130580E+03  0.7818609E-02  0.9541306E-01
       -2   -1    0    0    0  501  0.00000000000E+00  0.00000000000E+00  0.14211355929E+03  0.14211355931E+03  0.25500000920E-02 0. -1.
        2   -1    0    0  501    0  0.00000000000E+00  0.00000000000E+00 -0.11629138433E+04  0.11629138433E+04  0.25500000920E-02 0.  1.
    10030    2    1    2    0    0  0.00000000000E+00  0.00000000000E+00 -0.10208002840E+04  0.13050274026E+04  0.81305799408E+03 0.  0.
        4    1    3    3  502    0  0.27550258009E+03  0.22253235810E+03 -0.83078211794E+03  0.90311840997E+03  0.12699999809E+01 0.  1.
       -4    1    3    3    0  502 -0.27550258009E+03 -0.22253235810E+03 -0.19001816611E+03  0.40190899267E+03  0.12699999809E+01 0. -1.
</event>
<event>
 5   0  0.6256781E-03  0.7768873E+03  0.7818609E-02  0.9594088E-01
       -2   -1    0    0    0  501  0.00000000000E+00  0.00000000000E+00  0.20648785483E+03  0.20648785485E+03  0.25500000920E-02 0.  1.
        2   -1    0    0  501    0  0.00000000000E+00  0.00000000000E+00 -0.73073765924E+03  0.73073765924E+03  0.25500000920E-02 0. -1.
    10030    2    1    2    0    0  0.00000000000E+00  0.00000000000E+00 -0.52424980440E+03  0.93722551409E+03  0.77688725491E+03 0.  0.
        1    1    3    3  502    0  0.24779389090E+03  0.75619373514E+02 -0.61128618937E+03  0.66392085926E+03  0.50400001928E-02 0. -1.
       -1    1    3    3    0  502 -0.24779389090E+03 -0.75619373514E+02  0.87036384972E+02  0.27330465483E+03  0.50400001928E-02 0.  1.
</event>
<event>
 5   0  0.3714448E-03  0.8068353E+03  0.7818609E-02  0.9550176E-01
        1   -1    0    0  501    0  0.00000000000E+00  0.00000000000E+00  0.10265699661E+04  0.10265699661E+04  0.50400001928E-02 0. -1.
       -1   -1    0    0    0  501  0.00000000000E+00  0.00000000000E+00 -0.15853357072E+03  0.15853357080E+03  0.50400001928E-02 0.  1.
    10030    2    1    2    0    0  0.00000000000E+00  0.00000000000E+00  0.86803639536E+03  0.11851035369E+04  0.80683530506E+03 0.  0.
        1    1    3    3  502    0  0.22136139612E+03 -0.17545853118E+03  0.85707996482E+03  0.90242596925E+03  0.50400001928E-02 0. -1.
       -1    1    3    3    0  502 -0.22136139612E+03  0.17545853118E+03  0.10956430539E+02  0.28267756765E+03  0.50400001928E-02 0.  1.
</event>
<event>
 5   0  0.3753450E-03  0.8014934E+03  0.7818609E-02  0.9557858E-01
        1   -1    0    0  501    0  0.00000000000E+00  0.00000000000E+00  0.39398812632E+03  0.39398812636E+03  0.50400001928E-02 0. -1.
       -1   -1    0    0    0  501  0.00000000000E+00  0.00000000000E+00 -0.40762119295E+03  0.40762119298E+03  0.50400001928E-02 0.  1.
    10030    2    1    2    0    0  0.00000000000E+00  0.00000000000E+00 -0.13633066630E+02  0.80160931934E+03  0.80149338135E+03 0.  0.
        5    1    3    3  502    0 -0.44701224627E+02  0.10460148089E+03 -0.39110661354E+03  0.40734032754E+03  0.46999998093E+01 0.  1.
       -5    1    3    3    0  502  0.44701224627E+02 -0.10460148089E+03  0.37747354691E+03  0.39426899180E+03  0.46999998093E+01 0. -1.
</event>
<event>
 5   0  0.3671128E-03  0.7998441E+03  0.7818609E-02  0.9560243E-01
       -1   -1    0    0    0  501  0.00000000000E+00  0.00000000000E+00  0.78560121095E+03  0.78560121097E+03  0.50400001928E-02 0. -1.
        1   -1    0    0  501    0  0.00000000000E+00  0.00000000000E+00 -0.20358630888E+03  0.20358630894E+03  0.50400001928E-02 0.  1.
    10030    2    1    2    0    0  0.00000000000E+00  0.00000000000E+00  0.58201490207E+03  0.98918751991E+03  0.79984411188E+03 0.  0.
        2    1    3    3  502    0 -0.12851450177E+03 -0.37826075353E+03  0.26818740453E+03  0.48116697599E+03  0.25500000920E-02 0. -1.
       -2    1    3    3    0  502  0.12851450177E+03  0.37826075353E+03  0.31382749754E+03  0.50802054392E+03  0.25500000920E-02 0.  1.
</event>
<event>
 5   0  0.3753450E-03  0.8021973E+03  0.7818609E-02  0.9556842E-01
        1   -1    0    0  501    0  0.00000000000E+00  0.00000000000E+00  0.61420425395E+03  0.61420425397E+03  0.50400001928E-02 0.  1.
       -1   -1    0    0    0  501  0.00000000000E+00  0.00000000000E+00 -0.26193264154E+03  0.26193264159E+03  0.50400001928E-02 0. -1.
    10030    2    1    2    0    0  0.00000000000E+00  0.00000000000E+00  0.35227161241E+03  0.87613689556E+03  0.80219733910E+03 0.  0.
        5    1    3    3  502    0 -0.89136330155E+02  0.38694690455E+03  0.23777202020E+03  0.46285074904E+03  0.46999998093E+01 0.  1.
       -5    1    3    3    0  502  0.89136330155E+02 -0.38694690455E+03  0.11449959221E+03  0.41328614653E+03  0.46999998093E+01 0. -1.
</event>
<event>
 5   0  0.6256781E-03  0.7991147E+03  0.7818609E-02  0.9561299E-01
       -2   -1    0    0    0  501  0.00000000000E+00  0.00000000000E+00  0.27561738946E+03  0.27561738947E+03  0.25500000920E-02 0.  1.
        2   -1    0    0  501    0  0.00000000000E+00  0.00000000000E+00 -0.57923081408E+03  0.57923081408E+03  0.25500000920E-02 0. -1.
    10030    2    1    2    0    0  0.00000000000E+00  0.00000000000E+00 -0.30361342461E+03  0.85484820356E+03  0.79911472238E+03 0.  0.
        1    1    3    3  502    0 -0.28354211060E+03 -0.12314318661E+03 -0.42261408153E+03  0.52360580098E+03  0.50400001928E-02 0. -1.
       -1    1    3    3    0  502  0.28354211060E+03  0.12314318661E+03  0.11900065691E+03  0.33124240257E+03  0.50400001928E-02 0.  1.
</event>
<event>
 5   0  0.6337108E-03  0.8015143E+03  0.7818609E-02  0.9557828E-01
       -2   -1    0    0    0  501  0.00000000000E+00  0.00000000000E+00  0.97595416067E+03  0.97595416067E+03  0.25500000920E-02 0.  1.
        2   -1    0    0  501    0  0.00000000000E+00  0.00000000000E+00 -0.16456337114E+03  0.16456337116E+03  0.25500000920E-02 0. -1.
    10030    2    1    2    0    0  0.00000000000E+00  0.00000000000E+00  0.81139078952E+03  0.11405175318E+04  0.80151433368E+03 0.  0.
        4    1    3    3  502    0  0.92912147353E+02  0.25618239323E+03  0.82381762076E+03  0.86772067562E+03  0.12699999809E+01 0.  1.
       -4    1    3    3    0  502 -0.92912147353E+02 -0.25618239323E+03 -0.12426831235E+02  0.27279685621E+03  0.12699999809E+01 0. -1.
</event>
<event>
 5   0  0.3860515E-03  0.8016477E+03  0.7818609E-02  0.9557635E-01
       -1   -1    0    0    0  501  0.00000000000E+00  0.00000000000E+00  0.78804847005E+02  0.78804847166E+02  0.50400001928E-02 0.  1.
        1   -1    0    0  501    0  0.00000000000E+00  0.00000000000E+00 -0.20387038766E+04  0.20387038766E+04  0.50400001928E-02 0. -1.
    10030    2    1    2    0    0  0.00000000000E+00  0.00000000000E+00 -0.19598990296E+04  0.21175087238E+04  0.80164767139E+03 0.  0.
        4    1    3    3  502    0  0.26174382578E+02 -0.17469250920E+03 -0.19303398960E+04  0.19384056073E+04  0.12699999809E+01 0. -1.
       -4    1    3    3    0  502 -0.26174382578E+02  0.17469250920E+03 -0.29559133557E+02  0.17910311653E+03  0.12699999809E+01 0.  1.
</event>
<event>
 5   0  0.3671128E-03  0.7777339E+03  0.7818609E-02  0.9592818E-01
       -1   -1    0    0    0  501  0.00000000000E+00  0.00000000000E+00  0.21791348204E+03  0.21791348210E+03  0.50400001928E-02 0. -1.
        1   -1    0    0  501    0  0.00000000000E+00  0.00000000000E+00 -0.69393371466E+03  0.69393371468E+03  0.50400001928E-02 0.  1.
    10030    2    1    2    0    0  0.00000000000E+00  0.00000000000E+00 -0.47602023262E+03  0.91184719678E+03  0.77773391878E+03 0.  0.
        2    1    3    3  502    0  0.16611193923E+03 -0.24724476091E+03  0.55086937864E+02  0.30291536587E+03  0.25500000920E-02 0. -1.
       -2    1    3    3    0  502 -0.16611193923E+03  0.24724476091E+03 -0.53110717049E+03  0.60893183091E+03  0.25500000920E-02 0.  1.
</event>
<event>
 5   0  0.3671128E-03  0.8021883E+03  0.7818609E-02  0.9556855E-01
        1   -1    0    0  501    0  0.00000000000E+00  0.00000000000E+00  0.85886678126E+03  0.85886678128E+03  0.50400001928E-02 0.  1.
       -1   -1    0    0    0  501  0.00000000000E+00  0.00000000000E+00 -0.18731253326E+03  0.18731253333E+03  0.50400001928E-02 0. -1.
    10030    2    1    2    0    0  0.00000000000E+00  0.00000000000E+00  0.67155424800E+03  0.10461793146E+04  0.80218828856E+03 0.  0.
        2    1    3    3  502    0  0.42443268042E+02 -0.39651987241E+03  0.27972762110E+03  0.48711085209E+03  0.25500000920E-02 0. -1.
       -2    1    3    3    0  502 -0.42443268042E+02  0.39651987241E+03  0.39182662691E+03  0.55906846251E+03  0.25500000920E-02 0.  1.
</event>
<event>
 5   0  0.6153659E-03  0.8005510E+03  0.7818609E-02  0.9559220E-01
        2   -1    0    0  501    0  0.00000000000E+00  0.00000000000E+00  0.11367920561E+03  0.11367920564E+03  0.25500000920E-02 0. -1.
       -2   -1    0    0    0  501  0.00000000000E+00  0.00000000000E+00 -0.14094088289E+04  0.14094088289E+04  0.25500000920E-02 0.  1.
    10030    2    1    2    0    0  0.00000000000E+00  0.00000000000E+00 -0.12957296233E+04  0.15230880346E+04  0.80055100044E+03 0.  0.
        2    1    3    3  502    0 -0.99043357016E+02 -0.31557748416E+03 -0.21896014558E+03  0.39666393892E+03  0.25500000920E-02 0. -1.
       -2    1    3    3    0  502  0.99043357016E+02  0.31557748416E+03 -0.10767694777E+04  0.11264240956E+04  0.25500000920E-02 0.  1.
</event>
<event>
 5   0  0.3860515E-03  0.7993794E+03  0.7818609E-02  0.9560916E-01
        1   -1    0    0  501    0  0.00000000000E+00  0.00000000000E+00  0.30238257247E+03  0.30238257251E+03  0.50400001928E-02 0.  1.
       -1   -1    0    0    0  501  0.00000000000E+00  0.00000000000E+00 -0.52831039136E+03  0.52831039139E+03  0.50400001928E-02 0. -1.
    10030    2    1    2    0    0  0.00000000000E+00  0.00000000000E+00 -0.22592781889E+03  0.83069296390E+03  0.79937939736E+03 0.  0.
        4    1    3    3  502    0 -0.26834983835E+03  0.16294430626E+03 -0.37001524052E+03  0.48525804867E+03  0.12699999809E+01 0. -1.
       -4    1    3    3    0  502  0.26834983835E+03 -0.16294430626E+03  0.14408742163E+03  0.34543491523E+03  0.12699999809E+01 0.  1.
</event>
<event>
 5   0  0.3671128E-03  0.8455560E+03  0.7818609E-02  0.9496321E-01
        1   -1    0    0  501    0  0.00000000000E+00  0.00000000000E+00  0.16186702011E+04  0.16186702011E+04  0.50400001928E-02 0. -1.
       -1   -1    0    0    0  501  0.00000000000E+00  0.00000000000E+00 -0.11042474973E+03  0.11042474985E+03  0.50400001928E-02 0.  1.
    10030    2    1    2    0    0  0.00000000000E+00  0.00000000000E+00  0.15082454513E+04  0.17290949509E+04  0.84555603471E+03 0.  0.
        2    1    3    3  502    0  0.10059539336E+02 -0.34894585520E+03  0.26643232359E+03  0.43914756888E+03  0.25500000920E-02 0.  1.
       -2    1    3    3    0  502 -0.10059539336E+02  0.34894585520E+03  0.12418131277E+04  0.12899473820E+04  0.25500000920E-02 0. -1.
</event>
<event>
 5   0  0.3627496E-03  0.7974778E+03  0.7818609E-02  0.9563675E-01
       -1   -1    0    0    0  501  0.00000000000E+00  0.00000000000E+00  0.15658621340E+03  0.15658621348E+03  0.50400001928E-02 0. -1.
        1   -1    0    0  501    0  0.00000000000E+00  0.00000000000E+00 -0.10153685498E+04  0.10153685498E+04  0.50400001928E-02 0.  1.
    10030    2    1    2    0    0  0.00000000000E+00  0.00000000000E+00 -0.85878233642E+03  0.11719547633E+04  0.79747781532E+03 0.  0.
        3    1    3    3  502    0 -0.15479771098E+03  0.23050013206E+03 -0.88249755708E+01  0.27779584698E+03  0.10100000352E+00 0. -1.
       -3    1    3    3    0  502  0.15479771098E+03 -0.23050013206E+03 -0.84995736085E+03  0.89415891634E+03  0.10100000352E+00 0.  1.
</event>
<event>
 5   0  0.3860515E-03  0.8035575E+03  0.7818609E-02  0.9554882E-01
       -1   -1    0    0    0  501  0.00000000000E+00  0.00000000000E+00  0.33306539760E+03  0.33306539764E+03  0.50400001928E-02 0.  1.
        1   -1    0    0  501    0  0.00000000000E+00  0.00000000000E+00 -0.48466808535E+03  0.48466808537E+03  0.50400001928E-02 0. -1.
    10030    2    1    2    0    0  0.00000000000E+00  0.00000000000E+00 -0.15160268775E+03  0.81773348301E+03  0.80355751151E+03 0.  0.
        4    1    3    3  502    0  0.33448183166E+03  0.13214318277E+03 -0.25808318047E+03  0.44266065716E+03  0.12699999809E+01 0. -1.
       -4    1    3    3    0  502 -0.33448183166E+03 -0.13214318277E+03  0.10648049272E+03  0.37507282585E+03  0.12699999809E+01 0.  1.
</event>
<event>
 5   0  0.6337108E-03  0.8022850E+03  0.7818609E-02  0.9556716E-01
       -2   -1    0    0    0  501  0.00000000000E+00  0.00000000000E+00  0.92172570505E+02  0.92172570540E+02  0.25500000920E-02 0.  1.
        2   -1    0    0  501    0  0.00000000000E+00  0.00000000000E+00 -0.17458045048E+04  0.17458045048E+04  0.25500000920E-02 0. -1.
    10030    2    1    2    0    0  0.00000000000E+00  0.00000000000E+00 -0.16536319343E+04  0.18379770754E+04  0.80228495896E+03 0.  0.
        4    1    3    3  502    0  0.40818279296E+02  0.30818410583E+02  0.84667588557E+02  0.98924818967E+02  0.12699999809E+01 0.  1.
       -4    1    3    3    0  502 -0.40818279296E+02 -0.30818410583E+02 -0.17382995229E+04  0.17390522564E+04  0.12699999809E+01 0. -1.
</event>
<event>
 5   0  0.6153659E-03  0.8002547E+03  0.7818609E-02  0.9559649E-01
        2   -1    0    0  501    0  0.00000000000E+00  0.00000000000E+00  0.71764883722E+03  0.71764883722E+03  0.25500000920E-02 0. -1.
       -2   -1    0    0    0  501  0.00000000000E+00  0.00000000000E+00 -0.22309223344E+03  0.22309223346E+03  0.25500000920E-02 0.  1.
    10030    2    1    2    0    0  0.00000000000E+00  0.00000000000E+00  0.49455660377E+03  0.94074107068E+03  0.80025466429E+03 0.  0.
        2    1    3    3  502    0 -0.14299159668E+02 -0.34735470148E+03  0.14405825308E+02  0.34794724085E+03  0.25500000920E-02 0.  1.
       -2    1    3    3    0  502  0.14299159668E+02  0.34735470148E+03  0.48015077847E+03  0.59279382982E+03  0.25500000920E-02 0. -1.
</event>
<event>
 5   0  0.5813850E-03  0.7986358E+03  0.7818609E-02  0.9561994E-01
       -2   -1    0    0    0  501  0.00000000000E+00  0.00000000000E+00  0.14650780310E+03  0.14650780312E+03  0.25500000920E-02 0.  1.
        2   -1    0    0  501    0  0.00000000000E+00  0.00000000000E+00 -0.10883705984E+04  0.10883705984E+04  0.25500000920E-02 0. -1.
    10030    2    1    2    0    0  0.00000000000E+00  0.00000000000E+00 -0.94186279527E+03  0.12348784015E+04  0.79863580021E+03 0.  0.
        5    1    3    3  502    0  0.31097698465E+03  0.20637209807E+03 -0.69034732088E+03  0.78479146357E+03  0.46999998093E+01 0. -1.
       -5    1    3    3    0  502 -0.31097698465E+03 -0.20637209807E+03 -0.25151547439E+03  0.45008693793E+03  0.46999998093E+01 0.  1.
</event>
<event>
 5   0  0.6536209E-03  0.7988564E+03  0.7818609E-02  0.9561674E-01
        2   -1    0    0  501    0  0.00000000000E+00  0.00000000000E+00  0.58235898157E+03  0.58235898157E+03  0.25500000920E-02 0.  1.
       -2   -1    0    0    0  501  0.00000000000E+00  0.00000000000E+00 -0.27395966115E+03  0.27395966117E+03  0.25500000920E-02 0. -1.
    10030    2    1    2    0    0  0.00000000000E+00  0.00000000000E+00  0.30839932041E+03  0.85631864274E+03  0.79885635572E+03 0.  0.
        3    1    3    3  502    0  0.23033387523E+02  0.24826720387E+03 -0.18029719562E+03  0.30769177825E+03  0.10100000352E+00 0. -1.
       -3    1    3    3    0  502 -0.23033387523E+02 -0.24826720387E+03  0.48869651603E+03  0.54862686449E+03  0.10100000352E+00 0.  1.
</event>
<event>
 5   0  0.6256781E-03  0.8084451E+03  0.7818609E-02  0.9547873E-01
        2   -1    0    0  501    0  0.00000000000E+00  0.00000000000E+00  0.68194672354E+03  0.68194672355E+03  0.25500000920E-02 0. -1.
       -2   -1    0    0    0  501  0.00000000000E+00  0.00000000000E+00 -0.23960209550E+03  0.23960209551E+03  0.25500000920E-02 0.  1.
    10030    2    1    2    0    0  0.00000000000E+00  0.00000000000E+00  0.44234462805E+03  0.92154881906E+03  0.80844508530E+03 0.  0.
        1    1    3    3  502    0  0.29071324600E+02  0.38841856935E+03  0.34437538533E+03  0.51991204350E+03  0.50400001928E-02 0. -1.
       -1    1    3    3    0  502 -0.29071324600E+02 -0.38841856935E+03  0.97969242718E+02  0.40163677555E+03  0.50400001928E-02 0.  1.
</event>
<event>
 5   0  0.3627496E-03  0.8027071E+03  0.7818609E-02  0.9556107E-01
        1   -1    0    0  501    0  0.00000000000E+00  0.00000000000E+00  0.84965574798E+03  0.84965574799E+03  0.50400001928E-02 0. -1.
       -1   -1    0    0    0  501  0.00000000000E+00  0.00000000000E+00 -0.18958815670E+03  0.18958815677E+03  0.50400001928E-02 0.  1.
    10030    2    1    2    0    0  0.00000000000E+00  0.00000000000E+00  0.66006759128E+03  0.10392439048E+04  0.80270708762E+03 0.  0.
        3    1    3    3  502    0  0.27352219961E+03 -0.14571528392E+03 -0.13931733999E+00  0.30991509686E+03  0.10100000352E+00 0.  1.
       -3    1    3    3    0  502 -0.27352219961E+03  0.14571528392E+03  0.66020690862E+03  0.72932880791E+03  0.10100000352E+00 0. -1.
</event>
<event>
 5   0  0.3714448E-03  0.8002138E+03  0.7818609E-02  0.9559708E-01
        1   -1    0    0  501    0  0.00000000000E+00  0.00000000000E+00  0.61464431471E+03  0.61464431473E+03  0.50400001928E-02 0.  1.
       -1   -1    0    0    0  501  0.00000000000E+00  0.00000000000E+00 -0.26045228743E+03  0.26045228748E+03  0.50400001928E-02 0. -1.
    10030    2    1    2    0    0  0.00000000000E+00  0.00000000000E+00  0.35419202728E+03  0.87509660221E+03  0.80021376582E+03 0.  0.
        1    1    3    3  502    0 -0.21898406446E+03  0.97273322031E+02 -0.17330914190E+03  0.29572314478E+03  0.50400001928E-02 0. -1.
       -1    1    3    3    0  502  0.21898406446E+03 -0.97273322031E+02  0.52750116918E+03  0.57937345743E+03  0.50400001928E-02 0.  1.
</event>
<event>
 5   0  0.5813850E-03  0.7957575E+03  0.7818609E-02  0.9566178E-01
        2   -1    0    0  501    0  0.00000000000E+00  0.00000000000E+00  0.13285178358E+04  0.13285178358E+04  0.25500000920E-02 0. -1.
       -2   -1    0    0    0  501  0.00000000000E+00  0.00000000000E+00 -0.11916098402E+03  0.11916098405E+03  0.25500000920E-02 0.  1.
    10030    2    1    2    0    0  0.00000000000E+00  0.00000000000E+00  0.12093568517E+04  0.14476788198E+04  0.79575748221E+03 0.  0.
        5    1    3    3  502    0  0.26269816856E+03  0.26636631938E+03  0.35841363299E+03  0.51811559152E+03  0.46999998093E+01 0.  1.
       -5    1    3    3    0  502 -0.26269816856E+03 -0.26636631938E+03  0.85094321876E+03  0.92956322830E+03  0.46999998093E+01 0. -1.
</event>
<event>
 5   0  0.3671128E-03  0.7989335E+03  0.7818609E-02  0.9561562E-01
       -1   -1    0    0    0  501  0.00000000000E+00  0.00000000000E+00  0.13619148944E+03  0.13619148953E+03  0.50400001928E-02 0.  1.
        1   -1    0    0  501    0  0.00000000000E+00  0.00000000000E+00 -0.11716861468E+04  0.11716861468E+04  0.50400001928E-02 0. -1.
    10030    2    1    2    0    0  0.00000000000E+00  0.00000000000E+00 -0.10354946573E+04  0.13078776363E+04  0.79893349298E+03 0.  0.
        2    1    3    3  502    0 -0.24458524335E+03 -0.93053308132E+02 -0.10118287961E+04  0.10451212236E+04  0.25500000920E-02 0. -1.
       -2    1    3    3    0  502  0.24458524335E+03  0.93053308132E+02 -0.23665861226E+02  0.26275641270E+03  0.25500000920E-02 0.  1.
</event>
<event>
 5   0  0.6256781E-03  0.7984877E+03  0.7818609E-02  0.9562209E-01
       -2   -1    0    0    0  501  0.00000000000E+00  0.00000000000E+00  0.47388499870E+03  0.47388499871E+03  0.25500000920E-02 0. -1.
        2   -1    0    0  501    0  0.00000000000E+00  0.00000000000E+00 -0.33635934909E+03  0.33635934910E+03  0.25500000920E-02 0.  1.
    10030    2    1    2    0    0  0.00000000000E+00  0.00000000000E+00  0.13752564960E+03  0.81024434781E+03  0.79848769487E+03 0.  0.
        1    1    3    3  502    0 -0.12887708640E+03  0.27196204894E+03 -0.19744115947E+03  0.35993842660E+03  0.50400001928E-02 0.  1.
       -1    1    3    3    0  502  0.12887708640E+03 -0.27196204894E+03  0.33496680908E+03  0.45030592121E+03  0.50400001928E-02 0. -1.
</event>
<event>
 5   0  0.2478000E-03  0.8028986E+03  0.7818609E-02  0.9555831E-01
       -3   -1    0    0    0  501  0.00000000000E+00  0.00000000000E+00  0.27721997062E+03  0.27721998902E+03  0.10100000352E+00 0. -1.
        3   -1    0    0  501    0  0.00000000000E+00  0.00000000000E+00 -0.58134887352E+03  0.58134888230E+03  0.10100000352E+00 0.  1.
    10030    2    1    2    0    0  0.00000000000E+00  0.00000000000E+00 -0.30412890290E+03  0.85856887132E+03  0.80289857219E+03 0.  0.
        5    1    3    3  502    0  0.24738557565E+03 -0.22013891953E+03  0.90556399628E+02  0.34334140217E+03  0.46999998093E+01 0. -1.
       -5    1    3    3    0  502 -0.24738557565E+03  0.22013891953E+03 -0.39468530253E+03  0.51522746915E+03  0.46999998093E+01 0.  1.
</event>
<event>
 5   0  0.6536209E-03  0.8018069E+03  0.7818609E-02  0.9557405E-01
       -2   -1    0    0    0  501  0.00000000000E+00  0.00000000000E+00  0.15120399643E+03  0.15120399645E+03  0.25500000920E-02 0. -1.
        2   -1    0    0  501    0  0.00000000000E+00  0.00000000000E+00 -0.10629584552E+04  0.10629584552E+04  0.25500000920E-02 0.  1.
    10030    2    1    2    0    0  0.00000000000E+00  0.00000000000E+00 -0.91175445872E+03  0.12141624516E+04  0.80180687569E+03 0.  0.
        3    1    3    3  502    0  0.34933807793E+03 -0.89787811033E+02 -0.19087939576E+03  0.40808564987E+03  0.10100000352E+00 0.  1.
       -3    1    3    3    0  502 -0.34933807793E+03  0.89787811033E+02 -0.72087506296E+03  0.80607680174E+03  0.10100000352E+00 0. -1.
</event>
<event>
 5   0  0.2478000E-03  0.7899357E+03  0.7818609E-02  0.9574700E-01
       -3   -1    0    0    0  501  0.00000000000E+00  0.00000000000E+00  0.49222056928E+03  0.49222057964E+03  0.10100000352E+00 0. -1.
        3   -1    0    0  501    0  0.00000000000E+00  0.00000000000E+00 -0.31693026943E+03  0.31693028553E+03  0.10100000352E+00 0.  1.
    10030    2    1    2    0    0  0.00000000000E+00  0.00000000000E+00  0.17529029984E+03  0.80915086516E+03  0.78993571471E+03 0.  0.
        1    1    3    3  502    0  0.72210965510E+02  0.38313787854E+03  0.22937716341E+02  0.39055754553E+03  0.50400001928E-02 0.  1.
       -1    1    3    3    0  502 -0.72210965510E+02 -0.38313787854E+03  0.15235258350E+03  0.41859331963E+03  0.50400001928E-02 0. -1.
</event>
<event>
 5   0  0.3714448E-03  0.8013409E+03  0.7818609E-02  0.9558078E-01
        1   -1    0    0  501    0  0.00000000000E+00  0.00000000000E+00  0.36772100885E+03  0.36772100888E+03  0.50400001928E-02 0.  1.
       -1   -1    0    0    0  501  0.00000000000E+00  0.00000000000E+00 -0.43657230908E+03  0.43657230911E+03  0.50400001928E-02 0. -1.
    10030    2    1    2    0    0  0.00000000000E+00  0.00000000000E+00 -0.68851300230E+02  0.80429331799E+03  0.80134090113E+03 0.  0.
        1    1    3    3  502    0 -0.78530276832E+02 -0.22283063531E+03  0.29036560156E+03  0.37434299647E+03  0.50400001928E-02 0.  1.
       -1    1    3    3    0  502  0.78530276832E+02  0.22283063531E+03 -0.35921690179E+03  0.42995032152E+03  0.50400001928E-02 0. -1.
</event>
<event>
 5   0  0.6536209E-03  0.8000678E+03  0.7818609E-02  0.9559919E-01
        2   -1    0    0  501    0  0.00000000000E+00  0.00000000000E+00  0.22672831257E+03  0.22672831258E+03  0.25500000920E-02 0. -1.
       -2   -1    0    0    0  501  0.00000000000E+00  0.00000000000E+00 -0.70581005158E+03  0.70581005158E+03  0.25500000920E-02 0.  1.
    10030    2    1    2    0    0  0.00000000000E+00  0.00000000000E+00 -0.47908173901E+03  0.93253836416E+03  0.80006780212E+03 0.  0.
        3    1    3    3  502    0 -0.84875054776E+02  0.14497819748E+03  0.18361980003E+03  0.24887485576E+03  0.10100000352E+00 0. -1.
       -3    1    3    3    0  502  0.84875054776E+02 -0.14497819748E+03 -0.66270153904E+03  0.68366350840E+03  0.10100000352E+00 0.  1.
</event>
<event>
 5   0  0.6256781E-03  0.7958284E+03  0.7818609E-02  0.9566075E-01
       -2   -1    0    0    0  501  0.00000000000E+00  0.00000000000E+00  0.38223072625E+03  0.38223072626E+03  0.25500000920E-02 0.  1.
        2   -1    0    0  501    0  0.00000000000E+00  0.00000000000E+00 -0.41424124051E+03  0.41424124052E+03  0.25500000920E-02 0. -1.
    10030    2    1    2    0    0  0.00000000000E+00  0.00000000000E+00 -0.32010514253E+02  0.79647196678E+03  0.79582844938E+03 0.  0.
        1    1    3    3  502    0  0.23392054232E+03 -0.32049134413E+03  0.14055815154E+02  0.39702781735E+03  0.50400001928E-02 0.  1.
       -1    1    3    3    0  502 -0.23392054232E+03  0.32049134413E+03 -0.46066329406E+02  0.39944414943E+03  0.50400001928E-02 0. -1.
</event>
<event>
 5   0  0.3671128E-03  0.8292362E+03  0.7818609E-02  0.9518637E-01
        1   -1    0    0  501    0  0.00000000000E+00  0.00000000000E+00  0.56263473894E+03  0.56263473897E+03  0.50400001928E-02 0. -1.
       -1   -1    0    0    0  501  0.00000000000E+00  0.00000000000E+00 -0.30554135194E+03  0.30554135198E+03  0.50400001928E-02 0.  1.
    10030    2    1    2    0    0  0.00000000000E+00  0.00000000000E+00  0.25709338700E+03  0.86817609095E+03  0.82923622404E+03 0.  0.
        2    1    3    3  502    0 -0.22586191538E+03 -0.14685339300E+02 -0.23515494211E+03  0.32638491205E+03  0.25500000920E-02 0.  1.
       -2    1    3    3    0  502  0.22586191538E+03  0.14685339300E+02  0.49224832912E+03  0.54179117890E+03  0.25500000920E-02 0. -1.
</event>
<event>
 5   0  0.6337108E-03  0.7623172E+03  0.7818609E-02  0.9616222E-01
        2   -1    0    0  501    0  0.00000000000E+00  0.00000000000E+00  0.12699806916E+04  0.12699806916E+04  0.25500000920E-02 0.  1.
       -2   -1    0    0    0  501  0.00000000000E+00  0.00000000000E+00 -0.11439693125E+03  0.11439693128E+03  0.25500000920E-02 0. -1.
    10030    2    1    2    0    0  0.00000000000E+00  0.00000000000E+00  0.11555837603E+04  0.13843776228E+04  0.76231724075E+03 0.  0.
        4    1    3    3  502    0  0.15475843145E+03 -0.32761693097E+03  0.79264431146E+03  0.87153292706E+03  0.12699999809E+01 0.  1.
       -4    1    3    3    0  502 -0.15475843145E+03  0.32761693097E+03  0.36293944885E+03  0.51284469579E+03  0.12699999809E+01 0. -1.
</event>
<event>
 5   0  0.6153659E-03  0.7946631E+03  0.7818609E-02  0.9567774E-01
        2   -1    0    0  501    0  0.00000000000E+00  0.00000000000E+00  0.65666506127E+03  0.65666506127E+03  0.25500000920E-02 0.  1.
       -2   -1    0    0    0  501  0.00000000000E+00  0.00000000000E+00 -0.24041535931E+03  0.24041535933E+03  0.25500000920E-02 0. -1.
    10030    2    1    2    0    0  0.00000000000E+00  0.00000000000E+00  0.41624970196E+03  0.89708042060E+03  0.79466311519E+03 0.  0.
        2    1    3    3  502    0  0.24449724089E+03  0.29615902159E+03  0.93093553307E+02  0.39516512567E+03  0.25500000920E-02 0. -1.
       -2    1    3    3    0  502 -0.24449724089E+03 -0.29615902159E+03  0.32315614865E+03  0.50191529493E+03  0.25500000920E-02 0.  1.
</event>
<event>
 5   0  0.3627496E-03  0.8007934E+03  0.7818609E-02  0.9558869E-01
        1   -1    0    0  501    0  0.00000000000E+00  0.00000000000E+00  0.14077391795E+04  0.14077391795E+04  0.50400001928E-02 0. -1.
       -1   -1    0    0    0  501  0.00000000000E+00  0.00000000000E+00 -0.11388297110E+03  0.11388297121E+03  0.50400001928E-02 0.  1.
    10030    2    1    2    0    0  0.00000000000E+00  0.00000000000E+00  0.12938562084E+04  0.15216221507E+04  0.80079340753E+03 0.  0.
        3    1    3    3  502    0 -0.37759103193E+03  0.58146321762E+02  0.41921571598E+03  0.56718410490E+03  0.10100000352E+00 0.  1.
       -3    1    3    3    0  502  0.37759103193E+03 -0.58146321762E+02  0.87464049244E+03  0.95443804584E+03  0.10100000352E+00 0. -1.
</event>
<event>
 5   0  0.3860515E-03  0.7992839E+03  0.7818609E-02  0.9561054E-01
       -1   -1    0    0    0  501  0.00000000000E+00  0.00000000000E+00  0.85676521543E+03  0.85676521545E+03  0.50400001928E-02 0. -1.
        1   -1    0    0  501    0  0.00000000000E+00  0.00000000000E+00 -0.18641477815E+03  0.18641477822E+03  0.50400001928E-02 0.  1.
    10030    2    1    2    0    0  0.00000000000E+00  0.00000000000E+00  0.67035043728E+03  0.10431799937E+04  0.79928392354E+03 0.  0.
        4    1    3    3  502    0 -0.17198141320E+03  0.10465779469E+03 -0.11539459536E+03  0.23205255011E+03  0.12699999809E+01 0.  1.
       -4    1    3    3    0  502  0.17198141320E+03 -0.10465779469E+03  0.78574503264E+03  0.81112744356E+03  0.12699999809E+01 0. -1.
</event>
<event>
 5   0  0.3753450E-03  0.8012127E+03  0.7818609E-02  0.9558263E-01
        1   -1    0    0  501    0  0.00000000000E+00  0.00000000000E+00  0.14182948307E+04  0.14182948307E+04  0.50400001928E-02 0.  1.
       -1   -1    0    0    0  501  0.00000000000E+00  0.00000000000E+00 -0.11315381164E+03  0.11315381176E+03  0.50400001928E-02 0. -1.
    10030    2    1    2    0    0  0.00000000000E+00  0.00000000000E+00  0.13051410191E+04  0.15314486425E+04  0.80121274633E+03 0.  0.
        5    1    3    3  502    0 -0.25159870447E+03  0.31143091826E+03  0.62748425508E+03  0.74434515200E+03  0.46999998093E+01 0. -1.
       -5    1    3    3    0  502  0.25159870447E+03 -0.31143091826E+03  0.67765676398E+03  0.78710349046E+03  0.46999998093E+01 0.  1.
</event>
<event>
 5   0  0.3860515E-03  0.8092768E+03  0.7818609E-02  0.9546686E-01
        1   -1    0    0  501    0  0.00000000000E+00  0.00000000000E+00  0.10009336354E+04  0.10009336354E+04  0.50400001928E-02 0. -1.
       -1   -1    0    0    0  501  0.00000000000E+00  0.00000000000E+00 -0.16357950568E+03  0.16357950576E+03  0.50400001928E-02 0.  1.
    10030    2    1    2    0    0  0.00000000000E+00  0.00000000000E+00  0.83735412975E+03  0.11645131412E+04  0.80927678665E+03 0.  0.
        4    1    3    3  502    0 -0.26470455095E+03 -0.10448271781E+03  0.83259995839E+03  0.87989172131E+03  0.12699999809E+01 0. -1.
       -4    1    3    3    0  502  0.26470455095E+03  0.10448271781E+03  0.47541713642E+01  0.28462141989E+03  0.12699999809E+01 0.  1.
</event>
<event>
 5   0  0.3714448E-03  0.7875468E+03  0.7818609E-02  0.9578220E-01
       -1   -1    0    0    0  501  0.00000000000E+00  0.00000000000E+00  0.55215786862E+03  0.55215786864E+03  0.50400001928E-02 0. -1.
        1   -1    0    0  501    0  0.00000000000E+00  0.00000000000E+00 -0.28082091659E+03  0.28082091663E+03  0.50400001928E-02 0.  1.
    10030    2    1    2    0    0  0.00000000000E+00  0.00000000000E+00  0.27133695203E+03  0.83297878528E+03  0.78754677016E+03 0.  0.
        1    1    3    3  502    0  0.35836826541E+03  0.15637361396E+03  0.86318992841E+02  0.40041414728E+03  0.50400001928E-02 0.  1.
       -1    1    3    3    0  502 -0.35836826541E+03 -0.15637361396E+03  0.18501795919E+03  0.43256463799E+03  0.50400001928E-02 0. -1.
</event>
<event>
 5   0  0.5813850E-03  0.8012789E+03  0.7818609E-02  0.9558168E-01
        2   -1    0    0  501    0  0.00000000000E+00  0.00000000000E+00  0.10599670536E+04  0.10599670536E+04  0.25500000920E-02 0. -1.
       -2   -1    0    0    0  501  0.00000000000E+00  0.00000000000E+00 -0.15143108957E+03  0.15143108959E+03  0.25500000920E-02 0.  1.
    10030    2    1    2    0    0  0.00000000000E+00  0.00000000000E+00  0.90853596407E+03  0.12113981432E+04  0.80127889241E+03 0.  0.
        5    1    3    3  502    0  0.16994012184E+03 -0.10791728637E+03  0.97790318230E+03  0.99842000664E+03  0.46999998093E+01 0. -1.
       -5    1    3    3    0  502 -0.16994012184E+03  0.10791728637E+03 -0.69367218225E+02  0.21297813660E+03  0.46999998093E+01 0.  1.
</event>
<event>
 5   0  0.3860515E-03  0.7999118E+03  0.7818609E-02  0.9560145E-01
        1   -1    0    0  501    0  0.00000000000E+00  0.00000000000E+00  0.96679259860E+03  0.96679259861E+03  0.50400001928E-02 0. -1.
       -1   -1    0    0    0  501  0.00000000000E+00  0.00000000000E+00 -0.16545920834E+03  0.16545920842E+03  0.50400001928E-02 0.  1.
    10030    2    1    2    0    0  0.00000000000E+00  0.00000000000E+00  0.80133339026E+03  0.11322518070E+04  0.79991184026E+03 0.  0.
        4    1    3    3  502    0  0.11940007069E+03  0.27930414989E+03  0.32383239804E+02  0.30547908626E+03  0.12699999809E+01 0.  1.
       -4    1    3    3    0  502 -0.11940007069E+03 -0.27930414989E+03  0.76895015045E+03  0.82677272077E+03  0.12699999809E+01 0. -1.
</event>
<event>
 5   0  0.5813850E-03  0.7998989E+03  0.7818609E-02  0.9560163E-01
        2   -1    0    0  501    0  0.00000000000E+00  0.00000000000E+00  0.56586257034E+03  0.56586257034E+03  0.25500000920E-02 0.  1.
       -2   -1    0    0    0  501  0.00000000000E+00  0.00000000000E+00 -0.28268272442E+03  0.28268272443E+03  0.25500000920E-02 0. -1.
    10030    2    1    2    0    0  0.00000000000E+00  0.00000000000E+00  0.28317984592E+03  0.84854529477E+03  0.79989892621E+03 0.  0.
        5    1    3    3  502    0 -0.37630870949E+03  0.52281735423E+02  0.91116808424E+01  0.38006149163E+03  0.46999998093E+01 0. -1.
       -5    1    3    3    0  502  0.37630870949E+03 -0.52281735423E+02  0.27406816507E+03  0.46848380314E+03  0.46999998093E+01 0.  1.
</event>
<event>
 5   0  0.6536209E-03  0.8059502E+03  0.7818609E-02  0.9551444E-01
        2   -1    0    0  501    0  0.00000000000E+00  0.00000000000E+00  0.46877776045E+03  0.46877776046E+03  0.25500000920E-02 0. -1.
       -2   -1    0    0    0  501  0.00000000000E+00  0.00000000000E+00 -0.34640918333E+03  0.34640918334E+03  0.25500000920E-02 0.  1.
    10030    2    1    2    0    0  0.00000000000E+00  0.00000000000E+00  0.12236857712E+03  0.81518694380E+03  0.80595017506E+03 0.  0.
        3    1    3    3  502    0  0.17607265483E+03  0.16248985656E+03 -0.26654206097E+03  0.35839812183E+03  0.10100000352E+00 0.  1.
       -3    1    3    3    0  502 -0.17607265483E+03 -0.16248985656E+03  0.38891063809E+03  0.45678882198E+03  0.10100000352E+00 0. -1.
</event>
<event>
 5   0  0.6536209E-03  0.8051159E+03  0.7818609E-02  0.9552641E-01
       -2   -1    0    0    0  501  0.00000000000E+00  0.00000000000E+00  0.87986249560E+02  0.87986249597E+02  0.25500000920E-02 0. -1.
        2   -1    0    0  501    0  0.00000000000E+00  0.00000000000E+00 -0.18417982112E+04  0.18417982112E+04  0.25500000920E-02 0.  1.
    10030    2    1    2    0    0  0.00000000000E+00  0.00000000000E+00 -0.17538119616E+04  0.19297844608E+04  0.80511593472E+03 0.  0.
        3    1    3    3  502    0 -0.16552715407E+03 -0.98534316137E+01  0.23247310060E+01  0.16583649606E+03  0.10100000352E+00 0. -1.
       -3    1    3    3    0  502  0.16552715407E+03  0.98534316137E+01 -0.17561366926E+04  0.17639479647E+04  0.10100000352E+00 0.  1.
</event>
<event>
 5   0  0.3753450E-03  0.7978018E+03  0.7818609E-02  0.9563204E-01
       -1   -1    0    0    0  501  0.00000000000E+00  0.00000000000E+00  0.86587819928E+03  0.86587819930E+03  0.50400001928E-02 0.  1.
        1   -1    0    0  501    0  0.00000000000E+00  0.00000000000E+00 -0.18376943319E+03  0.18376943326E+03  0.50400001928E-02 0. -1.
    10030    2    1    2    0    0  0.00000000000E+00  0.00000000000E+00  0.68210876610E+03  0.10496476326E+04  0.79780184492E+03 0.  0.
        5    1    3    3  502    0  0.52701334497E+02  0.21400252399E+03  0.77845504294E+03  0.80906665660E+03  0.46999998093E+01 0.  1.
       -5    1    3    3    0  502 -0.52701334497E+02 -0.21400252399E+03 -0.96346276850E+02  0.24058097596E+03  0.46999998093E+01 0. -1.
</event>
<event>
 5   0  0.5813850E-03  0.8020014E+03  0.7818609E-02  0.9557125E-01
       -2   -1    0    0    0  501  0.00000000000E+00  0.00000000000E+00  0.76636885635E+02  0.76636885677E+02  0.25500000920E-02 0.  1.
        2   -1    0    0  501    0  0.00000000000E+00  0.00000000000E+00 -0.20982267272E+04  0.20982267272E+04  0.25500000920E-02 0. -1.
    10030    2    1    2    0    0  0.00000000000E+00  0.00000000000E+00 -0.20215898415E+04  0.21748636129E+04  0.80200140093E+03 0.  0.
        5    1    3    3  502    0  0.39254263702E+03  0.69368945130E+02 -0.89328624601E+03  0.97820456947E+03  0.46999998093E+01 0.  1.
       -5    1    3    3    0  502 -0.39254263702E+03 -0.69368945130E+02 -0.11283035955E+04  0.11966590434E+04  0.46999998093E+01 0. -1.
</event>
<event>
 5   0  0.6536209E-03  0.7972124E+03  0.7818609E-02  0.9564061E-01
       -2   -1    0    0    0  501  0.00000000000E+00  0.00000000000E+00  0.88559100169E+03  0.88559100170E+03  0.25500000920E-02 0. -1.
        2   -1    0    0  501    0  0.00000000000E+00  0.00000000000E+00 -0.17941343258E+03  0.17941343260E+03  0.25500000920E-02 0.  1.
    10030    2    1    2    0    0  0.00000000000E+00  0.00000000000E+00  0.70617756911E+03  0.10650044343E+04  0.79721244719E+03 0.  0.
        3    1    3    3  502    0  0.36001738617E+03  0.69558973634E+02  0.14425926510E+03  0.39403263180E+03  0.10100000352E+00 0.  1.
       -3    1    3    3    0  502 -0.36001738617E+03 -0.69558973634E+02  0.56191830401E+03  0.67097180250E+03  0.10100000352E+00 0. -1.
</event>
<event>
 5   0  0.3714448E-03  0.7985470E+03  0.7818609E-02  0.9562123E-01
       -1   -1    0    0    0  501  0.00000000000E+00  0.00000000000E+00  0.31083348738E+03  0.31083348742E+03  0.50400001928E-02 0.  1.
        1   -1    0    0  501    0  0.00000000000E+00  0.00000000000E+00 -0.51287696842E+03  0.51287696845E+03  0.50400001928E-02 0. -1.
    10030    2    1    2    0    0  0.00000000000E+00  0.00000000000E+00 -0.20204348105E+03  0.82371045586E+03  0.79854702233E+03 0.  0.
        1    1    3    3  502    0 -0.63410444688E+02  0.12973758765E+03 -0.48499712253E+03  0.50603847189E+03  0.50400001928E-02 0. -1.
       -1    1    3    3    0  502  0.63410444688E+02 -0.12973758765E+03  0.28295364148E+03  0.31767198397E+03  0.50400001928E-02 0.  1.
</event>
<event>
 5   0  0.3627496E-03  0.7995518E+03  0.7818609E-02  0.9560666E-01
       -1   -1    0    0    0  501  0.00000000000E+00  0.00000000000E+00  0.11330536553E+03  0.11330536564E+03  0.50400001928E-02 0.  1.
        1   -1    0    0  501    0  0.00000000000E+00  0.00000000000E+00 -0.14105312686E+04  0.14105312686E+04  0.50400001928E-02 0. -1.
    10030    2    1    2    0    0  0.00000000000E+00  0.00000000000E+00 -0.12972259031E+04  0.15238366343E+04  0.79955177712E+03 0.  0.
        3    1    3    3  502    0 -0.15086908838E+03 -0.32613733502E+03 -0.98251300924E+03  0.10461638814E+04  0.10100000352E+00 0. -1.
       -3    1    3    3    0  502  0.15086908838E+03  0.32613733502E+03 -0.31471289384E+03  0.47767275291E+03  0.10100000352E+00 0.  1.
</event>
<event>
 5   0  0.3671128E-03  0.8024842E+03  0.7818609E-02  0.9556428E-01
       -1   -1    0    0    0  501  0.00000000000E+00  0.00000000000E+00  0.16778273586E+03  0.16778273593E+03  0.50400001928E-02 0.  1.
        1   -1    0    0  501    0  0.00000000000E+00  0.00000000000E+00 -0.95954573055E+03  0.95954573057E+03  0.50400001928E-02 0. -1.
    10030    2    1    2    0    0  0.00000000000E+00  0.00000000000E+00 -0.79176299470E+03  0.11273284665E+04  0.80248416285E+03 0.  0.
        2    1    3    3  502    0  0.16554263200E+03  0.34278464920E+03 -0.21769053596E+03  0.43851436486E+03  0.25500000920E-02 0.  1.
       -2    1    3    3    0  502 -0.16554263200E+03 -0.34278464920E+03 -0.57407245874E+03  0.68881410164E+03  0.25500000920E-02 0. -1.
</event>
<event>
 5   0  0.2478000E-03  0.7984962E+03  0.7818609E-02  0.9562196E-01
       -3   -1    0    0    0  501  0.00000000000E+00  0.00000000000E+00  0.20037847825E+03  0.20037850370E+03  0.10100000352E+00 0.  1.
        3   -1    0    0  501    0  0.00000000000E+00  0.00000000000E+00 -0.79548971560E+03  0.79548972202E+03  0.10100000352E+00 0. -1.
    10030    2    1    2    0    0  0.00000000000E+00  0.00000000000E+00 -0.59511123736E+03  0.99586822572E+03  0.79849617292E+03 0.  0.
        1    1    3    3  502    0  0.31069723524E+03  0.18331302270E+03 -0.84209139930E+02  0.37044245917E+03  0.50400001928E-02 0.  1.
       -1    1    3    3    0  502 -0.31069723524E+03 -0.18331302270E+03 -0.51090209743E+03  0.62542576655E+03  0.50400001928E-02 0. -1.
</event>
<event>
 5   0  0.6256781E-03  0.7699860E+03  0.7818609E-02  0.9604507E-01
       -2   -1    0    0    0  501  0.00000000000E+00  0.00000000000E+00  0.27109080045E+03  0.27109080046E+03  0.25500000920E-02 0.  1.
        2   -1    0    0  501    0  0.00000000000E+00  0.00000000000E+00 -0.54675267730E+03  0.54675267731E+03  0.25500000920E-02 0. -1.
    10030    2    1    2    0    0  0.00000000000E+00  0.00000000000E+00 -0.27566187686E+03  0.81784347777E+03  0.76998602830E+03 0.  0.
        1    1    3    3  502    0  0.10970265345E+03 -0.16943863920E+03 -0.48604161211E+03  0.52628943877E+03  0.50400001928E-02 0. -1.
       -1    1    3    3    0  502 -0.10970265345E+03  0.16943863920E+03  0.21037973525E+03  0.29155403900E+03  0.50400001928E-02 0.  1.
</event>
<event>
 5   0  0.5813850E-03  0.7966974E+03  0.7818609E-02  0.9564810E-01
       -2   -1    0    0    0  501  0.00000000000E+00  0.00000000000E+00  0.90733383294E+02  0.90733383330E+02  0.25500000920E-02 0. -1.
        2   -1    0    0  501    0  0.00000000000E+00  0.00000000000E+00 -0.17488787273E+04  0.17488787273E+04  0.25500000920E-02 0.  1.
    10030    2    1    2    0    0  0.00000000000E+00  0.00000000000E+00 -0.16581453440E+04  0.18396121107E+04  0.79669739283E+03 0.  0.
        5    1    3    3  502    0 -0.13476555573E+03 -0.19703686969E+02 -0.16933772559E+04  0.16988521451E+04  0.46999998093E+01 0.  1.
       -5    1    3    3    0  502  0.13476555573E+03  0.19703686969E+02  0.35231911828E+02  0.14075996554E+03  0.46999998093E+01 0. -1.
</event>
<event>
 5   0  0.6153659E-03  0.8009463E+03  0.7818609E-02  0.9558648E-01
        2   -1    0    0  501    0  0.00000000000E+00  0.00000000000E+00  0.18303616115E+04  0.18303616115E+04  0.25500000920E-02 0.  1.
       -2   -1    0    0    0  501  0.00000000000E+00  0.00000000000E+00 -0.87621350190E+02  0.87621350227E+02  0.25500000920E-02 0. -1.
    10030    2    1    2    0    0  0.00000000000E+00  0.00000000000E+00  0.17427402613E+04  0.19179829617E+04  0.80094632971E+03 0.  0.
        2    1    3    3  502    0  0.36636522950E+02  0.64140807053E+00 -0.83598708766E+02  0.91276450041E+02  0.25500000920E-02 0. -1.
       -2    1    3    3    0  502 -0.36636522950E+02 -0.64140807053E+00  0.18263389700E+04  0.18267065117E+04  0.25500000920E-02 0.  1.
</event>
<event>
 5   0  0.6536209E-03  0.7977092E+03  0.7818609E-02  0.9563339E-01
        2   -1    0    0  501    0  0.00000000000E+00  0.00000000000E+00  0.53746995308E+03  0.53746995308E+03  0.25500000920E-02 0. -1.
       -2   -1    0    0    0  501  0.00000000000E+00  0.00000000000E+00 -0.29598865665E+03  0.29598865666E+03  0.25500000920E-02 0.  1.
    10030    2    1    2    0    0  0.00000000000E+00  0.00000000000E+00  0.24148129643E+03  0.83345860975E+03  0.79770924380E+03 0.  0.
        3    1    3    3  502    0  0.58837207827E+02  0.17654652392E+03  0.48933164858E+03  0.52352264959E+03  0.10100000352E+00 0. -1.
       -3    1    3    3    0  502 -0.58837207827E+02 -0.17654652392E+03 -0.24785035215E+03  0.30993596015E+03  0.10100000352E+00 0.  1.
</event>
<event>
 5   0  0.3671128E-03  0.8039728E+03  0.7818609E-02  0.9554284E-01
        1   -1    0    0  501    0  0.00000000000E+00  0.00000000000E+00  0.11587019234E+04  0.11587019234E+04  0.50400001928E-02 0. -1.
       -1   -1    0    0    0  501  0.00000000000E+00  0.00000000000E+00 -0.13946043477E+03  0.13946043486E+03  0.50400001928E-02 0.  1.
    10030    2    1    2    0    0  0.00000000000E+00  0.00000000000E+00  0.10192414886E+04  0.12981623582E+04  0.80397282060E+03 0.  0.
        2    1    3    3  502    0  0.36129242094E+03 -0.14570187143E+03  0.34951580829E+03  0.52337610666E+03  0.25500000920E-02 0.  1.
       -2    1    3    3    0  502 -0.36129242094E+03  0.14570187143E+03  0.66972568032E+03  0.77478625159E+03  0.25500000920E-02 0. -1.
</event>
<event>
 5   0  0.3714448E-03  0.7997563E+03  0.7818609E-02  0.9560370E-01
        1   -1    0    0  501    0  0.00000000000E+00  0.00000000000E+00  0.59398904218E+03  0.59398904220E+03  0.50400001928E-02 0.  1.
       -1   -1    0    0    0  501  0.00000000000E+00  0.00000000000E+00 -0.26920114699E+03  0.26920114704E+03  0.50400001928E-02 0. -1.
    10030    2    1    2    0    0  0.00000000000E+00  0.00000000000E+00  0.32478789519E+03  0.86319018923E+03  0.79975629159E+03 0.  0.
        1    1    3    3  502    0  0.42576374512E+02 -0.33946822977E+03 -0.61030062252E+02  0.34752855309E+03  0.50400001928E-02 0. -1.
       -1    1    3    3    0  502 -0.42576374512E+02  0.33946822977E+03  0.38581795744E+03  0.51566163615E+03  0.50400001928E-02 0.  1.
</event>
<event>
 5   0  0.6536209E-03  0.8123883E+03  0.7818609E-02  0.9542257E-01
        2   -1    0    0  501    0  0.00000000000E+00  0.00000000000E+00  0.13037395833E+04  0.13037395833E+04  0.25500000920E-02 0. -1.
       -2   -1    0    0    0  501  0.00000000000E+00  0.00000000000E+00 -0.12655418899E+03  0.12655418901E+03  0.25500000920E-02 0.  1.
    10030    2    1    2    0    0  0.00000000000E+00  0.00000000000E+00  0.11771853943E+04  0.14302937723E+04  0.81238834465E+03 0.  0.
        3    1    3    3  502    0 -0.27120230399E+03 -0.25562482022E+03  0.30416417819E+03  0.48105155222E+03  0.10100000352E+00 0. -1.
       -3    1    3    3    0  502  0.27120230399E+03  0.25562482022E+03  0.87302121609E+03  0.94924222006E+03  0.10100000352E+00 0.  1.
</event>
<event>
 5   0  0.5813850E-03  0.7894453E+03  0.7818609E-02  0.9575422E-01
        2   -1    0    0  501    0  0.00000000000E+00  0.00000000000E+00  0.15472488983E+04  0.15472488983E+04  0.25500000920E-02 0. -1.
       -2   -1    0    0    0  501  0.00000000000E+00  0.00000000000E+00 -0.10069870309E+03  0.10069870312E+03  0.25500000920E-02 0.  1.
    10030    2    1    2    0    0  0.00000000000E+00  0.00000000000E+00  0.14465501952E+04  0.16479476014E+04  0.78944526713E+03 0.  0.
        5    1    3    3  502    0  0.22737451275E+02 -0.39229172418E+03  0.64589536792E+03  0.75605072902E+03  0.46999998093E+01 0. -1.
       -5    1    3    3    0  502 -0.22737451275E+02  0.39229172418E+03  0.80065482731E+03  0.89189687242E+03  0.46999998093E+01 0.  1.
</event>
<event>
 5   0  0.3627496E-03  0.8024555E+03  0.7818609E-02  0.9556470E-01
       -1   -1    0    0    0  501  0.00000000000E+00  0.00000000000E+00  0.16675928975E+03  0.16675928983E+03  0.50400001928E-02 0.  1.
        1   -1    0    0  501    0  0.00000000000E+00  0.00000000000E+00 -0.96536570477E+03  0.96536570479E+03  0.50400001928E-02 0. -1.
    10030    2    1    2    0    0  0.00000000000E+00  0.00000000000E+00 -0.79860641502E+03  0.11321249946E+04  0.80245547996E+03 0.  0.
        3    1    3    3  502    0 -0.39394021880E+03 -0.73022500289E+01 -0.29240141381E+03  0.49065345800E+03  0.10100000352E+00 0.  1.
       -3    1    3    3    0  502  0.39394021880E+03  0.73022500289E+01 -0.50620500121E+03  0.64147153662E+03  0.10100000352E+00 0. -1.
</event>
<event>
 5   0  0.3671128E-03  0.7994973E+03  0.7818609E-02  0.9560745E-01
       -1   -1    0    0    0  501  0.00000000000E+00  0.00000000000E+00  0.17090325842E+03  0.17090325850E+03  0.50400001928E-02 0.  1.
        1   -1    0    0  501    0  0.00000000000E+00  0.00000000000E+00 -0.93502597176E+03  0.93502597178E+03  0.50400001928E-02 0. -1.
    10030    2    1    2    0    0  0.00000000000E+00  0.00000000000E+00 -0.76412271334E+03  0.11059292303E+04  0.79949730539E+03 0.  0.
        2    1    3    3  502    0  0.12248819520E+03 -0.95755071916E+02 -0.89148929548E+03  0.90494505674E+03  0.25500000920E-02 0. -1.
       -2    1    3    3    0  502 -0.12248819520E+03  0.95755071916E+02  0.12736658213E+03  0.20098417353E+03  0.25500000920E-02 0.  1.
</event>
<event>
 5   0  0.3671128E-03  0.7989793E+03  0.7818609E-02  0.9561496E-01
       -1   -1    0    0    0  501  0.00000000000E+00  0.00000000000E+00  0.23147991142E+03  0.23147991148E+03  0.50400001928E-02 0. -1.
        1   -1    0    0  501    0  0.00000000000E+00  0.00000000000E+00 -0.68944209125E+03  0.68944209127E+03  0.50400001928E-02 0.  1.
    10030    2    1    2    0    0  0.00000000000E+00  0.00000000000E+00 -0.45796217983E+03  0.92092200275E+03  0.79897933452E+03 0.  0.
        2    1    3    3  502    0 -0.34146720468E+02  0.42412881904E+02 -0.68514488813E+03  0.68730514970E+03  0.25500000920E-02 0.  1.
       -2    1    3    3    0  502  0.34146720468E+02 -0.42412881904E+02  0.22718270830E+03  0.23361685305E+03  0.25500000920E-02 0. -1.
</event>
<event>
 5   0  0.6337108E-03  0.8066640E+03  0.7818609E-02  0.9550421E-01
        2   -1    0    0  501    0  0.00000000000E+00  0.00000000000E+00  0.13914902015E+04  0.13914902015E+04  0.25500000920E-02 0.  1.
       -2   -1    0    0    0  501  0.00000000000E+00  0.00000000000E+00 -0.11690826766E+03  0.11690826769E+03  0.25500000920E-02 0. -1.
    10030    2    1    2    0    0  0.00000000000E+00  0.00000000000E+00  0.12745819338E+04  0.15083984692E+04  0.80666401665E+03 0.  0.
        4    1    3    3  502    0  0.75784291853E+02  0.32675489931E+03  0.10560994452E+04  0.11080882971E+04  0.12699999809E+01 0.  1.
       -4    1    3    3    0  502 -0.75784291853E+02 -0.32675489931E+03  0.21848248857E+03  0.40031017202E+03  0.12699999809E+01 0. -1.
</event>
<event>
 5   0  0.2478000E-03  0.8010593E+03  0.7818609E-02  0.9558485E-01
        3   -1    0    0  501    0  0.00000000000E+00  0.00000000000E+00  0.55907914484E+03  0.55907915396E+03  0.10100000352E+00 0.  1.
       -3   -1    0    0    0  501  0.00000000000E+00  0.00000000000E+00 -0.28694322473E+03  0.28694324251E+03  0.10100000352E+00 0. -1.
    10030    2    1    2    0    0  0.00000000000E+00  0.00000000000E+00  0.27213592011E+03  0.84602239647E+03  0.80105925893E+03 0.  0.
        5    1    3    3  502    0  0.36933624714E+03 -0.14710923536E+03  0.84853802778E+02  0.40653738871E+03  0.46999998093E+01 0.  1.
       -5    1    3    3    0  502 -0.36933624714E+03  0.14710923536E+03  0.18728211733E+03  0.43948500776E+03  0.46999998093E+01 0. -1.
</event>
<event>
 5   0  0.3753450E-03  0.8049203E+03  0.7818609E-02  0.9552922E-01
        1   -1    0    0  501    0  0.00000000000E+00  0.00000000000E+00  0.12565751958E+04  0.12565751958E+04  0.50400001928E-02 0. -1.
       -1   -1    0    0    0  501  0.00000000000E+00  0.00000000000E+00 -0.12890129675E+03  0.12890129685E+03  0.50400001928E-02 0.  1.
    10030    2    1    2    0    0  0.00000000000E+00  0.00000000000E+00  0.11276738990E+04  0.13854764926E+04  0.80492029983E+03 0.  0.
        5    1    3    3  502    0  0.33506882928E+03  0.21778680903E+03  0.48219285545E+03  0.62628608031E+03  0.46999998093E+01 0. -1.
       -5    1    3    3    0  502 -0.33506882928E+03 -0.21778680903E+03  0.64548104355E+03  0.75919041230E+03  0.46999998093E+01 0.  1.
</event>
<event>
 5   0  0.5813850E-03  0.7999665E+03  0.7818609E-02  0.9560066E-01
       -2   -1    0    0    0  501  0.00000000000E+00  0.00000000000E+00  0.34409475348E+03  0.34409475349E+03  0.25500000920E-02 0.  1.
        2   -1    0    0  501    0  0.00000000000E+00  0.00000000000E+00 -0.46494920985E+03  0.46494920986E+03  0.25500000920E-02 0. -1.
    10030    2    1    2    0    0  0.00000000000E+00  0.00000000000E+00 -0.12085445637E+03  0.80904396334E+03  0.79996645867E+03 0.  0.
        5    1    3    3  502    0 -0.21326087318E+03  0.10678610406E+03 -0.38513277001E+03  0.45302628245E+03  0.46999998093E+01 0. -1.
       -5    1    3    3    0  502  0.21326087318E+03 -0.10678610406E+03  0.26427831364E+03  0.35601768089E+03  0.46999998093E+01 0.  1.
</event>
<event>
 5   0  0.3671128E-03  0.7971233E+03  0.7818609E-02  0.9564190E-01
       -1   -1    0    0    0  501  0.00000000000E+00  0.00000000000E+00  0.14854199045E+03  0.14854199053E+03  0.50400001928E-02 0. -1.
        1   -1    0    0  501    0  0.00000000000E+00  0.00000000000E+00 -0.10694038045E+04  0.10694038045E+04  0.50400001928E-02 0.  1.
    10030    2    1    2    0    0  0.00000000000E+00  0.00000000000E+00 -0.92086181409E+03  0.12179457951E+04  0.79712325214E+03 0.  0.
        2    1    3    3  502    0  0.37998663232E+03  0.54231864658E+02 -0.29643353057E+03  0.48497811697E+03  0.25500000920E-02 0. -1.
       -2    1    3    3    0  502 -0.37998663232E+03 -0.54231864658E+02 -0.62442828352E+03  0.73296767811E+03  0.25500000920E-02 0.  1.
</event>
<event>
 5   0  0.2478000E-03  0.7915094E+03  0.7818609E-02  0.9572389E-01
        3   -1    0    0  501    0  0.00000000000E+00  0.00000000000E+00  0.98949635189E+03  0.98949635705E+03  0.10100000352E+00 0.  1.
       -3   -1    0    0    0  501  0.00000000000E+00  0.00000000000E+00 -0.15828432419E+03  0.15828435642E+03  0.10100000352E+00 0. -1.
    10030    2    1    2    0    0  0.00000000000E+00  0.00000000000E+00  0.83121202770E+03  0.11477807135E+04  0.79150940058E+03 0.  0.
        3    1    3    3  502    0 -0.51196432166E+02 -0.10848334026E+03  0.96249805099E+03  0.96994444075E+03  0.10100000352E+00 0.  1.
       -3    1    3    3    0  502  0.51196432166E+02  0.10848334026E+03 -0.13128602329E+03  0.17783627271E+03  0.10100000352E+00 0. -1.
</event>
<event>
 5   0  0.6256781E-03  0.7948000E+03  0.7818609E-02  0.9567575E-01
       -2   -1    0    0    0  501  0.00000000000E+00  0.00000000000E+00  0.37635734025E+03  0.37635734025E+03  0.25500000920E-02 0.  1.
        2   -1    0    0  501    0  0.00000000000E+00  0.00000000000E+00 -0.41961919625E+03  0.41961919626E+03  0.25500000920E-02 0. -1.
    10030    2    1    2    0    0  0.00000000000E+00  0.00000000000E+00 -0.43261856007E+02  0.79597653652E+03  0.79480001164E+03 0.  0.
        1    1    3    3  502    0 -0.26526874275E+03 -0.29531591381E+03 -0.40307119258E+02  0.39900333172E+03  0.50400001928E-02 0.  1.
       -1    1    3    3    0  502  0.26526874275E+03  0.29531591381E+03 -0.29547367488E+01  0.39697320480E+03  0.50400001928E-02 0. -1.
</event>
<event>
 5   0  0.3627496E-03  0.7961045E+03  0.7818609E-02  0.9565673E-01
       -1   -1    0    0    0  501  0.00000000000E+00  0.00000000000E+00  0.78604368064E+03  0.78604368066E+03  0.50400001928E-02 0.  1.
        1   -1    0    0  501    0  0.00000000000E+00  0.00000000000E+00 -0.20157353514E+03  0.20157353520E+03  0.50400001928E-02 0. -1.
    10030    2    1    2    0    0  0.00000000000E+00  0.00000000000E+00  0.58447014550E+03  0.98761721586E+03  0.79610452460E+03 0.  0.
        3    1    3    3  502    0  0.16886188294E+03 -0.19160907803E+02 -0.15430550518E+03  0.22954667288E+03  0.10100000352E+00 0. -1.
       -3    1    3    3    0  502 -0.16886188294E+03  0.19160907803E+02  0.73877565069E+03  0.75807054299E+03  0.10100000352E+00 0.  1.
</event>
<event>
 5   0  0.2478000E-03  0.8120698E+03  0.7818609E-02  0.9542709E-01
       -4   -1    0    0    0  501  0.00000000000E+00  0.00000000000E+00  0.15224274267E+03  0.15224803971E+03  0.12699999809E+01 0. -1.
        4   -1    0    0  501    0  0.00000000000E+00  0.00000000000E+00 -0.10828798034E+04  0.10828805482E+04  0.12699999809E+01 0.  1.
    10030    2    1    2    0    0  0.00000000000E+00  0.00000000000E+00 -0.93063706076E+03  0.12351285879E+04  0.81206975668E+03 0.  0.
        4    1    3    3  502    0 -0.13365318328E+03 -0.17567063318E+02 -0.10478514524E+04  0.10564876026E+04  0.12699999809E+01 0.  1.
       -4    1    3    3    0  502  0.13365318328E+03  0.17567063318E+02  0.11721439168E+03  0.17864098530E+03  0.12699999809E+01 0. -1.
</event>
<event>
 5   0  0.6153659E-03  0.8006347E+03  0.7818609E-02  0.9559099E-01
        2   -1    0    0  501    0  0.00000000000E+00  0.00000000000E+00  0.83656910211E+03  0.83656910211E+03  0.25500000920E-02 0.  1.
       -2   -1    0    0    0  501  0.00000000000E+00  0.00000000000E+00 -0.19156097433E+03  0.19156097435E+03  0.25500000920E-02 0. -1.
    10030    2    1    2    0    0  0.00000000000E+00  0.00000000000E+00  0.64500812777E+03  0.10281300765E+04  0.80063472897E+03 0.  0.
        2    1    3    3  502    0  0.25606913639E+03 -0.21803267082E+03  0.43681164674E+02  0.33914258404E+03  0.25500000920E-02 0. -1.
       -2    1    3    3    0  502 -0.25606913639E+03  0.21803267082E+03  0.60132696310E+03  0.68898749242E+03  0.25500000920E-02 0.  1.
</event>
<event>
 5   0  0.6153659E-03  0.7985696E+03  0.7818609E-02  0.9562090E-01
       -2   -1    0    0    0  501  0.00000000000E+00  0.00000000000E+00  0.25270292244E+03  0.25270292245E+03  0.25500000920E-02 0. -1.
        2   -1    0    0  501    0  0.00000000000E+00  0.00000000000E+00 -0.63089246292E+03  0.63089246293E+03  0.25500000920E-02 0.  1.
    10030    2    1    2    0    0  0.00000000000E+00  0.00000000000E+00 -0.37818954048E+03  0.88359538538E+03  0.79856964413E+03 0.  0.
        2    1    3    3  502    0  0.40574568456E+02 -0.39692464585E+03 -0.20598068080E+03  0.44902506719E+03  0.25500000920E-02 0.  1.
       -2    1    3    3    0  502 -0.40574568456E+02  0.39692464585E+03 -0.17220885968E+03  0.43457031819E+03  0.25500000920E-02 0. -1.
</event>
<event>
 5   0  0.6337108E-03  0.7921778E+03  0.7818609E-02  0.9571409E-01
        2   -1    0    0  501    0  0.00000000000E+00  0.00000000000E+00  0.12050847193E+04  0.12050847193E+04  0.25500000920E-02 0. -1.
       -2   -1    0    0    0  501  0.00000000000E+00  0.00000000000E+00 -0.13018702898E+03  0.13018702901E+03  0.25500000920E-02 0.  1.
    10030    2    1    2    0    0  0.00000000000E+00  0.00000000000E+00  0.10748976903E+04  0.13352717483E+04  0.79217775604E+03 0.  0.
        4    1    3    3  502    0 -0.13816412945E+03  0.12134896313E+03  0.11287693255E+04  0.11436506025E+04  0.12699999809E+01 0. -1.
       -4    1    3    3    0  502  0.13816412945E+03 -0.12134896313E+03 -0.53871635233E+02  0.19162114576E+03  0.12699999809E+01 0.  1.
</event>
<event>
 5   0  0.6153659E-03  0.7994879E+03  0.7818609E-02  0.9560759E-01
        2   -1    0    0  501    0  0.00000000000E+00  0.00000000000E+00  0.15950500347E+04  0.15950500347E+04  0.25500000920E-02 0.  1.
       -2   -1    0    0    0  501  0.00000000000E+00  0.00000000000E+00 -0.10018195164E+03  0.10018195167E+03  0.25500000920E-02 0. -1.
    10030    2    1    2    0    0  0.00000000000E+00  0.00000000000E+00  0.14948680831E+04  0.16952319864E+04  0.79948789978E+03 0.  0.
        2    1    3    3  502    0 -0.17855143637E+03  0.13409592153E+03  0.44392361008E+02  0.22766864809E+03  0.25500000920E-02 0. -1.
       -2    1    3    3    0  502  0.17855143637E+03 -0.13409592153E+03  0.14504757221E+04  0.14675633383E+04  0.25500000920E-02 0.  1.
</event>
<event>
 5   0  0.6153659E-03  0.7994622E+03  0.7818609E-02  0.9560796E-01
        2   -1    0    0  501    0  0.00000000000E+00  0.00000000000E+00  0.25302805684E+03  0.25302805685E+03  0.25500000920E-02 0. -1.
       -2   -1    0    0    0  501  0.00000000000E+00  0.00000000000E+00 -0.63149102981E+03  0.63149102981E+03  0.25500000920E-02 0.  1.
    10030    2    1    2    0    0  0.00000000000E+00  0.00000000000E+00 -0.37846297297E+03  0.88451908666E+03  0.79946218970E+03 0.  0.
        2    1    3    3  502    0 -0.22015124996E+03 -0.25542983316E+03 -0.42671700069E+03  0.54387348824E+03  0.25500000920E-02 0.  1.
       -2    1    3    3    0  502  0.22015124996E+03  0.25542983316E+03  0.48254027724E+02  0.34064559842E+03  0.25500000920E-02 0. -1.
</event>
<event>
 5   0  0.6536209E-03  0.8011325E+03  0.7818609E-02  0.9558379E-01
        2   -1    0    0  501    0  0.00000000000E+00  0.00000000000E+00  0.45409745889E+03  0.45409745890E+03  0.25500000920E-02 0.  1.
       -2   -1    0    0    0  501  0.00000000000E+00  0.00000000000E+00 -0.35334560037E+03  0.35334560038E+03  0.25500000920E-02 0. -1.
    10030    2    1    2    0    0  0.00000000000E+00  0.00000000000E+00  0.10075185852E+03  0.80744305928E+03  0.80113254645E+03 0.  0.
        3    1    3    3  502    0  0.16386000797E+03 -0.26034516804E+02  0.41783719646E+03  0.44957294316E+03  0.10100000352E+00 0.  1.
       -3    1    3    3    0  502 -0.16386000797E+03  0.26034516804E+02 -0.31708533794E+03  0.35787011612E+03  0.10100000352E+00 0. -1.
</event>
<event>
 5   0  0.3671128E-03  0.8026813E+03  0.7818609E-02  0.9556144E-01
        1   -1    0    0  501    0  0.00000000000E+00  0.00000000000E+00  0.12012098890E+04  0.12012098890E+04  0.50400001928E-02 0.  1.
       -1   -1    0    0    0  501  0.00000000000E+00  0.00000000000E+00 -0.13409339085E+03  0.13409339095E+03  0.50400001928E-02 0. -1.
    10030    2    1    2    0    0  0.00000000000E+00  0.00000000000E+00  0.10671164981E+04  0.13353032799E+04  0.80268127476E+03 0.  0.
        2    1    3    3  502    0  0.33758358884E+02 -0.24610327340E+03  0.10579547085E+04  0.10867265587E+04  0.25500000920E-02 0.  1.
       -2    1    3    3    0  502 -0.33758358884E+02  0.24610327340E+03  0.91617895969E+01  0.24857672129E+03  0.25500000920E-02 0. -1.
</event>
<event>
 5   0  0.3714448E-03  0.8009893E+03  0.7818609E-02  0.9558586E-01
       -1   -1    0    0    0  501  0.00000000000E+00  0.00000000000E+00  0.33341524031E+03  0.33341524035E+03  0.50400001928E-02 0. -1.
        1   -1    0    0  501    0  0.00000000000E+00  0.00000000000E+00 -0.48106972981E+03  0.48106972984E+03  0.50400001928E-02 0.  1.
    10030    2    1    2    0    0  0.00000000000E+00  0.00000000000E+00 -0.14765448951E+03  0.81448497019E+03  0.80098933725E+03 0.  0.
        1    1    3    3  502    0 -0.25248763037E+03  0.11322551258E+03 -0.36823253258E+03  0.46061395795E+03  0.50400001928E-02 0.  1.
       -1    1    3    3    0  502  0.25248763037E+03 -0.11322551258E+03  0.22057804307E+03  0.35387101223E+03  0.50400001928E-02 0. -1.
</event>
<event>
 5   0  0.3627496E-03  0.8003270E+03  0.7818609E-02  0.9559544E-01
       -1   -1    0    0    0  501  0.00000000000E+00  0.00000000000E+00  0.39985425074E+03  0.39985425077E+03  0.50400001928E-02 0. -1.
        1   -1    0    0  501    0  0.00000000000E+00  0.00000000000E+00 -0.40047294969E+03  0.40047294972E+03  0.50400001928E-02 0.  1.
    10030    2    1    2    0    0  0.00000000000E+00  0.00000000000E+00 -0.61869894371E+00  0.80032720049E+03  0.80032696135E+03 0.  0.
        3    1    3    3  502    0 -0.13262444930E+03  0.27421816484E+03  0.25920171934E+03  0.39996298327E+03  0.10100000352E+00 0. -1.
       -3    1    3    3    0  502  0.13262444930E+03 -0.27421816484E+03 -0.25982041828E+03  0.40036421722E+03  0.10100000352E+00 0.  1.
</event>
<event>
 5   0  0.2478000E-03  0.8158957E+03  0.7818609E-02  0.9537289E-01
        3   -1    0    0  501    0  0.00000000000E+00  0.00000000000E+00  0.41021019854E+03  0.41021021097E+03  0.10100000352E+00 0. -1.
       -3   -1    0    0    0  501  0.00000000000E+00  0.00000000000E+00 -0.40569798902E+03  0.40569800160E+03  0.10100000352E+00 0.  1.
    10030    2    1    2    0    0  0.00000000000E+00  0.00000000000E+00  0.45122095132E+01  0.81590821257E+03  0.81589573556E+03 0.  0.
        1    1    3    3  502    0  0.21576919098E+03 -0.28402500486E+03  0.20023619066E+03  0.40904899369E+03  0.50400001928E-02 0. -1.
       -1    1    3    3    0  502 -0.21576919098E+03  0.28402500486E+03 -0.19572398115E+03  0.40685921888E+03  0.50400001928E-02 0.  1.
</event>
<event>
 5   0  0.3671128E-03  0.8043541E+03  0.7818609E-02  0.9553736E-01
       -1   -1    0    0    0  501  0.00000000000E+00  0.00000000000E+00  0.48081314762E+03  0.48081314765E+03  0.50400001928E-02 0.  1.
        1   -1    0    0  501    0  0.00000000000E+00  0.00000000000E+00 -0.33640171753E+03  0.33640171757E+03  0.50400001928E-02 0. -1.
    10030    2    1    2    0    0  0.00000000000E+00  0.00000000000E+00  0.14441143009E+03  0.81721486521E+03  0.80435407302E+03 0.  0.
        2    1    3    3  502    0  0.69705014781E+02  0.16482008284E+03 -0.29372231394E+03  0.34394366763E+03  0.25500000920E-02 0. -1.
       -2    1    3    3    0  502 -0.69705014781E+02 -0.16482008284E+03  0.43813374403E+03  0.47327119758E+03  0.25500000920E-02 0.  1.
</event>
<event>
 5   0  0.3714448E-03  0.7986751E+03  0.7818609E-02  0.9561937E-01
       -1   -1    0    0    0  501  0.00000000000E+00  0.00000000000E+00  0.19073915719E+03  0.19073915725E+03  0.50400001928E-02 0.  1.
        1   -1    0    0  501    0  0.00000000000E+00  0.00000000000E+00 -0.83606584078E+03  0.83606584079E+03  0.50400001928E-02 0. -1.
    10030    2    1    2    0    0  0.00000000000E+00  0.00000000000E+00 -0.64532668359E+03  0.10268049980E+04  0.79867513763E+03 0.  0.
        1    1    3    3  502    0 -0.21065903946E+02  0.16884982707E+03  0.14179893566E+03  0.22149712095E+03  0.50400001928E-02 0.  1.
       -1    1    3    3    0  502  0.21065903946E+02 -0.16884982707E+03 -0.78712561925E+03  0.80530787710E+03  0.50400001928E-02 0. -1.
</event>
<event>
 5   0  0.6337108E-03  0.8045089E+03  0.7818609E-02  0.9553513E-01
       -2   -1    0    0    0  501  0.00000000000E+00  0.00000000000E+00  0.21818431657E+03  0.21818431658E+03  0.25500000920E-02 0. -1.
        2   -1    0    0  501    0  0.00000000000E+00  0.00000000000E+00 -0.74161449371E+03  0.74161449371E+03  0.25500000920E-02 0.  1.
    10030    2    1    2    0    0  0.00000000000E+00  0.00000000000E+00 -0.52343017714E+03  0.95979881029E+03  0.80450892220E+03 0.  0.
        4    1    3    3  502    0 -0.22532097264E+03  0.32174866376E+03 -0.36513933505E+03  0.53630223778E+03  0.12699999809E+01 0.  1.
       -4    1    3    3    0  502  0.22532097264E+03 -0.32174866376E+03 -0.15829084209E+03  0.42349657252E+03  0.12699999809E+01 0. -1.
</event>
<event>
 5   0  0.6337108E-03  0.8003464E+03  0.7818609E-02  0.9559516E-01
       -2   -1    0    0    0  501  0.00000000000E+00  0.00000000000E+00  0.26813627888E+03  0.26813627889E+03  0.25500000920E-02 0. -1.
        2   -1    0    0  501    0  0.00000000000E+00  0.00000000000E+00 -0.59722842965E+03  0.59722842966E+03  0.25500000920E-02 0.  1.
    10030    2    1    2    0    0  0.00000000000E+00  0.00000000000E+00 -0.32909215077E+03  0.86536470855E+03  0.80034644692E+03 0.  0.
        4    1    3    3  502    0  0.11237303695E+03 -0.24214139461E+03  0.15779486199E+03  0.31009834857E+03  0.12699999809E+01 0. -1.
       -4    1    3    3    0  502 -0.11237303695E+03  0.24214139461E+03 -0.48688701277E+03  0.55526635997E+03  0.12699999809E+01 0.  1.
</event>
<event>
 5   0  0.6153659E-03  0.8009364E+03  0.7818609E-02  0.9558663E-01
        2   -1    0    0  501    0  0.00000000000E+00  0.00000000000E+00  0.32977053288E+03  0.32977053289E+03  0.25500000920E-02 0. -1.
       -2   -1    0    0    0  501  0.00000000000E+00  0.00000000000E+00 -0.48632237141E+03  0.48632237141E+03  0.25500000920E-02 0.  1.
    10030    2    1    2    0    0  0.00000000000E+00  0.00000000000E+00 -0.15655183853E+03  0.81609290430E+03  0.80093642089E+03 0.  0.
        2    1    3    3  502    0 -0.24313982257E+03  0.22647625346E+03  0.14948554456E+03  0.36435476494E+03  0.25500000920E-02 0. -1.
       -2    1    3    3    0  502  0.24313982257E+03 -0.22647625346E+03 -0.30603738308E+03  0.45173813936E+03  0.25500000920E-02 0.  1.
</event>
<event>
 5   0  0.3753450E-03  0.7978782E+03  0.7818609E-02  0.9563093E-01
       -1   -1    0    0    0  501  0.00000000000E+00  0.00000000000E+00  0.30049955568E+03  0.30049955573E+03  0.50400001928E-02 0. -1.
        1   -1    0    0  501    0  0.00000000000E+00  0.00000000000E+00 -0.52962607801E+03  0.52962607803E+03  0.50400001928E-02 0.  1.
    10030    2    1    2    0    0  0.00000000000E+00  0.00000000000E+00 -0.22912652233E+03  0.83012563376E+03  0.79787818907E+03 0.  0.
        5    1    3    3  502    0 -0.27087456721E+03 -0.25591598739E+03  0.33542822961E+02  0.37418342392E+03  0.46999998093E+01 0. -1.
       -5    1    3    3    0  502  0.27087456721E+03  0.25591598739E+03 -0.26266934529E+03  0.45594220984E+03  0.46999998093E+01 0.  1.
</event>
<event>
 5   0  0.3860515E-03  0.8008329E+03  0.7818609E-02  0.9558812E-01
        1   -1    0    0  501    0  0.00000000000E+00  0.00000000000E+00  0.17534794431E+03  0.17534794438E+03  0.50400001928E-02 0.  1.
       -1   -1    0    0    0  501  0.00000000000E+00  0.00000000000E+00 -0.91437251757E+03  0.91437251758E+03  0.50400001928E-02 0. -1.
    10030    2    1    2    0    0  0.00000000000E+00  0.00000000000E+00 -0.73902457326E+03  0.10897204620E+04  0.80083291974E+03 0.  0.
        4    1    3    3  502    0 -0.18251926980E+03  0.28961272495E+03 -0.86875994613E+02  0.35318248207E+03  0.12699999809E+01 0.  1.
       -4    1    3    3    0  502  0.18251926980E+03 -0.28961272495E+03 -0.65214857864E+03  0.73653797989E+03  0.12699999809E+01 0. -1.
</event>
<event>
 5   0  0.3627496E-03  0.8018234E+03  0.7818609E-02  0.9557382E-01
        1   -1    0    0  501    0  0.00000000000E+00  0.00000000000E+00  0.70096182628E+03  0.70096182629E+03  0.50400001928E-02 0. -1.
       -1   -1    0    0    0  501  0.00000000000E+00  0.00000000000E+00 -0.22929949725E+03  0.22929949731E+03  0.50400001928E-02 0.  1.
    10030    2    1    2    0    0  0.00000000000E+00  0.00000000000E+00  0.47166232902E+03  0.93026132360E+03  0.80182340797E+03 0.  0.
        3    1    3    3  502    0  0.10047107353E+03  0.37141652778E+03  0.10515986551E+03  0.39887752662E+03  0.10100000352E+00 0.  1.
       -3    1    3    3    0  502 -0.10047107353E+03 -0.37141652778E+03  0.36650246352E+03  0.53138379698E+03  0.10100000352E+00 0. -1.
</event>
<event>
 5   0  0.2478000E-03  0.7971080E+03  0.7818609E-02  0.9564213E-01
        3   -1    0    0  501    0  0.00000000000E+00  0.00000000000E+00  0.15445697167E+03  0.15445700470E+03  0.10100000352E+00 0.  1.
       -3   -1    0    0    0  501  0.00000000000E+00  0.00000000000E+00 -0.10284112458E+04  0.10284112508E+04  0.10100000352E+00 0. -1.
    10030    2    1    2    0    0  0.00000000000E+00  0.00000000000E+00 -0.87395427416E+03  0.11828682555E+04  0.79710804570E+03 0.  0.
        4    1    3    3  502    0  0.23503480987E+03  0.31778789649E+03 -0.51283567138E+03  0.64748169684E+03  0.12699999809E+01 0. -1.
       -4    1    3    3    0  502 -0.23503480987E+03 -0.31778789649E+03 -0.36111860279E+03  0.53538655865E+03  0.12699999809E+01 0.  1.
</event>
<event>
 5   0  0.3860515E-03  0.8003742E+03  0.7818609E-02  0.9559476E-01
        1   -1    0    0  501    0  0.00000000000E+00  0.00000000000E+00  0.79806690540E+03  0.79806690542E+03  0.50400001928E-02 0. -1.
       -1   -1    0    0    0  501  0.00000000000E+00  0.00000000000E+00 -0.20067205414E+03  0.20067205421E+03  0.50400001928E-02 0.  1.
    10030    2    1    2    0    0  0.00000000000E+00  0.00000000000E+00  0.59739485126E+03  0.99873895963E+03  0.80037422570E+03 0.  0.
        4    1    3    3  502    0 -0.22964476546E+03 -0.30943796563E+03  0.43343837289E+03  0.57996466174E+03  0.12699999809E+01 0. -1.
       -4    1    3    3    0  502  0.22964476546E+03  0.30943796563E+03  0.16395647837E+03  0.41877429789E+03  0.12699999809E+01 0.  1.
</event>
<event>
 5   0  0.3671128E-03  0.8015803E+03  0.7818609E-02  0.9557733E-01
        1   -1    0    0  501    0  0.00000000000E+00  0.00000000000E+00  0.11689120167E+04  0.11689120168E+04  0.50400001928E-02 0. -1.
       -1   -1    0    0    0  501  0.00000000000E+00  0.00000000000E+00 -0.13742072803E+03  0.13742072812E+03  0.50400001928E-02 0.  1.
    10030    2    1    2    0    0  0.00000000000E+00  0.00000000000E+00  0.10314912887E+04  0.13063327449E+04  0.80158029021E+03 0.  0.
        2    1    3    3  502    0  0.15701781020E+03 -0.13193138751E+03  0.10769206582E+04  0.10962748687E+04  0.25500000920E-02 0. -1.
       -2    1    3    3    0  502 -0.15701781020E+03  0.13193138751E+03 -0.45429369460E+02  0.21005787618E+03  0.25500000920E-02 0.  1.
</event>
<event>
 5   0  0.6256781E-03  0.7928699E+03  0.7818609E-02  0.9570395E-01
       -2   -1    0    0    0  501  0.00000000000E+00  0.00000000000E+00  0.12753910191E+03  0.12753910194E+03  0.25500000920E-02 0.  1.
        2   -1    0    0  501    0  0.00000000000E+00  0.00000000000E+00 -0.12322546660E+04  0.12322546660E+04  0.25500000920E-02 0. -1.
    10030    2    1    2    0    0  0.00000000000E+00  0.00000000000E+00 -0.11047155641E+04  0.13597937679E+04  0.79286985930E+03 0.  0.
        1    1    3    3  502    0 -0.36398954776E+03 -0.14241677767E+03 -0.43872863557E+03  0.58758296873E+03  0.50400001928E-02 0.  1.
       -1    1    3    3    0  502  0.36398954776E+03  0.14241677767E+03 -0.66598692849E+03  0.77221079919E+03  0.50400001928E-02 0. -1.
</event>
<event>
 5   0  0.6153659E-03  0.8040324E+03  0.7818609E-02  0.9554199E-01
       -2   -1    0    0    0  501  0.00000000000E+00  0.00000000000E+00  0.15228660190E+03  0.15228660192E+03  0.25500000920E-02 0. -1.
        2   -1    0    0  501    0  0.00000000000E+00  0.00000000000E+00 -0.10612689686E+04  0.10612689686E+04  0.25500000920E-02 0.  1.
    10030    2    1    2    0    0  0.00000000000E+00  0.00000000000E+00 -0.90898236667E+03  0.12135555705E+04  0.80403244945E+03 0.  0.
        2    1    3    3  502    0 -0.28735518058E+03 -0.55217295467E+02 -0.38409235498E+02  0.29512237954E+03  0.25500000920E-02 0.  1.
       -2    1    3    3    0  502  0.28735518058E+03  0.55217295467E+02 -0.87057313118E+03  0.91843319096E+03  0.25500000920E-02 0. -1.
</event>
<event>
 5   0  0.6536209E-03  0.8008329E+03  0.7818609E-02  0.9558812E-01
       -2   -1    0    0    0  501  0.00000000000E+00  0.00000000000E+00  0.13116789023E+03  0.13116789025E+03  0.25500000920E-02 0.  1.
        2   -1    0    0  501    0  0.00000000000E+00  0.00000000000E+00 -0.12223518518E+04  0.12223518518E+04  0.25500000920E-02 0. -1.
    10030    2    1    2    0    0  0.00000000000E+00  0.00000000000E+00 -0.10911839616E+04  0.13535197421E+04  0.80083285032E+03 0.  0.
        3    1    3    3  502    0  0.29865418289E+03 -0.66898279945E+01 -0.94941448823E+02  0.31345328785E+03  0.10100000352E+00 0.  1.
       -3    1    3    3    0  502 -0.29865418289E+03  0.66898279945E+01 -0.99624251275E+03  0.10400664542E+04  0.10100000352E+00 0. -1.
</event>
<event>
 5   0  0.5813850E-03  0.7978723E+03  0.7818609E-02  0.9563102E-01
       -2   -1    0    0    0  501  0.00000000000E+00  0.00000000000E+00  0.67710341617E+03  0.67710341617E+03  0.25500000920E-02 0. -1.
        2   -1    0    0  501    0  0.00000000000E+00  0.00000000000E+00 -0.23504540824E+03  0.23504540825E+03  0.25500000920E-02 0.  1.
    10030    2    1    2    0    0  0.00000000000E+00  0.00000000000E+00  0.44205800793E+03  0.91214882443E+03  0.79787229275E+03 0.  0.
        5    1    3    3  502    0  0.21997161077E+03  0.64514375943E+02  0.59425063303E+03  0.63695017003E+03  0.46999998093E+01 0. -1.
       -5    1    3    3    0  502 -0.21997161077E+03 -0.64514375943E+02 -0.15219262510E+03  0.27519865440E+03  0.46999998093E+01 0.  1.
</event>
<event>
 5   0  0.2478000E-03  0.7998595E+03  0.7818609E-02  0.9560221E-01
        3   -1    0    0  501    0  0.00000000000E+00  0.00000000000E+00  0.12218421035E+04  0.12218421076E+04  0.10100000352E+00 0.  1.
       -3   -1    0    0    0  501  0.00000000000E+00  0.00000000000E+00 -0.13090378579E+03  0.13090382475E+03  0.10100000352E+00 0. -1.
    10030    2    1    2    0    0  0.00000000000E+00  0.00000000000E+00  0.10909383177E+04  0.13527459324E+04  0.79985945304E+03 0.  0.
        3    1    3    3  502    0  0.67215605463E+02  0.12331514294E+03  0.11787645375E+04  0.11871016835E+04  0.10100000352E+00 0.  1.
       -3    1    3    3    0  502 -0.67215605463E+02 -0.12331514294E+03 -0.87826219780E+02  0.16564424885E+03  0.10100000352E+00 0. -1.
</event>
<event>
 5   0  0.3627496E-03  0.7873214E+03  0.7818609E-02  0.9578552E-01
       -1   -1    0    0    0  501  0.00000000000E+00  0.00000000000E+00  0.14509251680E+03  0.14509251689E+03  0.50400001928E-02 0.  1.
        1   -1    0    0  501    0  0.00000000000E+00  0.00000000000E+00 -0.10680685830E+04  0.10680685830E+04  0.50400001928E-02 0. -1.
    10030    2    1    2    0    0  0.00000000000E+00  0.00000000000E+00 -0.92297606622E+03  0.12131610999E+04  0.78732143090E+03 0.  0.
        3    1    3    3  502    0  0.15148855609E+03 -0.10333274222E+03  0.75262560083E+02  0.19821932648E+03  0.10100000352E+00 0.  1.
       -3    1    3    3    0  502 -0.15148855609E+03  0.10333274222E+03 -0.99823862631E+03  0.10149417734E+04  0.10100000352E+00 0. -1.
</event>
<event>
 5   0  0.3671128E-03  0.8005926E+03  0.7818609E-02  0.9559160E-01
       -1   -1    0    0    0  501  0.00000000000E+00  0.00000000000E+00  0.52984793254E+03  0.52984793256E+03  0.50400001928E-02 0. -1.
        1   -1    0    0  501    0  0.00000000000E+00  0.00000000000E+00 -0.30242098115E+03  0.30242098119E+03  0.50400001928E-02 0.  1.
    10030    2    1    2    0    0  0.00000000000E+00  0.00000000000E+00  0.22742695139E+03  0.83226891375E+03  0.80059260962E+03 0.  0.
        2    1    3    3  502    0 -0.24175141813E+02 -0.37737505141E+03 -0.22785803968E+02  0.37883447543E+03  0.25500000920E-02 0. -1.
       -2    1    3    3    0  502  0.24175141813E+02  0.37737505141E+03  0.25021275536E+03  0.45343443832E+03  0.25500000920E-02 0.  1.
</event>
<event>
 5   0  0.3627496E-03  0.8221760E+03  0.7818609E-02  0.9528462E-01
       -1   -1    0    0    0  501  0.00000000000E+00  0.00000000000E+00  0.27040169449E+03  0.27040169454E+03  0.50400001928E-02 0. -1.
        1   -1    0    0  501    0  0.00000000000E+00  0.00000000000E+00 -0.62497151788E+03  0.62497151790E+03  0.50400001928E-02 0.  1.
    10030    2    1    2    0    0  0.00000000000E+00  0.00000000000E+00 -0.35456982339E+03  0.89537321244E+03  0.82217603340E+03 0.  0.
        3    1    3    3  502    0  0.26128017076E+03 -0.54154127458E+02 -0.51784515411E+03  0.58254923482E+03  0.10100000352E+00 0.  1.
       -3    1    3    3    0  502 -0.26128017076E+03  0.54154127458E+02  0.16327533072E+03  0.31282397762E+03  0.10100000352E+00 0. -1.
</event>
<event>
 5   0  0.6153659E-03  0.7997374E+03  0.7818609E-02  0.9560397E-01
       -2   -1    0    0    0  501  0.00000000000E+00  0.00000000000E+00  0.30033193663E+03  0.30033193664E+03  0.25500000920E-02 0.  1.
        2   -1    0    0  501    0  0.00000000000E+00  0.00000000000E+00 -0.53239413487E+03  0.53239413488E+03  0.25500000920E-02 0. -1.
    10030    2    1    2    0    0  0.00000000000E+00  0.00000000000E+00 -0.23206219824E+03  0.83272607152E+03  0.79973736085E+03 0.  0.
        2    1    3    3  502    0 -0.28913892986E+03 -0.12923646456E+03  0.13815231944E+03  0.34552778167E+03  0.25500000920E-02 0.  1.
       -2    1    3    3    0  502  0.28913892986E+03  0.12923646456E+03 -0.37021451768E+03  0.48719828985E+03  0.25500000920E-02 0. -1.
</event>
<event>
 5   0  0.6256781E-03  0.8009396E+03  0.7818609E-02  0.9558658E-01
       -2   -1    0    0    0  501  0.00000000000E+00  0.00000000000E+00  0.15064169639E+03  0.15064169642E+03  0.25500000920E-02 0.  1.
        2   -1    0    0  501    0  0.00000000000E+00  0.00000000000E+00 -0.10646192320E+04  0.10646192320E+04  0.25500000920E-02 0. -1.
    10030    2    1    2    0    0  0.00000000000E+00  0.00000000000E+00 -0.91397753560E+03  0.12152609284E+04  0.80093956610E+03 0.  0.
        1    1    3    3  502    0  0.24121272447E+03 -0.19551551634E+03 -0.84073568387E+03  0.89624013843E+03  0.50400001928E-02 0. -1.
       -1    1    3    3    0  502 -0.24121272447E+03  0.19551551634E+03 -0.73241851732E+02  0.31902078999E+03  0.50400001928E-02 0.  1.
</event>
<event>
 5   0  0.6256781E-03  0.7687823E+03  0.7818609E-02  0.9606336E-01
        2   -1    0    0  501    0  0.00000000000E+00  0.00000000000E+00  0.12058175323E+04  0.12058175323E+04  0.25500000920E-02 0.  1.
       -2   -1    0    0    0  501  0.00000000000E+00  0.00000000000E+00 -0.12253641840E+03  0.12253641843E+03  0.25500000920E-02 0. -1.
    10030    2    1    2    0    0  0.00000000000E+00  0.00000000000E+00  0.10832811139E+04  0.13283539507E+04  0.76878231424E+03 0.  0.
        1    1    3    3  502    0 -0.35971592766E+02 -0.20254622344E+02 -0.11869504377E+03  0.12566908392E+03  0.50400001928E-02 0. -1.
       -1    1    3    3    0  502  0.35971592766E+02  0.20254622344E+02  0.12019761577E+04  0.12026848668E+04  0.50400001928E-02 0.  1.
</event>
<event>
 5   0  0.6536209E-03  0.7919628E+03  0.7818609E-02  0.9571724E-01
       -2   -1    0    0    0  501  0.00000000000E+00  0.00000000000E+00  0.34325514692E+03  0.34325514693E+03  0.25500000920E-02 0. -1.
        2   -1    0    0  501    0  0.00000000000E+00  0.00000000000E+00 -0.45680679191E+03  0.45680679192E+03  0.25500000920E-02 0.  1.
    10030    2    1    2    0    0  0.00000000000E+00  0.00000000000E+00 -0.11355164500E+03  0.80006193884E+03  0.79196283366E+03 0.  0.
        3    1    3    3  502    0  0.27312642869E+02 -0.20064402767E+03  0.28699416807E+03  0.35124018707E+03  0.10100000352E+00 0. -1.
       -3    1    3    3    0  502 -0.27312642869E+02  0.20064402767E+03 -0.40054581307E+03  0.44882175178E+03  0.10100000352E+00 0.  1.
</event>
<event>
 5   0  0.3860515E-03  0.8036220E+03  0.7818609E-02  0.9554789E-01
        1   -1    0    0  501    0  0.00000000000E+00  0.00000000000E+00  0.10635280283E+04  0.10635280283E+04  0.50400001928E-02 0.  1.
       -1   -1    0    0    0  501  0.00000000000E+00  0.00000000000E+00 -0.15180801671E+03  0.15180801679E+03  0.50400001928E-02 0. -1.
    10030    2    1    2    0    0  0.00000000000E+00  0.00000000000E+00  0.91172001163E+03  0.12153360451E+04  0.80362200257E+03 0.  0.
        4    1    3    3  502    0  0.18874376940E+03 -0.17708157540E+03 -0.89631743478E+01  0.25896726864E+03  0.12699999809E+01 0. -1.
       -4    1    3    3    0  502 -0.18874376940E+03  0.17708157540E+03  0.92068318598E+03  0.95636877650E+03  0.12699999809E+01 0.  1.
</event>
<event>
 5   0  0.6536209E-03  0.7988085E+03  0.7818609E-02  0.9561743E-01
        2   -1    0    0  501    0  0.00000000000E+00  0.00000000000E+00  0.72696935597E+03  0.72696935598E+03  0.25500000920E-02 0. -1.
       -2   -1    0    0    0  501  0.00000000000E+00  0.00000000000E+00 -0.21943669547E+03  0.21943669548E+03  0.25500000920E-02 0.  1.
    10030    2    1    2    0    0  0.00000000000E+00  0.00000000000E+00  0.50753266051E+03  0.94640605146E+03  0.79880849567E+03 0.  0.
        3    1    3    3  502    0  0.82673488020E+02 -0.33102186661E+03  0.77631198927E+01  0.34127797764E+03  0.10100000352E+00 0.  1.
       -3    1    3    3    0  502 -0.82673488020E+02  0.33102186661E+03  0.49976954061E+03  0.60512807382E+03  0.10100000352E+00 0. -1.
</event>
<event>
 5   0  0.3671128E-03  0.7993427E+03  0.7818609E-02  0.9560969E-01
        1   -1    0    0  501    0  0.00000000000E+00  0.00000000000E+00  0.44302843720E+03  0.44302843723E+03  0.50400001928E-02 0.  1.
       -1   -1    0    0    0  501  0.00000000000E+00  0.00000000000E+00 -0.36055745782E+03  0.36055745785E+03  0.50400001928E-02 0. -1.
    10030    2    1    2    0    0  0.00000000000E+00  0.00000000000E+00  0.82470979381E+02  0.80358589508E+03  0.79934274772E+03 0.  0.
        2    1    3    3  502    0 -0.33485608763E+02 -0.27226221428E+03 -0.25097774721E+03  0.37180348159E+03  0.25500000920E-02 0. -1.
       -2    1    3    3    0  502  0.33485608763E+02  0.27226221428E+03  0.33344872660E+03  0.43178241348E+03  0.25500000920E-02 0.  1.
</event>
<event>
 5   0  0.5813850E-03  0.8096244E+03  0.7818609E-02  0.9546190E-01
       -2   -1    0    0    0  501  0.00000000000E+00  0.00000000000E+00  0.23824290871E+03  0.23824290872E+03  0.25500000920E-02 0. -1.
        2   -1    0    0  501    0  0.00000000000E+00  0.00000000000E+00 -0.68783957300E+03  0.68783957301E+03  0.25500000920E-02 0.  1.
    10030    2    1    2    0    0  0.00000000000E+00  0.00000000000E+00 -0.44959666429E+03  0.92608248173E+03  0.80962435884E+03 0.  0.
        5    1    3    3  502    0 -0.14912883938E+03 -0.21458374868E+03 -0.57840139867E+03  0.63470927512E+03  0.46999998093E+01 0.  1.
       -5    1    3    3    0  502  0.14912883938E+03  0.21458374868E+03  0.12880473438E+03  0.29137320661E+03  0.46999998093E+01 0. -1.
</event>
<event>
 5   0  0.6536209E-03  0.7998717E+03  0.7818609E-02  0.9560203E-01
       -2   -1    0    0    0  501  0.00000000000E+00  0.00000000000E+00  0.38429405228E+03  0.38429405229E+03  0.25500000920E-02 0.  1.
        2   -1    0    0  501    0  0.00000000000E+00  0.00000000000E+00 -0.41621429061E+03  0.41621429062E+03  0.25500000920E-02 0. -1.
    10030    2    1    2    0    0  0.00000000000E+00  0.00000000000E+00 -0.31920238334E+02  0.80050834291E+03  0.79987168061E+03 0.  0.
        3    1    3    3  502    0 -0.92419032403E+02 -0.25742108638E+03  0.27606276516E+03  0.38860977056E+03  0.10100000352E+00 0.  1.
       -3    1    3    3    0  502  0.92419032403E+02  0.25742108638E+03 -0.30798300349E+03  0.41189857235E+03  0.10100000352E+00 0. -1.
</event>
<event>
 5   0  0.3671128E-03  0.8004758E+03  0.7818609E-02  0.9559329E-01
       -1   -1    0    0    0  501  0.00000000000E+00  0.00000000000E+00  0.14257614483E+03  0.14257614492E+03  0.50400001928E-02 0.  1.
        1   -1    0    0  501    0  0.00000000000E+00  0.00000000000E+00 -0.11235425294E+04  0.11235425294E+04  0.50400001928E-02 0. -1.
    10030    2    1    2    0    0  0.00000000000E+00  0.00000000000E+00 -0.98096638455E+03  0.12661186743E+04  0.80047576466E+03 0.  0.
        2    1    3    3  502    0  0.16176614022E+03 -0.12985902991E+03 -0.10318772921E+04  0.10525219227E+04  0.25500000920E-02 0. -1.
       -2    1    3    3    0  502 -0.16176614022E+03  0.12985902991E+03  0.50910907586E+02  0.21359675159E+03  0.25500000920E-02 0.  1.
</event>
<event>
 5   0  0.3671128E-03  0.7996403E+03  0.7818609E-02  0.9560538E-01
        1   -1    0    0  501    0  0.00000000000E+00  0.00000000000E+00  0.36523329035E+03  0.36523329038E+03  0.50400001928E-02 0. -1.
       -1   -1    0    0    0  501  0.00000000000E+00  0.00000000000E+00 -0.43768229869E+03  0.43768229872E+03  0.50400001928E-02 0.  1.
    10030    2    1    2    0    0  0.00000000000E+00  0.00000000000E+00 -0.72449008340E+02  0.80291558910E+03  0.79964028438E+03 0.  0.
        2    1    3    3  502    0  0.51035724246E+02 -0.35749085103E+03 -0.20854268068E+03  0.41700647884E+03  0.25500000920E-02 0.  1.
       -2    1    3    3    0  502 -0.51035724246E+02  0.35749085103E+03  0.13609367234E+03  0.38590911026E+03  0.25500000920E-02 0. -1.
</event>
<event>
 5   0  0.2478000E-03  0.8022115E+03  0.7818609E-02  0.9556822E-01
       -3   -1    0    0    0  501  0.00000000000E+00  0.00000000000E+00  0.44030761275E+03  0.44030762433E+03  0.10100000352E+00 0.  1.
        3   -1    0    0  501    0  0.00000000000E+00  0.00000000000E+00 -0.36539407560E+03  0.36539408956E+03  0.10100000352E+00 0. -1.
    10030    2    1    2    0    0  0.00000000000E+00  0.00000000000E+00  0.74913537152E+02  0.80570171389E+03  0.80221145200E+03 0.  0.
        1    1    3    3  502    0  0.28855303205E+03  0.27470523991E+03  0.84134584053E+02  0.40719092499E+03  0.50400001928E-02 0. -1.
       -1    1    3    3    0  502 -0.28855303205E+03 -0.27470523991E+03 -0.92210469002E+01  0.39851078890E+03  0.50400001928E-02 0.  1.
</event>
<event>
 5   0  0.3753450E-03  0.7976556E+03  0.7818609E-02  0.9563417E-01
        1   -1    0    0  501    0  0.00000000000E+00  0.00000000000E+00  0.58999208577E+03  0.58999208579E+03  0.50400001928E-02 0.  1.
       -1   -1    0    0    0  501  0.00000000000E+00  0.00000000000E+00 -0.26960294857E+03  0.26960294861E+03  0.50400001928E-02 0. -1.
    10030    2    1    2    0    0  0.00000000000E+00  0.00000000000E+00  0.32038913720E+03  0.85959503440E+03  0.79765557977E+03 0.  0.
        5    1    3    3  502    0 -0.28990555462E+03  0.14564489249E+03  0.41011653932E+03  0.52294868881E+03  0.46999998093E+01 0.  1.
       -5    1    3    3    0  502  0.28990555462E+03 -0.14564489249E+03 -0.89727402118E+02  0.33664634559E+03  0.46999998093E+01 0. -1.
</event>
<event>
 5   0  0.6153659E-03  0.7969878E+03  0.7818609E-02  0.9564387E-01
        2   -1    0    0  501    0  0.00000000000E+00  0.00000000000E+00  0.17368888086E+04  0.17368888086E+04  0.25500000920E-02 0.  1.
       -2   -1    0    0    0  501  0.00000000000E+00  0.00000000000E+00 -0.91426348460E+02  0.91426348496E+02  0.25500000920E-02 0. -1.
    10030    2    1    2    0    0  0.00000000000E+00  0.00000000000E+00  0.16454624601E+04  0.18283151571E+04  0.79698783299E+03 0.  0.
        2    1    3    3  502    0 -0.50955945594E+02 -0.33437590649E+03  0.33938339607E+03  0.47915012759E+03  0.25500000920E-02 0. -1.
       -2    1    3    3    0  502  0.50955945594E+02  0.33437590649E+03  0.13060790640E+04  0.13491650295E+04  0.25500000920E-02 0.  1.
</event>
<event>
 5   0  0.6153659E-03  0.7997956E+03  0.7818609E-02  0.9560313E-01
       -2   -1    0    0    0  501  0.00000000000E+00  0.00000000000E+00  0.17115019394E+03  0.17115019396E+03  0.25500000920E-02 0.  1.
        2   -1    0    0  501    0  0.00000000000E+00  0.00000000000E+00 -0.93437369861E+03  0.93437369861E+03  0.25500000920E-02 0. -1.
    10030    2    1    2    0    0  0.00000000000E+00  0.00000000000E+00 -0.76322350466E+03  0.11055238926E+04  0.79979557324E+03 0.  0.
        2    1    3    3  502    0 -0.36668281463E+03 -0.15904352048E+03 -0.36374306408E+03  0.54042589189E+03  0.25500000920E-02 0. -1.
       -2    1    3    3    0  502  0.36668281463E+03  0.15904352048E+03 -0.39948044058E+03  0.56509800068E+03  0.25500000920E-02 0.  1.
</event>
<event>
 5   0  0.3627496E-03  0.8017126E+03  0.7818609E-02  0.9557542E-01
       -1   -1    0    0    0  501  0.00000000000E+00  0.00000000000E+00  0.10833502283E+04  0.10833502283E+04  0.50400001928E-02 0.  1.
        1   -1    0    0  501    0  0.00000000000E+00  0.00000000000E+00 -0.14832301358E+03  0.14832301367E+03  0.50400001928E-02 0. -1.
    10030    2    1    2    0    0  0.00000000000E+00  0.00000000000E+00  0.93502721475E+03  0.12316732420E+04  0.80171259363E+03 0.  0.
        3    1    3    3  502    0 -0.37427068084E+03 -0.12638057679E+03  0.36291894319E+03  0.53643337168E+03  0.10100000352E+00 0. -1.
       -3    1    3    3    0  502  0.37427068084E+03  0.12638057679E+03  0.57210827156E+03  0.69523987034E+03  0.10100000352E+00 0.  1.
</event>
<event>
 5   0  0.6337108E-03  0.8007805E+03  0.7818609E-02  0.9558888E-01
        2   -1    0    0  501    0  0.00000000000E+00  0.00000000000E+00  0.13333019421E+04  0.13333019421E+04  0.25500000920E-02 0.  1.
       -2   -1    0    0    0  501  0.00000000000E+00  0.00000000000E+00 -0.12023708862E+03  0.12023708865E+03  0.25500000920E-02 0. -1.
    10030    2    1    2    0    0  0.00000000000E+00  0.00000000000E+00  0.12130648534E+04  0.14535390307E+04  0.80078047877E+03 0.  0.
        4    1    3    3  502    0  0.10412478822E+03 -0.36216690095E+03  0.85210789516E+03  0.93171686341E+03  0.12699999809E+01 0.  1.
       -4    1    3    3    0  502 -0.10412478822E+03  0.36216690095E+03  0.36095695828E+03  0.52182216731E+03  0.12699999809E+01 0. -1.
</event>
<event>
 5   0  0.3714448E-03  0.8013707E+03  0.7818609E-02  0.9558035E-01
       -1   -1    0    0    0  501  0.00000000000E+00  0.00000000000E+00  0.52878867813E+03  0.52878867815E+03  0.50400001928E-02 0. -1.
        1   -1    0    0  501    0  0.00000000000E+00  0.00000000000E+00 -0.30361606117E+03  0.30361606121E+03  0.50400001928E-02 0.  1.
    10030    2    1    2    0    0  0.00000000000E+00  0.00000000000E+00  0.22517261696E+03  0.83240473937E+03  0.80137066498E+03 0.  0.
        1    1    3    3  502    0 -0.31962753302E+03 -0.14612272865E+03  0.31248410409E+03  0.47027643682E+03  0.50400001928E-02 0. -1.
       -1    1    3    3    0  502  0.31962753302E+03  0.14612272865E+03 -0.87311487134E+02  0.36212830255E+03  0.50400001928E-02 0.  1.
</event>
<event>
 5   0  0.6153659E-03  0.7860877E+03  0.7818609E-02  0.9580376E-01
       -2   -1    0    0    0  501  0.00000000000E+00  0.00000000000E+00  0.92380637914E+02  0.92380637950E+02  0.25500000920E-02 0. -1.
        2   -1    0    0  501    0  0.00000000000E+00  0.00000000000E+00 -0.16722496305E+04  0.16722496305E+04  0.25500000920E-02 0.  1.
    10030    2    1    2    0    0  0.00000000000E+00  0.00000000000E+00 -0.15798689926E+04  0.17646302685E+04  0.78608774994E+03 0.  0.
        2    1    3    3  502    0  0.22055649005E+03  0.23275286512E+03 -0.13001791944E+04  0.13391359151E+04  0.25500000920E-02 0.  1.
       -2    1    3    3    0  502 -0.22055649005E+03 -0.23275286512E+03 -0.27968979817E+03  0.42549435335E+03  0.25500000920E-02 0. -1.
</event>
<event>
 5   0  0.3627496E-03  0.7987759E+03  0.7818609E-02  0.9561791E-01
       -1   -1    0    0    0  501  0.00000000000E+00  0.00000000000E+00  0.57876018227E+03  0.57876018229E+03  0.50400001928E-02 0.  1.
        1   -1    0    0  501    0  0.00000000000E+00  0.00000000000E+00 -0.27560768182E+03  0.27560768187E+03  0.50400001928E-02 0. -1.
    10030    2    1    2    0    0  0.00000000000E+00  0.00000000000E+00  0.30315250044E+03  0.85436786416E+03  0.79877594405E+03 0.  0.
        3    1    3    3  502    0  0.29260498216E+03  0.27015963967E+03  0.11936673525E+03  0.41575513728E+03  0.10100000352E+00 0. -1.
       -3    1    3    3    0  502 -0.29260498216E+03 -0.27015963967E+03  0.18378576519E+03  0.43861272688E+03  0.10100000352E+00 0.  1.
</event>
<event>
 5   0  0.2478000E-03  0.8002457E+03  0.7818609E-02  0.9559661E-01
       -3   -1    0    0    0  501  0.00000000000E+00  0.00000000000E+00  0.32611872867E+03  0.32611874431E+03  0.10100000352E+00 0.  1.
        3   -1    0    0  501    0  0.00000000000E+00  0.00000000000E+00 -0.49092029186E+03  0.49092030225E+03  0.10100000352E+00 0. -1.
    10030    2    1    2    0    0  0.00000000000E+00  0.00000000000E+00 -0.16480156319E+03  0.81703904656E+03  0.80024574249E+03 0.  0.
        3    1    3    3  502    0  0.14740972299E+03 -0.70206042944E+02 -0.45536065595E+03  0.48374771532E+03  0.10100000352E+00 0. -1.
       -3    1    3    3    0  502 -0.14740972299E+03  0.70206042944E+02  0.29055909275E+03  0.33329133124E+03  0.10100000352E+00 0.  1.
</event>
<event>
 5   0  0.6256781E-03  0.7894112E+03  0.7818609E-02  0.9575472E-01
       -2   -1    0    0    0  501  0.00000000000E+00  0.00000000000E+00  0.15532118388E+03  0.15532118391E+03  0.25500000920E-02 0. -1.
        2   -1    0    0  501    0  0.00000000000E+00  0.00000000000E+00 -0.10030346207E+04  0.10030346207E+04  0.25500000920E-02 0.  1.
    10030    2    1    2    0    0  0.00000000000E+00  0.00000000000E+00 -0.84771343679E+03  0.11583558046E+04  0.78941123573E+03 0.  0.
        1    1    3    3  502    0 -0.28655018249E+03  0.10380332281E+02 -0.25841048788E+02  0.28790018793E+03  0.50400001928E-02 0. -1.
       -1    1    3    3    0  502  0.28655018249E+03 -0.10380332281E+02 -0.82187238800E+03  0.87045561666E+03  0.50400001928E-02 0.  1.
</event>
<event>
 5   0  0.5813850E-03  0.8337908E+03  0.7818609E-02  0.9512354E-01
        2   -1    0    0  501    0  0.00000000000E+00  0.00000000000E+00  0.23168204615E+03  0.23168204617E+03  0.25500000920E-02 0.  1.
       -2   -1    0    0    0  501  0.00000000000E+00  0.00000000000E+00 -0.75017373060E+03  0.75017373060E+03  0.25500000920E-02 0. -1.
    10030    2    1    2    0    0  0.00000000000E+00  0.00000000000E+00 -0.51849168444E+03  0.98185577677E+03  0.83379082481E+03 0.  0.
        5    1    3    3  502    0  0.21118828863E+03 -0.34454729308E+03 -0.37971850646E+03  0.55454626909E+03  0.46999998093E+01 0. -1.
       -5    1    3    3    0  502 -0.21118828863E+03  0.34454729308E+03 -0.13877317799E+03  0.42730950768E+03  0.46999998093E+01 0.  1.
</event>
<event>
 5   0  0.3714448E-03  0.8007248E+03  0.7818609E-02  0.9558969E-01
       -1   -1    0    0    0  501  0.00000000000E+00  0.00000000000E+00  0.21094710886E+03  0.21094710892E+03  0.50400001928E-02 0. -1.
        1   -1    0    0  501    0  0.00000000000E+00  0.00000000000E+00 -0.75985896451E+03  0.75985896453E+03  0.50400001928E-02 0.  1.
    10030    2    1    2    0    0  0.00000000000E+00  0.00000000000E+00 -0.54891185565E+03  0.97080607345E+03  0.80072480102E+03 0.  0.
        1    1    3    3  502    0  0.18213988816E+03 -0.19300816559E+03  0.88989798470E+02  0.27990404624E+03  0.50400001928E-02 0. -1.
       -1    1    3    3    0  502 -0.18213988816E+03  0.19300816559E+03 -0.63790165412E+03  0.69090202721E+03  0.50400001928E-02 0.  1.
</event>
<event>
 5   0  0.3671128E-03  0.7974078E+03  0.7818609E-02  0.9563777E-01
        1   -1    0    0  501    0  0.00000000000E+00  0.00000000000E+00  0.11619010406E+04  0.11619010406E+04  0.50400001928E-02 0.  1.
       -1   -1    0    0    0  501  0.00000000000E+00  0.00000000000E+00 -0.13681440016E+03  0.13681440026E+03  0.50400001928E-02 0. -1.
    10030    2    1    2    0    0  0.00000000000E+00  0.00000000000E+00  0.10250866404E+04  0.12987154409E+04  0.79740778523E+03 0.  0.
        2    1    3    3  502    0 -0.36641050389E+03 -0.84719025216E+02  0.72818598491E+03  0.81956622626E+03  0.25500000920E-02 0.  1.
       -2    1    3    3    0  502  0.36641050389E+03  0.84719025216E+02  0.29690065552E+03  0.47914921460E+03  0.25500000920E-02 0. -1.
</event>
<event>
 5   0  0.3860515E-03  0.8059214E+03  0.7818609E-02  0.9551485E-01
       -1   -1    0    0    0  501  0.00000000000E+00  0.00000000000E+00  0.19945817773E+03  0.19945817779E+03  0.50400001928E-02 0.  1.
        1   -1    0    0  501    0  0.00000000000E+00  0.00000000000E+00 -0.81409217465E+03  0.81409217467E+03  0.50400001928E-02 0. -1.
    10030    2    1    2    0    0  0.00000000000E+00  0.00000000000E+00 -0.61463399692E+03  0.10135503525E+04  0.80592143960E+03 0.  0.
        4    1    3    3  502    0  0.17486162945E+03  0.80857552610E+02  0.13778638535E+03  0.23685699094E+03  0.12699999809E+01 0.  1.
       -4    1    3    3    0  502 -0.17486162945E+03 -0.80857552610E+02 -0.75242038228E+03  0.77669336152E+03  0.12699999809E+01 0. -1.
</event>
<event>
 5   0  0.6153659E-03  0.8022669E+03  0.7818609E-02  0.9556742E-01
        2   -1    0    0  501    0  0.00000000000E+00  0.00000000000E+00  0.72025506133E+03  0.72025506133E+03  0.25500000920E-02 0.  1.
       -2   -1    0    0    0  501  0.00000000000E+00  0.00000000000E+00 -0.22340424573E+03  0.22340424574E+03  0.25500000920E-02 0. -1.
    10030    2    1    2    0    0  0.00000000000E+00  0.00000000000E+00  0.49685081560E+03  0.94365930708E+03  0.80226688506E+03 0.  0.
        2    1    3    3  502    0 -0.31999953585E+03 -0.15766191357E+03  0.46419771974E+03  0.58543702048E+03  0.25500000920E-02 0.  1.
       -2    1    3    3    0  502  0.31999953585E+03  0.15766191357E+03  0.32653095858E+02  0.35822228659E+03  0.25500000920E-02 0. -1.
</event>
<event>
 5   0  0.6153659E-03  0.7979964E+03  0.7818609E-02  0.9562922E-01
        2   -1    0    0  501    0  0.00000000000E+00  0.00000000000E+00  0.36456790281E+03  0.36456790282E+03  0.25500000920E-02 0.  1.
       -2   -1    0    0    0  501  0.00000000000E+00  0.00000000000E+00 -0.43668016405E+03  0.43668016406E+03  0.25500000920E-02 0. -1.
    10030    2    1    2    0    0  0.00000000000E+00  0.00000000000E+00 -0.72112261242E+02  0.80124806687E+03  0.79799642007E+03 0.  0.
        2    1    3    3  502    0  0.15014984118E+03  0.44459178741E+02 -0.40453649134E+03  0.43378723611E+03  0.25500000920E-02 0. -1.
       -2    1    3    3    0  502 -0.15014984118E+03 -0.44459178741E+02  0.33242423010E+03  0.36746083076E+03  0.25500000920E-02 0.  1.
</event>
<event>
 5   0  0.6337108E-03  0.7994438E+03  0.7818609E-02  0.9560823E-01
       -2   -1    0    0    0  501  0.00000000000E+00  0.00000000000E+00  0.14187518452E+03  0.14187518455E+03  0.25500000920E-02 0. -1.
        2   -1    0    0  501    0  0.00000000000E+00  0.00000000000E+00 -0.11261842741E+04  0.11261842741E+04  0.25500000920E-02 0.  1.
    10030    2    1    2    0    0  0.00000000000E+00  0.00000000000E+00 -0.98430908958E+03  0.12680594587E+04  0.79944381094E+03 0.  0.
        4    1    3    3  502    0 -0.63563782845E+02  0.17443875396E+02 -0.11175014091E+04  0.11194443512E+04  0.12699999809E+01 0.  1.
       -4    1    3    3    0  502  0.63563782845E+02 -0.17443875396E+02  0.13319231951E+03  0.14861510742E+03  0.12699999809E+01 0. -1.
</event>
<event>
 5   0  0.2478000E-03  0.8018412E+03  0.7818609E-02  0.9557356E-01
        3   -1    0    0  501    0  0.00000000000E+00  0.00000000000E+00  0.32934390786E+03  0.32934392335E+03  0.10100000352E+00 0.  1.
       -3   -1    0    0    0  501  0.00000000000E+00  0.00000000000E+00 -0.48805306311E+03  0.48805307356E+03  0.10100000352E+00 0. -1.
    10030    2    1    2    0    0  0.00000000000E+00  0.00000000000E+00 -0.15870915524E+03  0.81739699691E+03  0.80184116544E+03 0.  0.
        5    1    3    3  502    0 -0.17115132595E+03 -0.49876692397E+02 -0.44539555144E+03  0.47977051604E+03  0.46999998093E+01 0. -1.
       -5    1    3    3    0  502  0.17115132595E+03  0.49876692397E+02  0.28668639620E+03  0.33762648087E+03  0.46999998093E+01 0.  1.
</event>
<event>
 5   0  0.5813850E-03  0.7998823E+03  0.7818609E-02  0.9560188E-01
        2   -1    0    0  501    0  0.00000000000E+00  0.00000000000E+00  0.72750589339E+03  0.72750589339E+03  0.25500000920E-02 0.  1.
       -2   -1    0    0    0  501  0.00000000000E+00  0.00000000000E+00 -0.21986476431E+03  0.21986476433E+03  0.25500000920E-02 0. -1.
    10030    2    1    2    0    0  0.00000000000E+00  0.00000000000E+00  0.50764112907E+03  0.94737065772E+03  0.79988227082E+03 0.  0.
        5    1    3    3  502    0 -0.32699759729E+03  0.15451841465E+03  0.45595723667E+03  0.58199867763E+03  0.46999998093E+01 0.  1.
       -5    1    3    3    0  502  0.32699759729E+03 -0.15451841465E+03  0.51683892404E+02  0.36537198008E+03  0.46999998093E+01 0. -1.
</event>
<event>
 5   0  0.6153659E-03  0.7974599E+03  0.7818609E-02  0.9563701E-01
        2   -1    0    0  501    0  0.00000000000E+00  0.00000000000E+00  0.17190576137E+03  0.17190576139E+03  0.25500000920E-02 0. -1.
       -2   -1    0    0    0  501  0.00000000000E+00  0.00000000000E+00 -0.92484140607E+03  0.92484140607E+03  0.25500000920E-02 0.  1.
    10030    2    1    2    0    0  0.00000000000E+00  0.00000000000E+00 -0.75293564470E+03  0.10967471675E+04  0.79745988255E+03 0.  0.
        2    1    3    3  502    0  0.19298178462E+03  0.23089327357E+03 -0.73623948582E+03  0.79536296963E+03  0.25500000920E-02 0.  1.
       -2    1    3    3    0  502 -0.19298178462E+03 -0.23089327357E+03 -0.16696158878E+02  0.30138419783E+03  0.25500000920E-02 0. -1.
</event>
<event>
 5   0  0.6256781E-03  0.8010123E+03  0.7818609E-02  0.9558553E-01
        2   -1    0    0  501    0  0.00000000000E+00  0.00000000000E+00  0.93873239390E+03  0.93873239390E+03  0.25500000920E-02 0.  1.
       -2   -1    0    0    0  501  0.00000000000E+00  0.00000000000E+00 -0.17087424217E+03  0.17087424219E+03  0.25500000920E-02 0. -1.
    10030    2    1    2    0    0  0.00000000000E+00  0.00000000000E+00  0.76785815172E+03  0.11096066361E+04  0.80101232555E+03 0.  0.
        1    1    3    3  502    0  0.88677093712E+02 -0.23826313776E+03 -0.44767151403E+02  0.25814152637E+03  0.50400001928E-02 0. -1.
       -1    1    3    3    0  502 -0.88677093712E+02  0.23826313776E+03  0.81262530313E+03  0.85146510972E+03  0.50400001928E-02 0.  1.
</event>
<event>
 5   0  0.6337108E-03  0.8394114E+03  0.7818609E-02  0.9504660E-01
       -2   -1    0    0    0  501  0.00000000000E+00  0.00000000000E+00  0.15614981481E+03  0.15614981483E+03  0.25500000920E-02 0. -1.
        2   -1    0    0  501    0  0.00000000000E+00  0.00000000000E+00 -0.11281016813E+04  0.11281016813E+04  0.25500000920E-02 0.  1.
    10030    2    1    2    0    0  0.00000000000E+00  0.00000000000E+00 -0.97195186653E+03  0.12842514962E+04  0.83941138578E+03 0.  0.
        4    1    3    3  502    0  0.29484177633E+03 -0.25907647308E+03 -0.71341296544E+03  0.81425546614E+03  0.12699999809E+01 0. -1.
       -4    1    3    3    0  502 -0.29484177633E+03  0.25907647308E+03 -0.25853890109E+03  0.46999603004E+03  0.12699999809E+01 0.  1.
</event>
<event>
 5   0  0.6337108E-03  0.7960542E+03  0.7818609E-02  0.9565746E-01
        2   -1    0    0  501    0  0.00000000000E+00  0.00000000000E+00  0.13586824029E+04  0.13586824029E+04  0.25500000920E-02 0. -1.
       -2   -1    0    0    0  501  0.00000000000E+00  0.00000000000E+00 -0.11660235913E+03  0.11660235916E+03  0.25500000920E-02 0.  1.
    10030    2    1    2    0    0  0.00000000000E+00  0.00000000000E+00  0.12420800438E+04  0.14752847620E+04  0.79605420294E+03 0.  0.
        4    1    3    3  502    0 -0.39223944259E+03  0.65875166093E+02  0.64930691008E+03  0.76144099850E+03  0.12699999809E+01 0.  1.
       -4    1    3    3    0  502  0.39223944259E+03 -0.65875166093E+02  0.59277313368E+03  0.71384376354E+03  0.12699999809E+01 0. -1.
</event>
<event>
 5   0  0.5813850E-03  0.8014592E+03  0.7818609E-02  0.9557907E-01
       -2   -1    0    0    0  501  0.00000000000E+00  0.00000000000E+00  0.18074663850E+03  0.18074663851E+03  0.25500000920E-02 0. -1.
        2   -1    0    0  501    0  0.00000000000E+00  0.00000000000E+00 -0.88844931284E+03  0.88844931284E+03  0.25500000920E-02 0.  1.
    10030    2    1    2    0    0  0.00000000000E+00  0.00000000000E+00 -0.70770267434E+03  0.10691959514E+04  0.80145923610E+03 0.  0.
        5    1    3    3  502    0  0.34522833995E+03 -0.18036766650E+03 -0.22837127097E+03  0.45154249991E+03  0.46999998093E+01 0. -1.
       -5    1    3    3    0  502 -0.34522833995E+03  0.18036766650E+03 -0.47933140337E+03  0.61765345145E+03  0.46999998093E+01 0.  1.
</event>
<event>
 5   0  0.3671128E-03  0.8001276E+03  0.7818609E-02  0.9559832E-01
       -1   -1    0    0    0  501  0.00000000000E+00  0.00000000000E+00  0.54662023821E+03  0.54662023824E+03  0.50400001928E-02 0.  1.
        1   -1    0    0  501    0  0.00000000000E+00  0.00000000000E+00 -0.29280113319E+03  0.29280113323E+03  0.50400001928E-02 0. -1.
    10030    2    1    2    0    0  0.00000000000E+00  0.00000000000E+00  0.25381910503E+03  0.83942137147E+03  0.80012755283E+03 0.  0.
        2    1    3    3  502    0 -0.64526355649E+02  0.12700607625E+02 -0.28709151111E+03  0.29452757387E+03  0.25500000920E-02 0. -1.
       -2    1    3    3    0  502  0.64526355649E+02 -0.12700607625E+02  0.54091061614E+03  0.54489379760E+03  0.25500000920E-02 0.  1.
</event>
<event>
 5   0  0.5813850E-03  0.8013753E+03  0.7818609E-02  0.9558029E-01
       -2   -1    0    0    0  501  0.00000000000E+00  0.00000000000E+00  0.69069781608E+03  0.69069781608E+03  0.25500000920E-02 0.  1.
        2   -1    0    0  501    0  0.00000000000E+00  0.00000000000E+00 -0.23244691463E+03  0.23244691465E+03  0.25500000920E-02 0. -1.
    10030    2    1    2    0    0  0.00000000000E+00  0.00000000000E+00  0.45825090144E+03  0.92314473073E+03  0.80137525867E+03 0.  0.
        5    1    3    3  502    0 -0.20806955730E+03 -0.39768645771E+02 -0.16262923055E+03  0.26710455348E+03  0.46999998093E+01 0. -1.
       -5    1    3    3    0  502  0.20806955730E+03  0.39768645771E+02  0.62088013200E+03  0.65604017725E+03  0.46999998093E+01 0.  1.
</event>
<event>
 5   0  0.6536209E-03  0.7984646E+03  0.7818609E-02  0.9562242E-01
       -2   -1    0    0    0  501  0.00000000000E+00  0.00000000000E+00  0.34948186530E+03  0.34948186531E+03  0.25500000920E-02 0. -1.
        2   -1    0    0  501    0  0.00000000000E+00  0.00000000000E+00 -0.45606499501E+03  0.45606499502E+03  0.25500000920E-02 0.  1.
    10030    2    1    2    0    0  0.00000000000E+00  0.00000000000E+00 -0.10658312972E+03  0.80554686033E+03  0.79846463957E+03 0.  0.
        3    1    3    3  502    0  0.33805304660E+02 -0.10586005396E+03  0.33356400964E+03  0.35158798099E+03  0.10100000352E+00 0. -1.
       -3    1    3    3    0  502 -0.33805304660E+02  0.10586005396E+03 -0.44014713936E+03  0.45395887934E+03  0.10100000352E+00 0.  1.
</event>
<event>
 5   0  0.5813850E-03  0.8000265E+03  0.7818609E-02  0.9559979E-01
        2   -1    0    0  501    0  0.00000000000E+00  0.00000000000E+00  0.14459479985E+04  0.14459479985E+04  0.25500000920E-02 0.  1.
       -2   -1    0    0    0  501  0.00000000000E+00  0.00000000000E+00 -0.11066137300E+03  0.11066137303E+03  0.25500000920E-02 0. -1.
    10030    2    1    2    0    0  0.00000000000E+00  0.00000000000E+00  0.13352866255E+04  0.15566093715E+04  0.80002647664E+03 0.  0.
        5    1    3    3  502    0 -0.71874804803E+02 -0.70245956600E+02  0.14209273082E+04  0.14244848147E+04  0.46999998093E+01 0.  1.
       -5    1    3    3    0  502  0.71874804803E+02  0.70245956600E+02 -0.85640682741E+02  0.13212455685E+03  0.46999998093E+01 0. -1.
</event>
<event>
 5   0  0.3860515E-03  0.8015658E+03  0.7818609E-02  0.9557753E-01
        1   -1    0    0  501    0  0.00000000000E+00  0.00000000000E+00  0.58352436626E+03  0.58352436628E+03  0.50400001928E-02 0. -1.
       -1   -1    0    0    0  501  0.00000000000E+00  0.00000000000E+00 -0.27527031458E+03  0.27527031463E+03  0.50400001928E-02 0.  1.
    10030    2    1    2    0    0  0.00000000000E+00  0.00000000000E+00  0.30825405167E+03  0.85879468091E+03  0.80156580740E+03 0.  0.
        4    1    3    3  502    0 -0.34536228569E+03 -0.17097374220E+03  0.36184855580E+02  0.38706341286E+03  0.12699999809E+01 0.  1.
       -4    1    3    3    0  502  0.34536228569E+03  0.17097374220E+03  0.27206919609E+03  0.47173126805E+03  0.12699999809E+01 0. -1.
</event>
<event>
 5   0  0.3753450E-03  0.8069410E+03  0.7818609E-02  0.9550024E-01
       -1   -1    0    0    0  501  0.00000000000E+00  0.00000000000E+00  0.31338144941E+03  0.31338144945E+03  0.50400001928E-02 0.  1.
        1   -1    0    0  501    0  0.00000000000E+00  0.00000000000E+00 -0.51945787498E+03  0.51945787500E+03  0.50400001928E-02 0. -1.
    10030    2    1    2    0    0  0.00000000000E+00  0.00000000000E+00 -0.20607642557E+03  0.83283932445E+03  0.80694104318E+03 0.  0.
        5    1    3    3  502    0  0.37599184042E+03  0.61936914192E+02 -0.23980659496E+03  0.45026141117E+03  0.46999998093E+01 0.  1.
       -5    1    3    3    0  502 -0.37599184042E+03 -0.61936914192E+02  0.33730169383E+02  0.38257791328E+03  0.46999998093E+01 0. -1.
</event>
<event>
 5   0  0.3753450E-03  0.8036083E+03  0.7818609E-02  0.9554809E-01
        1   -1    0    0  501    0  0.00000000000E+00  0.00000000000E+00  0.95674945628E+03  0.95674945630E+03  0.50400001928E-02 0.  1.
       -1   -1    0    0    0  501  0.00000000000E+00  0.00000000000E+00 -0.16874487860E+03  0.16874487868E+03  0.50400001928E-02 0. -1.
    10030    2    1    2    0    0  0.00000000000E+00  0.00000000000E+00  0.78800457768E+03  0.11254943350E+04  0.80360828991E+03 0.  0.
        5    1    3    3  502    0 -0.38231962723E+03 -0.12225575748E+03  0.36935445054E+03  0.54549020865E+03  0.46999998093E+01 0.  1.
       -5    1    3    3    0  502  0.38231962723E+03  0.12225575748E+03  0.41865012714E+03  0.58000412632E+03  0.46999998093E+01 0. -1.
</event>
<event>
 5   0  0.2478000E-03  0.8042206E+03  0.7818609E-02  0.9553928E-01
       -3   -1    0    0    0  501  0.00000000000E+00  0.00000000000E+00  0.35671120247E+03  0.35671121677E+03  0.10100000352E+00 0. -1.
        3   -1    0    0  501    0  0.00000000000E+00  0.00000000000E+00 -0.45328742620E+03  0.45328743746E+03  0.10100000352E+00 0.  1.
    10030    2    1    2    0    0  0.00000000000E+00  0.00000000000E+00 -0.96576223731E+02  0.80999865423E+03  0.80422064936E+03 0.  0.
        4    1    3    3  502    0 -0.41665104740E+02 -0.23828305948E+03 -0.37180656569E+03  0.44357246599E+03  0.12699999809E+01 0.  1.
       -4    1    3    3    0  502  0.41665104740E+02  0.23828305948E+03  0.27523034196E+03  0.36642618824E+03  0.12699999809E+01 0. -1.
</event>
<event>
 5   0  0.6256781E-03  0.8014013E+03  0.7818609E-02  0.9557991E-01
        2   -1    0    0  501    0  0.00000000000E+00  0.00000000000E+00  0.11779724021E+04  0.11779724021E+04  0.25500000920E-02 0. -1.
       -2   -1    0    0    0  501  0.00000000000E+00  0.00000000000E+00 -0.13630287784E+03  0.13630287786E+03  0.25500000920E-02 0.  1.
    10030    2    1    2    0    0  0.00000000000E+00  0.00000000000E+00  0.10416695243E+04  0.13142752800E+04  0.80140134374E+03 0.  0.
        1    1    3    3  502    0  0.73939697137E+02  0.53351076876E+02  0.11607338898E+04  0.11643094860E+04  0.50400001928E-02 0. -1.
       -1    1    3    3    0  502 -0.73939697137E+02 -0.53351076876E+02 -0.11906436550E+03  0.14996579401E+03  0.50400001928E-02 0.  1.
</event>
<event>
 5   0  0.6256781E-03  0.8220995E+03  0.7818609E-02  0.9528569E-01
       -2   -1    0    0    0  501  0.00000000000E+00  0.00000000000E+00  0.32983641464E+03  0.32983641465E+03  0.25500000920E-02 0.  1.
        2   -1    0    0  501    0  0.00000000000E+00  0.00000000000E+00 -0.51225962143E+03  0.51225962144E+03  0.25500000920E-02 0. -1.
    10030    2    1    2    0    0  0.00000000000E+00  0.00000000000E+00 -0.18242320679E+03  0.84209603609E+03  0.82209945118E+03 0.  0.
        1    1    3    3  502    0 -0.65313923998E+02 -0.34182197991E+03  0.13286423826E+03  0.37250648377E+03  0.50400001928E-02 0. -1.
       -1    1    3    3    0  502  0.65313923998E+02  0.34182197991E+03 -0.31528744506E+03  0.46958955232E+03  0.50400001928E-02 0.  1.
</event>
<event>
 5   0  0.3860515E-03  0.8053833E+03  0.7818609E-02  0.9552258E-01
       -1   -1    0    0    0  501  0.00000000000E+00  0.00000000000E+00  0.11890970428E+03  0.11890970438E+03  0.50400001928E-02 0.  1.
        1   -1    0    0  501    0  0.00000000000E+00  0.00000000000E+00 -0.13637285014E+04  0.13637285014E+04  0.50400001928E-02 0. -1.
    10030    2    1    2    0    0  0.00000000000E+00  0.00000000000E+00 -0.12448187971E+04  0.14826382058E+04  0.80538327000E+03 0.  0.
        4    1    3    3  502    0  0.10274455565E+03  0.38796201607E+03 -0.68313070658E+03  0.79230053944E+03  0.12699999809E+01 0. -1.
       -4    1    3    3    0  502 -0.10274455565E+03 -0.38796201607E+03 -0.56168809053E+03  0.69033766634E+03  0.12699999809E+01 0.  1.
</event>
<event>
 5   0  0.6153659E-03  0.7990236E+03  0.7818609E-02  0.9561431E-01
        2   -1    0    0  501    0  0.00000000000E+00  0.00000000000E+00  0.99133682439E+03  0.99133682440E+03  0.25500000920E-02 0. -1.
       -2   -1    0    0    0  501  0.00000000000E+00  0.00000000000E+00 -0.16100449327E+03  0.16100449329E+03  0.25500000920E-02 0.  1.
    10030    2    1    2    0    0  0.00000000000E+00  0.00000000000E+00  0.83033233113E+03  0.11523413177E+04  0.79902361187E+03 0.  0.
        2    1    3    3  502    0  0.17176102601E+03  0.35847332033E+03  0.47293851387E+03  0.61779916587E+03  0.25500000920E-02 0. -1.
       -2    1    3    3    0  502 -0.17176102601E+03 -0.35847332033E+03  0.35739381726E+03  0.53454215181E+03  0.25500000920E-02 0.  1.
</event>
<event>
 5   0  0.3753450E-03  0.8034830E+03  0.7818609E-02  0.9554989E-01
        1   -1    0    0  501    0  0.00000000000E+00  0.00000000000E+00  0.24681876561E+03  0.24681876566E+03  0.50400001928E-02 0.  1.
       -1   -1    0    0    0  501  0.00000000000E+00  0.00000000000E+00 -0.65390577310E+03  0.65390577312E+03  0.50400001928E-02 0. -1.
    10030    2    1    2    0    0  0.00000000000E+00  0.00000000000E+00 -0.40708700749E+03  0.90072453877E+03  0.80348295755E+03 0.  0.
        5    1    3    3  502    0  0.20380257103E+03 -0.41793667759E+02  0.18169122353E+03  0.27625348745E+03  0.46999998093E+01 0.  1.
       -5    1    3    3    0  502 -0.20380257103E+03  0.41793667759E+02 -0.58877823102E+03  0.62447105132E+03  0.46999998093E+01 0. -1.
</event>
<event>
 5   0  0.5813850E-03  0.7991449E+03  0.7818609E-02  0.9561256E-01
       -2   -1    0    0    0  501  0.00000000000E+00  0.00000000000E+00  0.35131450830E+03  0.35131450831E+03  0.25500000920E-02 0.  1.
        2   -1    0    0  501    0  0.00000000000E+00  0.00000000000E+00 -0.45445925447E+03  0.45445925447E+03  0.25500000920E-02 0. -1.
    10030    2    1    2    0    0  0.00000000000E+00  0.00000000000E+00 -0.10314474617E+03  0.80577376278E+03  0.79914486680E+03 0.  0.
        5    1    3    3  502    0  0.22357817998E+02  0.30374247475E+03 -0.31232275254E+03  0.43626477596E+03  0.46999998093E+01 0. -1.
       -5    1    3    3    0  502 -0.22357817998E+02 -0.30374247475E+03  0.20917800638E+03  0.36950898682E+03  0.46999998093E+01 0.  1.
</event>
<event>
 5   0  0.5813850E-03  0.8148178E+03  0.7818609E-02  0.9538813E-01
        2   -1    0    0  501    0  0.00000000000E+00  0.00000000000E+00  0.70079641021E+03  0.70079641021E+03  0.25500000920E-02 0. -1.
       -2   -1    0    0    0  501  0.00000000000E+00  0.00000000000E+00 -0.23684767576E+03  0.23684767577E+03  0.25500000920E-02 0.  1.
    10030    2    1    2    0    0  0.00000000000E+00  0.00000000000E+00  0.46394873445E+03  0.93764408599E+03  0.81481777336E+03 0.  0.
        5    1    3    3  502    0  0.32203647362E+02  0.27136138558E+03  0.57965397586E+03  0.64085481836E+03  0.46999998093E+01 0. -1.
       -5    1    3    3    0  502 -0.32203647362E+02 -0.27136138558E+03 -0.11570524141E+03  0.29678926762E+03  0.46999998093E+01 0.  1.
</event>
<event>
 5   0  0.3714448E-03  0.7992857E+03  0.7818609E-02  0.9561052E-01
       -1   -1    0    0    0  501  0.00000000000E+00  0.00000000000E+00  0.65673204726E+03  0.65673204728E+03  0.50400001928E-02 0.  1.
        1   -1    0    0  501    0  0.00000000000E+00  0.00000000000E+00 -0.24319570831E+03  0.24319570837E+03  0.50400001928E-02 0. -1.
    10030    2    1    2    0    0  0.00000000000E+00  0.00000000000E+00  0.41353633894E+03  0.89992775564E+03  0.79928571972E+03 0.  0.
        1    1    3    3  502    0  0.30326870586E+03  0.17459884467E+02 -0.85618008737E+02  0.31560608195E+03  0.50400001928E-02 0. -1.
       -1    1    3    3    0  502 -0.30326870586E+03 -0.17459884467E+02  0.49915434768E+03  0.58432167369E+03  0.50400001928E-02 0.  1.
</event>
<event>
 5   0  0.3860515E-03  0.8002316E+03  0.7818609E-02  0.9559682E-01
       -1   -1    0    0    0  501  0.00000000000E+00  0.00000000000E+00  0.53312820086E+03  0.53312820089E+03  0.50400001928E-02 0. -1.
        1   -1    0    0  501    0  0.00000000000E+00  0.00000000000E+00 -0.30028924045E+03  0.30028924049E+03  0.50400001928E-02 0.  1.
    10030    2    1    2    0    0  0.00000000000E+00  0.00000000000E+00  0.23283896041E+03  0.83341744138E+03  0.80023162278E+03 0.  0.
        4    1    3    3  502    0 -0.15488145832E+03  0.18981593739E+03 -0.21304201866E+03  0.32466424323E+03  0.12699999809E+01 0.  1.
       -4    1    3    3    0  502  0.15488145832E+03 -0.18981593739E+03  0.44588097908E+03  0.50875319814E+03  0.12699999809E+01 0. -1.
</event>
<event>
 5   0  0.6536209E-03  0.8000960E+03  0.7818609E-02  0.9559878E-01
        2   -1    0    0  501    0  0.00000000000E+00  0.00000000000E+00  0.14932580975E+04  0.14932580975E+04  0.25500000920E-02 0. -1.
       -2   -1    0    0    0  501  0.00000000000E+00  0.00000000000E+00 -0.10717397514E+03  0.10717397517E+03  0.25500000920E-02 0.  1.
    10030    2    1    2    0    0  0.00000000000E+00  0.00000000000E+00  0.13860841224E+04  0.16004320727E+04  0.80009600987E+03 0.  0.
        3    1    3    3  502    0  0.10818669328E+03  0.31301497873E+02 -0.74808095334E+02  0.13520505057E+03  0.10100000352E+00 0.  1.
       -3    1    3    3    0  502 -0.10818669328E+03 -0.31301497873E+02  0.14608922177E+04  0.14652270221E+04  0.10100000352E+00 0. -1.
</event>
<event>
 5   0  0.6256781E-03  0.7881241E+03  0.7818609E-02  0.9577368E-01
        2   -1    0    0  501    0  0.00000000000E+00  0.00000000000E+00  0.12265841200E+04  0.12265841200E+04  0.25500000920E-02 0.  1.
       -2   -1    0    0    0  501  0.00000000000E+00  0.00000000000E+00 -0.12659946929E+03  0.12659946932E+03  0.25500000920E-02 0. -1.
    10030    2    1    2    0    0  0.00000000000E+00  0.00000000000E+00  0.10999846507E+04  0.13531835893E+04  0.78812409848E+03 0.  0.
        1    1    3    3  502    0  0.18399563796E+03 -0.34378427851E+03  0.64776716932E+03  0.75607164384E+03  0.50400001928E-02 0. -1.
       -1    1    3    3    0  502 -0.18399563796E+03  0.34378427851E+03  0.45221748139E+03  0.59711194548E+03  0.50400001928E-02 0.  1.
</event>
<event>
 5   0  0.5813850E-03  0.7921488E+03  0.7818609E-02  0.9571451E-01
       -2   -1    0    0    0  501  0.00000000000E+00  0.00000000000E+00  0.21510893266E+03  0.21510893268E+03  0.25500000920E-02 0. -1.
        2   -1    0    0  501    0  0.00000000000E+00  0.00000000000E+00 -0.72928140370E+03  0.72928140371E+03  0.25500000920E-02 0.  1.
    10030    2    1    2    0    0  0.00000000000E+00  0.00000000000E+00 -0.51417247104E+03  0.94439033638E+03  0.79214883543E+03 0.  0.
        5    1    3    3  502    0  0.37118850937E+03  0.12221874138E+02 -0.42108282422E+03  0.56148296372E+03  0.46999998093E+01 0.  1.
       -5    1    3    3    0  502 -0.37118850937E+03 -0.12221874138E+02 -0.93089646823E+02  0.38290737266E+03  0.46999998093E+01 0. -1.
</event>
<event>
 5   0  0.5813850E-03  0.8264691E+03  0.7818609E-02  0.9522475E-01
        2   -1    0    0  501    0  0.00000000000E+00  0.00000000000E+00  0.20189546090E+04  0.20189546090E+04  0.25500000920E-02 0. -1.
       -2   -1    0    0    0  501  0.00000000000E+00  0.00000000000E+00 -0.84579816735E+02  0.84579816773E+02  0.25500000920E-02 0.  1.
    10030    2    1    2    0    0  0.00000000000E+00  0.00000000000E+00  0.19343747923E+04  0.21035344258E+04  0.82646914248E+03 0.  0.
        5    1    3    3  502    0 -0.34013152505E+03  0.23244847782E+03  0.10484337801E+04  0.11264800178E+04  0.46999998093E+01 0. -1.
       -5    1    3    3    0  502  0.34013152505E+03 -0.23244847782E+03  0.88594101217E+03  0.97705440801E+03  0.46999998093E+01 0.  1.
</event>
<event>
 5   0  0.6536209E-03  0.7493769E+03  0.7818609E-02  0.9636328E-01
       -2   -1    0    0    0  501  0.00000000000E+00  0.00000000000E+00  0.30449520799E+03  0.30449520800E+03  0.25500000920E-02 0.  1.
        2   -1    0    0  501    0  0.00000000000E+00  0.00000000000E+00 -0.46106292661E+03  0.46106292662E+03  0.25500000920E-02 0. -1.
    10030    2    1    2    0    0  0.00000000000E+00  0.00000000000E+00 -0.15656771863E+03  0.76555813462E+03  0.74937694585E+03 0.  0.
        3    1    3    3  502    0  0.19720581108E+03 -0.19930564543E+03  0.17563605958E+03  0.33084876885E+03  0.10100000352E+00 0.  1.
       -3    1    3    3    0  502 -0.19720581108E+03  0.19930564543E+03 -0.33220377821E+03  0.43470936576E+03  0.10100000352E+00 0. -1.
</event>
<event>
 5   0  0.6337108E-03  0.7572409E+03  0.7818609E-02  0.9624059E-01
        2   -1    0    0  501    0  0.00000000000E+00  0.00000000000E+00  0.11146183329E+04  0.11146183329E+04  0.25500000920E-02 0. -1.
       -2   -1    0    0    0  501  0.00000000000E+00  0.00000000000E+00 -0.12861212783E+03  0.12861212785E+03  0.25500000920E-02 0.  1.
    10030    2    1    2    0    0  0.00000000000E+00  0.00000000000E+00  0.98600620507E+03  0.12432304608E+04  0.75724087456E+03 0.  0.
        4    1    3    3  502    0  0.65822380815E+02  0.31022649316E+03  0.15343124634E+03  0.35230075663E+03  0.12699999809E+01 0.  1.
       -4    1    3    3    0  502 -0.65822380815E+02 -0.31022649316E+03  0.83257495874E+03  0.89092970412E+03  0.12699999809E+01 0. -1.
</event>
<event>
 5   0  0.3753450E-03  0.8002483E+03  0.7818609E-02  0.9559658E-01
        1   -1    0    0  501    0  0.00000000000E+00  0.00000000000E+00  0.48987947777E+03  0.48987947780E+03  0.50400001928E-02 0.  1.
       -1   -1    0    0    0  501  0.00000000000E+00  0.00000000000E+00 -0.32681375152E+03  0.32681375156E+03  0.50400001928E-02 0. -1.
    10030    2    1    2    0    0  0.00000000000E+00  0.00000000000E+00  0.16306572625E+03  0.81669322936E+03  0.80024833633E+03 0.  0.
        5    1    3    3  502    0  0.16122951955E+03 -0.22577247147E+03  0.37574355197E+03  0.46709043417E+03  0.46999998093E+01 0.  1.
       -5    1    3    3    0  502 -0.16122951955E+03  0.22577247147E+03 -0.21267782573E+03  0.34960279519E+03  0.46999998093E+01 0. -1.
</event>
<event>
 5   0  0.6536209E-03  0.7985524E+03  0.7818609E-02  0.9562115E-01
        2   -1    0    0  501    0  0.00000000000E+00  0.00000000000E+00  0.96650271507E+03  0.96650271507E+03  0.25500000920E-02 0. -1.
       -2   -1    0    0    0  501  0.00000000000E+00  0.00000000000E+00 -0.16494673337E+03  0.16494673339E+03  0.25500000920E-02 0.  1.
    10030    2    1    2    0    0  0.00000000000E+00  0.00000000000E+00  0.80155598170E+03  0.11314494485E+04  0.79855235435E+03 0.  0.
        3    1    3    3  502    0  0.30178001917E+03 -0.25615470794E+03  0.32667876201E+03  0.51323039477E+03  0.10100000352E+00 0.  1.
       -3    1    3    3    0  502 -0.30178001917E+03  0.25615470794E+03  0.47487721969E+03  0.61821905369E+03  0.10100000352E+00 0. -1.
</event>
<event>
 5   0  0.6337108E-03  0.8010231E+03  0.7818609E-02  0.9558537E-01
       -2   -1    0    0    0  501  0.00000000000E+00  0.00000000000E+00  0.30235285002E+03  0.30235285003E+03  0.25500000920E-02 0.  1.
        2   -1    0    0  501    0  0.00000000000E+00  0.00000000000E+00 -0.53053746807E+03  0.53053746807E+03  0.25500000920E-02 0. -1.
    10030    2    1    2    0    0  0.00000000000E+00  0.00000000000E+00 -0.22818461805E+03  0.83289031810E+03  0.80102313454E+03 0.  0.
        4    1    3    3  502    0  0.32740229842E+03 -0.19949104111E+03  0.63564189636E+01  0.38344615979E+03  0.12699999809E+01 0.  1.
       -4    1    3    3    0  502 -0.32740229842E+03  0.19949104111E+03 -0.23454103701E+03  0.44944415831E+03  0.12699999809E+01 0. -1.
</event>
<event>
 5   0  0.6256781E-03  0.8011535E+03  0.7818609E-02  0.9558349E-01
        2   -1    0    0  501    0  0.00000000000E+00  0.00000000000E+00  0.56233109134E+03  0.56233109135E+03  0.25500000920E-02 0.  1.
       -2   -1    0    0    0  501  0.00000000000E+00  0.00000000000E+00 -0.28535101184E+03  0.28535101186E+03  0.25500000920E-02 0. -1.
    10030    2    1    2    0    0  0.00000000000E+00  0.00000000000E+00  0.27698007950E+03  0.84768210320E+03  0.80115353313E+03 0.  0.
        1    1    3    3  502    0 -0.93572678559E+02  0.32833363496E+03  0.36018916735E+03  0.49628122906E+03  0.50400001928E-02 0. -1.
       -1    1    3    3    0  502  0.93572678559E+02 -0.32833363496E+03 -0.83209087850E+02  0.35140087414E+03  0.50400001928E-02 0.  1.
</event>
<event>
 5   0  0.3860515E-03  0.7982918E+03  0.7818609E-02  0.9562493E-01
       -1   -1    0    0    0  501  0.00000000000E+00  0.00000000000E+00  0.96355346731E+02  0.96355346863E+02  0.50400001928E-02 0.  1.
        1   -1    0    0  501    0  0.00000000000E+00  0.00000000000E+00 -0.16534363678E+04  0.16534363678E+04  0.50400001928E-02 0. -1.
    10030    2    1    2    0    0  0.00000000000E+00  0.00000000000E+00 -0.15570810211E+04  0.17497917147E+04  0.79829176281E+03 0.  0.
        4    1    3    3  502    0 -0.24558743902E+03 -0.26939015479E+03 -0.42218273639E+03  0.55778501370E+03  0.12699999809E+01 0.  1.
       -4    1    3    3    0  502  0.24558743902E+03  0.26939015479E+03 -0.11348982847E+04  0.11920067010E+04  0.12699999809E+01 0. -1.
</event>
<event>
 5   0  0.6536209E-03  0.8000821E+03  0.7818609E-02  0.9559898E-01
        2   -1    0    0  501    0  0.00000000000E+00  0.00000000000E+00  0.34471738038E+03  0.34471738039E+03  0.25500000920E-02 0. -1.
       -2   -1    0    0    0  501  0.00000000000E+00  0.00000000000E+00 -0.46424364622E+03  0.46424364623E+03  0.25500000920E-02 0.  1.
    10030    2    1    2    0    0  0.00000000000E+00  0.00000000000E+00 -0.11952626584E+03  0.80896102662E+03  0.80008212976E+03 0.  0.
        3    1    3    3  502    0  0.18190315821E+03  0.22656360933E+03  0.21826664161E+03  0.36340083252E+03  0.10100000352E+00 0. -1.
       -3    1    3    3    0  502 -0.18190315821E+03 -0.22656360933E+03 -0.33779290745E+03  0.44556019410E+03  0.10100000352E+00 0.  1.
</event>
<event>
 5   0  0.5813850E-03  0.7968773E+03  0.7818609E-02  0.9564548E-01
        2   -1    0    0  501    0  0.00000000000E+00  0.00000000000E+00  0.55909083815E+03  0.55909083815E+03  0.25500000920E-02 0.  1.
       -2   -1    0    0    0  501  0.00000000000E+00  0.00000000000E+00 -0.28394913048E+03  0.28394913049E+03  0.25500000920E-02 0. -1.
    10030    2    1    2    0    0  0.00000000000E+00  0.00000000000E+00  0.27514170767E+03  0.84303996864E+03  0.79687729885E+03 0.  0.
        5    1    3    3  502    0 -0.14427993214E+03 -0.33782379201E+03 -0.25603076244E+02  0.36826515010E+03  0.46999998093E+01 0.  1.
       -5    1    3    3    0  502  0.14427993214E+03  0.33782379201E+03  0.30074478391E+03  0.47477481854E+03  0.46999998093E+01 0. -1.
</event>
<event>
 5   0  0.3714448E-03  0.8001436E+03  0.7818609E-02  0.9559809E-01
        1   -1    0    0  501    0  0.00000000000E+00  0.00000000000E+00  0.46034495200E+03  0.46034495203E+03  0.50400001928E-02 0.  1.
       -1   -1    0    0    0  501  0.00000000000E+00  0.00000000000E+00 -0.34769022934E+03  0.34769022937E+03  0.50400001928E-02 0. -1.
    10030    2    1    2    0    0  0.00000000000E+00  0.00000000000E+00  0.11265472266E+03  0.80803518140E+03  0.80014359202E+03 0.  0.
        1    1    3    3  502    0  0.15690372000E+03 -0.64897967738E+02  0.42215271722E+03  0.45502026355E+03  0.50400001928E-02 0.  1.
       -1    1    3    3    0  502 -0.15690372000E+03  0.64897967738E+02 -0.30949799455E+03  0.35301491785E+03  0.50400001928E-02 0. -1.
</event>
<event>
 5   0  0.2478000E-03  0.8044189E+03  0.7818609E-02  0.9553643E-01
        3   -1    0    0  501    0  0.00000000000E+00  0.00000000000E+00  0.71071345549E+03  0.71071346267E+03  0.10100000352E+00 0. -1.
       -3   -1    0    0    0  501  0.00000000000E+00  0.00000000000E+00 -0.22761976734E+03  0.22761978975E+03  0.10100000352E+00 0.  1.
    10030    2    1    2    0    0  0.00000000000E+00  0.00000000000E+00  0.48309368815E+03  0.93833325242E+03  0.80441890894E+03 0.  0.
        2    1    3    3  502    0  0.99682770075E+02  0.16533829976E+02  0.69566682007E+03  0.70296681767E+03  0.25500000920E-02 0. -1.
       -2    1    3    3    0  502 -0.99682770075E+02 -0.16533829976E+02 -0.21257313192E+03  0.23536643475E+03  0.25500000920E-02 0.  1.
</event>
<event>
 5   0  0.3860515E-03  0.7993197E+03  0.7818609E-02  0.9561002E-01
       -1   -1    0    0    0  501  0.00000000000E+00  0.00000000000E+00  0.19858031121E+03  0.19858031127E+03  0.50400001928E-02 0.  1.
        1   -1    0    0  501    0  0.00000000000E+00  0.00000000000E+00 -0.80434959510E+03  0.80434959511E+03  0.50400001928E-02 0. -1.
    10030    2    1    2    0    0  0.00000000000E+00  0.00000000000E+00 -0.60576928388E+03  0.10029299064E+04  0.79931969313E+03 0.  0.
        4    1    3    3  502    0  0.37241011269E+01  0.12351867281E+03  0.17400438881E+03  0.21342415910E+03  0.12699999809E+01 0.  1.
       -4    1    3    3    0  502 -0.37241011269E+01 -0.12351867281E+03 -0.77977367270E+03  0.78950574728E+03  0.12699999809E+01 0. -1.
</event>
<event>
 5   0  0.6337108E-03  0.8040802E+03  0.7818609E-02  0.9554130E-01
        2   -1    0    0  501    0  0.00000000000E+00  0.00000000000E+00  0.86365633178E+03  0.86365633179E+03  0.25500000920E-02 0.  1.
       -2   -1    0    0    0  501  0.00000000000E+00  0.00000000000E+00 -0.18715343772E+03  0.18715343774E+03  0.25500000920E-02 0. -1.
    10030    2    1    2    0    0  0.00000000000E+00  0.00000000000E+00  0.67650289406E+03  0.10508097695E+04  0.80408022365E+03 0.  0.
        4    1    3    3  502    0  0.31060805369E+01  0.41815102428E+02  0.86078841502E+03  0.86180999000E+03  0.12699999809E+01 0.  1.
       -4    1    3    3    0  502 -0.31060805369E+01 -0.41815102428E+02 -0.18428552096E+03  0.18899977953E+03  0.12699999809E+01 0. -1.
</event>
<event>
 5   0  0.3627496E-03  0.7961684E+03  0.7818609E-02  0.9565580E-01
       -1   -1    0    0    0  501  0.00000000000E+00  0.00000000000E+00  0.73872042502E+03  0.73872042504E+03  0.50400001928E-02 0.  1.
        1   -1    0    0  501    0  0.00000000000E+00  0.00000000000E+00 -0.21452096382E+03  0.21452096388E+03  0.50400001928E-02 0. -1.
    10030    2    1    2    0    0  0.00000000000E+00  0.00000000000E+00  0.52419946120E+03  0.95324138891E+03  0.79616836813E+03 0.  0.
        3    1    3    3  502    0  0.22359254351E+03 -0.32888442169E+03  0.28326221899E+03  0.48825821371E+03  0.10100000352E+00 0.  1.
       -3    1    3    3    0  502 -0.22359254351E+03  0.32888442169E+03  0.24093724221E+03  0.46498317521E+03  0.10100000352E+00 0. -1.
</event>
<event>
 5   0  0.5813850E-03  0.7959526E+03  0.7818609E-02  0.9565894E-01
       -2   -1    0    0    0  501  0.00000000000E+00  0.00000000000E+00  0.28244505715E+03  0.28244505716E+03  0.25500000920E-02 0.  1.
        2   -1    0    0  501    0  0.00000000000E+00  0.00000000000E+00 -0.56076435074E+03  0.56076435075E+03  0.25500000920E-02 0. -1.
    10030    2    1    2    0    0  0.00000000000E+00  0.00000000000E+00 -0.27831929359E+03  0.84320940791E+03  0.79595255914E+03 0.  0.
        5    1    3    3  502    0  0.75237485498E+02 -0.21758687136E+03 -0.48302042685E+03  0.53510330644E+03  0.46999998093E+01 0. -1.
       -5    1    3    3    0  502 -0.75237485498E+02  0.21758687136E+03  0.20470113325E+03  0.30810610147E+03  0.46999998093E+01 0.  1.
</event>
<event>
 5   0  0.6153659E-03  0.8003160E+03  0.7818609E-02  0.9559560E-01
        2   -1    0    0  501    0  0.00000000000E+00  0.00000000000E+00  0.18384779260E+04  0.18384779260E+04  0.25500000920E-02 0. -1.
       -2   -1    0    0    0  501  0.00000000000E+00  0.00000000000E+00 -0.87097285965E+02  0.87097286003E+02  0.25500000920E-02 0.  1.
    10030    2    1    2    0    0  0.00000000000E+00  0.00000000000E+00  0.17513806401E+04  0.19255752120E+04  0.80031603184E+03 0.  0.
        2    1    3    3  502    0 -0.26165531689E+03 -0.20516454899E+03  0.34000424180E+03  0.47556164844E+03  0.25500000920E-02 0.  1.
       -2    1    3    3    0  502  0.26165531689E+03  0.20516454899E+03  0.14113763983E+04  0.14500135636E+04  0.25500000920E-02 0. -1.
</event>
<event>
 5   0  0.5813850E-03  0.8053392E+03  0.7818609E-02  0.9552321E-01
       -2   -1    0    0    0  501  0.00000000000E+00  0.00000000000E+00  0.25843153593E+03  0.25843153594E+03  0.25500000920E-02 0.  1.
        2   -1    0    0  501    0  0.00000000000E+00  0.00000000000E+00 -0.62741114263E+03  0.62741114263E+03  0.25500000920E-02 0. -1.
    10030    2    1    2    0    0  0.00000000000E+00  0.00000000000E+00 -0.36897960670E+03  0.88584267858E+03  0.80533924593E+03 0.  0.
        5    1    3    3  502    0  0.23137782684E+03  0.32011034923E+03 -0.98478666296E+02  0.40709516350E+03  0.46999998093E+01 0. -1.
       -5    1    3    3    0  502 -0.23137782684E+03 -0.32011034923E+03 -0.27050094040E+03  0.47874751507E+03  0.46999998093E+01 0.  1.
</event>
<event>
 5   0  0.3627496E-03  0.8006385E+03  0.7818609E-02  0.9559093E-01
        1   -1    0    0  501    0  0.00000000000E+00  0.00000000000E+00  0.20539575623E+03  0.20539575630E+03  0.50400001928E-02 0. -1.
       -1   -1    0    0    0  501  0.00000000000E+00  0.00000000000E+00 -0.78022794347E+03  0.78022794348E+03  0.50400001928E-02 0.  1.
    10030    2    1    2    0    0  0.00000000000E+00  0.00000000000E+00 -0.57483218723E+03  0.98562369978E+03  0.80063851649E+03 0.  0.
        3    1    3    3  502    0  0.11289340922E+00  0.19075976890E+03 -0.72067855160E+03  0.74549774454E+03  0.10100000352E+00 0.  1.
       -3    1    3    3    0  502 -0.11289340922E+00 -0.19075976890E+03  0.14584636437E+03  0.24012595524E+03  0.10100000352E+00 0. -1.
</event>
<event>
 5   0  0.3671128E-03  0.8015883E+03  0.7818609E-02  0.9557721E-01
       -1   -1    0    0    0  501  0.00000000000E+00  0.00000000000E+00  0.14534649643E+03  0.14534649652E+03  0.50400001928E-02 0.  1.
        1   -1    0    0  501    0  0.00000000000E+00  0.00000000000E+00 -0.11051930218E+04  0.11051930218E+04  0.50400001928E-02 0. -1.
    10030    2    1    2    0    0  0.00000000000E+00  0.00000000000E+00 -0.95984652535E+03  0.12505395183E+04  0.80158825754E+03 0.  0.
        2    1    3    3  502    0  0.21114292194E+02  0.26315305208E+03 -0.95038570753E+03  0.98637129684E+03  0.25500000920E-02 0. -1.
       -2    1    3    3    0  502 -0.21114292194E+02 -0.26315305208E+03 -0.94608178206E+01  0.26416822147E+03  0.25500000920E-02 0.  1.
</event>
<event>
 5   0  0.6536209E-03  0.7987633E+03  0.7818609E-02  0.9561809E-01
        2   -1    0    0  501    0  0.00000000000E+00  0.00000000000E+00  0.10744779923E+04  0.10744779923E+04  0.25500000920E-02 0. -1.
       -2   -1    0    0    0  501  0.00000000000E+00  0.00000000000E+00 -0.14844946573E+03  0.14844946575E+03  0.25500000920E-02 0.  1.
    10030    2    1    2    0    0  0.00000000000E+00  0.00000000000E+00  0.92602852658E+03  0.12229274581E+04  0.79876325381E+03 0.  0.
        3    1    3    3  502    0 -0.31136294258E+03  0.21410840255E+03  0.26506504830E+03  0.46157207464E+03  0.10100000352E+00 0.  1.
       -3    1    3    3    0  502  0.31136294258E+03 -0.21410840255E+03  0.66096347828E+03  0.76135538342E+03  0.10100000352E+00 0. -1.
</event>
<event>
 5   0  0.3671128E-03  0.8040904E+03  0.7818609E-02  0.9554115E-01
        1   -1    0    0  501    0  0.00000000000E+00  0.00000000000E+00  0.55658538514E+03  0.55658538516E+03  0.50400001928E-02 0.  1.
       -1   -1    0    0    0  501  0.00000000000E+00  0.00000000000E+00 -0.29041426295E+03  0.29041426300E+03  0.50400001928E-02 0. -1.
    10030    2    1    2    0    0  0.00000000000E+00  0.00000000000E+00  0.26617112218E+03  0.84699964816E+03  0.80409037906E+03 0.  0.
        2    1    3    3  502    0 -0.15836491058E+03  0.15437919398E+03  0.48675226622E+03  0.53464020529E+03  0.25500000920E-02 0.  1.
       -2    1    3    3    0  502  0.15836491058E+03 -0.15437919398E+03 -0.22058114403E+03  0.31235944287E+03  0.25500000920E-02 0. -1.
</event>
<event>
 5   0  0.6337108E-03  0.7975773E+03  0.7818609E-02  0.9563530E-01
       -2   -1    0    0    0  501  0.00000000000E+00  0.00000000000E+00  0.85266224383E+02  0.85266224421E+02  0.25500000920E-02 0. -1.
        2   -1    0    0  501    0  0.00000000000E+00  0.00000000000E+00 -0.18651277612E+04  0.18651277612E+04  0.25500000920E-02 0.  1.
    10030    2    1    2    0    0  0.00000000000E+00  0.00000000000E+00 -0.17798615368E+04  0.19503939856E+04  0.79757733726E+03 0.  0.
        4    1    3    3  502    0 -0.29006714470E+03 -0.58139679767E+02 -0.15438706851E+04  0.15719597564E+04  0.12699999809E+01 0.  1.
       -4    1    3    3    0  502  0.29006714470E+03  0.58139679767E+02 -0.23599085174E+03  0.37843422916E+03  0.12699999809E+01 0. -1.
</event>
<event>
 5   0  0.3860515E-03  0.8007226E+03  0.7818609E-02  0.9558972E-01
        1   -1    0    0  501    0  0.00000000000E+00  0.00000000000E+00  0.83564824969E+03  0.83564824971E+03  0.50400001928E-02 0.  1.
       -1   -1    0    0    0  501  0.00000000000E+00  0.00000000000E+00 -0.19181415184E+03  0.19181415190E+03  0.50400001928E-02 0. -1.
    10030    2    1    2    0    0  0.00000000000E+00  0.00000000000E+00  0.64383409786E+03  0.10274624016E+04  0.80072257440E+03 0.  0.
        4    1    3    3  502    0  0.28140217871E+03  0.10985868181E+03 -0.15220639560E+02  0.30247214239E+03  0.12699999809E+01 0. -1.
       -4    1    3    3    0  502 -0.28140217871E+03 -0.10985868181E+03  0.65905473742E+03  0.72499025922E+03  0.12699999809E+01 0.  1.
</event>
<event>
 5   0  0.3714448E-03  0.7987247E+03  0.7818609E-02  0.9561865E-01
        1   -1    0    0  501    0  0.00000000000E+00  0.00000000000E+00  0.22395133646E+03  0.22395133652E+03  0.50400001928E-02 0. -1.
       -1   -1    0    0    0  501  0.00000000000E+00  0.00000000000E+00 -0.71216499998E+03  0.71216499999E+03  0.50400001928E-02 0.  1.
    10030    2    1    2    0    0  0.00000000000E+00  0.00000000000E+00 -0.48821366351E+03  0.93611633651E+03  0.79872474248E+03 0.  0.
        1    1    3    3  502    0  0.74837859888E+02 -0.81805280692E+02  0.20555175892E+03  0.23354728609E+03  0.50400001928E-02 0. -1.
       -1    1    3    3    0  502 -0.74837859888E+02  0.81805280692E+02 -0.69376542243E+03  0.70256905042E+03  0.50400001928E-02 0.  1.
</event>
<event>
 5   0  0.3753450E-03  0.7991179E+03  0.7818609E-02  0.9561295E-01
       -1   -1    0    0    0  501  0.00000000000E+00  0.00000000000E+00  0.10613752527E+03  0.10613752539E+03  0.50400001928E-02 0.  1.
        1   -1    0    0  501    0  0.00000000000E+00  0.00000000000E+00 -0.15041555123E+04  0.15041555124E+04  0.50400001928E-02 0. -1.
    10030    2    1    2    0    0  0.00000000000E+00  0.00000000000E+00 -0.13980179871E+04  0.16102930377E+04  0.79911787316E+03 0.  0.
        5    1    3    3  502    0 -0.31320919981E+03 -0.24030829816E+03 -0.82285371409E+03  0.91266554980E+03  0.46999998093E+01 0.  1.
       -5    1    3    3    0  502  0.31320919981E+03  0.24030829816E+03 -0.57516427299E+03  0.69762748794E+03  0.46999998093E+01 0. -1.
</event>
<event>
 5   0  0.3627496E-03  0.7995639E+03  0.7818609E-02  0.9560649E-01
       -1   -1    0    0    0  501  0.00000000000E+00  0.00000000000E+00  0.14422312034E+03  0.14422312043E+03  0.50400001928E-02 0.  1.
        1   -1    0    0  501    0  0.00000000000E+00  0.00000000000E+00 -0.11081829819E+04  0.11081829820E+04  0.50400001928E-02 0. -1.
    10030    2    1    2    0    0  0.00000000000E+00  0.00000000000E+00 -0.96395986161E+03  0.12524061024E+04  0.79956390020E+03 0.  0.
        3    1    3    3  502    0 -0.15538307187E+03 -0.94030621294E+02 -0.10398332384E+04  0.10555751184E+04  0.10100000352E+00 0. -1.
       -3    1    3    3    0  502  0.15538307187E+03  0.94030621294E+02  0.75873376746E+02  0.19683098400E+03  0.10100000352E+00 0.  1.
</event>
<event>
 5   0  0.6153659E-03  0.8014324E+03  0.7818609E-02  0.9557946E-01
       -2   -1    0    0    0  501  0.00000000000E+00  0.00000000000E+00  0.34639036376E+03  0.34639036377E+03  0.25500000920E-02 0. -1.
        2   -1    0    0  501    0  0.00000000000E+00  0.00000000000E+00 -0.46356222397E+03  0.46356222398E+03  0.25500000920E-02 0.  1.
    10030    2    1    2    0    0  0.00000000000E+00  0.00000000000E+00 -0.11717186021E+03  0.80995258774E+03  0.80143243606E+03 0.  0.
        2    1    3    3  502    0 -0.30216065497E+03 -0.10502412344E+03  0.18531427304E+03  0.36969245017E+03  0.25500000920E-02 0. -1.
       -2    1    3    3    0  502  0.30216065497E+03  0.10502412344E+03 -0.30248613326E+03  0.44026013757E+03  0.25500000920E-02 0.  1.
</event>
<event>
 5   0  0.3860515E-03  0.7997296E+03  0.7818609E-02  0.9560409E-01
       -1   -1    0    0    0  501  0.00000000000E+00  0.00000000000E+00  0.90629097123E+02  0.90629097263E+02  0.50400001928E-02 0.  1.
        1   -1    0    0  501    0  0.00000000000E+00  0.00000000000E+00 -0.17642441794E+04  0.17642441794E+04  0.50400001928E-02 0. -1.
    10030    2    1    2    0    0  0.00000000000E+00  0.00000000000E+00 -0.16736150823E+04  0.18548732767E+04  0.79972959736E+03 0.  0.
        4    1    3    3  502    0  0.81797544893E+02  0.37705458710E+03 -0.10803888466E+04  0.11472151816E+04  0.12699999809E+01 0. -1.
       -4    1    3    3    0  502 -0.81797544893E+02 -0.37705458710E+03 -0.59322623566E+03  0.70765809512E+03  0.12699999809E+01 0.  1.
</event>
<event>
 5   0  0.5813850E-03  0.8035030E+03  0.7818609E-02  0.9554960E-01
        2   -1    0    0  501    0  0.00000000000E+00  0.00000000000E+00  0.96223720227E+03  0.96223720227E+03  0.25500000920E-02 0. -1.
       -2   -1    0    0    0  501  0.00000000000E+00  0.00000000000E+00 -0.16773856286E+03  0.16773856288E+03  0.25500000920E-02 0.  1.
    10030    2    1    2    0    0  0.00000000000E+00  0.00000000000E+00  0.79449863941E+03  0.11299757652E+04  0.80350304406E+03 0.  0.
        5    1    3    3  502    0 -0.17227748491E+03 -0.15190783448E+03  0.86074943105E+03  0.89088001158E+03  0.46999998093E+01 0. -1.
       -5    1    3    3    0  502  0.17227748491E+03  0.15190783448E+03 -0.66250791641E+02  0.23909575357E+03  0.46999998093E+01 0.  1.
</event>
<event>
 5   0  0.2478000E-03  0.7981556E+03  0.7818609E-02  0.9562691E-01
        3   -1    0    0  501    0  0.00000000000E+00  0.00000000000E+00  0.16153266266E+03  0.16153269423E+03  0.10100000352E+00 0.  1.
       -3   -1    0    0    0  501  0.00000000000E+00  0.00000000000E+00 -0.98594975261E+03  0.98594975779E+03  0.10100000352E+00 0. -1.
    10030    2    1    2    0    0  0.00000000000E+00  0.00000000000E+00 -0.82441708996E+03  0.11474824520E+04  0.79815564865E+03 0.  0.
        4    1    3    3  502    0  0.16823478445E+03  0.33492944273E+02 -0.93024142331E+03  0.94592570456E+03  0.12699999809E+01 0. -1.
       -4    1    3    3    0  502 -0.16823478445E+03 -0.33492944273E+02  0.10582433335E+03  0.20155674746E+03  0.12699999809E+01 0.  1.
</event>
<event>
 5   0  0.6337108E-03  0.8030823E+03  0.7818609E-02  0.9555566E-01
        2   -1    0    0  501    0  0.00000000000E+00  0.00000000000E+00  0.13954600778E+04  0.13954600778E+04  0.25500000920E-02 0. -1.
       -2   -1    0    0    0  501  0.00000000000E+00  0.00000000000E+00 -0.11554274286E+03  0.11554274288E+03  0.25500000920E-02 0.  1.
    10030    2    1    2    0    0  0.00000000000E+00  0.00000000000E+00  0.12799173350E+04  0.15110028207E+04  0.80308227464E+03 0.  0.
        4    1    3    3  502    0  0.62337032377E+02 -0.28913750133E+03  0.12900889047E+03  0.32269382857E+03  0.12699999809E+01 0.  1.
       -4    1    3    3    0  502 -0.62337032377E+02  0.28913750133E+03  0.11509084445E+04  0.11883089921E+04  0.12699999809E+01 0. -1.
</event>
<event>
 5   0  0.3714448E-03  0.7973740E+03  0.7818609E-02  0.9563826E-01
       -1   -1    0    0    0  501  0.00000000000E+00  0.00000000000E+00  0.30705241852E+03  0.30705241856E+03  0.50400001928E-02 0.  1.
        1   -1    0    0  501    0  0.00000000000E+00  0.00000000000E+00 -0.51766837167E+03  0.51766837169E+03  0.50400001928E-02 0. -1.
    10030    2    1    2    0    0  0.00000000000E+00  0.00000000000E+00 -0.21061595315E+03  0.82472079025E+03  0.79737400394E+03 0.  0.
        1    1    3    3  502    0  0.14052451747E+02  0.35817922012E+03 -0.28582597753E+03  0.45846081030E+03  0.50400001928E-02 0.  1.
       -1    1    3    3    0  502 -0.14052451747E+02 -0.35817922012E+03  0.75210024380E+02  0.36625997996E+03  0.50400001928E-02 0. -1.
</event>
<event>
 5   0  0.5813850E-03  0.8018847E+03  0.7818609E-02  0.9557293E-01
       -2   -1    0    0    0  501  0.00000000000E+00  0.00000000000E+00  0.20669134608E+03  0.20669134609E+03  0.25500000920E-02 0. -1.
        2   -1    0    0  501    0  0.00000000000E+00  0.00000000000E+00 -0.77775279015E+03  0.77775279015E+03  0.25500000920E-02 0.  1.
    10030    2    1    2    0    0  0.00000000000E+00  0.00000000000E+00 -0.57106144407E+03  0.98444413624E+03  0.80188470773E+03 0.  0.
        5    1    3    3  502    0 -0.10676919041E+03  0.29243128485E+03 -0.59566317726E+03  0.67212530611E+03  0.46999998093E+01 0.  1.
       -5    1    3    3    0  502  0.10676919041E+03 -0.29243128485E+03  0.24601733188E+02  0.31231883013E+03  0.46999998093E+01 0. -1.
</event>
<event>
 5   0  0.2478000E-03  0.7977613E+03  0.7818609E-02  0.9563263E-01
        3   -1    0    0  501    0  0.00000000000E+00  0.00000000000E+00  0.54296491873E+03  0.54296492812E+03  0.10100000352E+00 0. -1.
       -3   -1    0    0    0  501  0.00000000000E+00  0.00000000000E+00 -0.29303139566E+03  0.29303141307E+03  0.10100000352E+00 0.  1.
    10030    2    1    2    0    0  0.00000000000E+00  0.00000000000E+00  0.24993352307E+03  0.83599634119E+03  0.79776131551E+03 0.  0.
        2    1    3    3  502    0 -0.71657338453E+02  0.10903369048E+03  0.51997116968E+03  0.53609060532E+03  0.25500000920E-02 0. -1.
       -2    1    3    3    0  502  0.71657338453E+02 -0.10903369048E+03 -0.27003764661E+03  0.29990573587E+03  0.25500000920E-02 0.  1.
</event>
<event>
 5   0  0.6256781E-03  0.7904110E+03  0.7818609E-02  0.9574001E-01
        2   -1    0    0  501    0  0.00000000000E+00  0.00000000000E+00  0.13596371415E+03  0.13596371417E+03  0.25500000920E-02 0. -1.
       -2   -1    0    0    0  501  0.00000000000E+00  0.00000000000E+00 -0.11487431475E+04  0.11487431475E+04  0.25500000920E-02 0.  1.
    10030    2    1    2    0    0  0.00000000000E+00  0.00000000000E+00 -0.10127794333E+04  0.12847068616E+04  0.79041099422E+03 0.  0.
        1    1    3    3  502    0 -0.11959559301E+03  0.31257131138E+03 -0.16474012601E+03  0.37301908760E+03  0.50400001928E-02 0.  1.
       -1    1    3    3    0  502  0.11959559301E+03 -0.31257131138E+03 -0.84803930730E+03  0.91168777403E+03  0.50400001928E-02 0. -1.
</event>
<event>
 5   0  0.6536209E-03  0.7985823E+03  0.7818609E-02  0.9562071E-01
       -2   -1    0    0    0  501  0.00000000000E+00  0.00000000000E+00  0.18965951926E+03  0.18965951928E+03  0.25500000920E-02 0.  1.
        2   -1    0    0  501    0  0.00000000000E+00  0.00000000000E+00 -0.84062960815E+03  0.84062960816E+03  0.25500000920E-02 0. -1.
    10030    2    1    2    0    0  0.00000000000E+00  0.00000000000E+00 -0.65097008889E+03  0.10302891274E+04  0.79858226219E+03 0.  0.
        3    1    3    3  502    0 -0.22112552655E+01 -0.35547542740E+03 -0.56008531134E+03  0.66337262177E+03  0.10100000352E+00 0. -1.
       -3    1    3    3    0  502  0.22112552655E+01  0.35547542740E+03 -0.90884777554E+02  0.36691650567E+03  0.10100000352E+00 0.  1.
</event>
<event>
 5   0  0.3860515E-03  0.8014010E+03  0.7818609E-02  0.9557991E-01
       -1   -1    0    0    0  501  0.00000000000E+00  0.00000000000E+00  0.54068628409E+03  0.54068628411E+03  0.50400001928E-02 0.  1.
        1   -1    0    0  501    0  0.00000000000E+00  0.00000000000E+00 -0.29695758901E+03  0.29695758905E+03  0.50400001928E-02 0. -1.
    10030    2    1    2    0    0  0.00000000000E+00  0.00000000000E+00  0.24372869508E+03  0.83764387316E+03  0.80140101163E+03 0.  0.
        4    1    3    3  502    0  0.38431647013E+03 -0.47198828349E+02  0.22964114185E+03  0.45018168059E+03  0.12699999809E+01 0.  1.
       -4    1    3    3    0  502 -0.38431647013E+03  0.47198828349E+02  0.14087553230E+02  0.38746219257E+03  0.12699999809E+01 0. -1.
</event>
<event>
 5   0  0.2478000E-03  0.7995285E+03  0.7818609E-02  0.9560700E-01
        4   -1    0    0  501    0  0.00000000000E+00  0.00000000000E+00  0.29184452029E+03  0.29184728357E+03  0.12699999809E+01 0. -1.
       -4   -1    0    0    0  501  0.00000000000E+00  0.00000000000E+00 -0.54758495865E+03  0.54758643139E+03  0.12699999809E+01 0.  1.
    10030    2    1    2    0    0  0.00000000000E+00  0.00000000000E+00 -0.25574043836E+03  0.83943371496E+03  0.79952847979E+03 0.  0.
        1    1    3    3  502    0  0.19176781211E+03  0.31249682635E+03 -0.29514013840E+03  0.47067702468E+03  0.50400001928E-02 0. -1.
       -1    1    3    3    0  502 -0.19176781211E+03 -0.31249682635E+03  0.39399700042E+02  0.36875669028E+03  0.50400001928E-02 0.  1.
</event>
<event>
 5   0  0.6256781E-03  0.8000153E+03  0.7818609E-02  0.9559995E-01
       -2   -1    0    0    0  501  0.00000000000E+00  0.00000000000E+00  0.36402734833E+03  0.36402734834E+03  0.25500000920E-02 0. -1.
        2   -1    0    0  501    0  0.00000000000E+00  0.00000000000E+00 -0.43954427133E+03  0.43954427133E+03  0.25500000920E-02 0.  1.
    10030    2    1    2    0    0  0.00000000000E+00  0.00000000000E+00 -0.75516922998E+02  0.80357161967E+03  0.80001533878E+03 0.  0.
        1    1    3    3  502    0  0.81748762577E+02 -0.31917916415E+02 -0.42975539996E+03  0.43862434655E+03  0.50400001928E-02 0.  1.
       -1    1    3    3    0  502 -0.81748762577E+02  0.31917916415E+02  0.35423847696E+03  0.36494727312E+03  0.50400001928E-02 0. -1.
</event>
<event>
 5   0  0.6536209E-03  0.8003507E+03  0.7818609E-02  0.9559510E-01
       -2   -1    0    0    0  501  0.00000000000E+00  0.00000000000E+00  0.30993543970E+03  0.30993543971E+03  0.25500000920E-02 0.  1.
        2   -1    0    0  501    0  0.00000000000E+00  0.00000000000E+00 -0.51668930392E+03  0.51668930393E+03  0.25500000920E-02 0. -1.
    10030    2    1    2    0    0  0.00000000000E+00  0.00000000000E+00 -0.20675386422E+03  0.82662474364E+03  0.80035073963E+03 0.  0.
        3    1    3    3  502    0 -0.27133899984E+03  0.25024970894E+03 -0.26301670265E+03  0.45324117833E+03  0.10100000352E+00 0. -1.
       -3    1    3    3    0  502  0.27133899984E+03 -0.25024970894E+03  0.56262838433E+02  0.37338356531E+03  0.10100000352E+00 0.  1.
</event>
<event>
 5   0  0.3753450E-03  0.7993676E+03  0.7818609E-02  0.9560933E-01
       -1   -1    0    0    0  501  0.00000000000E+00  0.00000000000E+00  0.25118517303E+03  0.25118517308E+03  0.50400001928E-02 0.  1.
        1   -1    0    0  501    0  0.00000000000E+00  0.00000000000E+00 -0.63597365451E+03  0.63597365453E+03  0.50400001928E-02 0. -1.
    10030    2    1    2    0    0  0.00000000000E+00  0.00000000000E+00 -0.38478848148E+03  0.88715882761E+03  0.79936763127E+03 0.  0.
        5    1    3    3  502    0 -0.19307685967E+02  0.39689969119E+03 -0.23977887555E+03  0.46413160932E+03  0.46999998093E+01 0. -1.
       -5    1    3    3    0  502  0.19307685967E+02 -0.39689969119E+03 -0.14500960593E+03  0.42302721829E+03  0.46999998093E+01 0.  1.
</event>
<event>
 5   0  0.6536209E-03  0.8015699E+03  0.7818609E-02  0.9557748E-01
       -2   -1    0    0    0  501  0.00000000000E+00  0.00000000000E+00  0.36204203950E+03  0.36204203951E+03  0.25500000920E-02 0.  1.
        2   -1    0    0  501    0  0.00000000000E+00  0.00000000000E+00 -0.44367378190E+03  0.44367378191E+03  0.25500000920E-02 0. -1.
    10030    2    1    2    0    0  0.00000000000E+00  0.00000000000E+00 -0.81631742396E+02  0.80571582142E+03  0.80156986191E+03 0.  0.
        3    1    3    3  502    0 -0.32466035849E+03 -0.17021952270E+03 -0.20367089681E+03  0.41935769779E+03  0.10100000352E+00 0. -1.
       -3    1    3    3    0  502  0.32466035849E+03  0.17021952270E+03  0.12203915441E+03  0.38635812363E+03  0.10100000352E+00 0.  1.
</event>
<event>
 5   0  0.3671128E-03  0.7915246E+03  0.7818609E-02  0.9572366E-01
       -1   -1    0    0    0  501  0.00000000000E+00  0.00000000000E+00  0.54687671610E+03  0.54687671612E+03  0.50400001928E-02 0. -1.
        1   -1    0    0  501    0  0.00000000000E+00  0.00000000000E+00 -0.28640424841E+03  0.28640424845E+03  0.50400001928E-02 0.  1.
    10030    2    1    2    0    0  0.00000000000E+00  0.00000000000E+00  0.26047246769E+03  0.83328096458E+03  0.79152464238E+03 0.  0.
        2    1    3    3  502    0  0.17538488372E+03 -0.14380039654E+03 -0.21120268036E+03  0.30991125130E+03  0.25500000920E-02 0.  1.
       -2    1    3    3    0  502 -0.17538488372E+03  0.14380039654E+03  0.47167514805E+03  0.52336971328E+03  0.25500000920E-02 0. -1.
</event>
<event>
 5   0  0.3860515E-03  0.8525176E+03  0.7818609E-02  0.9486964E-01
        1   -1    0    0  501    0  0.00000000000E+00  0.00000000000E+00  0.26226243390E+03  0.26226243395E+03  0.50400001928E-02 0. -1.
       -1   -1    0    0    0  501  0.00000000000E+00  0.00000000000E+00 -0.69280443365E+03  0.69280443367E+03  0.50400001928E-02 0.  1.
    10030    2    1    2    0    0  0.00000000000E+00  0.00000000000E+00 -0.43054199975E+03  0.95506686762E+03  0.85251762919E+03 0.  0.
        4    1    3    3  502    0 -0.17027989402E+03  0.70449337711E+02 -0.64587144970E+03  0.67164714987E+03  0.12699999809E+01 0.  1.
       -4    1    3    3    0  502  0.17027989402E+03 -0.70449337711E+02  0.21532944995E+03  0.28341971775E+03  0.12699999809E+01 0. -1.
</event>
<event>
 5   0  0.6536209E-03  0.8286638E+03  0.7818609E-02  0.9519430E-01
        2   -1    0    0  501    0  0.00000000000E+00  0.00000000000E+00  0.11451426125E+04  0.11451426125E+04  0.25500000920E-02 0.  1.
       -2   -1    0    0    0  501  0.00000000000E+00  0.00000000000E+00 -0.14991227334E+03  0.14991227336E+03  0.25500000920E-02 0. -1.
    10030    2    1    2    0    0  0.00000000000E+00  0.00000000000E+00  0.99523033915E+03  0.12950548859E+04  0.82866382171E+03 0.  0.
        3    1    3    3  502    0  0.15787682620E+03  0.18787684049E+02  0.10955718651E+04  0.11070482334E+04  0.10100000352E+00 0.  1.
       -3    1    3    3    0  502 -0.15787682620E+03 -0.18787684049E+02 -0.10034152596E+03  0.18800665243E+03  0.10100000352E+00 0. -1.
</event>
<event>
 5   0  0.3627496E-03  0.8000967E+03  0.7818609E-02  0.9559877E-01
        1   -1    0    0  501    0  0.00000000000E+00  0.00000000000E+00  0.81836018922E+03  0.81836018924E+03  0.50400001928E-02 0. -1.
       -1   -1    0    0    0  501  0.00000000000E+00  0.00000000000E+00 -0.19556019230E+03  0.19556019236E+03  0.50400001928E-02 0.  1.
    10030    2    1    2    0    0  0.00000000000E+00  0.00000000000E+00  0.62279999693E+03  0.10139203816E+04  0.80009668419E+03 0.  0.
        3    1    3    3  502    0  0.29369700652E+03  0.17554366442E+03  0.48724491306E+02  0.34561191532E+03  0.10100000352E+00 0.  1.
       -3    1    3    3    0  502 -0.29369700652E+03 -0.17554366442E+03  0.57407550562E+03  0.66830846629E+03  0.10100000352E+00 0. -1.
</event>
<event>
 5   0  0.3714448E-03  0.8001132E+03  0.7818609E-02  0.9559853E-01
       -1   -1    0    0    0  501  0.00000000000E+00  0.00000000000E+00  0.19116978983E+03  0.19116978990E+03  0.50400001928E-02 0. -1.
        1   -1    0    0  501    0  0.00000000000E+00  0.00000000000E+00 -0.83718923440E+03  0.83718923441E+03  0.50400001928E-02 0.  1.
    10030    2    1    2    0    0  0.00000000000E+00  0.00000000000E+00 -0.64601944457E+03  0.10283590243E+04  0.80011321707E+03 0.  0.
        1    1    3    3  502    0 -0.28397372333E+03 -0.52977358079E+02  0.32704262595E+02  0.29071849757E+03  0.50400001928E-02 0. -1.
       -1    1    3    3    0  502  0.28397372333E+03  0.52977358079E+02 -0.67872370716E+03  0.73764052675E+03  0.50400001928E-02 0.  1.
</event>
<event>
 5   0  0.3860515E-03  0.8012298E+03  0.7818609E-02  0.9558239E-01
        1   -1    0    0  501    0  0.00000000000E+00  0.00000000000E+00  0.52039996506E+03  0.52039996509E+03  0.50400001928E-02 0. -1.
       -1   -1    0    0    0  501  0.00000000000E+00  0.00000000000E+00 -0.30840186173E+03  0.30840186177E+03  0.50400001928E-02 0.  1.
    10030    2    1    2    0    0  0.00000000000E+00  0.00000000000E+00  0.21199810334E+03  0.82880182686E+03  0.80122984991E+03 0.  0.
        4    1    3    3  502    0  0.33720027402E+03 -0.68055419538E+02  0.31838161023E+03  0.46872596212E+03  0.12699999809E+01 0. -1.
       -4    1    3    3    0  502 -0.33720027402E+03  0.68055419538E+02 -0.10638350690E+03  0.36007586474E+03  0.12699999809E+01 0.  1.
</event>
<event>
 5   0  0.6153659E-03  0.8019917E+03  0.7818609E-02  0.9557139E-01
       -2   -1    0    0    0  501  0.00000000000E+00  0.00000000000E+00  0.17182936504E+03  0.17182936506E+03  0.25500000920E-02 0. -1.
        2   -1    0    0  501    0  0.00000000000E+00  0.00000000000E+00 -0.93579853329E+03  0.93579853329E+03  0.25500000920E-02 0.  1.
    10030    2    1    2    0    0  0.00000000000E+00  0.00000000000E+00 -0.76396916825E+03  0.11076278984E+04  0.80199169021E+03 0.  0.
        2    1    3    3  502    0  0.69165078277E+02  0.38000904165E+03 -0.23319114387E+03  0.45118598092E+03  0.25500000920E-02 0. -1.
       -2    1    3    3    0  502 -0.69165078277E+02 -0.38000904165E+03 -0.53077802439E+03  0.65644191744E+03  0.25500000920E-02 0.  1.
</event>
<event>
 5   0  0.6153659E-03  0.7669502E+03  0.7818609E-02  0.9609127E-01
        2   -1    0    0  501    0  0.00000000000E+00  0.00000000000E+00  0.12926702310E+04  0.12926702310E+04  0.25500000920E-02 0. -1.
       -2   -1    0    0    0  501  0.00000000000E+00  0.00000000000E+00 -0.11375921072E+03  0.11375921075E+03  0.25500000920E-02 0.  1.
    10030    2    1    2    0    0  0.00000000000E+00  0.00000000000E+00  0.11789110203E+04  0.14064294418E+04  0.76695018151E+03 0.  0.
        2    1    3    3  502    0  0.22913497900E+03  0.68463787052E+02  0.11391751977E+04  0.11640061254E+04  0.25500000920E-02 0. -1.
       -2    1    3    3    0  502 -0.22913497900E+03 -0.68463787052E+02  0.39735822560E+02  0.24242331641E+03  0.25500000920E-02 0.  1.
</event>
<event>
 5   0  0.6153659E-03  0.8029155E+03  0.7818609E-02  0.9555807E-01
       -2   -1    0    0    0  501  0.00000000000E+00  0.00000000000E+00  0.28313911941E+03  0.28313911942E+03  0.25500000920E-02 0.  1.
        2   -1    0    0  501    0  0.00000000000E+00  0.00000000000E+00 -0.56921950776E+03  0.56921950776E+03  0.25500000920E-02 0. -1.
    10030    2    1    2    0    0  0.00000000000E+00  0.00000000000E+00 -0.28608038835E+03  0.85235862719E+03  0.80291546301E+03 0.  0.
        2    1    3    3  502    0  0.50998692355E+02 -0.25750250524E+03  0.17940732283E+03  0.31795501933E+03  0.25500000920E-02 0.  1.
       -2    1    3    3    0  502 -0.50998692355E+02  0.25750250524E+03 -0.46548771117E+03  0.53440360786E+03  0.25500000920E-02 0. -1.
</event>
<event>
 5   0  0.2478000E-03  0.8014241E+03  0.7818609E-02  0.9557958E-01
        4   -1    0    0  501    0  0.00000000000E+00  0.00000000000E+00  0.24816214916E+03  0.24816539883E+03  0.12699999809E+01 0. -1.
       -4   -1    0    0    0  501  0.00000000000E+00  0.00000000000E+00 -0.64702915243E+03  0.64703039881E+03  0.12699999809E+01 0.  1.
    10030    2    1    2    0    0  0.00000000000E+00  0.00000000000E+00 -0.39886700326E+03  0.89519579764E+03  0.80142412606E+03 0.  0.
        3    1    3    3  502    0  0.16790761093E+03  0.35402019099E+03 -0.29320141247E+03  0.48937750245E+03  0.10100000352E+00 0. -1.
       -3    1    3    3    0  502 -0.16790761093E+03 -0.35402019099E+03 -0.10566559080E+03  0.40581829519E+03  0.10100000352E+00 0.  1.
</event>
<event>
 5   0  0.3860515E-03  0.7987186E+03  0.7818609E-02  0.9561874E-01
        1   -1    0    0  501    0  0.00000000000E+00  0.00000000000E+00  0.60847077390E+03  0.60847077392E+03  0.50400001928E-02 0. -1.
       -1   -1    0    0    0  501  0.00000000000E+00  0.00000000000E+00 -0.26211257947E+03  0.26211257952E+03  0.50400001928E-02 0.  1.
    10030    2    1    2    0    0  0.00000000000E+00  0.00000000000E+00  0.34635819442E+03  0.87058335344E+03  0.79871858401E+03 0.  0.
        4    1    3    3  502    0  0.14733309071E+03 -0.36099610175E+03  0.26732800092E+03  0.47274845115E+03  0.12699999809E+01 0. -1.
       -4    1    3    3    0  502 -0.14733309071E+03  0.36099610175E+03  0.79030193509E+02  0.39783490229E+03  0.12699999809E+01 0.  1.
</event>
<event>
 5   0  0.3627496E-03  0.7939960E+03  0.7818609E-02  0.9568749E-01
       -1   -1    0    0    0  501  0.00000000000E+00  0.00000000000E+00  0.23696535040E+03  0.23696535045E+03  0.50400001928E-02 0.  1.
        1   -1    0    0  501    0  0.00000000000E+00  0.00000000000E+00 -0.66510741462E+03  0.66510741464E+03  0.50400001928E-02 0. -1.
    10030    2    1    2    0    0  0.00000000000E+00  0.00000000000E+00 -0.42814206422E+03  0.90207276509E+03  0.79399599896E+03 0.  0.
        3    1    3    3  502    0 -0.26101599649E+03  0.21804945467E+03  0.18576561008E+02  0.34061710751E+03  0.10100000352E+00 0.  1.
       -3    1    3    3    0  502  0.26101599649E+03 -0.21804945467E+03 -0.44671862523E+03  0.56145565758E+03  0.10100000352E+00 0. -1.
</event>
<event>
 5   0  0.5813850E-03  0.8030504E+03  0.7818609E-02  0.9555612E-01
        2   -1    0    0  501    0  0.00000000000E+00  0.00000000000E+00  0.94892625121E+03  0.94892625122E+03  0.25500000920E-02 0.  1.
       -2   -1    0    0    0  501  0.00000000000E+00  0.00000000000E+00 -0.16989991182E+03  0.16989991184E+03  0.25500000920E-02 0. -1.
    10030    2    1    2    0    0  0.00000000000E+00  0.00000000000E+00  0.77902633940E+03  0.11188261631E+04  0.80305040045E+03 0.  0.
        5    1    3    3  502    0  0.34867903616E+03  0.19620766852E+03  0.34276492817E+03  0.52686279564E+03  0.46999998093E+01 0. -1.
       -5    1    3    3    0  502 -0.34867903616E+03 -0.19620766852E+03  0.43626141122E+03  0.59196336742E+03  0.46999998093E+01 0.  1.
</event>
<event>
 5   0  0.3671128E-03  0.7937710E+03  0.7818609E-02  0.9569077E-01
       -1   -1    0    0    0  501  0.00000000000E+00  0.00000000000E+00  0.34064466176E+03  0.34064466180E+03  0.50400001928E-02 0.  1.
        1   -1    0    0  501    0  0.00000000000E+00  0.00000000000E+00 -0.46241173364E+03  0.46241173367E+03  0.50400001928E-02 0. -1.
    10030    2    1    2    0    0  0.00000000000E+00  0.00000000000E+00 -0.12176707188E+03  0.80305639547E+03  0.79377097107E+03 0.  0.
        2    1    3    3  502    0  0.32769046481E+02  0.18476857718E+03  0.29292855852E+03  0.34787983259E+03  0.25500000920E-02 0.  1.
       -2    1    3    3    0  502 -0.32769046481E+02 -0.18476857718E+03 -0.41469563040E+03  0.45517656288E+03  0.25500000920E-02 0. -1.
</event>
<event>
 5   0  0.5813850E-03  0.7998172E+03  0.7818609E-02  0.9560282E-01
       -2   -1    0    0    0  501  0.00000000000E+00  0.00000000000E+00  0.11014035592E+03  0.11014035595E+03  0.25500000920E-02 0.  1.
        2   -1    0    0  501    0  0.00000000000E+00  0.00000000000E+00 -0.14520279868E+04  0.14520279868E+04  0.25500000920E-02 0. -1.
    10030    2    1    2    0    0  0.00000000000E+00  0.00000000000E+00 -0.13418876309E+04  0.15621683428E+04  0.79981717736E+03 0.  0.
        5    1    3    3  502    0  0.53950861162E+02  0.33114951321E+03 -0.24600721516E+03  0.41606770535E+03  0.46999998093E+01 0.  1.
       -5    1    3    3    0  502 -0.53950861162E+02 -0.33114951321E+03 -0.10958804157E+04  0.11461006374E+04  0.46999998093E+01 0. -1.
</event>
<event>
 5   0  0.3860515E-03  0.7968044E+03  0.7818609E-02  0.9564654E-01
        1   -1    0    0  501    0  0.00000000000E+00  0.00000000000E+00  0.10019585279E+04  0.10019585280E+04  0.50400001928E-02 0.  1.
       -1   -1    0    0    0  501  0.00000000000E+00  0.00000000000E+00 -0.15841407286E+03  0.15841407294E+03  0.50400001928E-02 0. -1.
    10030    2    1    2    0    0  0.00000000000E+00  0.00000000000E+00  0.84354445509E+03  0.11603726009E+04  0.79680444603E+03 0.  0.
        4    1    3    3  502    0  0.11106429069E+03 -0.28284675055E+03  0.79698810857E+03  0.85295323381E+03  0.12699999809E+01 0.  1.
       -4    1    3    3    0  502 -0.11106429069E+03  0.28284675055E+03  0.46556346521E+02  0.30741936709E+03  0.12699999809E+01 0. -1.
</event>
<event>
 5   0  0.3753450E-03  0.8024266E+03  0.7818609E-02  0.9556511E-01
        1   -1    0    0  501    0  0.00000000000E+00  0.00000000000E+00  0.14404086162E+04  0.14404086163E+04  0.50400001928E-02 0. -1.
       -1   -1    0    0    0  501  0.00000000000E+00  0.00000000000E+00 -0.11175448198E+03  0.11175448210E+03  0.50400001928E-02 0.  1.
    10030    2    1    2    0    0  0.00000000000E+00  0.00000000000E+00  0.13286541343E+04  0.15521630984E+04  0.80242661682E+03 0.  0.
        5    1    3    3  502    0  0.66158231569E+02  0.35817325567E+03  0.98964679277E+03  0.10545557629E+04  0.46999998093E+01 0.  1.
       -5    1    3    3    0  502 -0.66158231569E+02 -0.35817325567E+03  0.33900734150E+03  0.49760733543E+03  0.46999998093E+01 0. -1.
</event>
<event>
 5   0  0.3627496E-03  0.8000092E+03  0.7818609E-02  0.9560004E-01
       -1   -1    0    0    0  501  0.00000000000E+00  0.00000000000E+00  0.27016957282E+03  0.27016957287E+03  0.50400001928E-02 0. -1.
        1   -1    0    0  501    0  0.00000000000E+00  0.00000000000E+00 -0.59223422346E+03  0.59223422348E+03  0.50400001928E-02 0.  1.
    10030    2    1    2    0    0  0.00000000000E+00  0.00000000000E+00 -0.32206465063E+03  0.86240379635E+03  0.80000916793E+03 0.  0.
        3    1    3    3  502    0  0.71581069345E+02  0.34539560738E+03 -0.36437518743E+03  0.50714027892E+03  0.10100000352E+00 0.  1.
       -3    1    3    3    0  502 -0.71581069345E+02 -0.34539560738E+03  0.42310536801E+02  0.35526351743E+03  0.10100000352E+00 0. -1.
</event>
<event>
 5   0  0.3714448E-03  0.8043204E+03  0.7818609E-02  0.9553784E-01
       -1   -1    0    0    0  501  0.00000000000E+00  0.00000000000E+00  0.30185419361E+03  0.30185419365E+03  0.50400001928E-02 0. -1.
        1   -1    0    0  501    0  0.00000000000E+00  0.00000000000E+00 -0.53579787077E+03  0.53579787079E+03  0.50400001928E-02 0.  1.
    10030    2    1    2    0    0  0.00000000000E+00  0.00000000000E+00 -0.23394367716E+03  0.83765206445E+03  0.80432041936E+03 0.  0.
        1    1    3    3  502    0  0.38853917285E+03 -0.59939130443E+02 -0.20520250032E+03  0.44346753473E+03  0.50400001928E-02 0. -1.
       -1    1    3    3    0  502 -0.38853917285E+03  0.59939130443E+02 -0.28741176837E+02  0.39418452972E+03  0.50400001928E-02 0.  1.
</event>
<event>
 5   0  0.6337108E-03  0.7962368E+03  0.7818609E-02  0.9565480E-01
        2   -1    0    0  501    0  0.00000000000E+00  0.00000000000E+00  0.22193198436E+03  0.22193198438E+03  0.25500000920E-02 0. -1.
       -2   -1    0    0    0  501  0.00000000000E+00  0.00000000000E+00 -0.71417494997E+03  0.71417494997E+03  0.25500000920E-02 0.  1.
    10030    2    1    2    0    0  0.00000000000E+00  0.00000000000E+00 -0.49224296561E+03  0.93610693435E+03  0.79623680858E+03 0.  0.
        4    1    3    3  502    0  0.13722593828E+03 -0.75642397091E+01  0.19315616348E+03  0.23706347725E+03  0.12699999809E+01 0. -1.
       -4    1    3    3    0  502 -0.13722593828E+03  0.75642397091E+01 -0.68539912908E+03  0.69904345709E+03  0.12699999809E+01 0.  1.
</event>
<event>
 5   0  0.6153659E-03  0.7958113E+03  0.7818609E-02  0.9566100E-01
        2   -1    0    0  501    0  0.00000000000E+00  0.00000000000E+00  0.63776745071E+03  0.63776745071E+03  0.25500000920E-02 0. -1.
       -2   -1    0    0    0  501  0.00000000000E+00  0.00000000000E+00 -0.24825494677E+03  0.24825494678E+03  0.25500000920E-02 0.  1.
    10030    2    1    2    0    0  0.00000000000E+00  0.00000000000E+00  0.38951250393E+03  0.88602239750E+03  0.79581134582E+03 0.  0.
        2    1    3    3  502    0 -0.35111231816E+03  0.14867413033E+03  0.32143003309E+03  0.49869943169E+03  0.25500000920E-02 0. -1.
       -2    1    3    3    0  502  0.35111231816E+03 -0.14867413033E+03  0.68082470847E+02  0.38732296580E+03  0.25500000920E-02 0.  1.
</event>
<event>
 5   0  0.3627496E-03  0.8018260E+03  0.7818609E-02  0.9557378E-01
        1   -1    0    0  501    0  0.00000000000E+00  0.00000000000E+00  0.10579153871E+04  0.10579153871E+04  0.50400001928E-02 0. -1.
       -1   -1    0    0    0  501  0.00000000000E+00  0.00000000000E+00 -0.15193202750E+03  0.15193202758E+03  0.50400001928E-02 0.  1.
    10030    2    1    2    0    0  0.00000000000E+00  0.00000000000E+00  0.90598335961E+03  0.12098474147E+04  0.80182599046E+03 0.  0.
        3    1    3    3  502    0  0.43803570454E+02 -0.42886827455E+02 -0.14481836625E+03  0.15725902886E+03  0.10100000352E+00 0.  1.
       -3    1    3    3    0  502 -0.43803570454E+02  0.42886827455E+02  0.10508017259E+04  0.10525883858E+04  0.10100000352E+00 0. -1.
</event>
<event>
 5   0  0.6536209E-03  0.7976944E+03  0.7818609E-02  0.9563360E-01
        2   -1    0    0  501    0  0.00000000000E+00  0.00000000000E+00  0.94832854738E+03  0.94832854739E+03  0.25500000920E-02 0. -1.
       -2   -1    0    0    0  501  0.00000000000E+00  0.00000000000E+00 -0.16774679628E+03  0.16774679630E+03  0.25500000920E-02 0.  1.
    10030    2    1    2    0    0  0.00000000000E+00  0.00000000000E+00  0.78058175110E+03  0.11160753437E+04  0.79769436668E+03 0.  0.
        3    1    3    3  502    0 -0.14424586498E+03  0.16329244427E+03 -0.77125809436E+02  0.23112700535E+03  0.10100000352E+00 0.  1.
       -3    1    3    3    0  502  0.14424586498E+03 -0.16329244427E+03  0.85770756054E+03  0.88494833834E+03  0.10100000352E+00 0. -1.
</event>
<event>
 5   0  0.3714448E-03  0.8005301E+03  0.7818609E-02  0.9559250E-01
       -1   -1    0    0    0  501  0.00000000000E+00  0.00000000000E+00  0.11328038201E+03  0.11328038212E+03  0.50400001928E-02 0. -1.
        1   -1    0    0  501    0  0.00000000000E+00  0.00000000000E+00 -0.14142969327E+04  0.14142969327E+04  0.50400001928E-02 0.  1.
    10030    2    1    2    0    0  0.00000000000E+00  0.00000000000E+00 -0.13010165507E+04  0.15275773148E+04  0.80053006665E+03 0.  0.
        1    1    3    3  502    0 -0.21661542667E+02 -0.82184086708E+02  0.95863415993E+02  0.12811417209E+03  0.50400001928E-02 0. -1.
       -1    1    3    3    0  502  0.21661542667E+02  0.82184086708E+02 -0.13968799667E+04  0.13994631428E+04  0.50400001928E-02 0.  1.
</event>
<event>
 5   0  0.3860515E-03  0.8198281E+03  0.7818609E-02  0.9531752E-01
        1   -1    0    0  501    0  0.00000000000E+00  0.00000000000E+00  0.18643252840E+04  0.18643252840E+04  0.50400001928E-02 0.  1.
       -1   -1    0    0    0  501  0.00000000000E+00  0.00000000000E+00 -0.90128878989E+02  0.90128879129E+02  0.50400001928E-02 0. -1.
    10030    2    1    2    0    0  0.00000000000E+00  0.00000000000E+00  0.17741964050E+04  0.19544541632E+04  0.81982814800E+03 0.  0.
        4    1    3    3  502    0 -0.33579730188E+03 -0.23501156962E+03  0.90172996931E+03  0.99050937212E+03  0.12699999809E+01 0. -1.
       -4    1    3    3    0  502  0.33579730188E+03  0.23501156962E+03  0.87246643572E+03  0.96394479104E+03  0.12699999809E+01 0.  1.
</event>
<event>
 5   0  0.3753450E-03  0.8004633E+03  0.7818609E-02  0.9559347E-01
        1   -1    0    0  501    0  0.00000000000E+00  0.00000000000E+00  0.26741335788E+03  0.26741335793E+03  0.50400001928E-02 0. -1.
       -1   -1    0    0    0  501  0.00000000000E+00  0.00000000000E+00 -0.59901785498E+03  0.59901785500E+03  0.50400001928E-02 0.  1.
    10030    2    1    2    0    0  0.00000000000E+00  0.00000000000E+00 -0.33160449710E+03  0.86643121293E+03  0.80046330600E+03 0.  0.
        5    1    3    3  502    0 -0.23555401051E+03 -0.31793034124E+03 -0.10087653349E+03  0.40836694131E+03  0.46999998093E+01 0.  1.
       -5    1    3    3    0  502  0.23555401051E+03  0.31793034124E+03 -0.23072796360E+03  0.45806427162E+03  0.46999998093E+01 0. -1.
</event>
<event>
 5   0  0.6536209E-03  0.8003858E+03  0.7818609E-02  0.9559459E-01
        2   -1    0    0  501    0  0.00000000000E+00  0.00000000000E+00  0.68169712870E+03  0.68169712871E+03  0.25500000920E-02 0. -1.
       -2   -1    0    0    0  501  0.00000000000E+00  0.00000000000E+00 -0.23493475786E+03  0.23493475787E+03  0.25500000920E-02 0.  1.
    10030    2    1    2    0    0  0.00000000000E+00  0.00000000000E+00  0.44676237084E+03  0.91663188658E+03  0.80038578167E+03 0.  0.
        3    1    3    3  502    0 -0.29548645310E+03 -0.77968660979E+02  0.51929378974E+03  0.60254245188E+03  0.10100000352E+00 0. -1.
       -3    1    3    3    0  502  0.29548645310E+03  0.77968660979E+02 -0.72531418896E+02  0.31408943470E+03  0.10100000352E+00 0.  1.
</event>
<event>
 5   0  0.3860515E-03  0.7989256E+03  0.7818609E-02  0.9561574E-01
       -1   -1    0    0    0  501  0.00000000000E+00  0.00000000000E+00  0.15830810586E+03  0.15830810594E+03  0.50400001928E-02 0. -1.
        1   -1    0    0  501    0  0.00000000000E+00  0.00000000000E+00 -0.10079744517E+04  0.10079744517E+04  0.50400001928E-02 0.  1.
    10030    2    1    2    0    0  0.00000000000E+00  0.00000000000E+00 -0.84966634584E+03  0.11662825577E+04  0.79892559419E+03 0.  0.
        4    1    3    3  502    0 -0.10962557092E+03 -0.33107328853E+03 -0.14048174666E+03  0.37598407177E+03  0.12699999809E+01 0. -1.
       -4    1    3    3    0  502  0.10962557092E+03  0.33107328853E+03 -0.70918459918E+03  0.79029848589E+03  0.12699999809E+01 0.  1.
</event>
<event>
 5   0  0.6256781E-03  0.7997199E+03  0.7818609E-02  0.9560423E-01
        2   -1    0    0  501    0  0.00000000000E+00  0.00000000000E+00  0.90096299162E+03  0.90096299162E+03  0.25500000920E-02 0. -1.
       -2   -1    0    0    0  501  0.00000000000E+00  0.00000000000E+00 -0.17746340864E+03  0.17746340865E+03  0.25500000920E-02 0.  1.
    10030    2    1    2    0    0  0.00000000000E+00  0.00000000000E+00  0.72349958298E+03  0.10784264003E+04  0.79971985985E+03 0.  0.
        1    1    3    3  502    0  0.13865543723E+02 -0.36004419690E+03  0.12793327201E+03  0.38234931559E+03  0.50400001928E-02 0.  1.
       -1    1    3    3    0  502 -0.13865543723E+02  0.36004419690E+03  0.59556631098E+03  0.69607708468E+03  0.50400001928E-02 0. -1.
</event>
<event>
 5   0  0.3860515E-03  0.8208656E+03  0.7818609E-02  0.9530297E-01
       -1   -1    0    0    0  501  0.00000000000E+00  0.00000000000E+00  0.27484370408E+03  0.27484370413E+03  0.50400001928E-02 0.  1.
        1   -1    0    0  501    0  0.00000000000E+00  0.00000000000E+00 -0.61291227282E+03  0.61291227284E+03  0.50400001928E-02 0. -1.
    10030    2    1    2    0    0  0.00000000000E+00  0.00000000000E+00 -0.33806856873E+03  0.88775597696E+03  0.82086559038E+03 0.  0.
        4    1    3    3  502    0 -0.31275121708E+03 -0.23847944080E+03 -0.29593154157E+03  0.49220204963E+03  0.12699999809E+01 0. -1.
       -4    1    3    3    0  502  0.31275121708E+03  0.23847944080E+03 -0.42137027168E+02  0.39555392733E+03  0.12699999809E+01 0.  1.
</event>
<event>
 5   0  0.3753450E-03  0.7990717E+03  0.7818609E-02  0.9561362E-01
       -1   -1    0    0    0  501  0.00000000000E+00  0.00000000000E+00  0.41999045255E+03  0.41999045258E+03  0.50400001928E-02 0.  1.
        1   -1    0    0  501    0  0.00000000000E+00  0.00000000000E+00 -0.38007742958E+03  0.38007742961E+03  0.50400001928E-02 0. -1.
    10030    2    1    2    0    0  0.00000000000E+00  0.00000000000E+00  0.39913022976E+02  0.80006788219E+03  0.79907169060E+03 0.  0.
        5    1    3    3  502    0  0.84546120325E+02  0.28700408385E+01 -0.37097937957E+03  0.38053130445E+03  0.46999998093E+01 0. -1.
       -5    1    3    3    0  502 -0.84546120325E+02 -0.28700408385E+01  0.41089240255E+03  0.41953657775E+03  0.46999998093E+01 0.  1.
</event>
<event>
 5   0  0.2478000E-03  0.7945162E+03  0.7818609E-02  0.9567989E-01
       -3   -1    0    0    0  501  0.00000000000E+00  0.00000000000E+00  0.98439897960E+02  0.98439949774E+02  0.10100000352E+00 0.  1.
        3   -1    0    0  501    0  0.00000000000E+00  0.00000000000E+00 -0.16031501933E+04  0.16031501965E+04  0.10100000352E+00 0. -1.
    10030    2    1    2    0    0  0.00000000000E+00  0.00000000000E+00 -0.15047102954E+04  0.17015901463E+04  0.79451617538E+03 0.  0.
        1    1    3    3  502    0  0.29427870807E+03 -0.15137858912E+01 -0.13238706475E+04  0.13561842578E+04  0.50400001928E-02 0. -1.
       -1    1    3    3    0  502 -0.29427870807E+03  0.15137858912E+01 -0.18083964783E+03  0.34540588852E+03  0.50400001928E-02 0.  1.
</event>
<event>
 5   0  0.3671128E-03  0.7985247E+03  0.7818609E-02  0.9562155E-01
        1   -1    0    0  501    0  0.00000000000E+00  0.00000000000E+00  0.61567663008E+03  0.61567663010E+03  0.50400001928E-02 0. -1.
       -1   -1    0    0    0  501  0.00000000000E+00  0.00000000000E+00 -0.25891910404E+03  0.25891910409E+03  0.50400001928E-02 0.  1.
    10030    2    1    2    0    0  0.00000000000E+00  0.00000000000E+00  0.35675752604E+03  0.87459573419E+03  0.79852474344E+03 0.  0.
        2    1    3    3  502    0  0.15968466084E+03 -0.12026679200E+03  0.55691448666E+03  0.59170688489E+03  0.25500000920E-02 0. -1.
       -2    1    3    3    0  502 -0.15968466084E+03  0.12026679200E+03 -0.20015696063E+03  0.28288884930E+03  0.25500000920E-02 0.  1.
</event>
<event>
 5   0  0.2478000E-03  0.8000385E+03  0.7818609E-02  0.9559961E-01
        3   -1    0    0  501    0  0.00000000000E+00  0.00000000000E+00  0.10621819537E+03  0.10621824339E+03  0.10100000352E+00 0.  1.
       -3   -1    0    0    0  501  0.00000000000E+00  0.00000000000E+00 -0.15064777199E+04  0.15064777233E+04  0.10100000352E+00 0. -1.
    10030    2    1    2    0    0  0.00000000000E+00  0.00000000000E+00 -0.14002595245E+04  0.16126959666E+04  0.80003846462E+03 0.  0.
        5    1    3    3  502    0  0.17243416544E+03  0.28325975133E+03 -0.11509769854E+04  0.11978062193E+04  0.46999998093E+01 0. -1.
       -5    1    3    3    0  502 -0.17243416544E+03 -0.28325975133E+03 -0.24928253912E+03  0.41488974734E+03  0.46999998093E+01 0.  1.
</event>
<event>
 5   0  0.3671128E-03  0.7981775E+03  0.7818609E-02  0.9562659E-01
        1   -1    0    0  501    0  0.00000000000E+00  0.00000000000E+00  0.77738315246E+03  0.77738315248E+03  0.50400001928E-02 0.  1.
       -1   -1    0    0    0  501  0.00000000000E+00  0.00000000000E+00 -0.20488203952E+03  0.20488203958E+03  0.50400001928E-02 0. -1.
    10030    2    1    2    0    0  0.00000000000E+00  0.00000000000E+00  0.57250111294E+03  0.98226519206E+03  0.79817753866E+03 0.  0.
        2    1    3    3  502    0  0.17139663625E+03  0.34840419952E+03  0.17272788127E+03  0.42496730949E+03  0.25500000920E-02 0. -1.
       -2    1    3    3    0  502 -0.17139663625E+03 -0.34840419952E+03  0.39977323167E+03  0.55729788258E+03  0.25500000920E-02 0.  1.
</event>
<event>
 5   0  0.2478000E-03  0.7988572E+03  0.7818609E-02  0.9561673E-01
       -3   -1    0    0    0  501  0.00000000000E+00  0.00000000000E+00  0.27819800298E+03  0.27819802132E+03  0.10100000352E+00 0.  1.
        3   -1    0    0  501    0  0.00000000000E+00  0.00000000000E+00 -0.57348790606E+03  0.57348791496E+03  0.10100000352E+00 0. -1.
    10030    2    1    2    0    0  0.00000000000E+00  0.00000000000E+00 -0.29528990308E+03  0.85168593627E+03  0.79885718823E+03 0.  0.
        3    1    3    3  502    0  0.27565400815E+03 -0.15590010419E+03 -0.40716224021E+03  0.51582077775E+03  0.10100000352E+00 0. -1.
       -3    1    3    3    0  502 -0.27565400815E+03  0.15590010419E+03  0.11187233713E+03  0.33586515853E+03  0.10100000352E+00 0.  1.
</event>
<event>
 5   0  0.3753450E-03  0.8040670E+03  0.7818609E-02  0.9554149E-01
        1   -1    0    0  501    0  0.00000000000E+00  0.00000000000E+00  0.69988144333E+03  0.69988144335E+03  0.50400001928E-02 0. -1.
       -1   -1    0    0    0  501  0.00000000000E+00  0.00000000000E+00 -0.23094047199E+03  0.23094047205E+03  0.50400001928E-02 0.  1.
    10030    2    1    2    0    0  0.00000000000E+00  0.00000000000E+00  0.46894097134E+03  0.93082191539E+03  0.80406703923E+03 0.  0.
        5    1    3    3  502    0 -0.21777600994E+03 -0.31151453818E+03  0.82907036092E+02  0.38905444944E+03  0.46999998093E+01 0.  1.
       -5    1    3    3    0  502  0.21777600994E+03  0.31151453818E+03  0.38603393525E+03  0.54176746595E+03  0.46999998093E+01 0. -1.
</event>
<event>
 5   0  0.6153659E-03  0.7994856E+03  0.7818609E-02  0.9560762E-01
       -2   -1    0    0    0  501  0.00000000000E+00  0.00000000000E+00  0.13592026039E+03  0.13592026041E+03  0.25500000920E-02 0. -1.
        2   -1    0    0  501    0  0.00000000000E+00  0.00000000000E+00 -0.11756473669E+04  0.11756473669E+04  0.25500000920E-02 0.  1.
    10030    2    1    2    0    0  0.00000000000E+00  0.00000000000E+00 -0.10397271065E+04  0.13115676273E+04  0.79948557523E+03 0.  0.
        2    1    3    3  502    0  0.19685258282E+03 -0.31801743509E+03 -0.28839244340E+03  0.47228829099E+03  0.25500000920E-02 0. -1.
       -2    1    3    3    0  502 -0.19685258282E+03  0.31801743509E+03 -0.75133466313E+03  0.83927933634E+03  0.25500000920E-02 0.  1.
</event>
<event>
 5   0  0.3860515E-03  0.7997599E+03  0.7818609E-02  0.9560365E-01
       -1   -1    0    0    0  501  0.00000000000E+00  0.00000000000E+00  0.27065272494E+03  0.27065272499E+03  0.50400001928E-02 0.  1.
        1   -1    0    0  501    0  0.00000000000E+00  0.00000000000E+00 -0.59080862294E+03  0.59080862296E+03  0.50400001928E-02 0. -1.
    10030    2    1    2    0    0  0.00000000000E+00  0.00000000000E+00 -0.32015589800E+03  0.86146134795E+03  0.79975987333E+03 0.  0.
        4    1    3    3  502    0 -0.16321990133E+03 -0.28040167159E+03  0.91699999075E+02  0.33715921514E+03  0.12699999809E+01 0.  1.
       -4    1    3    3    0  502  0.16321990133E+03  0.28040167159E+03 -0.41185589707E+03  0.52430213281E+03  0.12699999809E+01 0. -1.
</event>
<event>
 5   0  0.3714448E-03  0.7987077E+03  0.7818609E-02  0.9561890E-01
       -1   -1    0    0    0  501  0.00000000000E+00  0.00000000000E+00  0.38916393716E+03  0.38916393720E+03  0.50400001928E-02 0.  1.
        1   -1    0    0  501    0  0.00000000000E+00  0.00000000000E+00 -0.40981053832E+03  0.40981053836E+03  0.50400001928E-02 0. -1.
    10030    2    1    2    0    0  0.00000000000E+00  0.00000000000E+00 -0.20646601161E+02  0.79897447555E+03  0.79870766269E+03 0.  0.
        1    1    3    3  502    0 -0.10308441830E+03  0.20482381923E+03 -0.33739473662E+03  0.40793921428E+03  0.50400001928E-02 0. -1.
       -1    1    3    3    0  502  0.10308441830E+03 -0.20482381923E+03  0.31674813546E+03  0.39103526128E+03  0.50400001928E-02 0.  1.
</event>
<event>
 5   0  0.3714448E-03  0.8183665E+03  0.7818609E-02  0.9533806E-01
       -1   -1    0    0    0  501  0.00000000000E+00  0.00000000000E+00  0.21383455582E+03  0.21383455588E+03  0.50400001928E-02 0. -1.
        1   -1    0    0  501    0  0.00000000000E+00  0.00000000000E+00 -0.78299277651E+03  0.78299277652E+03  0.50400001928E-02 0.  1.
    10030    2    1    2    0    0  0.00000000000E+00  0.00000000000E+00 -0.56915822069E+03  0.99682733241E+03  0.81836645243E+03 0.  0.
        1    1    3    3  502    0  0.24162420170E+03  0.18618140529E+03 -0.61679103561E+03  0.68809661543E+03  0.50400001928E-02 0.  1.
       -1    1    3    3    0  502 -0.24162420170E+03 -0.18618140529E+03  0.47632814928E+02  0.30873071698E+03  0.50400001928E-02 0. -1.
</event>
<event>
 5   0  0.2478000E-03  0.7993035E+03  0.7818609E-02  0.9561026E-01
        3   -1    0    0  501    0  0.00000000000E+00  0.00000000000E+00  0.24504731160E+03  0.24504733241E+03  0.10100000352E+00 0. -1.
       -3   -1    0    0    0  501  0.00000000000E+00  0.00000000000E+00 -0.65179871576E+03  0.65179872359E+03  0.10100000352E+00 0.  1.
    10030    2    1    2    0    0  0.00000000000E+00  0.00000000000E+00 -0.40675140417E+03  0.89684605600E+03  0.79930353644E+03 0.  0.
        4    1    3    3  502    0  0.19151201916E+03  0.33934401165E+03 -0.30303302058E+03  0.49362114641E+03  0.12699999809E+01 0.  1.
       -4    1    3    3    0  502 -0.19151201916E+03 -0.33934401165E+03 -0.10371838359E+03  0.40322490959E+03  0.12699999809E+01 0. -1.
</event>
<event>
 5   0  0.6337108E-03  0.7892296E+03  0.7818609E-02  0.9575739E-01
        2   -1    0    0  501    0  0.00000000000E+00  0.00000000000E+00  0.28017959950E+03  0.28017959951E+03  0.25500000920E-02 0. -1.
       -2   -1    0    0    0  501  0.00000000000E+00  0.00000000000E+00 -0.55578931498E+03  0.55578931499E+03  0.25500000920E-02 0.  1.
    10030    2    1    2    0    0  0.00000000000E+00  0.00000000000E+00 -0.27560971548E+03  0.83596891450E+03  0.78922956784E+03 0.  0.
        4    1    3    3  502    0  0.15423087770E+03 -0.20068691043E+03  0.18287313932E+03  0.31226046441E+03  0.12699999809E+01 0. -1.
       -4    1    3    3    0  502 -0.15423087770E+03  0.20068691043E+03 -0.45848285480E+03  0.52370845009E+03  0.12699999809E+01 0.  1.
</event>
<event>
 5   0  0.3714448E-03  0.7973584E+03  0.7818609E-02  0.9563849E-01
        1   -1    0    0  501    0  0.00000000000E+00  0.00000000000E+00  0.21672885271E+04  0.21672885271E+04  0.50400001928E-02 0.  1.
       -1   -1    0    0    0  501  0.00000000000E+00  0.00000000000E+00 -0.73338231169E+02  0.73338231342E+02  0.50400001928E-02 0. -1.
    10030    2    1    2    0    0  0.00000000000E+00  0.00000000000E+00  0.20939502959E+04  0.22406267584E+04  0.79735840676E+03 0.  0.
        1    1    3    3  502    0  0.24324848534E+03  0.31112517024E+03  0.12002822656E+04  0.12635846684E+04  0.50400001928E-02 0.  1.
       -1    1    3    3    0  502 -0.24324848534E+03 -0.31112517024E+03  0.89366803029E+03  0.97704208997E+03  0.50400001928E-02 0. -1.
</event>
<event>
 5   0  0.6337108E-03  0.7994104E+03  0.7818609E-02  0.9560871E-01
        2   -1    0    0  501    0  0.00000000000E+00  0.00000000000E+00  0.10034017083E+04  0.10034017083E+04  0.25500000920E-02 0. -1.
       -2   -1    0    0    0  501  0.00000000000E+00  0.00000000000E+00 -0.15922263679E+03  0.15922263682E+03  0.25500000920E-02 0.  1.
    10030    2    1    2    0    0  0.00000000000E+00  0.00000000000E+00  0.84417907148E+03  0.11626243451E+04  0.79941044719E+03 0.  0.
        4    1    3    3  502    0 -0.27787419443E+03  0.27560686664E+02  0.61626205859E+01  0.27930852148E+03  0.12699999809E+01 0.  1.
       -4    1    3    3    0  502  0.27787419443E+03 -0.27560686664E+02  0.83801645089E+03  0.88331582361E+03  0.12699999809E+01 0. -1.
</event>
<event>
 5   0  0.6536209E-03  0.7954444E+03  0.7818609E-02  0.9566635E-01
        2   -1    0    0  501    0  0.00000000000E+00  0.00000000000E+00  0.23143653482E+03  0.23143653484E+03  0.25500000920E-02 0.  1.
       -2   -1    0    0    0  501  0.00000000000E+00  0.00000000000E+00 -0.68348310872E+03  0.68348310872E+03  0.25500000920E-02 0. -1.
    10030    2    1    2    0    0  0.00000000000E+00  0.00000000000E+00 -0.45204657390E+03  0.91491964356E+03  0.79544443502E+03 0.  0.
        3    1    3    3  502    0 -0.78318727469E+02 -0.38622554176E+03 -0.16430826132E+03  0.42696745440E+03  0.10100000352E+00 0. -1.
       -3    1    3    3    0  502  0.78318727469E+02  0.38622554176E+03 -0.28773831257E+03  0.48795218916E+03  0.10100000352E+00 0.  1.
</event>
<event>
 5   0  0.6256781E-03  0.7966325E+03  0.7818609E-02  0.9564904E-01
       -2   -1    0    0    0  501  0.00000000000E+00  0.00000000000E+00  0.15177929368E+03  0.15177929370E+03  0.25500000920E-02 0. -1.
        2   -1    0    0  501    0  0.00000000000E+00  0.00000000000E+00 -0.10453061001E+04  0.10453061001E+04  0.25500000920E-02 0.  1.
    10030    2    1    2    0    0  0.00000000000E+00  0.00000000000E+00 -0.89352680645E+03  0.11970853938E+04  0.79663246626E+03 0.  0.
        1    1    3    3  502    0  0.22628334941E+03  0.30651657092E+03 -0.27217230523E+03  0.46822465359E+03  0.50400001928E-02 0.  1.
       -1    1    3    3    0  502 -0.22628334941E+03 -0.30651657092E+03 -0.62135450122E+03  0.72886074025E+03  0.50400001928E-02 0. -1.
</event>
<event>
 5   0  0.6337108E-03  0.7963430E+03  0.7818609E-02  0.9565326E-01
        2   -1    0    0  501    0  0.00000000000E+00  0.00000000000E+00  0.13609161413E+04  0.13609161413E+04  0.25500000920E-02 0. -1.
       -2   -1    0    0    0  501  0.00000000000E+00  0.00000000000E+00 -0.11649546542E+03  0.11649546545E+03  0.25500000920E-02 0.  1.
    10030    2    1    2    0    0  0.00000000000E+00  0.00000000000E+00  0.12444206759E+04  0.14774116068E+04  0.79634303993E+03 0.  0.
        4    1    3    3  502    0  0.12803800320E+03 -0.21151925359E+03  0.43193030641E+02  0.25100074840E+03  0.12699999809E+01 0.  1.
       -4    1    3    3    0  502 -0.12803800320E+03  0.21151925359E+03  0.12012276453E+04  0.12264108584E+04  0.12699999809E+01 0. -1.
</event>
<event>
 5   0  0.3714448E-03  0.8042429E+03  0.7818609E-02  0.9553896E-01
       -1   -1    0    0    0  501  0.00000000000E+00  0.00000000000E+00  0.33921330100E+03  0.33921330104E+03  0.50400001928E-02 0. -1.
        1   -1    0    0  501    0  0.00000000000E+00  0.00000000000E+00 -0.47669605019E+03  0.47669605022E+03  0.50400001928E-02 0.  1.
    10030    2    1    2    0    0  0.00000000000E+00  0.00000000000E+00 -0.13748274919E+03  0.81590935126E+03  0.80424285086E+03 0.  0.
        1    1    3    3  502    0 -0.52922838954E+02  0.28324738258E+03 -0.35329496077E+03  0.45590266061E+03  0.50400001928E-02 0.  1.
       -1    1    3    3    0  502  0.52922838954E+02 -0.28324738258E+03  0.21581221158E+03  0.36000669065E+03  0.50400001928E-02 0. -1.
</event>
<event>
 5   0  0.6536209E-03  0.8040203E+03  0.7818609E-02  0.9554216E-01
       -2   -1    0    0    0  501  0.00000000000E+00  0.00000000000E+00  0.18910231485E+03  0.18910231487E+03  0.25500000920E-02 0. -1.
        2   -1    0    0  501    0  0.00000000000E+00  0.00000000000E+00 -0.85462820229E+03  0.85462820229E+03  0.25500000920E-02 0.  1.
    10030    2    1    2    0    0  0.00000000000E+00  0.00000000000E+00 -0.66552588744E+03  0.10437305172E+04  0.80402032661E+03 0.  0.
        3    1    3    3  502    0 -0.32607297001E+03 -0.14221403413E+03 -0.57584366769E+03  0.67686361484E+03  0.10100000352E+00 0.  1.
       -3    1    3    3    0  502  0.32607297001E+03  0.14221403413E+03 -0.89682219753E+02  0.36686690232E+03  0.10100000352E+00 0. -1.
</event>
<event>
 5   0  0.3714448E-03  0.8030090E+03  0.7818609E-02  0.9555672E-01
        1   -1    0    0  501    0  0.00000000000E+00  0.00000000000E+00  0.94257829699E+03  0.94257829701E+03  0.50400001928E-02 0. -1.
       -1   -1    0    0    0  501  0.00000000000E+00  0.00000000000E+00 -0.17102649438E+03  0.17102649445E+03  0.50400001928E-02 0.  1.
    10030    2    1    2    0    0  0.00000000000E+00  0.00000000000E+00  0.77155180262E+03  0.11136047915E+04  0.80300899586E+03 0.  0.
        1    1    3    3  502    0 -0.12328320140E+03 -0.15626310589E+03  0.86934411392E+03  0.89183860336E+03  0.50400001928E-02 0. -1.
       -1    1    3    3    0  502  0.12328320140E+03  0.15626310589E+03 -0.97792311300E+02  0.22176618810E+03  0.50400001928E-02 0.  1.
</event>
<event>
 5   0  0.6337108E-03  0.8156957E+03  0.7818609E-02  0.9537572E-01
       -2   -1    0    0    0  501  0.00000000000E+00  0.00000000000E+00  0.41306542260E+03  0.41306542261E+03  0.25500000920E-02 0.  1.
        2   -1    0    0  501    0  0.00000000000E+00  0.00000000000E+00 -0.40269617234E+03  0.40269617234E+03  0.25500000920E-02 0. -1.
    10030    2    1    2    0    0  0.00000000000E+00  0.00000000000E+00  0.10369250266E+02  0.81576159496E+03  0.81569568986E+03 0.  0.
        4    1    3    3  502    0 -0.40530606069E+03 -0.20042704664E+02 -0.35605173805E+02  0.40736231311E+03  0.12699999809E+01 0. -1.
       -4    1    3    3    0  502  0.40530606069E+03  0.20042704664E+02  0.45974424071E+02  0.40839928184E+03  0.12699999809E+01 0.  1.
</event>
<event>
 5   0  0.6153659E-03  0.7953801E+03  0.7818609E-02  0.9566728E-01
       -2   -1    0    0    0  501  0.00000000000E+00  0.00000000000E+00  0.29281084120E+03  0.29281084121E+03  0.25500000920E-02 0. -1.
        2   -1    0    0  501    0  0.00000000000E+00  0.00000000000E+00 -0.54013496290E+03  0.54013496290E+03  0.25500000920E-02 0.  1.
    10030    2    1    2    0    0  0.00000000000E+00  0.00000000000E+00 -0.24732412170E+03  0.83294580411E+03  0.79538009242E+03 0.  0.
        2    1    3    3  502    0  0.24862969131E+03 -0.30824907317E+03 -0.16175530294E+03  0.42778381520E+03  0.25500000920E-02 0.  1.
       -2    1    3    3    0  502 -0.24862969131E+03  0.30824907317E+03 -0.85568818758E+02  0.40516198891E+03  0.25500000920E-02 0. -1.
</event>
<event>
 5   0  0.6256781E-03  0.7984597E+03  0.7818609E-02  0.9562249E-01
       -2   -1    0    0    0  501  0.00000000000E+00  0.00000000000E+00  0.18562656233E+03  0.18562656234E+03  0.25500000920E-02 0.  1.
        2   -1    0    0  501    0  0.00000000000E+00  0.00000000000E+00 -0.85862970672E+03  0.85862970672E+03  0.25500000920E-02 0. -1.
    10030    2    1    2    0    0  0.00000000000E+00  0.00000000000E+00 -0.67300314439E+03  0.10442562691E+04  0.79845971916E+03 0.  0.
        1    1    3    3  502    0 -0.10885987117E+02 -0.39176234212E+03 -0.43600257774E+03  0.58625462492E+03  0.50400001928E-02 0.  1.
       -1    1    3    3    0  502  0.10885987117E+02  0.39176234212E+03 -0.23700056665E+03  0.45800164414E+03  0.50400001928E-02 0. -1.
</event>
<event>
 5   0  0.6536209E-03  0.8014401E+03  0.7818609E-02  0.9557935E-01
        2   -1    0    0  501    0  0.00000000000E+00  0.00000000000E+00  0.14305854182E+04  0.14305854182E+04  0.25500000920E-02 0.  1.
       -2   -1    0    0    0  501  0.00000000000E+00  0.00000000000E+00 -0.11224534252E+03  0.11224534255E+03  0.25500000920E-02 0. -1.
    10030    2    1    2    0    0  0.00000000000E+00  0.00000000000E+00  0.13183400757E+04  0.15428307607E+04  0.80144007959E+03 0.  0.
        3    1    3    3  502    0 -0.23533968981E+03  0.65227180941E+02  0.47562503474E+02  0.24880023447E+03  0.10100000352E+00 0. -1.
       -3    1    3    3    0  502  0.23533968981E+03 -0.65227180941E+02  0.12707775722E+04  0.12940305263E+04  0.10100000352E+00 0.  1.
</event>
<event>
 5   0  0.2478000E-03  0.8007842E+03  0.7818609E-02  0.9558883E-01
       -3   -1    0    0    0  501  0.00000000000E+00  0.00000000000E+00  0.12713997183E+04  0.12713997223E+04  0.10100000352E+00 0.  1.
        3   -1    0    0  501    0  0.00000000000E+00  0.00000000000E+00 -0.12609236923E+03  0.12609240968E+03  0.10100000352E+00 0. -1.
    10030    2    1    2    0    0  0.00000000000E+00  0.00000000000E+00  0.11453073490E+04  0.13974921319E+04  0.80078420008E+03 0.  0.
        4    1    3    3  502    0 -0.26758531071E+03 -0.25003726869E+03  0.29022056418E+03  0.46727949133E+03  0.12699999809E+01 0. -1.
       -4    1    3    3    0  502  0.26758531071E+03  0.25003726869E+03  0.85508678485E+03  0.93021264062E+03  0.12699999809E+01 0.  1.
</event>
<event>
 5   0  0.6153659E-03  0.8036317E+03  0.7818609E-02  0.9554775E-01
        2   -1    0    0  501    0  0.00000000000E+00  0.00000000000E+00  0.58407336819E+03  0.58407336819E+03  0.25500000920E-02 0.  1.
       -2   -1    0    0    0  501  0.00000000000E+00  0.00000000000E+00 -0.27643098850E+03  0.27643098851E+03  0.25500000920E-02 0. -1.
    10030    2    1    2    0    0  0.00000000000E+00  0.00000000000E+00  0.30764237968E+03  0.86050435670E+03  0.80363170304E+03 0.  0.
        2    1    3    3  502    0  0.20304644168E+03  0.22495631049E+03  0.43635582258E+03  0.53126227328E+03  0.25500000920E-02 0.  1.
       -2    1    3    3    0  502 -0.20304644168E+03 -0.22495631049E+03 -0.12871344289E+03  0.32924208342E+03  0.25500000920E-02 0. -1.
</event>
<event>
 5   0  0.3671128E-03  0.8016506E+03  0.7818609E-02  0.9557631E-01
        1   -1    0    0  501    0  0.00000000000E+00  0.00000000000E+00  0.12670507610E+04  0.12670507610E+04  0.50400001928E-02 0. -1.
       -1   -1    0    0    0  501  0.00000000000E+00  0.00000000000E+00 -0.12679910529E+03  0.12679910539E+03  0.50400001928E-02 0.  1.
    10030    2    1    2    0    0  0.00000000000E+00  0.00000000000E+00  0.11402516557E+04  0.13938498664E+04  0.80165055460E+03 0.  0.
        2    1    3    3  502    0  0.20040374799E+03 -0.14439575633E+03  0.11189934399E+04  0.11459311128E+04  0.25500000920E-02 0. -1.
       -2    1    3    3    0  502 -0.20040374799E+03  0.14439575633E+03  0.21258215816E+02  0.24791875363E+03  0.25500000920E-02 0.  1.
</event>
<event>
 5   0  0.3671128E-03  0.7987219E+03  0.7818609E-02  0.9561869E-01
       -1   -1    0    0    0  501  0.00000000000E+00  0.00000000000E+00  0.25569151025E+03  0.25569151030E+03  0.50400001928E-02 0. -1.
        1   -1    0    0  501    0  0.00000000000E+00  0.00000000000E+00 -0.62375618667E+03  0.62375618669E+03  0.50400001928E-02 0.  1.
    10030    2    1    2    0    0  0.00000000000E+00  0.00000000000E+00 -0.36806467642E+03  0.87944769699E+03  0.79872188258E+03 0.  0.
        2    1    3    3  502    0 -0.48135184703E+02 -0.30526510433E+03  0.94486653838E+02  0.32315864168E+03  0.25500000920E-02 0. -1.
       -2    1    3    3    0  502  0.48135184703E+02  0.30526510433E+03 -0.46255133026E+03  0.55628905531E+03  0.25500000920E-02 0.  1.
</event>
<event>
 5   0  0.3860515E-03  0.8008936E+03  0.7818609E-02  0.9558725E-01
        1   -1    0    0  501    0  0.00000000000E+00  0.00000000000E+00  0.36859349229E+03  0.36859349233E+03  0.50400001928E-02 0. -1.
       -1   -1    0    0    0  501  0.00000000000E+00  0.00000000000E+00 -0.43505280414E+03  0.43505280417E+03  0.50400001928E-02 0.  1.
    10030    2    1    2    0    0  0.00000000000E+00  0.00000000000E+00 -0.66459311846E+02  0.80364629650E+03  0.80089358204E+03 0.  0.
        4    1    3    3  502    0 -0.15521550360E+03 -0.25339601269E+03  0.23612288301E+03  0.37954844300E+03  0.12699999809E+01 0. -1.
       -4    1    3    3    0  502  0.15521550360E+03  0.25339601269E+03 -0.30258219485E+03  0.42409785350E+03  0.12699999809E+01 0.  1.
</event>
<event>
 5   0  0.3753450E-03  0.7995149E+03  0.7818609E-02  0.9560719E-01
        1   -1    0    0  501    0  0.00000000000E+00  0.00000000000E+00  0.15013766306E+04  0.15013766306E+04  0.50400001928E-02 0.  1.
       -1   -1    0    0    0  501  0.00000000000E+00  0.00000000000E+00 -0.10643967003E+03  0.10643967015E+03  0.50400001928E-02 0. -1.
    10030    2    1    2    0    0  0.00000000000E+00  0.00000000000E+00  0.13949369606E+04  0.16078163008E+04  0.79951493607E+03 0.  0.
        5    1    3    3  502    0 -0.42046408682E+02  0.83289103289E+02 -0.84180653360E+02  0.12575153124E+03  0.46999998093E+01 0. -1.
       -5    1    3    3    0  502  0.42046408682E+02 -0.83289103289E+02  0.14791176139E+04  0.14820647695E+04  0.46999998093E+01 0.  1.
</event>
<event>
 5   0  0.3753450E-03  0.7998080E+03  0.7818609E-02  0.9560295E-01
       -1   -1    0    0    0  501  0.00000000000E+00  0.00000000000E+00  0.87851355022E+02  0.87851355166E+02  0.50400001928E-02 0. -1.
        1   -1    0    0  501    0  0.00000000000E+00  0.00000000000E+00 -0.18203840678E+04  0.18203840678E+04  0.50400001928E-02 0.  1.
    10030    2    1    2    0    0  0.00000000000E+00  0.00000000000E+00 -0.17325327128E+04  0.19082354230E+04  0.79980799487E+03 0.  0.
        5    1    3    3  502    0 -0.34162900164E+03 -0.14908702727E+03 -0.52081951695E+03  0.64047823983E+03  0.46999998093E+01 0. -1.
       -5    1    3    3    0  502  0.34162900164E+03  0.14908702727E+03 -0.12117131959E+04  0.12677571832E+04  0.46999998093E+01 0.  1.
</event>
<event>
 5   0  0.6536209E-03  0.8063490E+03  0.7818609E-02  0.9550872E-01
        2   -1    0    0  501    0  0.00000000000E+00  0.00000000000E+00  0.12682997488E+04  0.12682997488E+04  0.25500000920E-02 0. -1.
       -2   -1    0    0    0  501  0.00000000000E+00  0.00000000000E+00 -0.12816345285E+03  0.12816345287E+03  0.25500000920E-02 0.  1.
    10030    2    1    2    0    0  0.00000000000E+00  0.00000000000E+00  0.11401362960E+04  0.13964632017E+04  0.80634899411E+03 0.  0.
        3    1    3    3  502    0 -0.23302049229E+03  0.52898570273E+02  0.76806970092E+01  0.23907281709E+03  0.10100000352E+00 0.  1.
       -3    1    3    3    0  502  0.23302049229E+03 -0.52898570273E+02  0.11324555990E+04  0.11573903846E+04  0.10100000352E+00 0. -1.
</event>
<event>
 5   0  0.6536209E-03  0.8087069E+03  0.7818609E-02  0.9547499E-01
        2   -1    0    0  501    0  0.00000000000E+00  0.00000000000E+00  0.16508932033E+03  0.16508932035E+03  0.25500000920E-02 0. -1.
       -2   -1    0    0    0  501  0.00000000000E+00  0.00000000000E+00 -0.99038333892E+03  0.99038333893E+03  0.25500000920E-02 0.  1.
    10030    2    1    2    0    0  0.00000000000E+00  0.00000000000E+00 -0.82529401859E+03  0.11554726593E+04  0.80870689945E+03 0.  0.
        3    1    3    3  502    0  0.21711821914E+03  0.30180047122E+03 -0.63981055992E+03  0.73998743793E+03  0.10100000352E+00 0.  1.
       -3    1    3    3    0  502 -0.21711821914E+03 -0.30180047122E+03 -0.18548345867E+03  0.41548522134E+03  0.10100000352E+00 0. -1.
</event>
<event>
 5   0  0.3753450E-03  0.8004759E+03  0.7818609E-02  0.9559329E-01
        1   -1    0    0  501    0  0.00000000000E+00  0.00000000000E+00  0.75096928024E+03  0.75096928026E+03  0.50400001928E-02 0.  1.
       -1   -1    0    0    0  501  0.00000000000E+00  0.00000000000E+00 -0.21331153140E+03  0.21331153146E+03  0.50400001928E-02 0. -1.
    10030    2    1    2    0    0  0.00000000000E+00  0.00000000000E+00  0.53765774884E+03  0.96428081171E+03  0.80047587656E+03 0.  0.
        5    1    3    3  502    0  0.25950118264E+03  0.25808284159E+02 -0.96875179743E+02  0.27823339442E+03  0.46999998093E+01 0. -1.
       -5    1    3    3    0  502 -0.25950118264E+03 -0.25808284159E+02  0.63453292858E+03  0.68604741730E+03  0.46999998093E+01 0.  1.
</event>
<event>
 5   0  0.6256781E-03  0.8007505E+03  0.7818609E-02  0.9558931E-01
        2   -1    0    0  501    0  0.00000000000E+00  0.00000000000E+00  0.62967667452E+03  0.62967667452E+03  0.25500000920E-02 0.  1.
       -2   -1    0    0    0  501  0.00000000000E+00  0.00000000000E+00 -0.25457564910E+03  0.25457564911E+03  0.25500000920E-02 0. -1.
    10030    2    1    2    0    0  0.00000000000E+00  0.00000000000E+00  0.37510102542E+03  0.88425232364E+03  0.80075051832E+03 0.  0.
        1    1    3    3  502    0 -0.10816506711E+03  0.11769951755E+03 -0.21780802374E+03  0.27017252526E+03  0.50400001928E-02 0. -1.
       -1    1    3    3    0  502  0.10816506711E+03 -0.11769951755E+03  0.59290904916E+03  0.61407979838E+03  0.50400001928E-02 0.  1.
</event>
<event>
 5   0  0.3671128E-03  0.8015596E+03  0.7818609E-02  0.9557762E-01
       -1   -1    0    0    0  501  0.00000000000E+00  0.00000000000E+00  0.22062333186E+03  0.22062333192E+03  0.50400001928E-02 0.  1.
        1   -1    0    0  501    0  0.00000000000E+00  0.00000000000E+00 -0.72804837632E+03  0.72804837634E+03  0.50400001928E-02 0. -1.
    10030    2    1    2    0    0  0.00000000000E+00  0.00000000000E+00 -0.50742504446E+03  0.94867170826E+03  0.80155962617E+03 0.  0.
        2    1    3    3  502    0 -0.31216029567E+03  0.15166708716E+03 -0.49094360242E+03  0.60122589456E+03  0.25500000920E-02 0. -1.
       -2    1    3    3    0  502  0.31216029567E+03 -0.15166708716E+03 -0.16481442036E+02  0.34744581370E+03  0.25500000920E-02 0.  1.
</event>
<event>
 5   0  0.6536209E-03  0.8024791E+03  0.7818609E-02  0.9556436E-01
       -2   -1    0    0    0  501  0.00000000000E+00  0.00000000000E+00  0.50364754434E+03  0.50364754435E+03  0.25500000920E-02 0.  1.
        2   -1    0    0  501    0  0.00000000000E+00  0.00000000000E+00 -0.31965443734E+03  0.31965443735E+03  0.25500000920E-02 0. -1.
    10030    2    1    2    0    0  0.00000000000E+00  0.00000000000E+00  0.18399310700E+03  0.82330198170E+03  0.80247908985E+03 0.  0.
        3    1    3    3  502    0  0.35547380213E+03 -0.94514616259E+01  0.28267450781E+03  0.45426406604E+03  0.10100000352E+00 0.  1.
       -3    1    3    3    0  502 -0.35547380213E+03  0.94514616259E+01 -0.98681400810E+02  0.36903791566E+03  0.10100000352E+00 0. -1.
</event>
<event>
 5   0  0.6337108E-03  0.7962267E+03  0.7818609E-02  0.9565495E-01
       -2   -1    0    0    0  501  0.00000000000E+00  0.00000000000E+00  0.15928970057E+03  0.15928970059E+03  0.25500000920E-02 0.  1.
        2   -1    0    0  501    0  0.00000000000E+00  0.00000000000E+00 -0.99500631117E+03  0.99500631117E+03  0.25500000920E-02 0. -1.
    10030    2    1    2    0    0  0.00000000000E+00  0.00000000000E+00 -0.83571661060E+03  0.11542960118E+04  0.79622674505E+03 0.  0.
        4    1    3    3  502    0 -0.26503214924E+03  0.15845235549E+03 -0.78214608757E+03  0.84089434787E+03  0.12699999809E+01 0. -1.
       -4    1    3    3    0  502  0.26503214924E+03 -0.15845235549E+03 -0.53570523038E+02  0.31340166389E+03  0.12699999809E+01 0.  1.
</event>
<event>
 5   0  0.5813850E-03  0.8010412E+03  0.7818609E-02  0.9558511E-01
       -2   -1    0    0    0  501  0.00000000000E+00  0.00000000000E+00  0.15811610563E+03  0.15811610565E+03  0.25500000920E-02 0. -1.
        2   -1    0    0  501    0  0.00000000000E+00  0.00000000000E+00 -0.10145504602E+04  0.10145504602E+04  0.25500000920E-02 0.  1.
    10030    2    1    2    0    0  0.00000000000E+00  0.00000000000E+00 -0.85643435459E+03  0.11726665659E+04  0.80104124176E+03 0.  0.
        5    1    3    3  502    0  0.17000364911E+03  0.19057442628E+03 -0.87984502225E+03  0.91617094794E+03  0.46999998093E+01 0.  1.
       -5    1    3    3    0  502 -0.17000364911E+03 -0.19057442628E+03  0.23410667665E+02  0.25649561794E+03  0.46999998093E+01 0. -1.
</event>
<event>
 5   0  0.3714448E-03  0.7976814E+03  0.7818609E-02  0.9563379E-01
       -1   -1    0    0    0  501  0.00000000000E+00  0.00000000000E+00  0.23570793684E+03  0.23570793690E+03  0.50400001928E-02 0.  1.
        1   -1    0    0  501    0  0.00000000000E+00  0.00000000000E+00 -0.67487714735E+03  0.67487714737E+03  0.50400001928E-02 0. -1.
    10030    2    1    2    0    0  0.00000000000E+00  0.00000000000E+00 -0.43916921051E+03  0.91058508427E+03  0.79768139018E+03 0.  0.
        1    1    3    3  502    0 -0.39216319493E+02  0.28069730414E+03 -0.53991826542E+03  0.60978736427E+03  0.50400001928E-02 0. -1.
       -1    1    3    3    0  502  0.39216319493E+02 -0.28069730414E+03  0.10074905491E+03  0.30079772000E+03  0.50400001928E-02 0.  1.
</event>
<event>
 5   0  0.2478000E-03  0.7990580E+03  0.7818609E-02  0.9561382E-01
        3   -1    0    0  501    0  0.00000000000E+00  0.00000000000E+00  0.17296804130E+03  0.17296807079E+03  0.10100000352E+00 0.  1.
       -3   -1    0    0    0  501  0.00000000000E+00  0.00000000000E+00 -0.92284915954E+03  0.92284916507E+03  0.10100000352E+00 0. -1.
    10030    2    1    2    0    0  0.00000000000E+00  0.00000000000E+00 -0.74988111824E+03  0.10958172359E+04  0.79905802225E+03 0.  0.
        3    1    3    3  502    0  0.15726303870E+03 -0.22865320779E+03  0.19221413810E+02  0.27817876577E+03  0.10100000352E+00 0.  1.
       -3    1    3    3    0  502 -0.15726303870E+03  0.22865320779E+03 -0.76910253205E+03  0.81763847009E+03  0.10100000352E+00 0. -1.
</event>
<event>
 5   0  0.3714448E-03  0.8027987E+03  0.7818609E-02  0.9555975E-01
        1   -1    0    0  501    0  0.00000000000E+00  0.00000000000E+00  0.11424894961E+04  0.11424894961E+04  0.50400001928E-02 0.  1.
       -1   -1    0    0    0  501  0.00000000000E+00  0.00000000000E+00 -0.14102660939E+03  0.14102660948E+03  0.50400001928E-02 0. -1.
    10030    2    1    2    0    0  0.00000000000E+00  0.00000000000E+00  0.10014628867E+04  0.12835161056E+04  0.80279865461E+03 0.  0.
        1    1    3    3  502    0  0.39802546262E+03  0.51765281173E+02  0.50742099361E+03  0.64697757149E+03  0.50400001928E-02 0. -1.
       -1    1    3    3    0  502 -0.39802546262E+03 -0.51765281173E+02  0.49404189310E+03  0.63653853410E+03  0.50400001928E-02 0.  1.
</event>
<event>
 5   0  0.3860515E-03  0.7990757E+03  0.7818609E-02  0.9561356E-01
        1   -1    0    0  501    0  0.00000000000E+00  0.00000000000E+00  0.88192939398E+03  0.88192939399E+03  0.50400001928E-02 0.  1.
       -1   -1    0    0    0  501  0.00000000000E+00  0.00000000000E+00 -0.18100144026E+03  0.18100144033E+03  0.50400001928E-02 0. -1.
    10030    2    1    2    0    0  0.00000000000E+00  0.00000000000E+00  0.70092795372E+03  0.10629308343E+04  0.79907569244E+03 0.  0.
        4    1    3    3  502    0 -0.30690020358E+03  0.20910373210E+03  0.15443750613E+03  0.40219977864E+03  0.12699999809E+01 0. -1.
       -4    1    3    3    0  502  0.30690020358E+03 -0.20910373210E+03  0.54649044759E+03  0.66073105568E+03  0.12699999809E+01 0.  1.
</event>
<event>
 5   0  0.3627496E-03  0.7996328E+03  0.7818609E-02  0.9560549E-01
        1   -1    0    0  501    0  0.00000000000E+00  0.00000000000E+00  0.50914202520E+03  0.50914202523E+03  0.50400001928E-02 0. -1.
       -1   -1    0    0    0  501  0.00000000000E+00  0.00000000000E+00 -0.31396571505E+03  0.31396571509E+03  0.50400001928E-02 0.  1.
    10030    2    1    2    0    0  0.00000000000E+00  0.00000000000E+00  0.19517631015E+03  0.82310774032E+03  0.79963276579E+03 0.  0.
        3    1    3    3  502    0  0.36164099325E+03 -0.69499218732E+02 -0.62670497337E+02  0.37355314326E+03  0.10100000352E+00 0.  1.
       -3    1    3    3    0  502 -0.36164099325E+03  0.69499218732E+02  0.25784680749E+03  0.44955459706E+03  0.10100000352E+00 0. -1.
</event>
<event>
 5   0  0.6536209E-03  0.7794960E+03  0.7818609E-02  0.9590179E-01
       -2   -1    0    0    0  501  0.00000000000E+00  0.00000000000E+00  0.20259615471E+03  0.20259615473E+03  0.25500000920E-02 0.  1.
        2   -1    0    0  501    0  0.00000000000E+00  0.00000000000E+00 -0.74978479241E+03  0.74978479241E+03  0.25500000920E-02 0. -1.
    10030    2    1    2    0    0  0.00000000000E+00  0.00000000000E+00 -0.54718863770E+03  0.95238094714E+03  0.77949603158E+03 0.  0.
        3    1    3    3  502    0 -0.41639461157E+02  0.55723520245E+02  0.19495012200E+03  0.20698916808E+03  0.10100000352E+00 0.  1.
       -3    1    3    3    0  502  0.41639461157E+02 -0.55723520245E+02 -0.74213875970E+03  0.74539177905E+03  0.10100000352E+00 0. -1.
</event>
<event>
 5   0  0.3671128E-03  0.7970389E+03  0.7818609E-02  0.9564313E-01
        1   -1    0    0  501    0  0.00000000000E+00  0.00000000000E+00  0.11133168099E+04  0.11133168099E+04  0.50400001928E-02 0.  1.
       -1   -1    0    0    0  501  0.00000000000E+00  0.00000000000E+00 -0.14265279467E+03  0.14265279476E+03  0.50400001928E-02 0. -1.
    10030    2    1    2    0    0  0.00000000000E+00  0.00000000000E+00  0.97066401519E+03  0.12559696046E+04  0.79703890582E+03 0.  0.
        2    1    3    3  502    0  0.78997210058E+02 -0.13313380609E+03  0.10639997132E+04  0.10752025666E+04  0.25500000920E-02 0.  1.
       -2    1    3    3    0  502 -0.78997210058E+02  0.13313380609E+03 -0.93335697992E+02  0.18076703806E+03  0.25500000920E-02 0. -1.
</event>
<event>
 5   0  0.3860515E-03  0.8004567E+03  0.7818609E-02  0.9559356E-01
        1   -1    0    0  501    0  0.00000000000E+00  0.00000000000E+00  0.50104799347E+03  0.50104799350E+03  0.50400001928E-02 0. -1.
       -1   -1    0    0    0  501  0.00000000000E+00  0.00000000000E+00 -0.31969541549E+03  0.31969541553E+03  0.50400001928E-02 0.  1.
    10030    2    1    2    0    0  0.00000000000E+00  0.00000000000E+00  0.18135257798E+03  0.82074340903E+03  0.80045673582E+03 0.  0.
        4    1    3    3  502    0 -0.13240577653E+03  0.14353360027E+03  0.44888387912E+03  0.48952173997E+03  0.12699999809E+01 0. -1.
       -4    1    3    3    0  502  0.13240577653E+03 -0.14353360027E+03 -0.26753130114E+03  0.33122166906E+03  0.12699999809E+01 0.  1.
</event>
<event>
 5   0  0.3627496E-03  0.7982395E+03  0.7818609E-02  0.9562569E-01
        1   -1    0    0  501    0  0.00000000000E+00  0.00000000000E+00  0.30639277380E+03  0.30639277384E+03  0.50400001928E-02 0.  1.
       -1   -1    0    0    0  501  0.00000000000E+00  0.00000000000E+00 -0.51990974917E+03  0.51990974920E+03  0.50400001928E-02 0. -1.
    10030    2    1    2    0    0  0.00000000000E+00  0.00000000000E+00 -0.21351697537E+03  0.82630252303E+03  0.79823953848E+03 0.  0.
        3    1    3    3  502    0 -0.94678963685E+02 -0.38764051381E+03 -0.11525092525E+03  0.41534571153E+03  0.10100000352E+00 0. -1.
       -3    1    3    3    0  502  0.94678963685E+02  0.38764051381E+03 -0.98266050127E+02  0.41095681151E+03  0.10100000352E+00 0.  1.
</event>
<event>
 5   0  0.3860515E-03  0.7984366E+03  0.7818609E-02  0.9562283E-01
       -1   -1    0    0    0  501  0.00000000000E+00  0.00000000000E+00  0.64488561223E+02  0.64488561420E+02  0.50400001928E-02 0.  1.
        1   -1    0    0  501    0  0.00000000000E+00  0.00000000000E+00 -0.24713723906E+04  0.24713723906E+04  0.50400001928E-02 0. -1.
    10030    2    1    2    0    0  0.00000000000E+00  0.00000000000E+00 -0.24068838294E+04  0.25358609520E+04  0.79843659729E+03 0.  0.
        4    1    3    3  502    0 -0.76109434495E+02  0.38601773889E+03 -0.14181778302E+04  0.14717446489E+04  0.12699999809E+01 0. -1.
       -4    1    3    3    0  502  0.76109434495E+02 -0.38601773889E+03 -0.98870599918E+03  0.10641163031E+04  0.12699999809E+01 0.  1.
</event>
<event>
 5   0  0.6153659E-03  0.8155940E+03  0.7818609E-02  0.9537716E-01
       -2   -1    0    0    0  501  0.00000000000E+00  0.00000000000E+00  0.68105798851E+03  0.68105798851E+03  0.25500000920E-02 0.  1.
        2   -1    0    0  501    0  0.00000000000E+00  0.00000000000E+00 -0.24417655261E+03  0.24417655263E+03  0.25500000920E-02 0. -1.
    10030    2    1    2    0    0  0.00000000000E+00  0.00000000000E+00  0.43688143589E+03  0.92523454114E+03  0.81559399648E+03 0.  0.
        2    1    3    3  502    0 -0.33032148421E+03 -0.51055723252E+02  0.48346903771E+03  0.58775954287E+03  0.25500000920E-02 0.  1.
       -2    1    3    3    0  502  0.33032148421E+03  0.51055723252E+02 -0.46587601817E+02  0.33747499827E+03  0.25500000920E-02 0. -1.
</event>
<event>
 5   0  0.5813850E-03  0.7989167E+03  0.7818609E-02  0.9561586E-01
        2   -1    0    0  501    0  0.00000000000E+00  0.00000000000E+00  0.23061617990E+03  0.23061617992E+03  0.25500000920E-02 0.  1.
       -2   -1    0    0    0  501  0.00000000000E+00  0.00000000000E+00 -0.69191576315E+03  0.69191576316E+03  0.25500000920E-02 0. -1.
    10030    2    1    2    0    0  0.00000000000E+00  0.00000000000E+00 -0.46129958325E+03  0.92253194307E+03  0.79891669183E+03 0.  0.
        5    1    3    3  502    0 -0.10517119729E+03  0.35684823917E+03 -0.39855556196E+03  0.54522497422E+03  0.46999998093E+01 0. -1.
       -5    1    3    3    0  502  0.10517119729E+03 -0.35684823917E+03 -0.62744021284E+02  0.37730696885E+03  0.46999998093E+01 0.  1.
</event>
<event>
 5   0  0.6536209E-03  0.8021804E+03  0.7818609E-02  0.9556866E-01
        2   -1    0    0  501    0  0.00000000000E+00  0.00000000000E+00  0.12569242222E+04  0.12569242222E+04  0.25500000920E-02 0. -1.
       -2   -1    0    0    0  501  0.00000000000E+00  0.00000000000E+00 -0.12798968137E+03  0.12798968139E+03  0.25500000920E-02 0.  1.
    10030    2    1    2    0    0  0.00000000000E+00  0.00000000000E+00  0.11289345409E+04  0.13849139036E+04  0.80218035560E+03 0.  0.
        3    1    3    3  502    0  0.33646998617E+03  0.20437288041E+03  0.69699866796E+03  0.80049202318E+03  0.10100000352E+00 0. -1.
       -3    1    3    3    0  502 -0.33646998617E+03 -0.20437288041E+03  0.43193587291E+03  0.58442188045E+03  0.10100000352E+00 0.  1.
</event>
<event>
 5   0  0.5813850E-03  0.8050668E+03  0.7818609E-02  0.9552712E-01
        2   -1    0    0  501    0  0.00000000000E+00  0.00000000000E+00  0.78602221712E+03  0.78602221712E+03  0.25500000920E-02 0. -1.
       -2   -1    0    0    0  501  0.00000000000E+00  0.00000000000E+00 -0.20614320152E+03  0.20614320153E+03  0.25500000920E-02 0.  1.
    10030    2    1    2    0    0  0.00000000000E+00  0.00000000000E+00  0.57987901560E+03  0.99216541866E+03  0.80506679551E+03 0.  0.
        5    1    3    3  502    0  0.39672851037E+03 -0.16734440814E+02  0.20877398179E+03  0.44864486838E+03  0.46999998093E+01 0.  1.
       -5    1    3    3    0  502 -0.39672851037E+03  0.16734440814E+02  0.37110503381E+03  0.54352055028E+03  0.46999998093E+01 0. -1.
</event>
<event>
 5   0  0.3860515E-03  0.7965033E+03  0.7818609E-02  0.9565092E-01
        1   -1    0    0  501    0  0.00000000000E+00  0.00000000000E+00  0.22044178921E+03  0.22044178927E+03  0.50400001928E-02 0. -1.
       -1   -1    0    0    0  501  0.00000000000E+00  0.00000000000E+00 -0.71948409831E+03  0.71948409833E+03  0.50400001928E-02 0.  1.
    10030    2    1    2    0    0  0.00000000000E+00  0.00000000000E+00 -0.49904230910E+03  0.93992588760E+03  0.79650326296E+03 0.  0.
        4    1    3    3  502    0 -0.38782959719E+03 -0.46962592767E+02 -0.34081785677E+03  0.51843582628E+03  0.12699999809E+01 0. -1.
       -4    1    3    3    0  502  0.38782959719E+03  0.46962592767E+02 -0.15822445232E+03  0.42149006132E+03  0.12699999809E+01 0.  1.
</event>
<event>
 5   0  0.3627496E-03  0.8012717E+03  0.7818609E-02  0.9558178E-01
       -1   -1    0    0    0  501  0.00000000000E+00  0.00000000000E+00  0.11677685263E+03  0.11677685274E+03  0.50400001928E-02 0. -1.
        1   -1    0    0  501    0  0.00000000000E+00  0.00000000000E+00 -0.13744940464E+04  0.13744940464E+04  0.50400001928E-02 0.  1.
    10030    2    1    2    0    0  0.00000000000E+00  0.00000000000E+00 -0.12577171937E+04  0.14912708991E+04  0.80127171119E+03 0.  0.
        3    1    3    3  502    0  0.19424761324E+03  0.33810331655E+03 -0.80007336805E+03  0.89003561298E+03  0.10100000352E+00 0.  1.
       -3    1    3    3    0  502 -0.19424761324E+03 -0.33810331655E+03 -0.45764382568E+03  0.60123528614E+03  0.10100000352E+00 0. -1.
</event>
<event>
 5   0  0.3627496E-03  0.7988975E+03  0.7818609E-02  0.9561614E-01
        1   -1    0    0  501    0  0.00000000000E+00  0.00000000000E+00  0.20951042075E+03  0.20951042082E+03  0.50400001928E-02 0.  1.
       -1   -1    0    0    0  501  0.00000000000E+00  0.00000000000E+00 -0.76158161306E+03  0.76158161308E+03  0.50400001928E-02 0. -1.
    10030    2    1    2    0    0  0.00000000000E+00  0.00000000000E+00 -0.55207119231E+03  0.97109203390E+03  0.79889745081E+03 0.  0.
        3    1    3    3  502    0 -0.87602417669E+02  0.21567014324E+03  0.11854061262E+03  0.26122725989E+03  0.10100000352E+00 0.  1.
       -3    1    3    3    0  502  0.87602417669E+02 -0.21567014324E+03 -0.67061180493E+03  0.70986477401E+03  0.10100000352E+00 0. -1.
</event>
<event>
 5   0  0.3753450E-03  0.7965858E+03  0.7818609E-02  0.9564972E-01
        1   -1    0    0  501    0  0.00000000000E+00  0.00000000000E+00  0.42094727702E+03  0.42094727705E+03  0.50400001928E-02 0. -1.
       -1   -1    0    0    0  501  0.00000000000E+00  0.00000000000E+00 -0.37685777213E+03  0.37685777216E+03  0.50400001928E-02 0.  1.
    10030    2    1    2    0    0  0.00000000000E+00  0.00000000000E+00  0.44089504899E+02  0.79780504921E+03  0.79658584729E+03 0.  0.
        5    1    3    3  502    0  0.26502692688E+03  0.28203716938E+01  0.31976718001E+03  0.41535571006E+03  0.46999998093E+01 0. -1.
       -5    1    3    3    0  502 -0.26502692688E+03 -0.28203716938E+01 -0.27567767511E+03  0.38244933916E+03  0.46999998093E+01 0.  1.
</event>
<event>
 5   0  0.6153659E-03  0.8027801E+03  0.7818609E-02  0.9556002E-01
        2   -1    0    0  501    0  0.00000000000E+00  0.00000000000E+00  0.39268693030E+03  0.39268693031E+03  0.25500000920E-02 0.  1.
       -2   -1    0    0    0  501  0.00000000000E+00  0.00000000000E+00 -0.41028604818E+03  0.41028604819E+03  0.25500000920E-02 0. -1.
    10030    2    1    2    0    0  0.00000000000E+00  0.00000000000E+00 -0.17599117876E+02  0.80297297849E+03  0.80278009146E+03 0.  0.
        2    1    3    3  502    0 -0.34505332791E+03 -0.54304152010E+02 -0.20659243544E+03  0.40582160418E+03  0.25500000920E-02 0. -1.
       -2    1    3    3    0  502  0.34505332791E+03  0.54304152010E+02  0.18899331757E+03  0.39715137432E+03  0.25500000920E-02 0.  1.
</event>
<event>
 5   0  0.6536209E-03  0.8037770E+03  0.7818609E-02  0.9554566E-01
        2   -1    0    0  501    0  0.00000000000E+00  0.00000000000E+00  0.13465416127E+04  0.13465416127E+04  0.25500000920E-02 0. -1.
       -2   -1    0    0    0  501  0.00000000000E+00  0.00000000000E+00 -0.11994755366E+03  0.11994755369E+03  0.25500000920E-02 0.  1.
    10030    2    1    2    0    0  0.00000000000E+00  0.00000000000E+00  0.12265940590E+04  0.14664891664E+04  0.80377701477E+03 0.  0.
        3    1    3    3  502    0 -0.39000071557E+02  0.17809271550E+03  0.12667533432E+04  0.12798054788E+04  0.10100000352E+00 0. -1.
       -3    1    3    3    0  502  0.39000071557E+02 -0.17809271550E+03 -0.40159284170E+02  0.18668368756E+03  0.10100000352E+00 0.  1.
</event>
<event>
 5   0  0.6536209E-03  0.8011153E+03  0.7818609E-02  0.9558404E-01
        2   -1    0    0  501    0  0.00000000000E+00  0.00000000000E+00  0.25378556307E+03  0.25378556309E+03  0.25500000920E-02 0.  1.
       -2   -1    0    0    0  501  0.00000000000E+00  0.00000000000E+00 -0.63221260616E+03  0.63221260616E+03  0.25500000920E-02 0. -1.
    10030    2    1    2    0    0  0.00000000000E+00  0.00000000000E+00 -0.37842704309E+03  0.88599816925E+03  0.80111530317E+03 0.  0.
        3    1    3    3  502    0  0.32460633545E+03 -0.18719962374E+03 -0.32677003688E+02  0.37613929457E+03  0.10100000352E+00 0.  1.
       -3    1    3    3    0  502 -0.32460633545E+03  0.18719962374E+03 -0.34575003940E+03  0.50985887468E+03  0.10100000352E+00 0. -1.
</event>
<event>
 5   0  0.3671128E-03  0.7947552E+03  0.7818609E-02  0.9567640E-01
       -1   -1    0    0    0  501  0.00000000000E+00  0.00000000000E+00  0.20118179547E+03  0.20118179553E+03  0.50400001928E-02 0.  1.
        1   -1    0    0  501    0  0.00000000000E+00  0.00000000000E+00 -0.78490682144E+03  0.78490682146E+03  0.50400001928E-02 0. -1.
    10030    2    1    2    0    0  0.00000000000E+00  0.00000000000E+00 -0.58372502597E+03  0.98608861699E+03  0.79475521679E+03 0.  0.
        2    1    3    3  502    0  0.16180412724E+03  0.17277216306E+03 -0.68788798566E+03  0.72747555062E+03  0.25500000920E-02 0. -1.
       -2    1    3    3    0  502 -0.16180412724E+03 -0.17277216306E+03  0.10416295970E+03  0.25861306637E+03  0.25500000920E-02 0.  1.
</event>
<event>
 5   0  0.6337108E-03  0.8016287E+03  0.7818609E-02  0.9557663E-01
       -2   -1    0    0    0  501  0.00000000000E+00  0.00000000000E+00  0.46503018368E+03  0.46503018369E+03  0.25500000920E-02 0.  1.
        2   -1    0    0  501    0  0.00000000000E+00  0.00000000000E+00 -0.34546605456E+03  0.34546605457E+03  0.25500000920E-02 0. -1.
    10030    2    1    2    0    0  0.00000000000E+00  0.00000000000E+00  0.11956412912E+03  0.81049623826E+03  0.80162869912E+03 0.  0.
        4    1    3    3  502    0 -0.18456041984E+03 -0.35317809053E+03  0.16256845341E+02  0.39882729361E+03  0.12699999809E+01 0.  1.
       -4    1    3    3    0  502  0.18456041984E+03  0.35317809053E+03  0.10330728378E+03  0.41166894465E+03  0.12699999809E+01 0. -1.
</event>
<event>
 5   0  0.6536209E-03  0.7953204E+03  0.7818609E-02  0.9566815E-01
        2   -1    0    0  501    0  0.00000000000E+00  0.00000000000E+00  0.10325456035E+04  0.10325456035E+04  0.25500000920E-02 0.  1.
       -2   -1    0    0    0  501  0.00000000000E+00  0.00000000000E+00 -0.15314928227E+03  0.15314928230E+03  0.25500000920E-02 0. -1.
    10030    2    1    2    0    0  0.00000000000E+00  0.00000000000E+00  0.87939632124E+03  0.11856948858E+04  0.79532035837E+03 0.  0.
        3    1    3    3  502    0  0.39402505626E+03  0.53272373626E+02  0.44911728708E+03  0.59983334228E+03  0.10100000352E+00 0. -1.
       -3    1    3    3    0  502 -0.39402505626E+03 -0.53272373626E+02  0.43027903416E+03  0.58586154354E+03  0.10100000352E+00 0.  1.
</event>
<event>
 5   0  0.6536209E-03  0.7991253E+03  0.7818609E-02  0.9561284E-01
       -2   -1    0    0    0  501  0.00000000000E+00  0.00000000000E+00  0.91280880774E+03  0.91280880775E+03  0.25500000920E-02 0. -1.
        2   -1    0    0  501    0  0.00000000000E+00  0.00000000000E+00 -0.17490006832E+03  0.17490006834E+03  0.25500000920E-02 0.  1.
    10030    2    1    2    0    0  0.00000000000E+00  0.00000000000E+00  0.73790873942E+03  0.10877088761E+04  0.79912532898E+03 0.  0.
        3    1    3    3  502    0 -0.24541233810E+03  0.29841653729E+03  0.23034227523E+03  0.44981909628E+03  0.10100000352E+00 0.  1.
       -3    1    3    3    0  502  0.24541233810E+03 -0.29841653729E+03  0.50756646419E+03  0.63788977981E+03  0.10100000352E+00 0. -1.
</event>
<event>
 5   0  0.2478000E-03  0.7999981E+03  0.7818609E-02  0.9560020E-01
       -3   -1    0    0    0  501  0.00000000000E+00  0.00000000000E+00  0.47801012830E+03  0.47801013897E+03  0.10100000352E+00 0. -1.
        3   -1    0    0  501    0  0.00000000000E+00  0.00000000000E+00 -0.33471929458E+03  0.33471930982E+03  0.10100000352E+00 0.  1.
    10030    2    1    2    0    0  0.00000000000E+00  0.00000000000E+00  0.14329083371E+03  0.81272944879E+03  0.79999805869E+03 0.  0.
        4    1    3    3  502    0 -0.21432139243E+03  0.14172315000E+03 -0.23979237964E+03  0.35145569953E+03  0.12699999809E+01 0.  1.
       -4    1    3    3    0  502  0.21432139243E+03 -0.14172315000E+03  0.38308321335E+03  0.46127374926E+03  0.12699999809E+01 0. -1.
</event>
<event>
 5   0  0.6536209E-03  0.8011537E+03  0.7818609E-02  0.9558349E-01
        2   -1    0    0  501    0  0.00000000000E+00  0.00000000000E+00  0.14508656488E+04  0.14508656488E+04  0.25500000920E-02 0. -1.
       -2   -1    0    0    0  501  0.00000000000E+00  0.00000000000E+00 -0.11059729092E+03  0.11059729095E+03  0.25500000920E-02 0.  1.
    10030    2    1    2    0    0  0.00000000000E+00  0.00000000000E+00  0.13402683579E+04  0.15614629397E+04  0.80115369379E+03 0.  0.
        3    1    3    3  502    0 -0.37381242895E+03  0.93433740808E+02  0.88360462857E+03  0.96396200433E+03  0.10100000352E+00 0. -1.
       -3    1    3    3    0  502  0.37381242895E+03 -0.93433740808E+02  0.45666372931E+03  0.59750093542E+03  0.10100000352E+00 0.  1.
</event>
<event>
 5   0  0.5813850E-03  0.7994117E+03  0.7818609E-02  0.9560869E-01
        2   -1    0    0  501    0  0.00000000000E+00  0.00000000000E+00  0.33408089243E+03  0.33408089244E+03  0.25500000920E-02 0. -1.
       -2   -1    0    0    0  501  0.00000000000E+00  0.00000000000E+00 -0.47822175587E+03  0.47822175588E+03  0.25500000920E-02 0.  1.
    10030    2    1    2    0    0  0.00000000000E+00  0.00000000000E+00 -0.14414086345E+03  0.81230264832E+03  0.79941166113E+03 0.  0.
        5    1    3    3  502    0 -0.11723186847E+03  0.35722998877E+02 -0.45863005954E+03  0.47474526343E+03  0.46999998093E+01 0.  1.
       -5    1    3    3    0  502  0.11723186847E+03 -0.35722998877E+02  0.31448919610E+03  0.33755738489E+03  0.46999998093E+01 0. -1.
</event>
<event>
 5   0  0.3627496E-03  0.7995768E+03  0.7818609E-02  0.9560630E-01
       -1   -1    0    0    0  501  0.00000000000E+00  0.00000000000E+00  0.24860633401E+03  0.24860633406E+03  0.50400001928E-02 0.  1.
        1   -1    0    0  501    0  0.00000000000E+00  0.00000000000E+00 -0.64290704998E+03  0.64290705000E+03  0.50400001928E-02 0. -1.
    10030    2    1    2    0    0  0.00000000000E+00  0.00000000000E+00 -0.39430071597E+03  0.89151338406E+03  0.79957680015E+03 0.  0.
        3    1    3    3  502    0  0.23705197295E+02 -0.24212883408E+03  0.15656854917E+03  0.28931303023E+03  0.10100000352E+00 0.  1.
       -3    1    3    3    0  502 -0.23705197295E+02  0.24212883408E+03 -0.55086926513E+03  0.60220035382E+03  0.10100000352E+00 0. -1.
</event>
<event>
 5   0  0.2478000E-03  0.7979288E+03  0.7818609E-02  0.9563020E-01
        3   -1    0    0  501    0  0.00000000000E+00  0.00000000000E+00  0.52199723568E+03  0.52199724545E+03  0.10100000352E+00 0. -1.
       -3   -1    0    0    0  501  0.00000000000E+00  0.00000000000E+00 -0.30492992665E+03  0.30492994338E+03  0.10100000352E+00 0.  1.
    10030    2    1    2    0    0  0.00000000000E+00  0.00000000000E+00  0.21706730903E+03  0.82692718883E+03  0.79792879317E+03 0.  0.
        4    1    3    3  502    0  0.11501816779E+02  0.38501739880E+03  0.21623491753E+03  0.44173503555E+03  0.12699999809E+01 0.  1.
       -4    1    3    3    0  502 -0.11501816779E+02 -0.38501739880E+03  0.83239149377E+00  0.38519215328E+03  0.12699999809E+01 0. -1.
</event>
<event>
 5   0  0.3671128E-03  0.8012273E+03  0.7818609E-02  0.9558242E-01
       -1   -1    0    0    0  501  0.00000000000E+00  0.00000000000E+00  0.76461307267E+03  0.76461307268E+03  0.50400001928E-02 0.  1.
        1   -1    0    0  501    0  0.00000000000E+00  0.00000000000E+00 -0.20989869757E+03  0.20989869763E+03  0.50400001928E-02 0. -1.
    10030    2    1    2    0    0  0.00000000000E+00  0.00000000000E+00  0.55471437509E+03  0.97451177032E+03  0.80122727896E+03 0.  0.
        2    1    3    3  502    0 -0.22974356426E+03 -0.17757744233E+03 -0.58333143812E+02  0.29617327533E+03  0.25500000920E-02 0. -1.
       -2    1    3    3    0  502  0.22974356426E+03  0.17757744233E+03  0.61304751890E+03  0.67833849499E+03  0.25500000920E-02 0.  1.
</event>
<event>
 5   0  0.3860515E-03  0.8046266E+03  0.7818609E-02  0.9553344E-01
       -1   -1    0    0    0  501  0.00000000000E+00  0.00000000000E+00  0.57841424185E+03  0.57841424187E+03  0.50400001928E-02 0.  1.
        1   -1    0    0  501    0  0.00000000000E+00  0.00000000000E+00 -0.27982713251E+03  0.27982713255E+03  0.50400001928E-02 0. -1.
    10030    2    1    2    0    0  0.00000000000E+00  0.00000000000E+00  0.29858710934E+03  0.85824137442E+03  0.80462661832E+03 0.  0.
        4    1    3    3  502    0 -0.42165335729E+02 -0.37989693727E+03  0.28317528739E+03  0.47569891189E+03  0.12699999809E+01 0.  1.
       -4    1    3    3    0  502  0.42165335729E+02  0.37989693727E+03  0.15411821949E+02  0.38254246253E+03  0.12699999809E+01 0. -1.
</event>
<event>
 5   0  0.6536209E-03  0.8015704E+03  0.7818609E-02  0.9557747E-01
       -2   -1    0    0    0  501  0.00000000000E+00  0.00000000000E+00  0.34758432413E+03  0.34758432414E+03  0.25500000920E-02 0.  1.
        2   -1    0    0  501    0  0.00000000000E+00  0.00000000000E+00 -0.46212895934E+03  0.46212895935E+03  0.25500000920E-02 0. -1.
    10030    2    1    2    0    0  0.00000000000E+00  0.00000000000E+00 -0.11454463521E+03  0.80971328349E+03  0.80157041363E+03 0.  0.
        3    1    3    3  502    0  0.48422410607E+02  0.18842733036E+03  0.29668586375E+03  0.35478458342E+03  0.10100000352E+00 0.  1.
       -3    1    3    3    0  502 -0.48422410607E+02 -0.18842733036E+03 -0.41123049896E+03  0.45492870008E+03  0.10100000352E+00 0. -1.
</event>
<event>
 5   0  0.6536209E-03  0.8010166E+03  0.7818609E-02  0.9558547E-01
        2   -1    0    0  501    0  0.00000000000E+00  0.00000000000E+00  0.77774763499E+03  0.77774763499E+03  0.25500000920E-02 0.  1.
       -2   -1    0    0    0  501  0.00000000000E+00  0.00000000000E+00 -0.20624543804E+03  0.20624543806E+03  0.25500000920E-02 0. -1.
    10030    2    1    2    0    0  0.00000000000E+00  0.00000000000E+00  0.57150219694E+03  0.98399307305E+03  0.80101660826E+03 0.  0.
        3    1    3    3  502    0 -0.42397183989E+01  0.27295740779E+03 -0.74250602603E+02  0.28290790704E+03  0.10100000352E+00 0. -1.
       -3    1    3    3    0  502  0.42397183989E+01 -0.27295740779E+03  0.64575279955E+03  0.70108516601E+03  0.10100000352E+00 0.  1.
</event>
<event>
 5   0  0.6256781E-03  0.7977439E+03  0.7818609E-02  0.9563288E-01
        2   -1    0    0  501    0  0.00000000000E+00  0.00000000000E+00  0.17042638488E+04  0.17042638488E+04  0.25500000920E-02 0.  1.
       -2   -1    0    0    0  501  0.00000000000E+00  0.00000000000E+00 -0.93353405928E+02  0.93353405963E+02  0.25500000920E-02 0. -1.
    10030    2    1    2    0    0  0.00000000000E+00  0.00000000000E+00  0.16109104429E+04  0.17976172548E+04  0.79774390608E+03 0.  0.
        1    1    3    3  502    0 -0.72891605628E+02  0.38058282886E+03  0.10185436103E+04  0.10897649113E+04  0.50400001928E-02 0.  1.
       -1    1    3    3    0  502  0.72891605628E+02 -0.38058282886E+03  0.59236683256E+03  0.70785234346E+03  0.50400001928E-02 0. -1.
</event>
<event>
 5   0  0.3714448E-03  0.7989089E+03  0.7818609E-02  0.9561598E-01
       -1   -1    0    0    0  501  0.00000000000E+00  0.00000000000E+00  0.15273878442E+03  0.15273878451E+03  0.50400001928E-02 0. -1.
        1   -1    0    0  501    0  0.00000000000E+00  0.00000000000E+00 -0.10446845772E+04  0.10446845772E+04  0.50400001928E-02 0.  1.
    10030    2    1    2    0    0  0.00000000000E+00  0.00000000000E+00 -0.89194579276E+03  0.11974233617E+04  0.79890888713E+03 0.  0.
        1    1    3    3  502    0 -0.22617214510E+03 -0.26672644396E+03 -0.73531577130E+03  0.81423959538E+03  0.50400001928E-02 0. -1.
       -1    1    3    3    0  502  0.22617214510E+03  0.26672644396E+03 -0.15663002146E+03  0.38318376633E+03  0.50400001928E-02 0.  1.
</event>
<event>
 5   0  0.6153659E-03  0.8006510E+03  0.7818609E-02  0.9559075E-01
        2   -1    0    0  501    0  0.00000000000E+00  0.00000000000E+00  0.23368267371E+03  0.23368267373E+03  0.25500000920E-02 0.  1.
       -2   -1    0    0    0  501  0.00000000000E+00  0.00000000000E+00 -0.68580396835E+03  0.68580396836E+03  0.25500000920E-02 0. -1.
    10030    2    1    2    0    0  0.00000000000E+00  0.00000000000E+00 -0.45212129464E+03  0.91948664208E+03  0.80065099757E+03 0.  0.
        2    1    3    3  502    0  0.36356741583E+03 -0.30823096587E+02 -0.36904493189E+02  0.36673324196E+03  0.25500000920E-02 0.  1.
       -2    1    3    3    0  502 -0.36356741583E+03  0.30823096587E+02 -0.41521680145E+03  0.55275340013E+03  0.25500000920E-02 0. -1.
</event>
<event>
 5   0  0.6536209E-03  0.8030952E+03  0.7818609E-02  0.9555548E-01
        2   -1    0    0  501    0  0.00000000000E+00  0.00000000000E+00  0.75705561760E+03  0.75705561761E+03  0.25500000920E-02 0. -1.
       -2   -1    0    0    0  501  0.00000000000E+00  0.00000000000E+00 -0.21298364490E+03  0.21298364491E+03  0.25500000920E-02 0.  1.
    10030    2    1    2    0    0  0.00000000000E+00  0.00000000000E+00  0.54407197270E+03  0.97003926252E+03  0.80309517452E+03 0.  0.
        3    1    3    3  502    0 -0.22998996733E+03 -0.14476263576E+03  0.62910347219E+03  0.68529029958E+03  0.10100000352E+00 0. -1.
       -3    1    3    3    0  502  0.22998996733E+03  0.14476263576E+03 -0.85031499482E+02  0.28474896293E+03  0.10100000352E+00 0.  1.
</event>
<event>
 5   0  0.3714448E-03  0.8004025E+03  0.7818609E-02  0.9559435E-01
       -1   -1    0    0    0  501  0.00000000000E+00  0.00000000000E+00  0.18656723887E+03  0.18656723894E+03  0.50400001928E-02 0. -1.
        1   -1    0    0  501    0  0.00000000000E+00  0.00000000000E+00 -0.85846287260E+03  0.85846287262E+03  0.50400001928E-02 0.  1.
    10030    2    1    2    0    0  0.00000000000E+00  0.00000000000E+00 -0.67189563373E+03  0.10450301116E+04  0.80040251838E+03 0.  0.
        1    1    3    3  502    0  0.68833385588E+02  0.72477284068E+02  0.17000734329E+03  0.19721432117E+03  0.50400001928E-02 0. -1.
       -1    1    3    3    0  502 -0.68833385588E+02 -0.72477284068E+02 -0.84190297702E+03  0.84781579038E+03  0.50400001928E-02 0.  1.
</event>
<event>
 5   0  0.6337108E-03  0.8028844E+03  0.7818609E-02  0.9555851E-01
        2   -1    0    0  501    0  0.00000000000E+00  0.00000000000E+00  0.70619372591E+03  0.70619372592E+03  0.25500000920E-02 0. -1.
       -2   -1    0    0    0  501  0.00000000000E+00  0.00000000000E+00 -0.22820346269E+03  0.22820346270E+03  0.25500000920E-02 0.  1.
    10030    2    1    2    0    0  0.00000000000E+00  0.00000000000E+00  0.47799026323E+03  0.93439718861E+03  0.80288443400E+03 0.  0.
        4    1    3    3  502    0 -0.36552171551E+03 -0.16430229307E+03  0.26635985392E+03  0.48119699989E+03  0.12699999809E+01 0. -1.
       -4    1    3    3    0  502  0.36552171551E+03  0.16430229307E+03  0.21163040930E+03  0.45320018873E+03  0.12699999809E+01 0.  1.
</event>
<event>
 5   0  0.3753450E-03  0.8008391E+03  0.7818609E-02  0.9558803E-01
        1   -1    0    0  501    0  0.00000000000E+00  0.00000000000E+00  0.69572733553E+03  0.69572733555E+03  0.50400001928E-02 0. -1.
       -1   -1    0    0    0  501  0.00000000000E+00  0.00000000000E+00 -0.23045783296E+03  0.23045783302E+03  0.50400001928E-02 0.  1.
    10030    2    1    2    0    0  0.00000000000E+00  0.00000000000E+00  0.46526950257E+03  0.92618516857E+03  0.80083909524E+03 0.  0.
        5    1    3    3  502    0  0.15986840694E+03 -0.62603123113E+02 -0.18569359094E+03  0.25294516852E+03  0.46999998093E+01 0.  1.
       -5    1    3    3    0  502 -0.15986840694E+03  0.62603123113E+02  0.65096309351E+03  0.67324000005E+03  0.46999998093E+01 0. -1.
</event>
<event>
 5   0  0.5813850E-03  0.7991449E+03  0.7818609E-02  0.9561256E-01
        2   -1    0    0  501    0  0.00000000000E+00  0.00000000000E+00  0.45082911071E+03  0.45082911072E+03  0.25500000920E-02 0. -1.
       -2   -1    0    0    0  501  0.00000000000E+00  0.00000000000E+00 -0.35414336406E+03  0.35414336407E+03  0.25500000920E-02 0.  1.
    10030    2    1    2    0    0  0.00000000000E+00  0.00000000000E+00  0.96685746645E+02  0.80497247479E+03  0.79914488772E+03 0.  0.
        5    1    3    3  502    0  0.30135772070E+03 -0.21529427077E+03  0.19932906114E+03  0.42062128270E+03  0.46999998093E+01 0. -1.
       -5    1    3    3    0  502 -0.30135772070E+03  0.21529427077E+03 -0.10264331450E+03  0.38435119209E+03  0.46999998093E+01 0.  1.
</event>
<event>
 5   0  0.6337108E-03  0.8089494E+03  0.7818609E-02  0.9547153E-01
        2   -1    0    0  501    0  0.00000000000E+00  0.00000000000E+00  0.81312311543E+03  0.81312311543E+03  0.25500000920E-02 0.  1.
       -2   -1    0    0    0  501  0.00000000000E+00  0.00000000000E+00 -0.20119926450E+03  0.20119926452E+03  0.25500000920E-02 0. -1.
    10030    2    1    2    0    0  0.00000000000E+00  0.00000000000E+00  0.61192385092E+03  0.10143223800E+04  0.80894937489E+03 0.  0.
        4    1    3    3  502    0  0.26173748320E+03  0.23432351849E+03  0.54610128252E+02  0.35552482394E+03  0.12699999809E+01 0. -1.
       -4    1    3    3    0  502 -0.26173748320E+03 -0.23432351849E+03  0.55731372267E+03  0.65879755601E+03  0.12699999809E+01 0.  1.
</event>
<event>
 5   0  0.6536209E-03  0.7967850E+03  0.7818609E-02  0.9564682E-01
       -2   -1    0    0    0  501  0.00000000000E+00  0.00000000000E+00  0.54715178570E+03  0.54715178571E+03  0.25500000920E-02 0. -1.
        2   -1    0    0  501    0  0.00000000000E+00  0.00000000000E+00 -0.29007776903E+03  0.29007776904E+03  0.25500000920E-02 0.  1.
    10030    2    1    2    0    0  0.00000000000E+00  0.00000000000E+00  0.25707401667E+03  0.83722955475E+03  0.79678496303E+03 0.  0.
        3    1    3    3  502    0  0.29570438502E+03  0.19768501876E+03  0.31707770912E+03  0.47650680350E+03  0.10100000352E+00 0. -1.
       -3    1    3    3    0  502 -0.29570438502E+03 -0.19768501876E+03 -0.60003692447E+02  0.36072275125E+03  0.10100000352E+00 0.  1.
</event>
<event>
 5   0  0.6536209E-03  0.8001946E+03  0.7818609E-02  0.9559736E-01
        2   -1    0    0  501    0  0.00000000000E+00  0.00000000000E+00  0.28920429616E+03  0.28920429617E+03  0.25500000920E-02 0. -1.
       -2   -1    0    0    0  501  0.00000000000E+00  0.00000000000E+00 -0.55351127358E+03  0.55351127359E+03  0.25500000920E-02 0.  1.
    10030    2    1    2    0    0  0.00000000000E+00  0.00000000000E+00 -0.26430697742E+03  0.84271556975E+03  0.80019457208E+03 0.  0.
        3    1    3    3  502    0 -0.24831475953E+03 -0.28786017967E+03 -0.81010130263E+00  0.38016360860E+03  0.10100000352E+00 0. -1.
       -3    1    3    3    0  502  0.24831475953E+03  0.28786017967E+03 -0.26349687612E+03  0.46255196115E+03  0.10100000352E+00 0.  1.
</event>
<event>
 5   0  0.6153659E-03  0.8023184E+03  0.7818609E-02  0.9556667E-01
        2   -1    0    0  501    0  0.00000000000E+00  0.00000000000E+00  0.33485678097E+03  0.33485678097E+03  0.25500000920E-02 0. -1.
       -2   -1    0    0    0  501  0.00000000000E+00  0.00000000000E+00 -0.48058970824E+03  0.48058970825E+03  0.25500000920E-02 0.  1.
    10030    2    1    2    0    0  0.00000000000E+00  0.00000000000E+00 -0.14573292728E+03  0.81544648922E+03  0.80231844719E+03 0.  0.
        2    1    3    3  502    0 -0.33455623917E+03 -0.29768772621E+02 -0.29580617049E+03  0.44756602586E+03  0.25500000920E-02 0.  1.
       -2    1    3    3    0  502  0.33455623917E+03  0.29768772621E+02  0.15007324321E+03  0.36788046337E+03  0.25500000920E-02 0. -1.
</event>
<event>
 5   0  0.6536209E-03  0.7990048E+03  0.7818609E-02  0.9561459E-01
        2   -1    0    0  501    0  0.00000000000E+00  0.00000000000E+00  0.61291267121E+03  0.61291267122E+03  0.25500000920E-02 0. -1.
       -2   -1    0    0    0  501  0.00000000000E+00  0.00000000000E+00 -0.26039953290E+03  0.26039953291E+03  0.25500000920E-02 0.  1.
    10030    2    1    2    0    0  0.00000000000E+00  0.00000000000E+00  0.35251313831E+03  0.87331220413E+03  0.79900481425E+03 0.  0.
        3    1    3    3  502    0 -0.37756801291E+03 -0.45055864354E+01  0.31886796632E+03  0.49422130147E+03  0.10100000352E+00 0. -1.
       -3    1    3    3    0  502  0.37756801291E+03  0.45055864354E+01  0.33645171996E+02  0.37909090266E+03  0.10100000352E+00 0.  1.
</event>
<event>
 5   0  0.2478000E-03  0.7987006E+03  0.7818609E-02  0.9561900E-01
       -3   -1    0    0    0  501  0.00000000000E+00  0.00000000000E+00  0.17401449503E+03  0.17401452434E+03  0.10100000352E+00 0.  1.
        3   -1    0    0  501    0  0.00000000000E+00  0.00000000000E+00 -0.91647898873E+03  0.91647899429E+03  0.10100000352E+00 0. -1.
    10030    2    1    2    0    0  0.00000000000E+00  0.00000000000E+00 -0.74246449370E+03  0.10904935186E+04  0.79870056328E+03 0.  0.
        4    1    3    3  502    0 -0.33442831170E+03 -0.20647968111E+01 -0.66921468842E+03  0.74812864612E+03  0.12699999809E+01 0. -1.
       -4    1    3    3    0  502  0.33442831170E+03  0.20647968111E+01 -0.73249805279E+02  0.34236487251E+03  0.12699999809E+01 0.  1.
</event>
<event>
 5   0  0.3753450E-03  0.7917085E+03  0.7818609E-02  0.9572097E-01
       -1   -1    0    0    0  501  0.00000000000E+00  0.00000000000E+00  0.13982731935E+03  0.13982731944E+03  0.50400001928E-02 0. -1.
        1   -1    0    0  501    0  0.00000000000E+00  0.00000000000E+00 -0.11206723154E+04  0.11206723154E+04  0.50400001928E-02 0.  1.
    10030    2    1    2    0    0  0.00000000000E+00  0.00000000000E+00 -0.98084499604E+03  0.12604996348E+04  0.79170854687E+03 0.  0.
        5    1    3    3  502    0 -0.78890453741E+01 -0.98631909695E+02 -0.11006202268E+04  0.11050689862E+04  0.46999998093E+01 0.  1.
       -5    1    3    3    0  502  0.78890453741E+01  0.98631909695E+02  0.11977523073E+03  0.15543064866E+03  0.46999998093E+01 0. -1.
</event>
<event>
 5   0  0.6256781E-03  0.8010912E+03  0.7818609E-02  0.9558439E-01
        2   -1    0    0  501    0  0.00000000000E+00  0.00000000000E+00  0.44902998138E+03  0.44902998139E+03  0.25500000920E-02 0. -1.
       -2   -1    0    0    0  501  0.00000000000E+00  0.00000000000E+00 -0.35729632431E+03  0.35729632432E+03  0.25500000920E-02 0.  1.
    10030    2    1    2    0    0  0.00000000000E+00  0.00000000000E+00  0.91733657071E+02  0.80632630571E+03  0.80109116051E+03 0.  0.
        1    1    3    3  502    0  0.36625367921E+03  0.16719736739E+02  0.20821395251E+03  0.42163296501E+03  0.50400001928E-02 0. -1.
       -1    1    3    3    0  502 -0.36625367921E+03 -0.16719736739E+02 -0.11648029544E+03  0.38469334071E+03  0.50400001928E-02 0.  1.
</event>
<event>
 5   0  0.3714448E-03  0.7978068E+03  0.7818609E-02  0.9563197E-01
        1   -1    0    0  501    0  0.00000000000E+00  0.00000000000E+00  0.87311174067E+03  0.87311174069E+03  0.50400001928E-02 0. -1.
       -1   -1    0    0    0  501  0.00000000000E+00  0.00000000000E+00 -0.18224919285E+03  0.18224919292E+03  0.50400001928E-02 0.  1.
    10030    2    1    2    0    0  0.00000000000E+00  0.00000000000E+00  0.69086254782E+03  0.10553609336E+04  0.79780676871E+03 0.  0.
        1    1    3    3  502    0 -0.36839413032E+03  0.35691996424E+02  0.54224277707E+03  0.65651761833E+03  0.50400001928E-02 0. -1.
       -1    1    3    3    0  502  0.36839413032E+03 -0.35691996424E+02  0.14861977075E+03  0.39884331528E+03  0.50400001928E-02 0.  1.
</event>
<event>
 5   0  0.6337108E-03  0.7976217E+03  0.7818609E-02  0.9563466E-01
        2   -1    0    0  501    0  0.00000000000E+00  0.00000000000E+00  0.11679220006E+04  0.11679220006E+04  0.25500000920E-02 0. -1.
       -2   -1    0    0    0  501  0.00000000000E+00  0.00000000000E+00 -0.13618213601E+03  0.13618213603E+03  0.25500000920E-02 0.  1.
    10030    2    1    2    0    0  0.00000000000E+00  0.00000000000E+00  0.10317398646E+04  0.13041041367E+04  0.79762174683E+03 0.  0.
        4    1    3    3  502    0  0.25894172577E+03  0.27139383321E+03  0.29443236809E+03  0.47686209991E+03  0.12699999809E+01 0.  1.
       -4    1    3    3    0  502 -0.25894172577E+03 -0.27139383321E+03  0.73730749653E+03  0.82724203676E+03  0.12699999809E+01 0. -1.
</event>
<event>
 5   0  0.6337108E-03  0.7874765E+03  0.7818609E-02  0.9578323E-01
        2   -1    0    0  501    0  0.00000000000E+00  0.00000000000E+00  0.50168547307E+03  0.50168547308E+03  0.25500000920E-02 0.  1.
       -2   -1    0    0    0  501  0.00000000000E+00  0.00000000000E+00 -0.30901796320E+03  0.30901796321E+03  0.25500000920E-02 0. -1.
    10030    2    1    2    0    0  0.00000000000E+00  0.00000000000E+00  0.19266750987E+03  0.81070343629E+03  0.78747653442E+03 0.  0.
        4    1    3    3  502    0  0.29898067436E+03 -0.24462869531E+03  0.17959686147E+02  0.38672574964E+03  0.12699999809E+01 0. -1.
       -4    1    3    3    0  502 -0.29898067436E+03  0.24462869531E+03  0.17470782372E+03  0.42397768665E+03  0.12699999809E+01 0.  1.
</event>
<event>
 5   0  0.3753450E-03  0.7488621E+03  0.7818609E-02  0.9637137E-01
       -1   -1    0    0    0  501  0.00000000000E+00  0.00000000000E+00  0.46025288342E+03  0.46025288345E+03  0.50400001928E-02 0.  1.
        1   -1    0    0  501    0  0.00000000000E+00  0.00000000000E+00 -0.30461211599E+03  0.30461211604E+03  0.50400001928E-02 0. -1.
    10030    2    1    2    0    0  0.00000000000E+00  0.00000000000E+00  0.15564076743E+03  0.76486499948E+03  0.74886208273E+03 0.  0.
        5    1    3    3  502    0  0.73625225762E+02 -0.25812097902E+03 -0.18877353099E+03  0.32818386566E+03  0.46999998093E+01 0. -1.
       -5    1    3    3    0  502 -0.73625225762E+02  0.25812097902E+03  0.34441429842E+03  0.43668113382E+03  0.46999998093E+01 0.  1.
</event>
<event>
 5   0  0.6337108E-03  0.7995024E+03  0.7818609E-02  0.9560738E-01
       -2   -1    0    0    0  501  0.00000000000E+00  0.00000000000E+00  0.37323579890E+03  0.37323579891E+03  0.25500000920E-02 0. -1.
        2   -1    0    0  501    0  0.00000000000E+00  0.00000000000E+00 -0.42815027743E+03  0.42815027744E+03  0.25500000920E-02 0.  1.
    10030    2    1    2    0    0  0.00000000000E+00  0.00000000000E+00 -0.54914478534E+02  0.80138607635E+03  0.79950237236E+03 0.  0.
        4    1    3    3  502    0  0.16863940786E+02  0.69519367777E+02 -0.42168028916E+03  0.42770692555E+03  0.12699999809E+01 0.  1.
       -4    1    3    3    0  502 -0.16863940786E+02 -0.69519367777E+02  0.36676581063E+03  0.37367915080E+03  0.12699999809E+01 0. -1.
</event>
<event>
 5   0  0.6256781E-03  0.8099773E+03  0.7818609E-02  0.9545687E-01
        2   -1    0    0  501    0  0.00000000000E+00  0.00000000000E+00  0.25252269798E+03  0.25252269799E+03  0.25500000920E-02 0.  1.
       -2   -1    0    0    0  501  0.00000000000E+00  0.00000000000E+00 -0.64950923174E+03  0.64950923174E+03  0.25500000920E-02 0. -1.
    10030    2    1    2    0    0  0.00000000000E+00  0.00000000000E+00 -0.39698653376E+03  0.90203192973E+03  0.80997734182E+03 0.  0.
        1    1    3    3  502    0  0.54227120892E+02 -0.38106970466E+03 -0.58239023922E+02  0.38928971780E+03  0.50400001928E-02 0.  1.
       -1    1    3    3    0  502 -0.54227120892E+02  0.38106970466E+03 -0.33874750984E+03  0.51274221193E+03  0.50400001928E-02 0. -1.
</event>
<event>
 5   0  0.3860515E-03  0.7985829E+03  0.7818609E-02  0.9562071E-01
        1   -1    0    0  501    0  0.00000000000E+00  0.00000000000E+00  0.66779276988E+03  0.66779276989E+03  0.50400001928E-02 0.  1.
       -1   -1    0    0    0  501  0.00000000000E+00  0.00000000000E+00 -0.23874720639E+03  0.23874720644E+03  0.50400001928E-02 0. -1.
    10030    2    1    2    0    0  0.00000000000E+00  0.00000000000E+00  0.42904556349E+03  0.90653997634E+03  0.79858289060E+03 0.  0.
        4    1    3    3  502    0 -0.31915335274E+03  0.56639029584E+02  0.47920664602E+03  0.57853907796E+03  0.12699999809E+01 0. -1.
       -4    1    3    3    0  502  0.31915335274E+03 -0.56639029584E+02 -0.50161082535E+02  0.32800089838E+03  0.12699999809E+01 0.  1.
</event>
<event>
 5   0  0.3753450E-03  0.7979770E+03  0.7818609E-02  0.9562950E-01
        1   -1    0    0  501    0  0.00000000000E+00  0.00000000000E+00  0.81947664586E+03  0.81947664588E+03  0.50400001928E-02 0. -1.
       -1   -1    0    0    0  501  0.00000000000E+00  0.00000000000E+00 -0.19426034497E+03  0.19426034504E+03  0.50400001928E-02 0.  1.
    10030    2    1    2    0    0  0.00000000000E+00  0.00000000000E+00  0.62521630089E+03  0.10137369909E+04  0.79797698203E+03 0.  0.
        5    1    3    3  502    0  0.30756779472E+03  0.14619660080E+03  0.57664735546E+03  0.66971311544E+03  0.46999998093E+01 0. -1.
       -5    1    3    3    0  502 -0.30756779472E+03 -0.14619660080E+03  0.48568945435E+02  0.34402387547E+03  0.46999998093E+01 0.  1.
</event>
<event>
 5   0  0.3627496E-03  0.8133562E+03  0.7818609E-02  0.9540883E-01
        1   -1    0    0  501    0  0.00000000000E+00  0.00000000000E+00  0.32945781876E+03  0.32945781880E+03  0.50400001928E-02 0.  1.
       -1   -1    0    0    0  501  0.00000000000E+00  0.00000000000E+00 -0.50199774807E+03  0.50199774810E+03  0.50400001928E-02 0. -1.
    10030    2    1    2    0    0  0.00000000000E+00  0.00000000000E+00 -0.17253992931E+03  0.83145556689E+03  0.81335621502E+03 0.  0.
        3    1    3    3  502    0  0.24403727851E+03 -0.30037434953E+03 -0.21398254791E+03  0.44223012580E+03  0.10100000352E+00 0.  1.
       -3    1    3    3    0  502 -0.24403727851E+03  0.30037434953E+03  0.41442618598E+02  0.38922544109E+03  0.10100000352E+00 0. -1.
</event>
<event>
 5   0  0.6337108E-03  0.8004351E+03  0.7818609E-02  0.9559387E-01
       -2   -1    0    0    0  501  0.00000000000E+00  0.00000000000E+00  0.71696951966E+02  0.71696952011E+02  0.25500000920E-02 0. -1.
        2   -1    0    0  501    0  0.00000000000E+00  0.00000000000E+00 -0.22340433510E+04  0.22340433510E+04  0.25500000920E-02 0.  1.
    10030    2    1    2    0    0  0.00000000000E+00  0.00000000000E+00 -0.21623463990E+04  0.23057403030E+04  0.80043512887E+03 0.  0.
        4    1    3    3  502    0 -0.27160096380E+03 -0.29227077432E+03 -0.99084892000E+03  0.10681631356E+04  0.12699999809E+01 0. -1.
       -4    1    3    3    0  502  0.27160096380E+03  0.29227077432E+03 -0.11714974790E+04  0.12375771674E+04  0.12699999809E+01 0.  1.
</event>
<event>
 5   0  0.6256781E-03  0.7987502E+03  0.7818609E-02  0.9561828E-01
       -2   -1    0    0    0  501  0.00000000000E+00  0.00000000000E+00  0.11227635540E+03  0.11227635543E+03  0.25500000920E-02 0. -1.
        2   -1    0    0  501    0  0.00000000000E+00  0.00000000000E+00 -0.14206060015E+04  0.14206060015E+04  0.25500000920E-02 0.  1.
    10030    2    1    2    0    0  0.00000000000E+00  0.00000000000E+00 -0.13083296461E+04  0.15328823569E+04  0.79875018455E+03 0.  0.
        1    1    3    3  502    0 -0.23774504954E+03 -0.19086773514E+03 -0.15909898997E+03  0.34389778937E+03  0.50400001928E-02 0. -1.
       -1    1    3    3    0  502  0.23774504954E+03  0.19086773514E+03 -0.11492306561E+04  0.11889845675E+04  0.50400001928E-02 0.  1.
</event>
<event>
 5   0  0.6153659E-03  0.8014556E+03  0.7818609E-02  0.9557913E-01
        2   -1    0    0  501    0  0.00000000000E+00  0.00000000000E+00  0.76650039573E+03  0.76650039574E+03  0.25500000920E-02 0. -1.
       -2   -1    0    0    0  501  0.00000000000E+00  0.00000000000E+00 -0.20950124054E+03  0.20950124056E+03  0.25500000920E-02 0.  1.
    10030    2    1    2    0    0  0.00000000000E+00  0.00000000000E+00  0.55699915519E+03  0.97600163629E+03  0.80145563518E+03 0.  0.
        2    1    3    3  502    0 -0.14198923904E+03 -0.11388814594E+03 -0.15625408042E+03  0.23988912322E+03  0.25500000920E-02 0.  1.
       -2    1    3    3    0  502  0.14198923904E+03  0.11388814594E+03  0.71325323561E+03  0.73611251307E+03  0.25500000920E-02 0. -1.
</event>
<event>
 5   0  0.5813850E-03  0.8004641E+03  0.7818609E-02  0.9559346E-01
        2   -1    0    0  501    0  0.00000000000E+00  0.00000000000E+00  0.90384371239E+03  0.90384371239E+03  0.25500000920E-02 0. -1.
       -2   -1    0    0    0  501  0.00000000000E+00  0.00000000000E+00 -0.17722721895E+03  0.17722721897E+03  0.25500000920E-02 0.  1.
    10030    2    1    2    0    0  0.00000000000E+00  0.00000000000E+00  0.72661649344E+03  0.10810709314E+04  0.80046413418E+03 0.  0.
        5    1    3    3  502    0  0.26321146802E+02  0.38006626390E+03  0.19778698753E+03  0.42928423003E+03  0.46999998093E+01 0.  1.
       -5    1    3    3    0  502 -0.26321146802E+02 -0.38006626390E+03  0.52882950590E+03  0.65178670133E+03  0.46999998093E+01 0. -1.
</event>
<event>
 5   0  0.6153659E-03  0.7866401E+03  0.7818609E-02  0.9579559E-01
        2   -1    0    0  501    0  0.00000000000E+00  0.00000000000E+00  0.29123451247E+03  0.29123451248E+03  0.25500000920E-02 0. -1.
       -2   -1    0    0    0  501  0.00000000000E+00  0.00000000000E+00 -0.53118928204E+03  0.53118928205E+03  0.25500000920E-02 0.  1.
    10030    2    1    2    0    0  0.00000000000E+00  0.00000000000E+00 -0.23995476957E+03  0.82242379453E+03  0.78664007422E+03 0.  0.
        2    1    3    3  502    0  0.16447921351E+03 -0.94083325673E+02 -0.48032339553E+03  0.51634837866E+03  0.25500000920E-02 0.  1.
       -2    1    3    3    0  502 -0.16447921351E+03  0.94083325673E+02  0.24036862596E+03  0.30607541586E+03  0.25500000920E-02 0. -1.
</event>
<event>
 5   0  0.3627496E-03  0.7997161E+03  0.7818609E-02  0.9560428E-01
        1   -1    0    0  501    0  0.00000000000E+00  0.00000000000E+00  0.50626304705E+03  0.50626304707E+03  0.50400001928E-02 0. -1.
       -1   -1    0    0    0  501  0.00000000000E+00  0.00000000000E+00 -0.31581700076E+03  0.31581700080E+03  0.50400001928E-02 0.  1.
    10030    2    1    2    0    0  0.00000000000E+00  0.00000000000E+00  0.19044604628E+03  0.82208004787E+03  0.79971614250E+03 0.  0.
        3    1    3    3  502    0  0.38951714957E+03 -0.57555466207E+02  0.16681415158E+03  0.42762508447E+03  0.10100000352E+00 0. -1.
       -3    1    3    3    0  502 -0.38951714957E+03  0.57555466207E+02  0.23631894699E+02  0.39445496340E+03  0.10100000352E+00 0.  1.
</event>
<event>
 5   0  0.6256781E-03  0.7945123E+03  0.7818609E-02  0.9567995E-01
       -2   -1    0    0    0  501  0.00000000000E+00  0.00000000000E+00  0.19596855486E+03  0.19596855488E+03  0.25500000920E-02 0.  1.
        2   -1    0    0  501    0  0.00000000000E+00  0.00000000000E+00 -0.80529469223E+03  0.80529469224E+03  0.25500000920E-02 0. -1.
    10030    2    1    2    0    0  0.00000000000E+00  0.00000000000E+00 -0.60932613737E+03  0.10012632471E+04  0.79451227073E+03 0.  0.
        1    1    3    3  502    0  0.13930538771E+03  0.57669145283E+02  0.15851111260E+03  0.21876355777E+03  0.50400001928E-02 0.  1.
       -1    1    3    3    0  502 -0.13930538771E+03 -0.57669145283E+02 -0.76783724997E+03  0.78249968935E+03  0.50400001928E-02 0. -1.
</event>
<event>
 5   0  0.3671128E-03  0.8031050E+03  0.7818609E-02  0.9555534E-01
       -1   -1    0    0    0  501  0.00000000000E+00  0.00000000000E+00  0.63381308581E+03  0.63381308583E+03  0.50400001928E-02 0.  1.
        1   -1    0    0  501    0  0.00000000000E+00  0.00000000000E+00 -0.25440372609E+03  0.25440372614E+03  0.50400001928E-02 0. -1.
    10030    2    1    2    0    0  0.00000000000E+00  0.00000000000E+00  0.37940935972E+03  0.88821681196E+03  0.80310500111E+03 0.  0.
        2    1    3    3  502    0  0.25742679295E+02 -0.67641740147E+02 -0.24713064975E+03  0.25751048250E+03  0.25500000920E-02 0. -1.
       -2    1    3    3    0  502 -0.25742679295E+02  0.67641740147E+02  0.62654000947E+03  0.63070632946E+03  0.25500000920E-02 0.  1.
</event>
<event>
 5   0  0.3860515E-03  0.8053345E+03  0.7818609E-02  0.9552328E-01
        1   -1    0    0  501    0  0.00000000000E+00  0.00000000000E+00  0.11133958410E+04  0.11133958410E+04  0.50400001928E-02 0.  1.
       -1   -1    0    0    0  501  0.00000000000E+00  0.00000000000E+00 -0.14562737479E+03  0.14562737488E+03  0.50400001928E-02 0. -1.
    10030    2    1    2    0    0  0.00000000000E+00  0.00000000000E+00  0.96776846617E+03  0.12590232158E+04  0.80533449816E+03 0.  0.
        4    1    3    3  502    0  0.37872414439E+02 -0.38002308633E+03  0.68340301203E+03  0.78287492978E+03  0.12699999809E+01 0.  1.
       -4    1    3    3    0  502 -0.37872414439E+02  0.38002308633E+03  0.28436545414E+03  0.47614828607E+03  0.12699999809E+01 0. -1.
</event>
<event>
 5   0  0.6536209E-03  0.7946640E+03  0.7818609E-02  0.9567773E-01
       -2   -1    0    0    0  501  0.00000000000E+00  0.00000000000E+00  0.21137109289E+03  0.21137109290E+03  0.25500000920E-02 0. -1.
        2   -1    0    0  501    0  0.00000000000E+00  0.00000000000E+00 -0.74689840158E+03  0.74689840158E+03  0.25500000920E-02 0.  1.
    10030    2    1    2    0    0  0.00000000000E+00  0.00000000000E+00 -0.53552730869E+03  0.95826949449E+03  0.79466403323E+03 0.  0.
        3    1    3    3  502    0 -0.22873652403E+03  0.37426474129E+01  0.12398650952E+03  0.26020582157E+03  0.10100000352E+00 0. -1.
       -3    1    3    3    0  502  0.22873652403E+03 -0.37426474129E+01 -0.65951381820E+03  0.69806367291E+03  0.10100000352E+00 0.  1.
</event>
<event>
 5   0  0.5813850E-03  0.8016225E+03  0.7818609E-02  0.9557672E-01
        2   -1    0    0  501    0  0.00000000000E+00  0.00000000000E+00  0.90668112466E+03  0.90668112466E+03  0.25500000920E-02 0.  1.
       -2   -1    0    0    0  501  0.00000000000E+00  0.00000000000E+00 -0.17718431809E+03  0.17718431811E+03  0.25500000920E-02 0. -1.
    10030    2    1    2    0    0  0.00000000000E+00  0.00000000000E+00  0.72949680657E+03  0.10838654428E+04  0.80162254661E+03 0.  0.
        5    1    3    3  502    0  0.18301376805E+03 -0.34796482273E+02 -0.11504862065E+03  0.21900481636E+03  0.46999998093E+01 0. -1.
       -5    1    3    3    0  502 -0.18301376805E+03  0.34796482273E+02  0.84454542723E+03  0.86486062641E+03  0.46999998093E+01 0.  1.
</event>
<event>
 5   0  0.2478000E-03  0.7977982E+03  0.7818609E-02  0.9563210E-01
        3   -1    0    0  501    0  0.00000000000E+00  0.00000000000E+00  0.16152042641E+04  0.16152042673E+04  0.10100000352E+00 0.  1.
       -3   -1    0    0    0  501  0.00000000000E+00  0.00000000000E+00 -0.98514134855E+02  0.98514186629E+02  0.10100000352E+00 0. -1.
    10030    2    1    2    0    0  0.00000000000E+00  0.00000000000E+00  0.15166901292E+04  0.17137184539E+04  0.79779821449E+03 0.  0.
        4    1    3    3  502    0  0.27978581214E+03  0.72099092066E+02  0.16756800420E+03  0.33400453393E+03  0.12699999809E+01 0. -1.
       -4    1    3    3    0  502 -0.27978581214E+03 -0.72099092066E+02  0.13491221250E+04  0.13797139200E+04  0.12699999809E+01 0.  1.
</event>
<event>
 5   0  0.3753450E-03  0.8004388E+03  0.7818609E-02  0.9559382E-01
        1   -1    0    0  501    0  0.00000000000E+00  0.00000000000E+00  0.52576966508E+03  0.52576966511E+03  0.50400001928E-02 0.  1.
       -1   -1    0    0    0  501  0.00000000000E+00  0.00000000000E+00 -0.30464967659E+03  0.30464967664E+03  0.50400001928E-02 0. -1.
    10030    2    1    2    0    0  0.00000000000E+00  0.00000000000E+00  0.22111998849E+03  0.83041934174E+03  0.80043877582E+03 0.  0.
        5    1    3    3  502    0  0.88281834459E+02 -0.30710479706E+02  0.51425758482E+03  0.52270428485E+03  0.46999998093E+01 0.  1.
       -5    1    3    3    0  502 -0.88281834459E+02  0.30710479706E+02 -0.29313759633E+03  0.30771505689E+03  0.46999998093E+01 0. -1.
</event>
<event>
 5   0  0.5813850E-03  0.7986971E+03  0.7818609E-02  0.9561905E-01
       -2   -1    0    0    0  501  0.00000000000E+00  0.00000000000E+00  0.29740393542E+03  0.29740393543E+03  0.25500000920E-02 0.  1.
        2   -1    0    0  501    0  0.00000000000E+00  0.00000000000E+00 -0.53623795944E+03  0.53623795944E+03  0.25500000920E-02 0. -1.
    10030    2    1    2    0    0  0.00000000000E+00  0.00000000000E+00 -0.23883402402E+03  0.83364189487E+03  0.79869713775E+03 0.  0.
        5    1    3    3  502    0  0.21905889934E+03  0.32602349589E+03 -0.19453141495E+03  0.43834082933E+03  0.46999998093E+01 0. -1.
       -5    1    3    3    0  502 -0.21905889934E+03 -0.32602349589E+03 -0.44302609067E+02  0.39530106554E+03  0.46999998093E+01 0.  1.
</event>
<event>
 5   0  0.6256781E-03  0.8010333E+03  0.7818609E-02  0.9558523E-01
       -2   -1    0    0    0  501  0.00000000000E+00  0.00000000000E+00  0.16288440468E+03  0.16288440470E+03  0.25500000920E-02 0.  1.
        2   -1    0    0  501    0  0.00000000000E+00  0.00000000000E+00 -0.98483082856E+03  0.98483082857E+03  0.25500000920E-02 0. -1.
    10030    2    1    2    0    0  0.00000000000E+00  0.00000000000E+00 -0.82194642388E+03  0.11477152333E+04  0.80103329079E+03 0.  0.
        1    1    3    3  502    0 -0.28040320754E+03 -0.25258731687E+03 -0.21881177904E+03  0.43623950545E+03  0.50400001928E-02 0. -1.
       -1    1    3    3    0  502  0.28040320754E+03  0.25258731687E+03 -0.60313464484E+03  0.71147572782E+03  0.50400001928E-02 0.  1.
</event>
<event>
 5   0  0.3860515E-03  0.8030770E+03  0.7818609E-02  0.9555574E-01
       -1   -1    0    0    0  501  0.00000000000E+00  0.00000000000E+00  0.97778748197E+03  0.97778748198E+03  0.50400001928E-02 0. -1.
        1   -1    0    0  501    0  0.00000000000E+00  0.00000000000E+00 -0.16489590442E+03  0.16489590450E+03  0.50400001928E-02 0.  1.
    10030    2    1    2    0    0  0.00000000000E+00  0.00000000000E+00  0.81289157755E+03  0.11426833865E+04  0.80307696074E+03 0.  0.
        4    1    3    3  502    0  0.54829703459E+02  0.21354711244E+03  0.88395532246E+03  0.91103638271E+03  0.12699999809E+01 0. -1.
       -4    1    3    3    0  502 -0.54829703459E+02 -0.21354711244E+03 -0.71063744912E+02  0.23164700377E+03  0.12699999809E+01 0.  1.
</event>
<event>
 5   0  0.2478000E-03  0.8013080E+03  0.7818609E-02  0.9558126E-01
        3   -1    0    0  501    0  0.00000000000E+00  0.00000000000E+00  0.20900820844E+04  0.20900820868E+04  0.10100000352E+00 0. -1.
       -3   -1    0    0    0  501  0.00000000000E+00  0.00000000000E+00 -0.76802502534E+02  0.76802568944E+02  0.10100000352E+00 0.  1.
    10030    2    1    2    0    0  0.00000000000E+00  0.00000000000E+00  0.20132795819E+04  0.21668846558E+04  0.80130795373E+03 0.  0.
        5    1    3    3  502    0  0.41341425150E+02  0.99090835943E+02  0.20503759348E+04  0.20531906076E+04  0.46999998093E+01 0. -1.
       -5    1    3    3    0  502 -0.41341425150E+02 -0.99090835943E+02 -0.37096352895E+02  0.11369404821E+03  0.46999998093E+01 0.  1.
</event>
<event>
 5   0  0.3753450E-03  0.7983570E+03  0.7818609E-02  0.9562398E-01
       -1   -1    0    0    0  501  0.00000000000E+00  0.00000000000E+00  0.71756006756E+02  0.71756006933E+02  0.50400001928E-02 0. -1.
        1   -1    0    0  501    0  0.00000000000E+00  0.00000000000E+00 -0.22206291697E+04  0.22206291697E+04  0.50400001928E-02 0.  1.
    10030    2    1    2    0    0  0.00000000000E+00  0.00000000000E+00 -0.21488731629E+04  0.22923851766E+04  0.79835701766E+03 0.  0.
        5    1    3    3  502    0  0.20227457712E+03  0.19188748586E+03 -0.18945938674E+04  0.19150049150E+04  0.46999998093E+01 0.  1.
       -5    1    3    3    0  502 -0.20227457712E+03 -0.19188748586E+03 -0.25427929547E+03  0.37738026164E+03  0.46999998093E+01 0. -1.
</event>
<event>
 5   0  0.5813850E-03  0.8193126E+03  0.7818609E-02  0.9532476E-01
       -2   -1    0    0    0  501  0.00000000000E+00  0.00000000000E+00  0.17552113764E+03  0.17552113766E+03  0.25500000920E-02 0.  1.
        2   -1    0    0  501    0  0.00000000000E+00  0.00000000000E+00 -0.95611449355E+03  0.95611449355E+03  0.25500000920E-02 0. -1.
    10030    2    1    2    0    0  0.00000000000E+00  0.00000000000E+00 -0.78059335590E+03  0.11316356312E+04  0.81931264762E+03 0.  0.
        5    1    3    3  502    0 -0.11136869553E+03 -0.18568720118E+03 -0.87057649195E+03  0.89711105297E+03  0.46999998093E+01 0. -1.
       -5    1    3    3    0  502  0.11136869553E+03  0.18568720118E+03  0.89983136051E+02  0.23452457824E+03  0.46999998093E+01 0.  1.
</event>
<event>
 5   0  0.6153659E-03  0.7994941E+03  0.7818609E-02  0.9560750E-01
        2   -1    0    0  501    0  0.00000000000E+00  0.00000000000E+00  0.96751869213E+03  0.96751869213E+03  0.25500000920E-02 0.  1.
       -2   -1    0    0    0  501  0.00000000000E+00  0.00000000000E+00 -0.16516240178E+03  0.16516240180E+03  0.25500000920E-02 0. -1.
    10030    2    1    2    0    0  0.00000000000E+00  0.00000000000E+00  0.80235629035E+03  0.11326810939E+04  0.79949411748E+03 0.  0.
        2    1    3    3  502    0  0.85858442058E+02  0.17365378601E+02 -0.15139774996E+03  0.17491285586E+03  0.25500000920E-02 0. -1.
       -2    1    3    3    0  502 -0.85858442058E+02 -0.17365378601E+02  0.95375404031E+03  0.95776823807E+03  0.25500000920E-02 0.  1.
</event>
<event>
 5   0  0.6536209E-03  0.7982605E+03  0.7818609E-02  0.9562538E-01
        2   -1    0    0  501    0  0.00000000000E+00  0.00000000000E+00  0.33519384795E+03  0.33519384796E+03  0.25500000920E-02 0.  1.
       -2   -1    0    0    0  501  0.00000000000E+00  0.00000000000E+00 -0.47526213189E+03  0.47526213190E+03  0.25500000920E-02 0. -1.
    10030    2    1    2    0    0  0.00000000000E+00  0.00000000000E+00 -0.14006828394E+03  0.81045597986E+03  0.79826046571E+03 0.  0.
        3    1    3    3  502    0  0.16397737511E+03  0.32882591410E+03  0.88198987062E+02  0.37788110941E+03  0.10100000352E+00 0.  1.
       -3    1    3    3    0  502 -0.16397737511E+03 -0.32882591410E+03 -0.22826727100E+03  0.43257487045E+03  0.10100000352E+00 0. -1.
</event>
<event>
 5   0  0.3714448E-03  0.7970343E+03  0.7818609E-02  0.9564320E-01
        1   -1    0    0  501    0  0.00000000000E+00  0.00000000000E+00  0.11418709289E+04  0.11418709289E+04  0.50400001928E-02 0.  1.
       -1   -1    0    0    0  501  0.00000000000E+00  0.00000000000E+00 -0.13908395261E+03  0.13908395270E+03  0.50400001928E-02 0. -1.
    10030    2    1    2    0    0  0.00000000000E+00  0.00000000000E+00  0.10027869763E+04  0.12809548816E+04  0.79703430850E+03 0.  0.
        1    1    3    3  502    0 -0.70603276212E+01  0.34311589366E+03  0.82696587924E+03  0.89534961337E+03  0.50400001928E-02 0.  1.
       -1    1    3    3    0  502  0.70603276212E+01 -0.34311589366E+03  0.17582109706E+03  0.38560526825E+03  0.50400001928E-02 0. -1.
</event>
<event>
 5   0  0.6536209E-03  0.8008492E+03  0.7818609E-02  0.9558789E-01
        2   -1    0    0  501    0  0.00000000000E+00  0.00000000000E+00  0.11448041164E+04  0.11448041164E+04  0.25500000920E-02 0. -1.
       -2   -1    0    0    0  501  0.00000000000E+00  0.00000000000E+00 -0.14005876172E+03  0.14005876175E+03  0.25500000920E-02 0.  1.
    10030    2    1    2    0    0  0.00000000000E+00  0.00000000000E+00  0.10047453546E+04  0.12848628781E+04  0.80084916675E+03 0.  0.
        3    1    3    3  502    0 -0.38820516877E+03  0.58806726563E+02  0.37626474663E+03  0.54381674663E+03  0.10100000352E+00 0.  1.
       -3    1    3    3    0  502  0.38820516877E+03 -0.58806726563E+02  0.62848060800E+03  0.74104613148E+03  0.10100000352E+00 0. -1.
</event>
<event>
 5   0  0.5813850E-03  0.7947896E+03  0.7818609E-02  0.9567590E-01
        2   -1    0    0  501    0  0.00000000000E+00  0.00000000000E+00  0.97916576625E+03  0.97916576626E+03  0.25500000920E-02 0. -1.
       -2   -1    0    0    0  501  0.00000000000E+00  0.00000000000E+00 -0.16128284432E+03  0.16128284434E+03  0.25500000920E-02 0.  1.
    10030    2    1    2    0    0  0.00000000000E+00  0.00000000000E+00  0.81788292194E+03  0.11404486106E+04  0.79478963218E+03 0.  0.
        5    1    3    3  502    0  0.14196793414E+03  0.36322445255E+03  0.29953371632E+03  0.49176156262E+03  0.46999998093E+01 0.  1.
       -5    1    3    3    0  502 -0.14196793414E+03 -0.36322445255E+03  0.51834920562E+03  0.64868704798E+03  0.46999998093E+01 0. -1.
</event>
<event>
 5   0  0.3860515E-03  0.7912912E+03  0.7818609E-02  0.9572709E-01
       -1   -1    0    0    0  501  0.00000000000E+00  0.00000000000E+00  0.11151136345E+03  0.11151136356E+03  0.50400001928E-02 0. -1.
        1   -1    0    0  501    0  0.00000000000E+00  0.00000000000E+00 -0.14037620728E+04  0.14037620728E+04  0.50400001928E-02 0.  1.
    10030    2    1    2    0    0  0.00000000000E+00  0.00000000000E+00 -0.12922507093E+04  0.15152734363E+04  0.79129115447E+03 0.  0.
        4    1    3    3  502    0 -0.33917117249E+03 -0.20009501292E+03 -0.71926273378E+03  0.82000950699E+03  0.12699999809E+01 0.  1.
       -4    1    3    3    0  502  0.33917117249E+03  0.20009501292E+03 -0.57298797553E+03  0.69526392935E+03  0.12699999809E+01 0. -1.
</event>
<event>
 5   0  0.3671128E-03  0.7998420E+03  0.7818609E-02  0.9560246E-01
        1   -1    0    0  501    0  0.00000000000E+00  0.00000000000E+00  0.81610699070E+03  0.81610699071E+03  0.50400001928E-02 0.  1.
       -1   -1    0    0    0  501  0.00000000000E+00  0.00000000000E+00 -0.19597531170E+03  0.19597531177E+03  0.50400001928E-02 0. -1.
    10030    2    1    2    0    0  0.00000000000E+00  0.00000000000E+00  0.62013167899E+03  0.10120823025E+04  0.79984203922E+03 0.  0.
        2    1    3    3  502    0 -0.20089877644E+03  0.13630153839E+03 -0.92066349987E+02  0.25964329483E+03  0.25500000920E-02 0. -1.
       -2    1    3    3    0  502  0.20089877644E+03 -0.13630153839E+03  0.71219802898E+03  0.75243900765E+03  0.25500000920E-02 0.  1.
</event>
<event>
 5   0  0.6337108E-03  0.8080601E+03  0.7818609E-02  0.9548423E-01
       -2   -1    0    0    0  501  0.00000000000E+00  0.00000000000E+00  0.10917284676E+03  0.10917284679E+03  0.25500000920E-02 0.  1.
        2   -1    0    0  501    0  0.00000000000E+00  0.00000000000E+00 -0.14952463447E+04  0.14952463447E+04  0.25500000920E-02 0. -1.
    10030    2    1    2    0    0  0.00000000000E+00  0.00000000000E+00 -0.13860734979E+04  0.16044191915E+04  0.80806014647E+03 0.  0.
        4    1    3    3  502    0  0.61208628809E+02  0.27266230832E+03 -0.12724120807E+04  0.13027376354E+04  0.12699999809E+01 0. -1.
       -4    1    3    3    0  502 -0.61208628809E+02 -0.27266230832E+03 -0.11366141722E+03  0.30168155609E+03  0.12699999809E+01 0.  1.
</event>
<event>
 5   0  0.6337108E-03  0.7977203E+03  0.7818609E-02  0.9563323E-01
        2   -1    0    0  501    0  0.00000000000E+00  0.00000000000E+00  0.29750633551E+03  0.29750633552E+03  0.25500000920E-02 0.  1.
       -2   -1    0    0    0  501  0.00000000000E+00  0.00000000000E+00 -0.53474297287E+03  0.53474297287E+03  0.25500000920E-02 0. -1.
    10030    2    1    2    0    0  0.00000000000E+00  0.00000000000E+00 -0.23723663736E+03  0.83224930839E+03  0.79772030764E+03 0.  0.
        4    1    3    3  502    0  0.35263647012E+03  0.10489563496E+03  0.42102492591E+02  0.37031041989E+03  0.12699999809E+01 0.  1.
       -4    1    3    3    0  502 -0.35263647012E+03 -0.10489563496E+03 -0.27933912995E+03  0.46193888851E+03  0.12699999809E+01 0. -1.
</event>
<event>
 5   0  0.6153659E-03  0.7990297E+03  0.7818609E-02  0.9561423E-01
        2   -1    0    0  501    0  0.00000000000E+00  0.00000000000E+00  0.10095158164E+04  0.10095158164E+04  0.25500000920E-02 0.  1.
       -2   -1    0    0    0  501  0.00000000000E+00  0.00000000000E+00 -0.15810759112E+03  0.15810759114E+03  0.25500000920E-02 0. -1.
    10030    2    1    2    0    0  0.00000000000E+00  0.00000000000E+00  0.85140822524E+03  0.11676234075E+04  0.79902969640E+03 0.  0.
        2    1    3    3  502    0 -0.37163084309E+03  0.14584010796E+03  0.44802394886E+03  0.60008689319E+03  0.25500000920E-02 0.  1.
       -2    1    3    3    0  502  0.37163084309E+03 -0.14584010796E+03  0.40338427639E+03  0.56753651431E+03  0.25500000920E-02 0. -1.
</event>
<event>
 5   0  0.6256781E-03  0.7985200E+03  0.7818609E-02  0.9562162E-01
       -2   -1    0    0    0  501  0.00000000000E+00  0.00000000000E+00  0.17305896202E+03  0.17305896204E+03  0.25500000920E-02 0. -1.
        2   -1    0    0  501    0  0.00000000000E+00  0.00000000000E+00 -0.92112273580E+03  0.92112273580E+03  0.25500000920E-02 0.  1.
    10030    2    1    2    0    0  0.00000000000E+00  0.00000000000E+00 -0.74806377378E+03  0.10941816978E+04  0.79851999239E+03 0.  0.
        1    1    3    3  502    0 -0.20459868152E+03 -0.34193185370E+03 -0.33962407617E+03  0.52356711718E+03  0.50400001928E-02 0. -1.
       -1    1    3    3    0  502  0.20459868152E+03  0.34193185370E+03 -0.40843969761E+03  0.57061458066E+03  0.50400001928E-02 0.  1.
</event>
<event>
 5   0  0.6337108E-03  0.7992362E+03  0.7818609E-02  0.9561123E-01
       -2   -1    0    0    0  501  0.00000000000E+00  0.00000000000E+00  0.21260247354E+03  0.21260247355E+03  0.25500000920E-02 0.  1.
        2   -1    0    0  501    0  0.00000000000E+00  0.00000000000E+00 -0.75114182801E+03  0.75114182802E+03  0.25500000920E-02 0. -1.
    10030    2    1    2    0    0  0.00000000000E+00  0.00000000000E+00 -0.53853935448E+03  0.96374430157E+03  0.79923616190E+03 0.  0.
        4    1    3    3  502    0  0.76300415114E+02  0.27209042263E+03  0.71445632013E+02  0.29148077581E+03  0.12699999809E+01 0.  1.
       -4    1    3    3    0  502 -0.76300415114E+02 -0.27209042263E+03 -0.60998498649E+03  0.67226352576E+03  0.12699999809E+01 0. -1.
</event>
<event>
 5   0  0.6536209E-03  0.8008367E+03  0.7818609E-02  0.9558807E-01
        2   -1    0    0  501    0  0.00000000000E+00  0.00000000000E+00  0.16447258426E+04  0.16447258426E+04  0.25500000920E-02 0. -1.
       -2   -1    0    0    0  501  0.00000000000E+00  0.00000000000E+00 -0.97484244602E+02  0.97484244635E+02  0.25500000920E-02 0.  1.
    10030    2    1    2    0    0  0.00000000000E+00  0.00000000000E+00  0.15472415980E+04  0.17422100872E+04  0.80083670338E+03 0.  0.
        3    1    3    3  502    0  0.16731302288E+03  0.32736537242E+03  0.42845718759E+03  0.56456824785E+03  0.10100000352E+00 0.  1.
       -3    1    3    3    0  502 -0.16731302288E+03 -0.32736537242E+03  0.11187844104E+04  0.11776418393E+04  0.10100000352E+00 0. -1.
</event>
<event>
 5   0  0.2478000E-03  0.7942853E+03  0.7818609E-02  0.9568326E-01
       -3   -1    0    0    0  501  0.00000000000E+00  0.00000000000E+00  0.43717693107E+03  0.43717694274E+03  0.10100000352E+00 0. -1.
        3   -1    0    0  501    0  0.00000000000E+00  0.00000000000E+00 -0.36077445796E+03  0.36077447210E+03  0.10100000352E+00 0.  1.
    10030    2    1    2    0    0  0.00000000000E+00  0.00000000000E+00  0.76402473108E+02  0.79795141484E+03  0.79428529040E+03 0.  0.
        3    1    3    3  502    0  0.27522461188E+03  0.27024834090E+03 -0.56784189107E+02  0.38988101657E+03  0.10100000352E+00 0.  1.
       -3    1    3    3    0  502 -0.27522461188E+03 -0.27024834090E+03  0.13318666222E+03  0.40807039827E+03  0.10100000352E+00 0. -1.
</event>
<event>
 5   0  0.3714448E-03  0.8030910E+03  0.7818609E-02  0.9555554E-01
        1   -1    0    0  501    0  0.00000000000E+00  0.00000000000E+00  0.18268861036E+03  0.18268861043E+03  0.50400001928E-02 0.  1.
       -1   -1    0    0    0  501  0.00000000000E+00  0.00000000000E+00 -0.88258799908E+03  0.88258799909E+03  0.50400001928E-02 0. -1.
    10030    2    1    2    0    0  0.00000000000E+00  0.00000000000E+00 -0.69989938871E+03  0.10652766095E+04  0.80309096650E+03 0.  0.
        1    1    3    3  502    0  0.22357138843E+03 -0.17147528917E+03  0.29548056563E+02  0.28330377370E+03  0.50400001928E-02 0.  1.
       -1    1    3    3    0  502 -0.22357138843E+03  0.17147528917E+03 -0.72944744528E+03  0.78197283582E+03  0.50400001928E-02 0. -1.
</event>
<event>
 5   0  0.3714448E-03  0.8020199E+03  0.7818609E-02  0.9557098E-01
       -1   -1    0    0    0  501  0.00000000000E+00  0.00000000000E+00  0.27569153821E+03  0.27569153826E+03  0.50400001928E-02 0. -1.
        1   -1    0    0  501    0  0.00000000000E+00  0.00000000000E+00 -0.58329316206E+03  0.58329316208E+03  0.50400001928E-02 0.  1.
    10030    2    1    2    0    0  0.00000000000E+00  0.00000000000E+00 -0.30760162384E+03  0.85898470034E+03  0.80201992271E+03 0.  0.
        1    1    3    3  502    0 -0.30715444015E+03 -0.25778252008E+03 -0.14989320554E+03  0.42809303995E+03  0.50400001928E-02 0. -1.
       -1    1    3    3    0  502  0.30715444015E+03  0.25778252008E+03 -0.15770841830E+03  0.43089166038E+03  0.50400001928E-02 0.  1.
</event>
<event>
 5   0  0.3860515E-03  0.7934491E+03  0.7818609E-02  0.9569548E-01
       -1   -1    0    0    0  501  0.00000000000E+00  0.00000000000E+00  0.13029486228E+03  0.13029486238E+03  0.50400001928E-02 0. -1.
        1   -1    0    0  501    0  0.00000000000E+00  0.00000000000E+00 -0.12079553650E+04  0.12079553650E+04  0.50400001928E-02 0.  1.
    10030    2    1    2    0    0  0.00000000000E+00  0.00000000000E+00 -0.10776605027E+04  0.13382502274E+04  0.79344912377E+03 0.  0.
        4    1    3    3  502    0 -0.13207867744E+03 -0.77857127917E+02 -0.11559646459E+04  0.11660884978E+04  0.12699999809E+01 0.  1.
       -4    1    3    3    0  502  0.13207867744E+03  0.77857127917E+02  0.78304143124E+02  0.17216172958E+03  0.12699999809E+01 0. -1.
</event>
<event>
 5   0  0.3714448E-03  0.7993408E+03  0.7818609E-02  0.9560972E-01
        1   -1    0    0  501    0  0.00000000000E+00  0.00000000000E+00  0.72029811043E+03  0.72029811045E+03  0.50400001928E-02 0.  1.
       -1   -1    0    0    0  501  0.00000000000E+00  0.00000000000E+00 -0.22176431994E+03  0.22176431999E+03  0.50400001928E-02 0. -1.
    10030    2    1    2    0    0  0.00000000000E+00  0.00000000000E+00  0.49853379050E+03  0.94206243044E+03  0.79934078001E+03 0.  0.
        1    1    3    3  502    0  0.11353815691E+03  0.32228827191E+03  0.49358721319E+03  0.60032406277E+03  0.50400001928E-02 0.  1.
       -1    1    3    3    0  502 -0.11353815691E+03 -0.32228827191E+03  0.49465773029E+01  0.34173836767E+03  0.50400001928E-02 0. -1.
</event>
<event>
 5   0  0.6256781E-03  0.8000332E+03  0.7818609E-02  0.9559969E-01
       -2   -1    0    0    0  501  0.00000000000E+00  0.00000000000E+00  0.36901766926E+03  0.36901766927E+03  0.25500000920E-02 0. -1.
        2   -1    0    0  501    0  0.00000000000E+00  0.00000000000E+00 -0.43361960250E+03  0.43361960251E+03  0.25500000920E-02 0.  1.
    10030    2    1    2    0    0  0.00000000000E+00  0.00000000000E+00 -0.64601933240E+02  0.80263727178E+03  0.80003323698E+03 0.  0.
        1    1    3    3  502    0  0.30697690606E+03  0.24782540491E+03  0.33952174147E+02  0.39598611381E+03  0.50400001928E-02 0. -1.
       -1    1    3    3    0  502 -0.30697690606E+03 -0.24782540491E+03 -0.98554107387E+02  0.40665115797E+03  0.50400001928E-02 0.  1.
</event>
<event>
 5   0  0.6337108E-03  0.8049933E+03  0.7818609E-02  0.9552818E-01
        2   -1    0    0  501    0  0.00000000000E+00  0.00000000000E+00  0.20448920845E+04  0.20448920845E+04  0.25500000920E-02 0.  1.
       -2   -1    0    0    0  501  0.00000000000E+00  0.00000000000E+00 -0.79223518072E+02  0.79223518113E+02  0.25500000920E-02 0. -1.
    10030    2    1    2    0    0  0.00000000000E+00  0.00000000000E+00  0.19656685664E+04  0.21241156026E+04  0.80499327962E+03 0.  0.
        4    1    3    3  502    0 -0.28095631936E+02  0.61897542792E+01  0.20421702784E+04  0.20423733098E+04  0.12699999809E+01 0.  1.
       -4    1    3    3    0  502  0.28095631936E+02 -0.61897542792E+01 -0.76501712012E+02  0.81742292802E+02  0.12699999809E+01 0. -1.
</event>
<event>
 5   0  0.6153659E-03  0.8011307E+03  0.7818609E-02  0.9558382E-01
        2   -1    0    0  501    0  0.00000000000E+00  0.00000000000E+00  0.83705160568E+03  0.83705160568E+03  0.25500000920E-02 0. -1.
       -2   -1    0    0    0  501  0.00000000000E+00  0.00000000000E+00 -0.19168781366E+03  0.19168781368E+03  0.25500000920E-02 0.  1.
    10030    2    1    2    0    0  0.00000000000E+00  0.00000000000E+00  0.64536379202E+03  0.10287394194E+04  0.80113068154E+03 0.  0.
        2    1    3    3  502    0 -0.33767565366E+03  0.19404886941E+03  0.20240819603E+03  0.43891786091E+03  0.25500000920E-02 0.  1.
       -2    1    3    3    0  502  0.33767565366E+03 -0.19404886941E+03  0.44295559598E+03  0.58982155845E+03  0.25500000920E-02 0. -1.
</event>
<event>
 5   0  0.3753450E-03  0.7852806E+03  0.7818609E-02  0.9581571E-01
       -1   -1    0    0    0  501  0.00000000000E+00  0.00000000000E+00  0.64533004993E+02  0.64533005190E+02  0.50400001928E-02 0.  1.
        1   -1    0    0  501    0  0.00000000000E+00  0.00000000000E+00 -0.23889546789E+04  0.23889546789E+04  0.50400001928E-02 0. -1.
    10030    2    1    2    0    0  0.00000000000E+00  0.00000000000E+00 -0.23244216739E+04  0.24534876841E+04  0.78528064912E+03 0.  0.
        5    1    3    3  502    0  0.13332690318E+01  0.68838038747E+01 -0.23886711511E+04  0.23886860662E+04  0.46999998093E+01 0. -1.
       -5    1    3    3    0  502 -0.13332690318E+01 -0.68838038747E+01  0.64249477243E+02  0.64801617930E+02  0.46999998093E+01 0.  1.
</event>
<event>
 5   0  0.3627496E-03  0.8124555E+03  0.7818609E-02  0.9542161E-01
        1   -1    0    0  501    0  0.00000000000E+00  0.00000000000E+00  0.31689844278E+03  0.31689844282E+03  0.50400001928E-02 0.  1.
       -1   -1    0    0    0  501  0.00000000000E+00  0.00000000000E+00 -0.52073775705E+03  0.52073775707E+03  0.50400001928E-02 0. -1.
    10030    2    1    2    0    0  0.00000000000E+00  0.00000000000E+00 -0.20383931427E+03  0.83763619989E+03  0.81245549867E+03 0.  0.
        3    1    3    3  502    0  0.13522689770E+03  0.28067539151E+03  0.16684348574E+03  0.35341441425E+03  0.10100000352E+00 0.  1.
       -3    1    3    3    0  502 -0.13522689770E+03 -0.28067539151E+03 -0.37068280001E+03  0.48422178564E+03  0.10100000352E+00 0. -1.
</event>
<event>
 5   0  0.6256781E-03  0.7989349E+03  0.7818609E-02  0.9561560E-01
       -2   -1    0    0    0  501  0.00000000000E+00  0.00000000000E+00  0.19194587478E+03  0.19194587480E+03  0.25500000920E-02 0.  1.
        2   -1    0    0  501    0  0.00000000000E+00  0.00000000000E+00 -0.83135011466E+03  0.83135011466E+03  0.25500000920E-02 0. -1.
    10030    2    1    2    0    0  0.00000000000E+00  0.00000000000E+00 -0.63940423987E+03  0.10232959895E+04  0.79893485346E+03 0.  0.
        1    1    3    3  502    0 -0.14351569991E+02 -0.37542226596E+03 -0.14583802186E+03  0.40300939689E+03  0.50400001928E-02 0.  1.
       -1    1    3    3    0  502  0.14351569991E+02  0.37542226596E+03 -0.49356621801E+03  0.62028659257E+03  0.50400001928E-02 0. -1.
</event>
<event>
 5   0  0.3860515E-03  0.7974092E+03  0.7818609E-02  0.9563775E-01
       -1   -1    0    0    0  501  0.00000000000E+00  0.00000000000E+00  0.25769468422E+03  0.25769468427E+03  0.50400001928E-02 0.  1.
        1   -1    0    0  501    0  0.00000000000E+00  0.00000000000E+00 -0.61687475917E+03  0.61687475919E+03  0.50400001928E-02 0. -1.
    10030    2    1    2    0    0  0.00000000000E+00  0.00000000000E+00 -0.35918007495E+03  0.87456944346E+03  0.79740917050E+03 0.  0.
        4    1    3    3  502    0 -0.33050983378E+03  0.11443078533E+03 -0.38950665428E+03  0.52349613321E+03  0.12699999809E+01 0. -1.
       -4    1    3    3    0  502  0.33050983378E+03 -0.11443078533E+03  0.30326579337E+02  0.35107331025E+03  0.12699999809E+01 0.  1.
</event>
<event>
 5   0  0.3714448E-03  0.7975977E+03  0.7818609E-02  0.9563501E-01
       -1   -1    0    0    0  501  0.00000000000E+00  0.00000000000E+00  0.68966809560E+03  0.68966809562E+03  0.50400001928E-02 0.  1.
        1   -1    0    0  501    0  0.00000000000E+00  0.00000000000E+00 -0.23060446188E+03  0.23060446193E+03  0.50400001928E-02 0. -1.
    10030    2    1    2    0    0  0.00000000000E+00  0.00000000000E+00  0.45906363373E+03  0.92027255755E+03  0.79759774346E+03 0.  0.
        1    1    3    3  502    0  0.32251152469E+03 -0.21822516576E+03  0.32881697682E+03  0.50966313463E+03  0.50400001928E-02 0.  1.
       -1    1    3    3    0  502 -0.32251152469E+03  0.21822516576E+03  0.13024665690E+03  0.41060942292E+03  0.50400001928E-02 0. -1.
</event>
<event>
 5   0  0.3714448E-03  0.8031107E+03  0.7818609E-02  0.9555525E-01
       -1   -1    0    0    0  501  0.00000000000E+00  0.00000000000E+00  0.96149108488E+02  0.96149108620E+02  0.50400001928E-02 0. -1.
        1   -1    0    0  501    0  0.00000000000E+00  0.00000000000E+00 -0.16770484799E+04  0.16770484799E+04  0.50400001928E-02 0.  1.
    10030    2    1    2    0    0  0.00000000000E+00  0.00000000000E+00 -0.15808993714E+04  0.17731975885E+04  0.80311074294E+03 0.  0.
        1    1    3    3  502    0  0.27656531678E+02 -0.31311620129E+03 -0.13421629328E+04  0.13784803145E+04  0.50400001928E-02 0.  1.
       -1    1    3    3    0  502 -0.27656531678E+02  0.31311620129E+03 -0.23873643857E+03  0.39471727399E+03  0.50400001928E-02 0. -1.
</event>
<event>
 5   0  0.2478000E-03  0.8015779E+03  0.7818609E-02  0.9557736E-01
        3   -1    0    0  501    0  0.00000000000E+00  0.00000000000E+00  0.95326244438E+02  0.95326297944E+02  0.10100000352E+00 0. -1.
       -3   -1    0    0    0  501  0.00000000000E+00  0.00000000000E+00 -0.16850734913E+04  0.16850734944E+04  0.10100000352E+00 0.  1.
    10030    2    1    2    0    0  0.00000000000E+00  0.00000000000E+00 -0.15897472469E+04  0.17803997923E+04  0.80157788856E+03 0.  0.
        4    1    3    3  502    0  0.12069024920E+03  0.30908842373E+02 -0.16409673798E+04  0.16456904470E+04  0.12699999809E+01 0.  1.
       -4    1    3    3    0  502 -0.12069024920E+03 -0.30908842373E+02  0.51220132946E+02  0.13470934529E+03  0.12699999809E+01 0. -1.
</event>
<event>
 5   0  0.3753450E-03  0.8017060E+03  0.7818609E-02  0.9557551E-01
        1   -1    0    0  501    0  0.00000000000E+00  0.00000000000E+00  0.60772050674E+03  0.60772050677E+03  0.50400001928E-02 0.  1.
       -1   -1    0    0    0  501  0.00000000000E+00  0.00000000000E+00 -0.26440301917E+03  0.26440301922E+03  0.50400001928E-02 0. -1.
    10030    2    1    2    0    0  0.00000000000E+00  0.00000000000E+00  0.34331748757E+03  0.87212352599E+03  0.80170602299E+03 0.  0.
        5    1    3    3  502    0  0.16978494818E+03  0.17108552477E+03 -0.17672672901E+03  0.29891740022E+03  0.46999998093E+01 0. -1.
       -5    1    3    3    0  502 -0.16978494818E+03 -0.17108552477E+03  0.52004421658E+03  0.57320612576E+03  0.46999998093E+01 0.  1.
</event>
<event>
 5   0  0.3627496E-03  0.7989914E+03  0.7818609E-02  0.9561478E-01
       -1   -1    0    0    0  501  0.00000000000E+00  0.00000000000E+00  0.15007375387E+03  0.15007375396E+03  0.50400001928E-02 0.  1.
        1   -1    0    0  501    0  0.00000000000E+00  0.00000000000E+00 -0.10634557385E+04  0.10634557385E+04  0.50400001928E-02 0. -1.
    10030    2    1    2    0    0  0.00000000000E+00  0.00000000000E+00 -0.91338198464E+03  0.12135294925E+04  0.79899135117E+03 0.  0.
        3    1    3    3  502    0 -0.43667938202E+02 -0.39709751709E+03 -0.45951523750E+03  0.60889045862E+03  0.10100000352E+00 0.  1.
       -3    1    3    3    0  502  0.43667938202E+02  0.39709751709E+03 -0.45386674713E+03  0.60463903385E+03  0.10100000352E+00 0. -1.
</event>
<event>
 5   0  0.6337108E-03  0.8018420E+03  0.7818609E-02  0.9557355E-01
       -2   -1    0    0    0  501  0.00000000000E+00  0.00000000000E+00  0.13062626576E+03  0.13062626579E+03  0.25500000920E-02 0. -1.
        2   -1    0    0  501    0  0.00000000000E+00  0.00000000000E+00 -0.12305155452E+04  0.12305155452E+04  0.25500000920E-02 0.  1.
    10030    2    1    2    0    0  0.00000000000E+00  0.00000000000E+00 -0.10998892795E+04  0.13611418110E+04  0.80184200601E+03 0.  0.
        4    1    3    3  502    0  0.38909452077E+02 -0.30626349517E+03 -0.11574880533E+03  0.32971301577E+03  0.12699999809E+01 0. -1.
       -4    1    3    3    0  502 -0.38909452077E+02  0.30626349517E+03 -0.98414047413E+03  0.10314287952E+04  0.12699999809E+01 0.  1.
</event>
<event>
 5   0  0.6256781E-03  0.7985824E+03  0.7818609E-02  0.9562071E-01
       -2   -1    0    0    0  501  0.00000000000E+00  0.00000000000E+00  0.12111229848E+03  0.12111229851E+03  0.25500000920E-02 0.  1.
        2   -1    0    0  501    0  0.00000000000E+00  0.00000000000E+00 -0.13164101298E+04  0.13164101298E+04  0.25500000920E-02 0. -1.
    10030    2    1    2    0    0  0.00000000000E+00  0.00000000000E+00 -0.11952978313E+04  0.14375224283E+04  0.79858238544E+03 0.  0.
        1    1    3    3  502    0 -0.37244329535E+02 -0.13642860007E+03  0.74520194822E+02  0.15985356568E+03  0.50400001928E-02 0.  1.
       -1    1    3    3    0  502  0.37244329535E+02  0.13642860007E+03 -0.12698180261E+04  0.12776688626E+04  0.50400001928E-02 0. -1.
</event>
<event>
 5   0  0.3860515E-03  0.7978244E+03  0.7818609E-02  0.9563172E-01
        1   -1    0    0  501    0  0.00000000000E+00  0.00000000000E+00  0.61724571638E+03  0.61724571640E+03  0.50400001928E-02 0.  1.
       -1   -1    0    0    0  501  0.00000000000E+00  0.00000000000E+00 -0.25780808453E+03  0.25780808458E+03  0.50400001928E-02 0. -1.
    10030    2    1    2    0    0  0.00000000000E+00  0.00000000000E+00  0.35943763185E+03  0.87505380098E+03  0.79782438131E+03 0.  0.
        4    1    3    3  502    0  0.24219525181E+03 -0.16970643773E+03  0.47334696853E+03  0.55813777916E+03  0.12699999809E+01 0.  1.
       -4    1    3    3    0  502 -0.24219525181E+03  0.16970643773E+03 -0.11390933668E+03  0.31691602182E+03  0.12699999809E+01 0. -1.
</event>
<event>
 5   0  0.5813850E-03  0.7967398E+03  0.7818609E-02  0.9564748E-01
        2   -1    0    0  501    0  0.00000000000E+00  0.00000000000E+00  0.97804668970E+03  0.97804668971E+03  0.25500000920E-02 0.  1.
       -2   -1    0    0    0  501  0.00000000000E+00  0.00000000000E+00 -0.16226072742E+03  0.16226072744E+03  0.25500000920E-02 0. -1.
    10030    2    1    2    0    0  0.00000000000E+00  0.00000000000E+00  0.81578596228E+03  0.11403074171E+04  0.79673977518E+03 0.  0.
        5    1    3    3  502    0  0.59818669015E+02 -0.26191279256E+03 -0.13040272488E+02  0.26901435422E+03  0.46999998093E+01 0. -1.
       -5    1    3    3    0  502 -0.59818669015E+02  0.26191279256E+03  0.82882623477E+03  0.87129306293E+03  0.46999998093E+01 0.  1.
</event>
<event>
 5   0  0.3860515E-03  0.8003720E+03  0.7818609E-02  0.9559479E-01
        1   -1    0    0  501    0  0.00000000000E+00  0.00000000000E+00  0.17719377529E+04  0.17719377529E+04  0.50400001928E-02 0.  1.
       -1   -1    0    0    0  501  0.00000000000E+00  0.00000000000E+00 -0.90380611112E+02  0.90380611252E+02  0.50400001928E-02 0. -1.
    10030    2    1    2    0    0  0.00000000000E+00  0.00000000000E+00  0.16815571418E+04  0.18623183642E+04  0.80037195628E+03 0.  0.
        4    1    3    3  502    0 -0.26797775516E+03 -0.12133764353E+02  0.15317602935E+04  0.15550725112E+04  0.12699999809E+01 0.  1.
       -4    1    3    3    0  502  0.26797775516E+03  0.12133764353E+02  0.14979684830E+03  0.30724585295E+03  0.12699999809E+01 0. -1.
</event>
<event>
 5   0  0.3714448E-03  0.7993976E+03  0.7818609E-02  0.9560889E-01
       -1   -1    0    0    0  501  0.00000000000E+00  0.00000000000E+00  0.29713484792E+03  0.29713484796E+03  0.50400001928E-02 0. -1.
        1   -1    0    0  501    0  0.00000000000E+00  0.00000000000E+00 -0.53766544134E+03  0.53766544137E+03  0.50400001928E-02 0.  1.
    10030    2    1    2    0    0  0.00000000000E+00  0.00000000000E+00 -0.24053059343E+03  0.83480028933E+03  0.79939762114E+03 0.  0.
        1    1    3    3  502    0 -0.16235883755E+03 -0.39356436840E+02 -0.49945759382E+03  0.52665663321E+03  0.50400001928E-02 0.  1.
       -1    1    3    3    0  502  0.16235883755E+03  0.39356436840E+02  0.25892700039E+03  0.30814365612E+03  0.50400001928E-02 0. -1.
</event>
<event>
 5   0  0.3714448E-03  0.7990301E+03  0.7818609E-02  0.9561422E-01
        1   -1    0    0  501    0  0.00000000000E+00  0.00000000000E+00  0.74384409874E+03  0.74384409876E+03  0.50400001928E-02 0. -1.
       -1   -1    0    0    0  501  0.00000000000E+00  0.00000000000E+00 -0.21457760138E+03  0.21457760144E+03  0.50400001928E-02 0.  1.
    10030    2    1    2    0    0  0.00000000000E+00  0.00000000000E+00  0.52926649737E+03  0.95842170019E+03  0.79903011844E+03 0.  0.
        1    1    3    3  502    0 -0.16384922050E+02 -0.20646262872E+03  0.67442248438E+03  0.70550759754E+03  0.50400001928E-02 0. -1.
       -1    1    3    3    0  502  0.16384922050E+02  0.20646262872E+03 -0.14515598701E+03  0.25291410265E+03  0.50400001928E-02 0.  1.
</event>
<event>
 5   0  0.3627496E-03  0.7994929E+03  0.7818609E-02  0.9560751E-01
        1   -1    0    0  501    0  0.00000000000E+00  0.00000000000E+00  0.33072691274E+03  0.33072691278E+03  0.50400001928E-02 0. -1.
       -1   -1    0    0    0  501  0.00000000000E+00  0.00000000000E+00 -0.48316966182E+03  0.48316966185E+03  0.50400001928E-02 0.  1.
    10030    2    1    2    0    0  0.00000000000E+00  0.00000000000E+00 -0.15244274908E+03  0.81389657462E+03  0.79949286578E+03 0.  0.
        3    1    3    3  502    0  0.38645751127E+02  0.39575392493E+03 -0.11797911292E+03  0.41476950764E+03  0.10100000352E+00 0. -1.
       -3    1    3    3    0  502 -0.38645751127E+02 -0.39575392493E+03 -0.34463636161E+02  0.39912706698E+03  0.10100000352E+00 0.  1.
</event>
<event>
 5   0  0.5813850E-03  0.7952741E+03  0.7818609E-02  0.9566883E-01
       -2   -1    0    0    0  501  0.00000000000E+00  0.00000000000E+00  0.69784087749E+02  0.69784087795E+02  0.25500000920E-02 0. -1.
        2   -1    0    0  501    0  0.00000000000E+00  0.00000000000E+00 -0.22657773900E+04  0.22657773900E+04  0.25500000920E-02 0.  1.
    10030    2    1    2    0    0  0.00000000000E+00  0.00000000000E+00 -0.21959933023E+04  0.23355614778E+04  0.79527406159E+03 0.  0.
        5    1    3    3  502    0  0.15603037142E+02 -0.85971603126E+02 -0.22371519044E+04  0.22388625024E+04  0.46999998093E+01 0.  1.
       -5    1    3    3    0  502 -0.15603037142E+02  0.85971603126E+02  0.41158602152E+02  0.96698975389E+02  0.46999998093E+01 0. -1.
</event>
<event>
 5   0  0.6256781E-03  0.7859534E+03  0.7818609E-02  0.9580575E-01
       -2   -1    0    0    0  501  0.00000000000E+00  0.00000000000E+00  0.32585025740E+03  0.32585025741E+03  0.25500000920E-02 0.  1.
        2   -1    0    0  501    0  0.00000000000E+00  0.00000000000E+00 -0.47393140716E+03  0.47393140716E+03  0.25500000920E-02 0. -1.
    10030    2    1    2    0    0  0.00000000000E+00  0.00000000000E+00 -0.14808114975E+03  0.79978166458E+03  0.78595335999E+03 0.  0.
        1    1    3    3  502    0  0.38292293583E+03  0.74637861440E+02 -0.12209307455E+03  0.40878784721E+03  0.50400001928E-02 0.  1.
       -1    1    3    3    0  502 -0.38292293583E+03 -0.74637861440E+02 -0.25988075202E+02  0.39099381737E+03  0.50400001928E-02 0. -1.
</event>
<event>
 5   0  0.3860515E-03  0.7961802E+03  0.7818609E-02  0.9565563E-01
       -1   -1    0    0    0  501  0.00000000000E+00  0.00000000000E+00  0.33341330824E+03  0.33341330828E+03  0.50400001928E-02 0. -1.
        1   -1    0    0  501    0  0.00000000000E+00  0.00000000000E+00 -0.47531319422E+03  0.47531319425E+03  0.50400001928E-02 0.  1.
    10030    2    1    2    0    0  0.00000000000E+00  0.00000000000E+00 -0.14189988598E+03  0.80872650253E+03  0.79618024232E+03 0.  0.
        4    1    3    3  502    0  0.27806123796E+02 -0.21856600822E+03  0.26583145813E+03  0.34527128103E+03  0.12699999809E+01 0. -1.
       -4    1    3    3    0  502 -0.27806123796E+02  0.21856600822E+03 -0.40773134411E+03  0.46345522150E+03  0.12699999809E+01 0.  1.
</event>
<event>
 5   0  0.3627496E-03  0.7981287E+03  0.7818609E-02  0.9562730E-01
       -1   -1    0    0    0  501  0.00000000000E+00  0.00000000000E+00  0.60995866109E+03  0.60995866112E+03  0.50400001928E-02 0. -1.
        1   -1    0    0  501    0  0.00000000000E+00  0.00000000000E+00 -0.26108713755E+03  0.26108713760E+03  0.50400001928E-02 0.  1.
    10030    2    1    2    0    0  0.00000000000E+00  0.00000000000E+00  0.34887152354E+03  0.87104579872E+03  0.79812871363E+03 0.  0.
        3    1    3    3  502    0 -0.15520073442E+03  0.36734972480E+03  0.15827543486E+03  0.42905036040E+03  0.10100000352E+00 0. -1.
       -3    1    3    3    0  502  0.15520073442E+03 -0.36734972480E+03  0.19059608868E+03  0.44199543832E+03  0.10100000352E+00 0.  1.
</event>
<event>
 5   0  0.5813850E-03  0.8034826E+03  0.7818609E-02  0.9554990E-01
       -2   -1    0    0    0  501  0.00000000000E+00  0.00000000000E+00  0.13360302075E+03  0.13360302077E+03  0.25500000920E-02 0. -1.
        2   -1    0    0  501    0  0.00000000000E+00  0.00000000000E+00 -0.12080270518E+04  0.12080270518E+04  0.25500000920E-02 0.  1.
    10030    2    1    2    0    0  0.00000000000E+00  0.00000000000E+00 -0.10744240310E+04  0.13416300725E+04  0.80348257797E+03 0.  0.
        5    1    3    3  502    0 -0.36710674449E+03  0.14395651329E+03 -0.66528592871E+03  0.77338108104E+03  0.46999998093E+01 0.  1.
       -5    1    3    3    0  502  0.36710674449E+03 -0.14395651329E+03 -0.40913810230E+03  0.56824899149E+03  0.46999998093E+01 0. -1.
</event>
<event>
 5   0  0.3627496E-03  0.7893281E+03  0.7818609E-02  0.9575594E-01
       -1   -1    0    0    0  501  0.00000000000E+00  0.00000000000E+00  0.33623455926E+03  0.33623455930E+03  0.50400001928E-02 0. -1.
        1   -1    0    0  501    0  0.00000000000E+00  0.00000000000E+00 -0.46324717864E+03  0.46324717867E+03  0.50400001928E-02 0.  1.
    10030    2    1    2    0    0  0.00000000000E+00  0.00000000000E+00 -0.12701261938E+03  0.79948173797E+03  0.78932809646E+03 0.  0.
        3    1    3    3  502    0 -0.14458504644E+03  0.31090249590E+03  0.13444182717E+03  0.36829310705E+03  0.10100000352E+00 0. -1.
       -3    1    3    3    0  502  0.14458504644E+03 -0.31090249590E+03 -0.26145444654E+03  0.43118863091E+03  0.10100000352E+00 0.  1.
</event>
<event>
 5   0  0.3714448E-03  0.7805409E+03  0.7818609E-02  0.9588618E-01
        1   -1    0    0  501    0  0.00000000000E+00  0.00000000000E+00  0.29646420773E+03  0.29646420777E+03  0.50400001928E-02 0. -1.
       -1   -1    0    0    0  501  0.00000000000E+00  0.00000000000E+00 -0.51375849441E+03  0.51375849443E+03  0.50400001928E-02 0.  1.
    10030    2    1    2    0    0  0.00000000000E+00  0.00000000000E+00 -0.21729428668E+03  0.81022270221E+03  0.78054085104E+03 0.  0.
        1    1    3    3  502    0 -0.28563853868E+03  0.24034226865E+03 -0.22680558533E+03  0.43680035994E+03  0.50400001928E-02 0.  1.
       -1    1    3    3    0  502  0.28563853868E+03 -0.24034226865E+03  0.95112986525E+01  0.37342234227E+03  0.50400001928E-02 0. -1.
</event>
<event>
 5   0  0.6337108E-03  0.8062429E+03  0.7818609E-02  0.9551024E-01
        2   -1    0    0  501    0  0.00000000000E+00  0.00000000000E+00  0.26358349536E+03  0.26358349538E+03  0.25500000920E-02 0. -1.
       -2   -1    0    0    0  501  0.00000000000E+00  0.00000000000E+00 -0.61652916258E+03  0.61652916259E+03  0.25500000920E-02 0.  1.
    10030    2    1    2    0    0  0.00000000000E+00  0.00000000000E+00 -0.35294566722E+03  0.88011265797E+03  0.80624292040E+03 0.  0.
        4    1    3    3  502    0  0.29594785436E+03  0.12299157648E+03 -0.44340345084E+03  0.54710172135E+03  0.12699999809E+01 0.  1.
       -4    1    3    3    0  502 -0.29594785436E+03 -0.12299157648E+03  0.90457783627E+02  0.33301093661E+03  0.12699999809E+01 0. -1.
</event>
<event>
 5   0  0.6153659E-03  0.7979719E+03  0.7818609E-02  0.9562957E-01
        2   -1    0    0  501    0  0.00000000000E+00  0.00000000000E+00  0.14082324493E+03  0.14082324495E+03  0.25500000920E-02 0. -1.
       -2   -1    0    0    0  501  0.00000000000E+00  0.00000000000E+00 -0.11304226349E+04  0.11304226349E+04  0.25500000920E-02 0.  1.
    10030    2    1    2    0    0  0.00000000000E+00  0.00000000000E+00 -0.98959939000E+03  0.12712458799E+04  0.79797188824E+03 0.  0.
        2    1    3    3  502    0  0.23667990838E+03  0.25839520800E+03 -0.19083829620E+03  0.39900465893E+03  0.25500000920E-02 0. -1.
       -2    1    3    3    0  502 -0.23667990838E+03 -0.25839520800E+03 -0.79876109380E+03  0.87224122095E+03  0.25500000920E-02 0.  1.
</event>
<event>
 5   0  0.3671128E-03  0.8007164E+03  0.7818609E-02  0.9558981E-01
       -1   -1    0    0    0  501  0.00000000000E+00  0.00000000000E+00  0.50155864396E+03  0.50155864398E+03  0.50400001928E-02 0. -1.
        1   -1    0    0  501    0  0.00000000000E+00  0.00000000000E+00 -0.31957717438E+03  0.31957717442E+03  0.50400001928E-02 0.  1.
    10030    2    1    2    0    0  0.00000000000E+00  0.00000000000E+00  0.18198146958E+03  0.82113581840E+03  0.80071641484E+03 0.  0.
        2    1    3    3  502    0 -0.14595557630E+03  0.18778628817E+03 -0.23927800138E+03  0.33737320911E+03  0.25500000920E-02 0. -1.
       -2    1    3    3    0  502  0.14595557630E+03 -0.18778628817E+03  0.42125947095E+03  0.48376260929E+03  0.25500000920E-02 0.  1.
</event>
<event>
 5   0  0.6153659E-03  0.8015666E+03  0.7818609E-02  0.9557752E-01
        2   -1    0    0  501    0  0.00000000000E+00  0.00000000000E+00  0.60251776490E+03  0.60251776490E+03  0.25500000920E-02 0. -1.
       -2   -1    0    0    0  501  0.00000000000E+00  0.00000000000E+00 -0.26659335922E+03  0.26659335923E+03  0.25500000920E-02 0.  1.
    10030    2    1    2    0    0  0.00000000000E+00  0.00000000000E+00  0.33592440568E+03  0.86911112413E+03  0.80156655354E+03 0.  0.
        2    1    3    3  502    0 -0.20614255038E+03  0.15184570180E+03  0.50228787458E+03  0.56377741813E+03  0.25500000920E-02 0. -1.
       -2    1    3    3    0  502  0.20614255038E+03 -0.15184570180E+03 -0.16636346890E+03  0.30533370601E+03  0.25500000920E-02 0.  1.
</event>
<event>
 5   0  0.3671128E-03  0.7994952E+03  0.7818609E-02  0.9560748E-01
        1   -1    0    0  501    0  0.00000000000E+00  0.00000000000E+00  0.45779966906E+03  0.45779966908E+03  0.50400001928E-02 0. -1.
       -1   -1    0    0    0  501  0.00000000000E+00  0.00000000000E+00 -0.34905691331E+03  0.34905691335E+03  0.50400001928E-02 0.  1.
    10030    2    1    2    0    0  0.00000000000E+00  0.00000000000E+00  0.10874275574E+03  0.80685658243E+03  0.79949518929E+03 0.  0.
        2    1    3    3  502    0 -0.14448229961E+02 -0.20725854625E+03  0.39903205891E+03  0.44987936204E+03  0.25500000920E-02 0. -1.
       -2    1    3    3    0  502  0.14448229961E+02  0.20725854625E+03 -0.29028930317E+03  0.35697722040E+03  0.25500000920E-02 0.  1.
</event>
<event>
 5   0  0.3753450E-03  0.7997394E+03  0.7818609E-02  0.9560394E-01
        1   -1    0    0  501    0  0.00000000000E+00  0.00000000000E+00  0.32434566309E+03  0.32434566313E+03  0.50400001928E-02 0. -1.
       -1   -1    0    0    0  501  0.00000000000E+00  0.00000000000E+00 -0.49297951362E+03  0.49297951365E+03  0.50400001928E-02 0.  1.
    10030    2    1    2    0    0  0.00000000000E+00  0.00000000000E+00 -0.16863385053E+03  0.81732517677E+03  0.79973937570E+03 0.  0.
        5    1    3    3  502    0 -0.18502072418E+03  0.11672941726E+03 -0.42636328908E+03  0.47923498360E+03  0.46999998093E+01 0.  1.
       -5    1    3    3    0  502  0.18502072418E+03 -0.11672941726E+03  0.25772943854E+03  0.33809019318E+03  0.46999998093E+01 0. -1.
</event>
<event>
 5   0  0.3714448E-03  0.8020468E+03  0.7818609E-02  0.9557059E-01
        1   -1    0    0  501    0  0.00000000000E+00  0.00000000000E+00  0.58240625806E+03  0.58240625808E+03  0.50400001928E-02 0. -1.
       -1   -1    0    0    0  501  0.00000000000E+00  0.00000000000E+00 -0.27612986257E+03  0.27612986262E+03  0.50400001928E-02 0.  1.
    10030    2    1    2    0    0  0.00000000000E+00  0.00000000000E+00  0.30627639549E+03  0.85853612070E+03  0.80204678174E+03 0.  0.
        1    1    3    3  502    0  0.25641196445E+03  0.50510642077E+02 -0.17245837672E+03  0.31311389653E+03  0.50400001928E-02 0.  1.
       -1    1    3    3    0  502 -0.25641196445E+03 -0.50510642077E+02  0.47873477220E+03  0.54542222417E+03  0.50400001928E-02 0. -1.
</event>
<event>
 5   0  0.6153659E-03  0.8004794E+03  0.7818609E-02  0.9559323E-01
       -2   -1    0    0    0  501  0.00000000000E+00  0.00000000000E+00  0.31745810569E+03  0.31745810570E+03  0.25500000920E-02 0.  1.
        2   -1    0    0  501    0  0.00000000000E+00  0.00000000000E+00 -0.50460771779E+03  0.50460771780E+03  0.25500000920E-02 0. -1.
    10030    2    1    2    0    0  0.00000000000E+00  0.00000000000E+00 -0.18714961210E+03  0.82206582350E+03  0.80047938191E+03 0.  0.
        2    1    3    3  502    0 -0.36910369556E+03 -0.14583675500E+03 -0.40351430414E+02  0.39891620063E+03  0.25500000920E-02 0.  1.
       -2    1    3    3    0  502  0.36910369556E+03  0.14583675500E+03 -0.14679818168E+03  0.42314962287E+03  0.25500000920E-02 0. -1.
</event>
<event>
 5   0  0.6337108E-03  0.8015623E+03  0.7818609E-02  0.9557759E-01
       -2   -1    0    0    0  501  0.00000000000E+00  0.00000000000E+00  0.10615770467E+03  0.10615770470E+03  0.25500000920E-02 0. -1.
        2   -1    0    0  501    0  0.00000000000E+00  0.00000000000E+00 -0.15130838710E+04  0.15130838710E+04  0.25500000920E-02 0.  1.
    10030    2    1    2    0    0  0.00000000000E+00  0.00000000000E+00 -0.14069261664E+04  0.16192415757E+04  0.80156225147E+03 0.  0.
        4    1    3    3  502    0 -0.12318244893E+03 -0.28454563444E+03 -0.19048409114E+03  0.36390374507E+03  0.12699999809E+01 0. -1.
       -4    1    3    3    0  502  0.12318244893E+03  0.28454563444E+03 -0.12164420752E+04  0.12553378307E+04  0.12699999809E+01 0.  1.
</event>
<event>
 5   0  0.6256781E-03  0.8033436E+03  0.7818609E-02  0.9555190E-01
        2   -1    0    0  501    0  0.00000000000E+00  0.00000000000E+00  0.11682543628E+04  0.11682543628E+04  0.25500000920E-02 0.  1.
       -2   -1    0    0    0  501  0.00000000000E+00  0.00000000000E+00 -0.13810368418E+03  0.13810368420E+03  0.25500000920E-02 0. -1.
    10030    2    1    2    0    0  0.00000000000E+00  0.00000000000E+00  0.10301506786E+04  0.13063580470E+04  0.80334359167E+03 0.  0.
        1    1    3    3  502    0 -0.36040152228E+03 -0.12878061868E+03  0.71334928368E+03  0.80953128757E+03  0.50400001928E-02 0.  1.
       -1    1    3    3    0  502  0.36040152228E+03  0.12878061868E+03  0.31680139491E+03  0.49682675940E+03  0.50400001928E-02 0. -1.
</event>
<event>
 5   0  0.6256781E-03  0.8042374E+03  0.7818609E-02  0.9553904E-01
        2   -1    0    0  501    0  0.00000000000E+00  0.00000000000E+00  0.65207155127E+03  0.65207155127E+03  0.25500000920E-02 0. -1.
       -2   -1    0    0    0  501  0.00000000000E+00  0.00000000000E+00 -0.24797810532E+03  0.24797810533E+03  0.25500000920E-02 0.  1.
    10030    2    1    2    0    0  0.00000000000E+00  0.00000000000E+00  0.40409344595E+03  0.90004965661E+03  0.80423744709E+03 0.  0.
        1    1    3    3  502    0 -0.12439382397E+03 -0.33390932712E+03 -0.65156007150E+01  0.35638703015E+03  0.50400001928E-02 0.  1.
       -1    1    3    3    0  502  0.12439382397E+03  0.33390932712E+03  0.41060904666E+03  0.54366262646E+03  0.50400001928E-02 0. -1.
</event>
<event>
 5   0  0.3671128E-03  0.8007124E+03  0.7818609E-02  0.9558986E-01
       -1   -1    0    0    0  501  0.00000000000E+00  0.00000000000E+00  0.10363908656E+03  0.10363908669E+03  0.50400001928E-02 0.  1.
        1   -1    0    0  501    0  0.00000000000E+00  0.00000000000E+00 -0.15465700354E+04  0.15465700354E+04  0.50400001928E-02 0. -1.
    10030    2    1    2    0    0  0.00000000000E+00  0.00000000000E+00 -0.14429309488E+04  0.16502091221E+04  0.80071244747E+03 0.  0.
        2    1    3    3  502    0  0.74049607705E+02 -0.39339850712E+03 -0.70853308955E+03  0.81379657703E+03  0.25500000920E-02 0.  1.
       -2    1    3    3    0  502 -0.74049607705E+02  0.39339850712E+03 -0.73439785930E+03  0.83641254507E+03  0.25500000920E-02 0. -1.
</event>
<event>
 5   0  0.2478000E-03  0.7991106E+03  0.7818609E-02  0.9561305E-01
        4   -1    0    0  501    0  0.00000000000E+00  0.00000000000E+00  0.65356536195E+03  0.65356659587E+03  0.12699999809E+01 0. -1.
       -4   -1    0    0    0  501  0.00000000000E+00  0.00000000000E+00 -0.24426383649E+03  0.24426713802E+03  0.12699999809E+01 0.  1.
    10030    2    1    2    0    0  0.00000000000E+00  0.00000000000E+00  0.40930152546E+03  0.89783373389E+03  0.79911055240E+03 0.  0.
        2    1    3    3  502    0  0.36472992207E+03 -0.22894397734E+02  0.23163711387E+02  0.36618113965E+03  0.25500000920E-02 0.  1.
       -2    1    3    3    0  502 -0.36472992207E+03  0.22894397734E+02  0.38613781408E+03  0.53165259424E+03  0.25500000920E-02 0. -1.
</event>
<event>
 5   0  0.6256781E-03  0.8048602E+03  0.7818609E-02  0.9553009E-01
        2   -1    0    0  501    0  0.00000000000E+00  0.00000000000E+00  0.13924482227E+04  0.13924482227E+04  0.25500000920E-02 0. -1.
       -2   -1    0    0    0  501  0.00000000000E+00  0.00000000000E+00 -0.11630592696E+03  0.11630592699E+03  0.25500000920E-02 0.  1.
    10030    2    1    2    0    0  0.00000000000E+00  0.00000000000E+00  0.12761422957E+04  0.15087541496E+04  0.80486018985E+03 0.  0.
        1    1    3    3  502    0 -0.57240318590E+02 -0.39450268506E+03  0.74144663562E+03  0.84181466849E+03  0.50400001928E-02 0. -1.
       -1    1    3    3    0  502  0.57240318590E+02  0.39450268506E+03  0.53469566007E+03  0.66693948115E+03  0.50400001928E-02 0.  1.
</event>
<event>
 5   0  0.5813850E-03  0.7978906E+03  0.7818609E-02  0.9563075E-01
       -2   -1    0    0    0  501  0.00000000000E+00  0.00000000000E+00  0.32522745906E+03  0.32522745907E+03  0.25500000920E-02 0.  1.
        2   -1    0    0  501    0  0.00000000000E+00  0.00000000000E+00 -0.48937246226E+03  0.48937246226E+03  0.25500000920E-02 0. -1.
    10030    2    1    2    0    0  0.00000000000E+00  0.00000000000E+00 -0.16414500320E+03  0.81459992133E+03  0.79789062518E+03 0.  0.
        5    1    3    3  502    0 -0.10997100347E+03 -0.27254012400E+03 -0.35746866540E+03  0.46279334214E+03  0.46999998093E+01 0. -1.
       -5    1    3    3    0  502  0.10997100347E+03  0.27254012400E+03  0.19332366220E+03  0.35180657918E+03  0.46999998093E+01 0.  1.
</event>
<event>
 5   0  0.6337108E-03  0.7964650E+03  0.7818609E-02  0.9565148E-01
       -2   -1    0    0    0  501  0.00000000000E+00  0.00000000000E+00  0.91656281418E+02  0.91656281454E+02  0.25500000920E-02 0.  1.
        2   -1    0    0  501    0  0.00000000000E+00  0.00000000000E+00 -0.17302590466E+04  0.17302590466E+04  0.25500000920E-02 0. -1.
    10030    2    1    2    0    0  0.00000000000E+00  0.00000000000E+00 -0.16386027652E+04  0.18219153281E+04  0.79646496505E+03 0.  0.
        4    1    3    3  502    0 -0.75902809111E+02  0.30743282914E+03 -0.13716813699E+04  0.14077597715E+04  0.12699999809E+01 0. -1.
       -4    1    3    3    0  502  0.75902809111E+02 -0.30743282914E+03 -0.26692139532E+03  0.41415555658E+03  0.12699999809E+01 0.  1.
</event>
<event>
 5   0  0.3714448E-03  0.8037855E+03  0.7818609E-02  0.9554554E-01
       -1   -1    0    0    0  501  0.00000000000E+00  0.00000000000E+00  0.19855874745E+03  0.19855874751E+03  0.50400001928E-02 0. -1.
        1   -1    0    0  501    0  0.00000000000E+00  0.00000000000E+00 -0.81345078921E+03  0.81345078923E+03  0.50400001928E-02 0.  1.
    10030    2    1    2    0    0  0.00000000000E+00  0.00000000000E+00 -0.61489204176E+03  0.10120095367E+04  0.80378546853E+03 0.  0.
        1    1    3    3  502    0  0.15310567552E+03  0.34640461912E+03 -0.13814997601E+03  0.40314132003E+03  0.50400001928E-02 0. -1.
       -1    1    3    3    0  502 -0.15310567552E+03 -0.34640461912E+03 -0.47674206576E+03  0.60886821670E+03  0.50400001928E-02 0.  1.
</event>
<event>
 5   0  0.6536209E-03  0.8224424E+03  0.7818609E-02  0.9528089E-01
        2   -1    0    0  501    0  0.00000000000E+00  0.00000000000E+00  0.26137881423E+03  0.26137881425E+03  0.25500000920E-02 0. -1.
       -2   -1    0    0    0  501  0.00000000000E+00  0.00000000000E+00 -0.64696468480E+03  0.64696468480E+03  0.25500000920E-02 0.  1.
    10030    2    1    2    0    0  0.00000000000E+00  0.00000000000E+00 -0.38558587056E+03  0.90834349905E+03  0.82244236800E+03 0.  0.
        3    1    3    3  502    0 -0.18986302091E+03  0.33819964927E+03 -0.41859587900E+02  0.39010153137E+03  0.10100000352E+00 0. -1.
       -3    1    3    3    0  502  0.18986302091E+03 -0.33819964927E+03 -0.34372628266E+03  0.51824196768E+03  0.10100000352E+00 0.  1.
</event>
<event>
 5   0  0.6256781E-03  0.8043702E+03  0.7818609E-02  0.9553713E-01
        2   -1    0    0  501    0  0.00000000000E+00  0.00000000000E+00  0.48948976442E+03  0.48948976443E+03  0.25500000920E-02 0. -1.
       -2   -1    0    0    0  501  0.00000000000E+00  0.00000000000E+00 -0.33045192473E+03  0.33045192474E+03  0.25500000920E-02 0.  1.
    10030    2    1    2    0    0  0.00000000000E+00  0.00000000000E+00  0.15903783970E+03  0.81994168917E+03  0.80437015060E+03 0.  0.
        1    1    3    3  502    0 -0.28480851968E+03  0.23737306305E+03 -0.79353846789E+02  0.37915550500E+03  0.50400001928E-02 0.  1.
       -1    1    3    3    0  502  0.28480851968E+03 -0.23737306305E+03  0.23839168649E+03  0.44078618417E+03  0.50400001928E-02 0. -1.
</event>
<event>
 5   0  0.3860515E-03  0.7975114E+03  0.7818609E-02  0.9563626E-01
       -1   -1    0    0    0  501  0.00000000000E+00  0.00000000000E+00  0.24604161898E+03  0.24604161903E+03  0.50400001928E-02 0.  1.
        1   -1    0    0  501    0  0.00000000000E+00  0.00000000000E+00 -0.64625697682E+03  0.64625697684E+03  0.50400001928E-02 0. -1.
    10030    2    1    2    0    0  0.00000000000E+00  0.00000000000E+00 -0.40021535784E+03  0.89229859587E+03  0.79751141154E+03 0.  0.
        4    1    3    3  502    0  0.70202936196E+02  0.13518753398E+03  0.21220225026E+03  0.26121931305E+03  0.12699999809E+01 0.  1.
       -4    1    3    3    0  502 -0.70202936196E+02 -0.13518753398E+03 -0.61241760810E+03  0.63107928282E+03  0.12699999809E+01 0. -1.
</event>
<event>
 5   0  0.6536209E-03  0.8007259E+03  0.7818609E-02  0.9558967E-01
       -2   -1    0    0    0  501  0.00000000000E+00  0.00000000000E+00  0.25841144683E+03  0.25841144685E+03  0.25500000920E-02 0. -1.
        2   -1    0    0  501    0  0.00000000000E+00  0.00000000000E+00 -0.62029171628E+03  0.62029171629E+03  0.25500000920E-02 0.  1.
    10030    2    1    2    0    0  0.00000000000E+00  0.00000000000E+00 -0.36188026945E+03  0.87870316313E+03  0.80072587037E+03 0.  0.
        3    1    3    3  502    0 -0.21637306622E+03 -0.22542325247E+03  0.93751188304E+02  0.32622422051E+03  0.10100000352E+00 0. -1.
       -3    1    3    3    0  502  0.21637306622E+03  0.22542325247E+03 -0.45563145775E+03  0.55247894262E+03  0.10100000352E+00 0.  1.
</event>
<event>
 5   0  0.6256781E-03  0.7957371E+03  0.7818609E-02  0.9566208E-01
       -2   -1    0    0    0  501  0.00000000000E+00  0.00000000000E+00  0.14212459106E+03  0.14212459108E+03  0.25500000920E-02 0.  1.
        2   -1    0    0  501    0  0.00000000000E+00  0.00000000000E+00 -0.11138071607E+04  0.11138071607E+04  0.25500000920E-02 0. -1.
    10030    2    1    2    0    0  0.00000000000E+00  0.00000000000E+00 -0.97168256965E+03  0.12559317518E+04  0.79573711049E+03 0.  0.
        1    1    3    3  502    0  0.14542018950E+03  0.15879899633E+03 -0.10138971057E+04  0.10365092830E+04  0.50400001928E-02 0. -1.
       -1    1    3    3    0  502 -0.14542018950E+03 -0.15879899633E+03  0.42214536027E+02  0.21942246883E+03  0.50400001928E-02 0.  1.
</event>
<event>
 5   0  0.3671128E-03  0.8002947E+03  0.7818609E-02  0.9559591E-01
       -1   -1    0    0    0  501  0.00000000000E+00  0.00000000000E+00  0.18532942779E+03  0.18532942786E+03  0.50400001928E-02 0.  1.
        1   -1    0    0  501    0  0.00000000000E+00  0.00000000000E+00 -0.86396370256E+03  0.86396370257E+03  0.50400001928E-02 0. -1.
    10030    2    1    2    0    0  0.00000000000E+00  0.00000000000E+00 -0.67863427476E+03  0.10492931304E+04  0.80029469240E+03 0.  0.
        2    1    3    3  502    0  0.25164193174E+03 -0.18669649175E+03 -0.66562518484E+03  0.73568752099E+03  0.25500000920E-02 0. -1.
       -2    1    3    3    0  502 -0.25164193174E+03  0.18669649175E+03 -0.13009089926E+02  0.31360560944E+03  0.25500000920E-02 0.  1.
</event>
<event>
 5   0  0.5813850E-03  0.7984301E+03  0.7818609E-02  0.9562292E-01
       -2   -1    0    0    0  501  0.00000000000E+00  0.00000000000E+00  0.22449140576E+03  0.22449140577E+03  0.25500000920E-02 0. -1.
        2   -1    0    0  501    0  0.00000000000E+00  0.00000000000E+00 -0.70992766417E+03  0.70992766418E+03  0.25500000920E-02 0.  1.
    10030    2    1    2    0    0  0.00000000000E+00  0.00000000000E+00 -0.48543625842E+03  0.93441906995E+03  0.79843010796E+03 0.  0.
        5    1    3    3  502    0  0.78519433867E+02 -0.39138008727E+03 -0.24579122157E+03  0.46880602471E+03  0.46999998093E+01 0.  1.
       -5    1    3    3    0  502 -0.78519433867E+02  0.39138008727E+03 -0.23964503685E+03  0.46561304523E+03  0.46999998093E+01 0. -1.
</event>
<event>
 5   0  0.3714448E-03  0.7995220E+03  0.7818609E-02  0.9560709E-01
        1   -1    0    0  501    0  0.00000000000E+00  0.00000000000E+00  0.49240597637E+03  0.49240597639E+03  0.50400001928E-02 0.  1.
       -1   -1    0    0    0  501  0.00000000000E+00  0.00000000000E+00 -0.32454693679E+03  0.32454693683E+03  0.50400001928E-02 0. -1.
    10030    2    1    2    0    0  0.00000000000E+00  0.00000000000E+00  0.16785903958E+03  0.81695291322E+03  0.79952198547E+03 0.  0.
        1    1    3    3  502    0 -0.34718840949E+03 -0.13931284032E+03 -0.60072003029E+02  0.37888851228E+03  0.50400001928E-02 0. -1.
       -1    1    3    3    0  502  0.34718840949E+03  0.13931284032E+03  0.22793104260E+03  0.43806440094E+03  0.50400001928E-02 0.  1.
</event>
<event>
 5   0  0.6256781E-03  0.7986308E+03  0.7818609E-02  0.9562001E-01
       -2   -1    0    0    0  501  0.00000000000E+00  0.00000000000E+00  0.89701679601E+03  0.89701679602E+03  0.25500000920E-02 0. -1.
        2   -1    0    0  501    0  0.00000000000E+00  0.00000000000E+00 -0.17775898219E+03  0.17775898221E+03  0.25500000920E-02 0.  1.
    10030    2    1    2    0    0  0.00000000000E+00  0.00000000000E+00  0.71925781382E+03  0.10747757782E+04  0.79863081002E+03 0.  0.
        1    1    3    3  502    0 -0.30423364826E+03 -0.25811798306E+03  0.33752433505E+03  0.52259514224E+03  0.50400001928E-02 0. -1.
       -1    1    3    3    0  502  0.30423364826E+03  0.25811798306E+03  0.38173347878E+03  0.55218063599E+03  0.50400001928E-02 0.  1.
</event>
<event>
 5   0  0.6153659E-03  0.7990249E+03  0.7818609E-02  0.9561430E-01
       -2   -1    0    0    0  501  0.00000000000E+00  0.00000000000E+00  0.15690905165E+03  0.15690905167E+03  0.25500000920E-02 0. -1.
        2   -1    0    0  501    0  0.00000000000E+00  0.00000000000E+00 -0.10172146872E+04  0.10172146872E+04  0.25500000920E-02 0.  1.
    10030    2    1    2    0    0  0.00000000000E+00  0.00000000000E+00 -0.86030563554E+03  0.11741237389E+04  0.79902488547E+03 0.  0.
        2    1    3    3  502    0 -0.19798503586E+03 -0.34667557006E+03 -0.45234906697E+03  0.60332553709E+03  0.25500000920E-02 0.  1.
       -2    1    3    3    0  502  0.19798503586E+03  0.34667557006E+03 -0.40795656856E+03  0.57079820177E+03  0.25500000920E-02 0. -1.
</event>
<event>
 5   0  0.3753450E-03  0.7862626E+03  0.7818609E-02  0.9580117E-01
       -1   -1    0    0    0  501  0.00000000000E+00  0.00000000000E+00  0.21580283593E+03  0.21580283599E+03  0.50400001928E-02 0.  1.
        1   -1    0    0  501    0  0.00000000000E+00  0.00000000000E+00 -0.71617331613E+03  0.71617331615E+03  0.50400001928E-02 0. -1.
    10030    2    1    2    0    0  0.00000000000E+00  0.00000000000E+00 -0.50037048020E+03  0.93197615213E+03  0.78626263468E+03 0.  0.
        5    1    3    3  502    0 -0.18450055459E+03 -0.96415579950E+02 -0.64544017406E+03  0.67819726259E+03  0.46999998093E+01 0. -1.
       -5    1    3    3    0  502  0.18450055459E+03  0.96415579950E+02  0.14506969386E+03  0.25377888954E+03  0.46999998093E+01 0.  1.
</event>
<event>
 5   0  0.3627496E-03  0.7963016E+03  0.7818609E-02  0.9565386E-01
       -1   -1    0    0    0  501  0.00000000000E+00  0.00000000000E+00  0.45247832790E+03  0.45247832793E+03  0.50400001928E-02 0.  1.
        1   -1    0    0  501    0  0.00000000000E+00  0.00000000000E+00 -0.35034621701E+03  0.35034621705E+03  0.50400001928E-02 0. -1.
    10030    2    1    2    0    0  0.00000000000E+00  0.00000000000E+00  0.10213211089E+03  0.80282454498E+03  0.79630162749E+03 0.  0.
        3    1    3    3  502    0  0.45121148522E+02  0.27734952248E+03 -0.23331792048E+03  0.36523408642E+03  0.10100000352E+00 0. -1.
       -3    1    3    3    0  502 -0.45121148522E+02 -0.27734952248E+03  0.33545003138E+03  0.43759045856E+03  0.10100000352E+00 0.  1.
</event>
<event>
 5   0  0.6536209E-03  0.8240480E+03  0.7818609E-02  0.9525846E-01
       -2   -1    0    0    0  501  0.00000000000E+00  0.00000000000E+00  0.16257291370E+03  0.16257291372E+03  0.25500000920E-02 0.  1.
        2   -1    0    0  501    0  0.00000000000E+00  0.00000000000E+00 -0.10442315115E+04  0.10442315115E+04  0.25500000920E-02 0. -1.
    10030    2    1    2    0    0  0.00000000000E+00  0.00000000000E+00 -0.88165859780E+03  0.12068044252E+04  0.82404795834E+03 0.  0.
        3    1    3    3  502    0  0.10755958897E+03  0.28501796341E+03 -0.84709987376E+03  0.90021248101E+03  0.10100000352E+00 0. -1.
       -3    1    3    3    0  502 -0.10755958897E+03 -0.28501796341E+03 -0.34558724041E+02  0.30659194421E+03  0.10100000352E+00 0.  1.
</event>
<event>
 5   0  0.5813850E-03  0.7984455E+03  0.7818609E-02  0.9562270E-01
        2   -1    0    0  501    0  0.00000000000E+00  0.00000000000E+00  0.62338810856E+03  0.62338810857E+03  0.25500000920E-02 0.  1.
       -2   -1    0    0    0  501  0.00000000000E+00  0.00000000000E+00 -0.25566547414E+03  0.25566547415E+03  0.25500000920E-02 0. -1.
    10030    2    1    2    0    0  0.00000000000E+00  0.00000000000E+00  0.36772263442E+03  0.87905358272E+03  0.79844553066E+03 0.  0.
        5    1    3    3  502    0 -0.24373554791E+03 -0.18864495328E+03 -0.95449327369E+02  0.32268653490E+03  0.46999998093E+01 0. -1.
       -5    1    3    3    0  502  0.24373554791E+03  0.18864495328E+03  0.46317196179E+03  0.55636704782E+03  0.46999998093E+01 0.  1.
</event>
<event>
 5   0  0.3753450E-03  0.7985620E+03  0.7818609E-02  0.9562101E-01
        1   -1    0    0  501    0  0.00000000000E+00  0.00000000000E+00  0.19106477785E+04  0.19106477785E+04  0.50400001928E-02 0.  1.
       -1   -1    0    0    0  501  0.00000000000E+00  0.00000000000E+00 -0.83440459784E+02  0.83440459936E+02  0.50400001928E-02 0. -1.
    10030    2    1    2    0    0  0.00000000000E+00  0.00000000000E+00  0.18272073188E+04  0.19940882385E+04  0.79856203086E+03 0.  0.
        5    1    3    3  502    0 -0.23193914537E+03  0.13956311604E+03  0.18075895791E+03  0.32552960138E+03  0.46999998093E+01 0. -1.
       -5    1    3    3    0  502  0.23193914537E+03 -0.13956311604E+03  0.16464483608E+04  0.16685586371E+04  0.46999998093E+01 0.  1.
</event>
<event>
 5   0  0.6256781E-03  0.7999691E+03  0.7818609E-02  0.9560062E-01
       -2   -1    0    0    0  501  0.00000000000E+00  0.00000000000E+00  0.10211550737E+03  0.10211550741E+03  0.25500000920E-02 0.  1.
        2   -1    0    0  501    0  0.00000000000E+00  0.00000000000E+00 -0.15667319291E+04  0.15667319291E+04  0.25500000920E-02 0. -1.
    10030    2    1    2    0    0  0.00000000000E+00  0.00000000000E+00 -0.14646164218E+04  0.16688474366E+04  0.79996906413E+03 0.  0.
        1    1    3    3  502    0 -0.20252230154E+03  0.71804777850E+01 -0.12905077280E+02  0.20306004759E+03  0.50400001928E-02 0.  1.
       -1    1    3    3    0  502  0.20252230154E+03 -0.71804777850E+01 -0.14517113445E+04  0.14657873890E+04  0.50400001928E-02 0. -1.
</event>
<event>
 5   0  0.3860515E-03  0.7987492E+03  0.7818609E-02  0.9561829E-01
        1   -1    0    0  501    0  0.00000000000E+00  0.00000000000E+00  0.75997922314E+03  0.75997922316E+03  0.50400001928E-02 0. -1.
       -1   -1    0    0    0  501  0.00000000000E+00  0.00000000000E+00 -0.20987426409E+03  0.20987426415E+03  0.50400001928E-02 0.  1.
    10030    2    1    2    0    0  0.00000000000E+00  0.00000000000E+00  0.55010495905E+03  0.96985348731E+03  0.79874922277E+03 0.  0.
        4    1    3    3  502    0  0.18729513930E+03  0.34521512418E+03  0.36299315505E+03  0.53480706304E+03  0.12699999809E+01 0. -1.
       -4    1    3    3    0  502 -0.18729513930E+03 -0.34521512418E+03  0.18711180400E+03  0.43504642426E+03  0.12699999809E+01 0.  1.
</event>
<event>
 5   0  0.6536209E-03  0.7974246E+03  0.7818609E-02  0.9563752E-01
        2   -1    0    0  501    0  0.00000000000E+00  0.00000000000E+00  0.31101813858E+03  0.31101813859E+03  0.25500000920E-02 0.  1.
       -2   -1    0    0    0  501  0.00000000000E+00  0.00000000000E+00 -0.51113256469E+03  0.51113256470E+03  0.25500000920E-02 0. -1.
    10030    2    1    2    0    0  0.00000000000E+00  0.00000000000E+00 -0.20011442612E+03  0.82215070329E+03  0.79742460169E+03 0.  0.
        3    1    3    3  502    0  0.32128199577E+03  0.23608310864E+03 -0.96181166231E+02  0.41013190796E+03  0.10100000352E+00 0.  1.
       -3    1    3    3    0  502 -0.32128199577E+03 -0.23608310864E+03 -0.10393325989E+03  0.41201879533E+03  0.10100000352E+00 0. -1.
</event>
<event>
 5   0  0.2478000E-03  0.8011792E+03  0.7818609E-02  0.9558312E-01
        3   -1    0    0  501    0  0.00000000000E+00  0.00000000000E+00  0.40189311305E+03  0.40189312574E+03  0.10100000352E+00 0.  1.
       -3   -1    0    0    0  501  0.00000000000E+00  0.00000000000E+00 -0.39929024443E+03  0.39929025721E+03  0.10100000352E+00 0. -1.
    10030    2    1    2    0    0  0.00000000000E+00  0.00000000000E+00  0.26028686190E+01  0.80118338295E+03  0.80117915486E+03 0.  0.
        5    1    3    3  502    0 -0.68458424963E+02  0.29132293412E+03  0.26756269684E+03  0.40145671576E+03  0.46999998093E+01 0.  1.
       -5    1    3    3    0  502  0.68458424963E+02 -0.29132293412E+03 -0.26495982822E+03  0.39972666719E+03  0.46999998093E+01 0. -1.
</event>
<event>
 5   0  0.6337108E-03  0.7982293E+03  0.7818609E-02  0.9562584E-01
        2   -1    0    0  501    0  0.00000000000E+00  0.00000000000E+00  0.32759084787E+03  0.32759084788E+03  0.25500000920E-02 0.  1.
       -2   -1    0    0    0  501  0.00000000000E+00  0.00000000000E+00 -0.48625449409E+03  0.48625449410E+03  0.25500000920E-02 0. -1.
    10030    2    1    2    0    0  0.00000000000E+00  0.00000000000E+00 -0.15866364622E+03  0.81384534198E+03  0.79822934551E+03 0.  0.
        4    1    3    3  502    0 -0.27479284177E+03  0.82117449991E+01 -0.37432299032E+03  0.46443282897E+03  0.12699999809E+01 0. -1.
       -4    1    3    3    0  502  0.27479284177E+03 -0.82117449991E+01  0.21565934410E+03  0.34941251300E+03  0.12699999809E+01 0.  1.
</event>
<event>
 5   0  0.6153659E-03  0.7988039E+03  0.7818609E-02  0.9561750E-01
       -2   -1    0    0    0  501  0.00000000000E+00  0.00000000000E+00  0.11269149976E+04  0.11269149976E+04  0.25500000920E-02 0. -1.
        2   -1    0    0  501    0  0.00000000000E+00  0.00000000000E+00 -0.14155628780E+03  0.14155628783E+03  0.25500000920E-02 0.  1.
    10030    2    1    2    0    0  0.00000000000E+00  0.00000000000E+00  0.98535870981E+03  0.12684712854E+04  0.79880386516E+03 0.  0.
        2    1    3    3  502    0 -0.19711382617E+03 -0.19387395958E+03  0.34968554575E+02  0.27868220698E+03  0.25500000920E-02 0.  1.
       -2    1    3    3    0  502  0.19711382617E+03  0.19387395958E+03  0.95039015523E+03  0.98978907846E+03  0.25500000920E-02 0. -1.
</event>
<event>
 5   0  0.6153659E-03  0.7976190E+03  0.7818609E-02  0.9563470E-01
        2   -1    0    0  501    0  0.00000000000E+00  0.00000000000E+00  0.90711195571E+03  0.90711195572E+03  0.25500000920E-02 0.  1.
       -2   -1    0    0    0  501  0.00000000000E+00  0.00000000000E+00 -0.17533560853E+03  0.17533560855E+03  0.25500000920E-02 0. -1.
    10030    2    1    2    0    0  0.00000000000E+00  0.00000000000E+00  0.73177634718E+03  0.10824475643E+04  0.79761902378E+03 0.  0.
        2    1    3    3  502    0 -0.32441587789E+03  0.18811337655E+03  0.55005760023E+03  0.66572942540E+03  0.25500000920E-02 0.  1.
       -2    1    3    3    0  502  0.32441587789E+03 -0.18811337655E+03  0.18171874694E+03  0.41671813887E+03  0.25500000920E-02 0. -1.
</event>
<event>
 5   0  0.6256781E-03  0.8009198E+03  0.7818609E-02  0.9558687E-01
       -2   -1    0    0    0  501  0.00000000000E+00  0.00000000000E+00  0.18890858957E+03  0.18890858959E+03  0.25500000920E-02 0.  1.
        2   -1    0    0  501    0  0.00000000000E+00  0.00000000000E+00 -0.84891927076E+03  0.84891927077E+03  0.25500000920E-02 0. -1.
    10030    2    1    2    0    0  0.00000000000E+00  0.00000000000E+00 -0.66001068119E+03  0.10378278604E+04  0.80091982648E+03 0.  0.
        1    1    3    3  502    0 -0.17112083741E+03  0.21765637148E+03  0.44906240072E+02  0.28048744618E+03  0.50400001928E-02 0.  1.
       -1    1    3    3    0  502  0.17112083741E+03 -0.21765637148E+03 -0.70491692126E+03  0.75734041418E+03  0.50400001928E-02 0. -1.
</event>
<event>
 5   0  0.3753450E-03  0.7975144E+03  0.7818609E-02  0.9563622E-01
       -1   -1    0    0    0  501  0.00000000000E+00  0.00000000000E+00  0.35028384180E+03  0.35028384184E+03  0.50400001928E-02 0.  1.
        1   -1    0    0  501    0  0.00000000000E+00  0.00000000000E+00 -0.45393845978E+03  0.45393845981E+03  0.50400001928E-02 0. -1.
    10030    2    1    2    0    0  0.00000000000E+00  0.00000000000E+00 -0.10365461798E+03  0.80422230164E+03  0.79751440779E+03 0.  0.
        5    1    3    3  502    0  0.17644206363E+03 -0.17497676691E+03 -0.36627784422E+03  0.44264005687E+03  0.46999998093E+01 0. -1.
       -5    1    3    3    0  502 -0.17644206363E+03  0.17497676691E+03  0.26262322624E+03  0.36158224478E+03  0.46999998093E+01 0.  1.
</event>
<event>
 5   0  0.3714448E-03  0.7771078E+03  0.7818609E-02  0.9593757E-01
       -1   -1    0    0    0  501  0.00000000000E+00  0.00000000000E+00  0.25355694434E+03  0.25355694439E+03  0.50400001928E-02 0.  1.
        1   -1    0    0  501    0  0.00000000000E+00  0.00000000000E+00 -0.59542496921E+03  0.59542496923E+03  0.50400001928E-02 0. -1.
    10030    2    1    2    0    0  0.00000000000E+00  0.00000000000E+00 -0.34186802486E+03  0.84898191362E+03  0.77710780670E+03 0.  0.
        1    1    3    3  502    0  0.15291919004E+03  0.22070396538E+03 -0.47776524342E+03  0.54804575253E+03  0.50400001928E-02 0. -1.
       -1    1    3    3    0  502 -0.15291919004E+03 -0.22070396538E+03  0.13589721855E+03  0.30093616109E+03  0.50400001928E-02 0.  1.
</event>
<event>
 5   0  0.6256781E-03  0.7981208E+03  0.7818609E-02  0.9562741E-01
        2   -1    0    0  501    0  0.00000000000E+00  0.00000000000E+00  0.76588194404E+03  0.76588194405E+03  0.25500000920E-02 0. -1.
       -2   -1    0    0    0  501  0.00000000000E+00  0.00000000000E+00 -0.20792917915E+03  0.20792917917E+03  0.25500000920E-02 0.  1.
    10030    2    1    2    0    0  0.00000000000E+00  0.00000000000E+00  0.55795276489E+03  0.97381112322E+03  0.79812080280E+03 0.  0.
        1    1    3    3  502    0 -0.22879321716E+03  0.30223309254E+03  0.12678735573E+03  0.39970765822E+03  0.50400001928E-02 0. -1.
       -1    1    3    3    0  502  0.22879321716E+03 -0.30223309254E+03  0.43116540915E+03  0.57410346499E+03  0.50400001928E-02 0.  1.
</event>
<event>
 5   0  0.3671128E-03  0.8013090E+03  0.7818609E-02  0.9558124E-01
       -1   -1    0    0    0  501  0.00000000000E+00  0.00000000000E+00  0.22795779044E+03  0.22795779050E+03  0.50400001928E-02 0. -1.
        1   -1    0    0  501    0  0.00000000000E+00  0.00000000000E+00 -0.70418308344E+03  0.70418308346E+03  0.50400001928E-02 0.  1.
    10030    2    1    2    0    0  0.00000000000E+00  0.00000000000E+00 -0.47622529300E+03  0.93214087396E+03  0.80130897862E+03 0.  0.
        2    1    3    3  502    0 -0.36160962816E+03  0.10053839280E+03 -0.75028083401E+02  0.38275149237E+03  0.25500000920E-02 0. -1.
       -2    1    3    3    0  502  0.36160962816E+03 -0.10053839280E+03 -0.40119720960E+03  0.54938938159E+03  0.25500000920E-02 0.  1.
</event>
<event>
 5   0  0.3627496E-03  0.8092108E+03  0.7818609E-02  0.9546780E-01
       -1   -1    0    0    0  501  0.00000000000E+00  0.00000000000E+00  0.48999132321E+03  0.48999132323E+03  0.50400001928E-02 0.  1.
        1   -1    0    0  501    0  0.00000000000E+00  0.00000000000E+00 -0.33409879683E+03  0.33409879687E+03  0.50400001928E-02 0. -1.
    10030    2    1    2    0    0  0.00000000000E+00  0.00000000000E+00  0.15589252637E+03  0.82409012010E+03  0.80921075516E+03 0.  0.
        3    1    3    3  502    0  0.13046044969E+03  0.17563612220E+03  0.42455355583E+03  0.47761250855E+03  0.10100000352E+00 0.  1.
       -3    1    3    3    0  502 -0.13046044969E+03 -0.17563612220E+03 -0.26866102946E+03  0.34647761155E+03  0.10100000352E+00 0. -1.
</event>
<event>
 5   0  0.3860515E-03  0.8023131E+03  0.7818609E-02  0.9556675E-01
       -1   -1    0    0    0  501  0.00000000000E+00  0.00000000000E+00  0.92413127234E+02  0.92413127371E+02  0.50400001928E-02 0.  1.
        1   -1    0    0  501    0  0.00000000000E+00  0.00000000000E+00 -0.17413822732E+04  0.17413822732E+04  0.50400001928E-02 0. -1.
    10030    2    1    2    0    0  0.00000000000E+00  0.00000000000E+00 -0.16489691459E+04  0.18337954005E+04  0.80231311021E+03 0.  0.
        4    1    3    3  502    0 -0.20491863115E+03 -0.28905458888E+03 -0.12544075125E+04  0.13034891718E+04  0.12699999809E+01 0. -1.
       -4    1    3    3    0  502  0.20491863115E+03  0.28905458888E+03 -0.39456163344E+03  0.53030622872E+03  0.12699999809E+01 0.  1.
</event>
<event>
 5   0  0.6256781E-03  0.8011826E+03  0.7818609E-02  0.9558307E-01
       -2   -1    0    0    0  501  0.00000000000E+00  0.00000000000E+00  0.16152627071E+03  0.16152627073E+03  0.25500000920E-02 0.  1.
        2   -1    0    0  501    0  0.00000000000E+00  0.00000000000E+00 -0.99348167721E+03  0.99348167721E+03  0.25500000920E-02 0. -1.
    10030    2    1    2    0    0  0.00000000000E+00  0.00000000000E+00 -0.83195540649E+03  0.11550079479E+04  0.80118260179E+03 0.  0.
        1    1    3    3  502    0  0.29342342212E+03  0.16694499781E+03 -0.10508866859E+03  0.35356974593E+03  0.50400001928E-02 0.  1.
       -1    1    3    3    0  502 -0.29342342212E+03 -0.16694499781E+03 -0.72686673791E+03  0.80143820201E+03  0.50400001928E-02 0. -1.
</event>
<event>
 5   0  0.3671128E-03  0.7883219E+03  0.7818609E-02  0.9577076E-01
        1   -1    0    0  501    0  0.00000000000E+00  0.00000000000E+00  0.11496593436E+04  0.11496593436E+04  0.50400001928E-02 0.  1.
       -1   -1    0    0    0  501  0.00000000000E+00  0.00000000000E+00 -0.13513816938E+03  0.13513816947E+03  0.50400001928E-02 0. -1.
    10030    2    1    2    0    0  0.00000000000E+00  0.00000000000E+00  0.10145211742E+04  0.12847975131E+04  0.78832191183E+03 0.  0.
        2    1    3    3  502    0 -0.17014933810E+03 -0.79050604611E+02 -0.57697962992E+02  0.19628767227E+03  0.25500000920E-02 0. -1.
       -2    1    3    3    0  502  0.17014933810E+03  0.79050604611E+02  0.10722191372E+04  0.10885098408E+04  0.25500000920E-02 0.  1.
</event>
<event>
 5   0  0.3627496E-03  0.7925015E+03  0.7818609E-02  0.9570935E-01
        1   -1    0    0  501    0  0.00000000000E+00  0.00000000000E+00  0.12251778293E+04  0.12251778293E+04  0.50400001928E-02 0.  1.
       -1   -1    0    0    0  501  0.00000000000E+00  0.00000000000E+00 -0.12815664014E+03  0.12815664024E+03  0.50400001928E-02 0. -1.
    10030    2    1    2    0    0  0.00000000000E+00  0.00000000000E+00  0.10970211892E+04  0.13533344696E+04  0.79250154385E+03 0.  0.
        3    1    3    3  502    0  0.38571537468E+03 -0.53095727649E+02  0.67422090908E+03  0.77856878374E+03  0.10100000352E+00 0. -1.
       -3    1    3    3    0  502 -0.38571537468E+03  0.53095727649E+02  0.42280028008E+03  0.57476568582E+03  0.10100000352E+00 0.  1.
</event>
<event>
 5   0  0.3753450E-03  0.8013327E+03  0.7818609E-02  0.9558090E-01
        1   -1    0    0  501    0  0.00000000000E+00  0.00000000000E+00  0.33918238830E+03  0.33918238834E+03  0.50400001928E-02 0.  1.
       -1   -1    0    0    0  501  0.00000000000E+00  0.00000000000E+00 -0.47329561588E+03  0.47329561591E+03  0.50400001928E-02 0. -1.
    10030    2    1    2    0    0  0.00000000000E+00  0.00000000000E+00 -0.13411322758E+03  0.81247800425E+03  0.80133273338E+03 0.  0.
        5    1    3    3  502    0  0.16236976197E+03  0.20951410773E+03  0.23754035272E+03  0.35596012433E+03  0.46999998093E+01 0.  1.
       -5    1    3    3    0  502 -0.16236976197E+03 -0.20951410773E+03 -0.37165358030E+03  0.45651787992E+03  0.46999998093E+01 0. -1.
</event>
<event>
 5   0  0.6256781E-03  0.7997229E+03  0.7818609E-02  0.9560418E-01
       -2   -1    0    0    0  501  0.00000000000E+00  0.00000000000E+00  0.33862182937E+03  0.33862182938E+03  0.25500000920E-02 0. -1.
        2   -1    0    0  501    0  0.00000000000E+00  0.00000000000E+00 -0.47217619828E+03  0.47217619829E+03  0.25500000920E-02 0.  1.
    10030    2    1    2    0    0  0.00000000000E+00  0.00000000000E+00 -0.13355436891E+03  0.81079802766E+03  0.79972287213E+03 0.  0.
        1    1    3    3  502    0 -0.76687012261E+02  0.11130347806E+03 -0.44831286971E+03  0.46824543911E+03  0.50400001928E-02 0.  1.
       -1    1    3    3    0  502  0.76687012261E+02 -0.11130347806E+03  0.31475850080E+03  0.34255258855E+03  0.50400001928E-02 0. -1.
</event>
<event>
 5   0  0.2478000E-03  0.8058604E+03  0.7818609E-02  0.9551573E-01
       -3   -1    0    0    0  501  0.00000000000E+00  0.00000000000E+00  0.62271313619E+03  0.62271314438E+03  0.10100000352E+00 0.  1.
        3   -1    0    0  501    0  0.00000000000E+00  0.00000000000E+00 -0.26071835517E+03  0.26071837473E+03  0.10100000352E+00 0. -1.
    10030    2    1    2    0    0  0.00000000000E+00  0.00000000000E+00  0.36199478102E+03  0.88343151911E+03  0.80586042680E+03 0.  0.
        2    1    3    3  502    0  0.14437250791E+03  0.34008285774E+03  0.47314456198E+01  0.36948904957E+03  0.25500000920E-02 0. -1.
       -2    1    3    3    0  502 -0.14437250791E+03 -0.34008285774E+03  0.35726333540E+03  0.51394246954E+03  0.25500000920E-02 0.  1.
</event>
<event>
 5   0  0.3627496E-03  0.7949769E+03  0.7818609E-02  0.9567316E-01
        1   -1    0    0  501    0  0.00000000000E+00  0.00000000000E+00  0.89662012541E+03  0.89662012543E+03  0.50400001928E-02 0.  1.
       -1   -1    0    0    0  501  0.00000000000E+00  0.00000000000E+00 -0.17621404859E+03  0.17621404866E+03  0.50400001928E-02 0. -1.
    10030    2    1    2    0    0  0.00000000000E+00  0.00000000000E+00  0.72040607683E+03  0.10728341741E+04  0.79497688618E+03 0.  0.
        3    1    3    3  502    0  0.17614787478E+03  0.16289894368E+03  0.78788026588E+03  0.82360151967E+03  0.10100000352E+00 0.  1.
       -3    1    3    3    0  502 -0.17614787478E+03 -0.16289894368E+03 -0.67474189052E+02  0.24923265442E+03  0.10100000352E+00 0. -1.
</event>
<event>
 5   0  0.2478000E-03  0.8016002E+03  0.7818609E-02  0.9557704E-01
       -3   -1    0    0    0  501  0.00000000000E+00  0.00000000000E+00  0.17900252048E+04  0.17900252076E+04  0.10100000352E+00 0. -1.
        3   -1    0    0  501    0  0.00000000000E+00  0.00000000000E+00 -0.89742120607E+02  0.89742177442E+02  0.10100000352E+00 0.  1.
    10030    2    1    2    0    0  0.00000000000E+00  0.00000000000E+00  0.17002830842E+04  0.18797673851E+04  0.80160018442E+03 0.  0.
        3    1    3    3  502    0 -0.15334482689E+02 -0.26640703319E+03  0.14885607802E+03  0.30555849826E+03  0.10100000352E+00 0.  1.
       -3    1    3    3    0  502  0.15334482689E+02  0.26640703319E+03  0.15514270062E+04  0.15742088868E+04  0.10100000352E+00 0. -1.
</event>
<event>
 5   0  0.6153659E-03  0.7972013E+03  0.7818609E-02  0.9564077E-01
       -2   -1    0    0    0  501  0.00000000000E+00  0.00000000000E+00  0.24602582695E+03  0.24602582696E+03  0.25500000920E-02 0. -1.
        2   -1    0    0  501    0  0.00000000000E+00  0.00000000000E+00 -0.64579598738E+03  0.64579598738E+03  0.25500000920E-02 0.  1.
    10030    2    1    2    0    0  0.00000000000E+00  0.00000000000E+00 -0.39977016043E+03  0.89182181434E+03  0.79720133428E+03 0.  0.
        2    1    3    3  502    0 -0.27322971872E+03  0.31183562676E+02  0.12290248554E+03  0.30121738783E+03  0.25500000920E-02 0. -1.
       -2    1    3    3    0  502  0.27322971872E+03 -0.31183562676E+02 -0.52267264596E+03  0.59060442651E+03  0.25500000920E-02 0.  1.
</event>
<event>
 5   0  0.3671128E-03  0.8000571E+03  0.7818609E-02  0.9559934E-01
       -1   -1    0    0    0  501  0.00000000000E+00  0.00000000000E+00  0.17202788949E+03  0.17202788957E+03  0.50400001928E-02 0. -1.
        1   -1    0    0  501    0  0.00000000000E+00  0.00000000000E+00 -0.93021446603E+03  0.93021446604E+03  0.50400001928E-02 0.  1.
    10030    2    1    2    0    0  0.00000000000E+00  0.00000000000E+00 -0.75818657654E+03  0.11022423556E+04  0.80005707650E+03 0.  0.
        2    1    3    3  502    0  0.44535492687E+02 -0.23239826695E+03 -0.82345476185E+03  0.85677891513E+03  0.25500000920E-02 0.  1.
       -2    1    3    3    0  502 -0.44535492687E+02  0.23239826695E+03  0.65268185314E+02  0.24546344048E+03  0.25500000920E-02 0. -1.
</event>
<event>
 5   0  0.5813850E-03  0.8013711E+03  0.7818609E-02  0.9558035E-01
       -2   -1    0    0    0  501  0.00000000000E+00  0.00000000000E+00  0.14896183294E+03  0.14896183296E+03  0.25500000920E-02 0. -1.
        2   -1    0    0  501    0  0.00000000000E+00  0.00000000000E+00 -0.10777854273E+04  0.10777854273E+04  0.25500000920E-02 0.  1.
    10030    2    1    2    0    0  0.00000000000E+00  0.00000000000E+00 -0.92882359431E+03  0.12267472602E+04  0.80137105706E+03 0.  0.
        5    1    3    3  502    0 -0.36902717259E+03  0.13848539022E+03 -0.57445509382E+03  0.69669218614E+03  0.46999998093E+01 0.  1.
       -5    1    3    3    0  502  0.36902717259E+03 -0.13848539022E+03 -0.35436850049E+03  0.53005507408E+03  0.46999998093E+01 0. -1.
</event>
<event>
 5   0  0.6337108E-03  0.7979970E+03  0.7818609E-02  0.9562921E-01
        2   -1    0    0  501    0  0.00000000000E+00  0.00000000000E+00  0.79975709062E+03  0.79975709062E+03  0.25500000920E-02 0.  1.
       -2   -1    0    0    0  501  0.00000000000E+00  0.00000000000E+00 -0.19906021142E+03  0.19906021143E+03  0.25500000920E-02 0. -1.
    10030    2    1    2    0    0  0.00000000000E+00  0.00000000000E+00  0.60069687920E+03  0.99881730206E+03  0.79799703145E+03 0.  0.
        4    1    3    3  502    0  0.22844115012E+02 -0.10273682255E+03  0.78206749213E+03  0.78911842168E+03  0.12699999809E+01 0.  1.
       -4    1    3    3    0  502 -0.22844115012E+02  0.10273682255E+03 -0.18137061292E+03  0.20969888037E+03  0.12699999809E+01 0. -1.
</event>
<event>
 5   0  0.6337108E-03  0.8005983E+03  0.7818609E-02  0.9559152E-01
       -2   -1    0    0    0  501  0.00000000000E+00  0.00000000000E+00  0.66551837372E+03  0.66551837372E+03  0.25500000920E-02 0.  1.
        2   -1    0    0  501    0  0.00000000000E+00  0.00000000000E+00 -0.24077382450E+03  0.24077382451E+03  0.25500000920E-02 0. -1.
    10030    2    1    2    0    0  0.00000000000E+00  0.00000000000E+00  0.42474454922E+03  0.90629219823E+03  0.80059828659E+03 0.  0.
        4    1    3    3  502    0 -0.16293265343E+03  0.11080256416E+03 -0.18207334207E+03  0.26828449932E+03  0.12699999809E+01 0. -1.
       -4    1    3    3    0  502  0.16293265343E+03 -0.11080256416E+03  0.60681789130E+03  0.63800769892E+03  0.12699999809E+01 0.  1.
</event>
<event>
 5   0  0.3753450E-03  0.8102076E+03  0.7818609E-02  0.9545359E-01
       -1   -1    0    0    0  501  0.00000000000E+00  0.00000000000E+00  0.18784128350E+03  0.18784128357E+03  0.50400001928E-02 0. -1.
        1   -1    0    0  501    0  0.00000000000E+00  0.00000000000E+00 -0.87365816212E+03  0.87365816214E+03  0.50400001928E-02 0.  1.
    10030    2    1    2    0    0  0.00000000000E+00  0.00000000000E+00 -0.68581687862E+03  0.10614994457E+04  0.81020755504E+03 0.  0.
        5    1    3    3  502    0 -0.49277864328E+02  0.24732930512E+03  0.72407099534E+02  0.26242136183E+03  0.46999998093E+01 0. -1.
       -5    1    3    3    0  502  0.49277864328E+02 -0.24732930512E+03 -0.75822397815E+03  0.79907808388E+03  0.46999998093E+01 0.  1.
</event>
<event>
 5   0  0.3753450E-03  0.8003650E+03  0.7818609E-02  0.9559489E-01
        1   -1    0    0  501    0  0.00000000000E+00  0.00000000000E+00  0.13532733021E+04  0.13532733021E+04  0.50400001928E-02 0.  1.
       -1   -1    0    0    0  501  0.00000000000E+00  0.00000000000E+00 -0.11833975040E+03  0.11833975051E+03  0.50400001928E-02 0. -1.
    10030    2    1    2    0    0  0.00000000000E+00  0.00000000000E+00  0.12349335517E+04  0.14716130526E+04  0.80036497895E+03 0.  0.
        5    1    3    3  502    0 -0.69483102728E+02 -0.93029526072E+02 -0.86632765254E+02  0.14494730180E+03  0.46999998093E+01 0. -1.
       -5    1    3    3    0  502  0.69483102728E+02  0.93029526072E+02  0.13215663170E+04  0.13266657508E+04  0.46999998093E+01 0.  1.
</event>
<event>
 5   0  0.3753450E-03  0.8009832E+03  0.7818609E-02  0.9558595E-01
        1   -1    0    0  501    0  0.00000000000E+00  0.00000000000E+00  0.31685382450E+03  0.31685382454E+03  0.50400001928E-02 0.  1.
       -1   -1    0    0    0  501  0.00000000000E+00  0.00000000000E+00 -0.50620672387E+03  0.50620672390E+03  0.50400001928E-02 0. -1.
    10030    2    1    2    0    0  0.00000000000E+00  0.00000000000E+00 -0.18935289938E+03  0.82306054844E+03  0.80098323696E+03 0.  0.
        5    1    3    3  502    0 -0.16779658813E+03  0.15748380466E+03 -0.43145158659E+03  0.48900859429E+03  0.46999998093E+01 0. -1.
       -5    1    3    3    0  502  0.16779658813E+03 -0.15748380466E+03  0.24209868722E+03  0.33405195415E+03  0.46999998093E+01 0.  1.
</event>
<event>
 5   0  0.6337108E-03  0.7982099E+03  0.7818609E-02  0.9562612E-01
        2   -1    0    0  501    0  0.00000000000E+00  0.00000000000E+00  0.35341288293E+03  0.35341288294E+03  0.25500000920E-02 0.  1.
       -2   -1    0    0    0  501  0.00000000000E+00  0.00000000000E+00 -0.45070450051E+03  0.45070450052E+03  0.25500000920E-02 0. -1.
    10030    2    1    2    0    0  0.00000000000E+00  0.00000000000E+00 -0.97291617582E+02  0.80411738345E+03  0.79820993950E+03 0.  0.
        4    1    3    3  502    0 -0.24374871665E+03  0.17017809580E+03 -0.31690427499E+03  0.43451576907E+03  0.12699999809E+01 0. -1.
       -4    1    3    3    0  502  0.24374871665E+03 -0.17017809580E+03  0.21961265741E+03  0.36960161438E+03  0.12699999809E+01 0.  1.
</event>
<event>
 5   0  0.5813850E-03  0.8029859E+03  0.7818609E-02  0.9555705E-01
        2   -1    0    0  501    0  0.00000000000E+00  0.00000000000E+00  0.23061361257E+04  0.23061361257E+04  0.25500000920E-02 0.  1.
       -2   -1    0    0    0  501  0.00000000000E+00  0.00000000000E+00 -0.69898994247E+02  0.69898994293E+02  0.25500000920E-02 0. -1.
    10030    2    1    2    0    0  0.00000000000E+00  0.00000000000E+00  0.22362371315E+04  0.23760351200E+04  0.80298591729E+03 0.  0.
        5    1    3    3  502    0 -0.68849444165E+02 -0.23228458943E+03  0.17087749165E+03  0.29650899413E+03  0.46999998093E+01 0. -1.
       -5    1    3    3    0  502  0.68849444165E+02  0.23228458943E+03  0.20653596398E+04  0.20795261259E+04  0.46999998093E+01 0.  1.
</event>
<event>
 5   0  0.3627496E-03  0.8053875E+03  0.7818609E-02  0.9552251E-01
       -1   -1    0    0    0  501  0.00000000000E+00  0.00000000000E+00  0.10437047553E+03  0.10437047566E+03  0.50400001928E-02 0.  1.
        1   -1    0    0  501    0  0.00000000000E+00  0.00000000000E+00 -0.15537177528E+04  0.15537177528E+04  0.50400001928E-02 0. -1.
    10030    2    1    2    0    0  0.00000000000E+00  0.00000000000E+00 -0.14493472773E+04  0.16580882285E+04  0.80538751124E+03 0.  0.
        3    1    3    3  502    0 -0.23121606973E+03 -0.24335703176E+03 -0.26672999202E+03  0.42875215994E+03  0.10100000352E+00 0. -1.
       -3    1    3    3    0  502  0.23121606973E+03  0.24335703176E+03 -0.11826172853E+04  0.12293360685E+04  0.10100000352E+00 0.  1.
</event>
<event>
 5   0  0.6337108E-03  0.7999390E+03  0.7818609E-02  0.9560105E-01
       -2   -1    0    0    0  501  0.00000000000E+00  0.00000000000E+00  0.56054796154E+03  0.56054796155E+03  0.25500000920E-02 0.  1.
        2   -1    0    0  501    0  0.00000000000E+00  0.00000000000E+00 -0.28539145337E+03  0.28539145338E+03  0.25500000920E-02 0. -1.
    10030    2    1    2    0    0  0.00000000000E+00  0.00000000000E+00  0.27515650818E+03  0.84593941493E+03  0.79993899126E+03 0.  0.
        4    1    3    3  502    0  0.21539247782E+03  0.29946586179E+03  0.30106544487E+03  0.47614675981E+03  0.12699999809E+01 0.  1.
       -4    1    3    3    0  502 -0.21539247782E+03 -0.29946586179E+03 -0.25908936691E+02  0.36979265512E+03  0.12699999809E+01 0. -1.
</event>
<event>
 5   0  0.6256781E-03  0.8045181E+03  0.7818609E-02  0.9553500E-01
       -2   -1    0    0    0  501  0.00000000000E+00  0.00000000000E+00  0.97895734944E+02  0.97895734977E+02  0.25500000920E-02 0. -1.
        2   -1    0    0  501    0  0.00000000000E+00  0.00000000000E+00 -0.16529049140E+04  0.16529049140E+04  0.25500000920E-02 0.  1.
    10030    2    1    2    0    0  0.00000000000E+00  0.00000000000E+00 -0.15550091791E+04  0.17508006490E+04  0.80451809521E+03 0.  0.
        1    1    3    3  502    0 -0.22694030825E+03 -0.76323893984E+00 -0.15002877733E+04  0.15173548987E+04  0.50400001928E-02 0.  1.
       -1    1    3    3    0  502  0.22694030825E+03  0.76323893984E+00 -0.54721405808E+02  0.23344575027E+03  0.50400001928E-02 0. -1.
</event>
<event>
 5   0  0.2478000E-03  0.8011106E+03  0.7818609E-02  0.9558411E-01
       -3   -1    0    0    0  501  0.00000000000E+00  0.00000000000E+00  0.89960306278E+02  0.89960362975E+02  0.10100000352E+00 0. -1.
        3   -1    0    0  501    0  0.00000000000E+00  0.00000000000E+00 -0.17835031890E+04  0.17835031919E+04  0.10100000352E+00 0.  1.
    10030    2    1    2    0    0  0.00000000000E+00  0.00000000000E+00 -0.16935428827E+04  0.18734635549E+04  0.80111060140E+03 0.  0.
        3    1    3    3  502    0 -0.11449591414E+03 -0.46710715746E+02  0.44205115037E+02  0.13132139094E+03  0.10100000352E+00 0. -1.
       -3    1    3    3    0  502  0.11449591414E+03  0.46710715746E+02 -0.17377479978E+04  0.17421421639E+04  0.10100000352E+00 0.  1.
</event>
<event>
 5   0  0.3714448E-03  0.7640747E+03  0.7818609E-02  0.9613525E-01
        1   -1    0    0  501    0  0.00000000000E+00  0.00000000000E+00  0.73339432529E+03  0.73339432530E+03  0.50400001928E-02 0.  1.
       -1   -1    0    0    0  501  0.00000000000E+00  0.00000000000E+00 -0.19900961516E+03  0.19900961522E+03  0.50400001928E-02 0. -1.
    10030    2    1    2    0    0  0.00000000000E+00  0.00000000000E+00  0.53438471013E+03  0.93240394053E+03  0.76407466251E+03 0.  0.
        1    1    3    3  502    0 -0.46427087834E+02  0.15031050972E+03  0.69203335034E+03  0.70968928541E+03  0.50400001928E-02 0.  1.
       -1    1    3    3    0  502  0.46427087834E+02 -0.15031050972E+03 -0.15764864022E+03  0.22271465512E+03  0.50400001928E-02 0. -1.
</event>
<event>
 5   0  0.6536209E-03  0.7995567E+03  0.7818609E-02  0.9560659E-01
        2   -1    0    0  501    0  0.00000000000E+00  0.00000000000E+00  0.85976272007E+03  0.85976272008E+03  0.25500000920E-02 0. -1.
       -2   -1    0    0    0  501  0.00000000000E+00  0.00000000000E+00 -0.18589169326E+03  0.18589169327E+03  0.25500000920E-02 0.  1.
    10030    2    1    2    0    0  0.00000000000E+00  0.00000000000E+00  0.67387102682E+03  0.10456544134E+04  0.79955674681E+03 0.  0.
        3    1    3    3  502    0  0.59141364822E+02 -0.36636696343E+03  0.53135411584E+03  0.64812009655E+03  0.10100000352E+00 0. -1.
       -3    1    3    3    0  502 -0.59141364822E+02  0.36636696343E+03  0.14251691097E+03  0.39753431680E+03  0.10100000352E+00 0.  1.
</event>
<event>
 5   0  0.3627496E-03  0.7991075E+03  0.7818609E-02  0.9561310E-01
        1   -1    0    0  501    0  0.00000000000E+00  0.00000000000E+00  0.17445243626E+03  0.17445243634E+03  0.50400001928E-02 0. -1.
       -1   -1    0    0    0  501  0.00000000000E+00  0.00000000000E+00 -0.91511028569E+03  0.91511028570E+03  0.50400001928E-02 0.  1.
    10030    2    1    2    0    0  0.00000000000E+00  0.00000000000E+00 -0.74065784943E+03  0.10895627220E+04  0.79910754929E+03 0.  0.
        3    1    3    3  502    0 -0.84435162300E+02 -0.18771658619E+03 -0.83725949319E+03  0.86218923822E+03  0.10100000352E+00 0.  1.
       -3    1    3    3    0  502  0.84435162300E+02  0.18771658619E+03  0.96601643768E+02  0.22737348382E+03  0.10100000352E+00 0. -1.
</event>
<event>
 5   0  0.3753450E-03  0.8010583E+03  0.7818609E-02  0.9558487E-01
       -1   -1    0    0    0  501  0.00000000000E+00  0.00000000000E+00  0.29291876675E+03  0.29291876679E+03  0.50400001928E-02 0.  1.
        1   -1    0    0  501    0  0.00000000000E+00  0.00000000000E+00 -0.54767260309E+03  0.54767260312E+03  0.50400001928E-02 0. -1.
    10030    2    1    2    0    0  0.00000000000E+00  0.00000000000E+00 -0.25475383634E+03  0.84059136991E+03  0.80105825883E+03 0.  0.
        5    1    3    3  502    0  0.37117059953E+03 -0.14373297133E+03 -0.17400770705E+03  0.43442784570E+03  0.46999998093E+01 0. -1.
       -5    1    3    3    0  502 -0.37117059953E+03  0.14373297133E+03 -0.80746129289E+02  0.40616352421E+03  0.46999998093E+01 0.  1.
</event>
<event>
 5   0  0.2478000E-03  0.7990919E+03  0.7818609E-02  0.9561332E-01
        3   -1    0    0  501    0  0.00000000000E+00  0.00000000000E+00  0.66514962083E+03  0.66514962850E+03  0.10100000352E+00 0.  1.
       -3   -1    0    0    0  501  0.00000000000E+00  0.00000000000E+00 -0.24000159107E+03  0.24000161232E+03  0.10100000352E+00 0. -1.
    10030    2    1    2    0    0  0.00000000000E+00  0.00000000000E+00  0.42514802976E+03  0.90515124082E+03  0.79909193560E+03 0.  0.
        1    1    3    3  502    0 -0.48459642447E+02  0.39653462934E+03  0.22049751546E+03  0.45629727543E+03  0.50400001928E-02 0. -1.
       -1    1    3    3    0  502  0.48459642447E+02 -0.39653462934E+03  0.20465051430E+03  0.44885396539E+03  0.50400001928E-02 0.  1.
</event>
<event>
 5   0  0.3714448E-03  0.7968575E+03  0.7818609E-02  0.9564577E-01
       -1   -1    0    0    0  501  0.00000000000E+00  0.00000000000E+00  0.24307860796E+03  0.24307860801E+03  0.50400001928E-02 0.  1.
        1   -1    0    0  501    0  0.00000000000E+00  0.00000000000E+00 -0.65306222125E+03  0.65306222127E+03  0.50400001928E-02 0. -1.
    10030    2    1    2    0    0  0.00000000000E+00  0.00000000000E+00 -0.40998361330E+03  0.89614082928E+03  0.79685746701E+03 0.  0.
        1    1    3    3  502    0  0.14108923363E+03 -0.18049590420E+02 -0.62353633014E+03  0.63955415298E+03  0.50400001928E-02 0. -1.
       -1    1    3    3    0  502 -0.14108923363E+03  0.18049590420E+02  0.21355271684E+03  0.25658667630E+03  0.50400001928E-02 0.  1.
</event>
<event>
 5   0  0.3714448E-03  0.7983218E+03  0.7818609E-02  0.9562449E-01
       -1   -1    0    0    0  501  0.00000000000E+00  0.00000000000E+00  0.11104253039E+03  0.11104253050E+03  0.50400001928E-02 0. -1.
        1   -1    0    0  501    0  0.00000000000E+00  0.00000000000E+00 -0.14348504637E+04  0.14348504637E+04  0.50400001928E-02 0.  1.
    10030    2    1    2    0    0  0.00000000000E+00  0.00000000000E+00 -0.13238079333E+04  0.15458929942E+04  0.79832180557E+03 0.  0.
        1    1    3    3  502    0 -0.25714493798E+03 -0.29281165933E+03 -0.82923691845E+03  0.91624017262E+03  0.50400001928E-02 0. -1.
       -1    1    3    3    0  502  0.25714493798E+03  0.29281165933E+03 -0.49457101482E+03  0.62965282156E+03  0.50400001928E-02 0.  1.
</event>
<event>
 5   0  0.2478000E-03  0.7972781E+03  0.7818609E-02  0.9563965E-01
       -3   -1    0    0    0  501  0.00000000000E+00  0.00000000000E+00  0.19516841208E+03  0.19516843822E+03  0.10100000352E+00 0. -1.
        3   -1    0    0  501    0  0.00000000000E+00  0.00000000000E+00 -0.81423569509E+03  0.81423570136E+03  0.10100000352E+00 0.  1.
    10030    2    1    2    0    0  0.00000000000E+00  0.00000000000E+00 -0.61906728301E+03  0.10094041396E+04  0.79727812970E+03 0.  0.
        3    1    3    3  502    0  0.93232112905E+02 -0.31827799158E+03 -0.29507615596E+02  0.33296218461E+03  0.10100000352E+00 0. -1.
       -3    1    3    3    0  502 -0.93232112905E+02  0.31827799158E+03 -0.58955966741E+03  0.67644195497E+03  0.10100000352E+00 0.  1.
</event>
<event>
 5   0  0.6536209E-03  0.7998930E+03  0.7818609E-02  0.9560172E-01
       -2   -1    0    0    0  501  0.00000000000E+00  0.00000000000E+00  0.10933396186E+03  0.10933396189E+03  0.25500000920E-02 0. -1.
        2   -1    0    0  501    0  0.00000000000E+00  0.00000000000E+00 -0.14630148762E+04  0.14630148762E+04  0.25500000920E-02 0.  1.
    10030    2    1    2    0    0  0.00000000000E+00  0.00000000000E+00 -0.13536809144E+04  0.15723488381E+04  0.79989302459E+03 0.  0.
        3    1    3    3  502    0  0.55580627081E+02  0.17451063547E+03  0.22058899190E+02  0.18447160550E+03  0.10100000352E+00 0. -1.
       -3    1    3    3    0  502 -0.55580627081E+02 -0.17451063547E+03 -0.13757398135E+04  0.13878772326E+04  0.10100000352E+00 0.  1.
</event>
<event>
 5   0  0.2478000E-03  0.8041588E+03  0.7818609E-02  0.9554017E-01
        3   -1    0    0  501    0  0.00000000000E+00  0.00000000000E+00  0.90139721749E+03  0.90139722315E+03  0.10100000352E+00 0. -1.
       -3   -1    0    0    0  501  0.00000000000E+00  0.00000000000E+00 -0.17935248418E+03  0.17935251261E+03  0.10100000352E+00 0.  1.
    10030    2    1    2    0    0  0.00000000000E+00  0.00000000000E+00  0.72204473331E+03  0.10807497358E+04  0.80415881170E+03 0.  0.
        5    1    3    3  502    0 -0.36507946991E+03 -0.69778153900E+02  0.56701869069E+03  0.67800021807E+03  0.46999998093E+01 0. -1.
       -5    1    3    3    0  502  0.36507946991E+03  0.69778153900E+02  0.15502604262E+03  0.40274951769E+03  0.46999998093E+01 0.  1.
</event>
<event>
 5   0  0.3714448E-03  0.7982942E+03  0.7818609E-02  0.9562489E-01
        1   -1    0    0  501    0  0.00000000000E+00  0.00000000000E+00  0.29626304928E+03  0.29626304932E+03  0.50400001928E-02 0. -1.
       -1   -1    0    0    0  501  0.00000000000E+00  0.00000000000E+00 -0.53775998259E+03  0.53775998261E+03  0.50400001928E-02 0.  1.
    10030    2    1    2    0    0  0.00000000000E+00  0.00000000000E+00 -0.24149693331E+03  0.83402303193E+03  0.79829421205E+03 0.  0.
        1    1    3    3  502    0 -0.45796268323E+02  0.22364823769E+03  0.22132365548E+03  0.31796225077E+03  0.50400001928E-02 0. -1.
       -1    1    3    3    0  502  0.45796268323E+02 -0.22364823769E+03 -0.46282058879E+03  0.51606078116E+03  0.50400001928E-02 0.  1.
</event>
<event>
 5   0  0.3671128E-03  0.8016197E+03  0.7818609E-02  0.9557676E-01
        1   -1    0    0  501    0  0.00000000000E+00  0.00000000000E+00  0.53090896973E+03  0.53090896975E+03  0.50400001928E-02 0.  1.
       -1   -1    0    0    0  501  0.00000000000E+00  0.00000000000E+00 -0.30259149462E+03  0.30259149466E+03  0.50400001928E-02 0. -1.
    10030    2    1    2    0    0  0.00000000000E+00  0.00000000000E+00  0.22831747511E+03  0.83350046441E+03  0.80161970705E+03 0.  0.
        2    1    3    3  502    0 -0.36515917431E+03 -0.14708807124E+03  0.19246950394E+03  0.43820158973E+03  0.25500000920E-02 0.  1.
       -2    1    3    3    0  502  0.36515917431E+03  0.14708807124E+03  0.35847971175E+02  0.39529887469E+03  0.25500000920E-02 0. -1.
</event>
<event>
 5   0  0.3627496E-03  0.7948212E+03  0.7818609E-02  0.9567544E-01
        1   -1    0    0  501    0  0.00000000000E+00  0.00000000000E+00  0.15738465596E+04  0.15738465596E+04  0.50400001928E-02 0. -1.
       -1   -1    0    0    0  501  0.00000000000E+00  0.00000000000E+00 -0.10034979506E+03  0.10034979519E+03  0.50400001928E-02 0.  1.
    10030    2    1    2    0    0  0.00000000000E+00  0.00000000000E+00  0.14734967645E+04  0.16741963548E+04  0.79482118699E+03 0.  0.
        3    1    3    3  502    0 -0.83462056653E+02 -0.20689691122E+02 -0.80519874790E+02  0.11780254096E+03  0.10100000352E+00 0.  1.
       -3    1    3    3    0  502  0.83462056653E+02  0.20689691122E+02  0.15540166393E+04  0.15563938138E+04  0.10100000352E+00 0. -1.
</event>
<event>
 5   0  0.6337108E-03  0.8042515E+03  0.7818609E-02  0.9553884E-01
        2   -1    0    0  501    0  0.00000000000E+00  0.00000000000E+00  0.65837959587E+03  0.65837959587E+03  0.25500000920E-02 0.  1.
       -2   -1    0    0    0  501  0.00000000000E+00  0.00000000000E+00 -0.24561075043E+03  0.24561075044E+03  0.25500000920E-02 0. -1.
    10030    2    1    2    0    0  0.00000000000E+00  0.00000000000E+00  0.41276884544E+03  0.90399034632E+03  0.80425146967E+03 0.  0.
        4    1    3    3  502    0 -0.48142245374E+02  0.38413489914E+03  0.84149729308E+02  0.39618188546E+03  0.12699999809E+01 0. -1.
       -4    1    3    3    0  502  0.48142245374E+02 -0.38413489914E+03  0.32861911613E+03  0.50780846085E+03  0.12699999809E+01 0.  1.
</event>
<event>
 5   0  0.6536209E-03  0.7991312E+03  0.7818609E-02  0.9561276E-01
       -2   -1    0    0    0  501  0.00000000000E+00  0.00000000000E+00  0.11630744156E+03  0.11630744159E+03  0.25500000920E-02 0.  1.
        2   -1    0    0  501    0  0.00000000000E+00  0.00000000000E+00 -0.13726778605E+04  0.13726778605E+04  0.25500000920E-02 0. -1.
    10030    2    1    2    0    0  0.00000000000E+00  0.00000000000E+00 -0.12563704190E+04  0.14889853021E+04  0.79913115336E+03 0.  0.
        3    1    3    3  502    0  0.25148601445E+03  0.77956166103E+01 -0.49835309440E+02  0.25649474726E+03  0.10100000352E+00 0.  1.
       -3    1    3    3    0  502 -0.25148601445E+03 -0.77956166103E+01 -0.12065351095E+04  0.12324905548E+04  0.10100000352E+00 0. -1.
</event>
<event>
 5   0  0.3860515E-03  0.8214269E+03  0.7818609E-02  0.9529510E-01
        1   -1    0    0  501    0  0.00000000000E+00  0.00000000000E+00  0.13935950656E+04  0.13935950656E+04  0.50400001928E-02 0. -1.
       -1   -1    0    0    0  501  0.00000000000E+00  0.00000000000E+00 -0.12104344353E+03  0.12104344364E+03  0.50400001928E-02 0.  1.
    10030    2    1    2    0    0  0.00000000000E+00  0.00000000000E+00  0.12725516220E+04  0.15146385092E+04  0.82142691875E+03 0.  0.
        4    1    3    3  502    0 -0.26413114233E+03 -0.69820092416E+02  0.12017401363E+04  0.12324045902E+04  0.12699999809E+01 0. -1.
       -4    1    3    3    0  502  0.26413114233E+03  0.69820092416E+02  0.70811485686E+02  0.28223391905E+03  0.12699999809E+01 0.  1.
</event>
<event>
 5   0  0.3671128E-03  0.8010758E+03  0.7818609E-02  0.9558461E-01
       -1   -1    0    0    0  501  0.00000000000E+00  0.00000000000E+00  0.10479631381E+04  0.10479631381E+04  0.50400001928E-02 0. -1.
        1   -1    0    0  501    0  0.00000000000E+00  0.00000000000E+00 -0.15308803587E+03  0.15308803595E+03  0.50400001928E-02 0.  1.
    10030    2    1    2    0    0  0.00000000000E+00  0.00000000000E+00  0.89487510225E+03  0.12010511741E+04  0.80107582296E+03 0.  0.
        2    1    3    3  502    0 -0.22632130240E+03  0.33046383792E+03  0.45000762517E+03  0.60244048902E+03  0.25500000920E-02 0.  1.
       -2    1    3    3    0  502  0.22632130240E+03 -0.33046383792E+03  0.44486747708E+03  0.59861068506E+03  0.25500000920E-02 0. -1.
</event>
<event>
 5   0  0.3671128E-03  0.7993343E+03  0.7818609E-02  0.9560981E-01
        1   -1    0    0  501    0  0.00000000000E+00  0.00000000000E+00  0.10052129105E+04  0.10052129105E+04  0.50400001928E-02 0.  1.
       -1   -1    0    0    0  501  0.00000000000E+00  0.00000000000E+00 -0.15890546189E+03  0.15890546197E+03  0.50400001928E-02 0. -1.
    10030    2    1    2    0    0  0.00000000000E+00  0.00000000000E+00  0.84630744859E+03  0.11641183725E+04  0.79933427774E+03 0.  0.
        2    1    3    3  502    0 -0.37560894410E+02 -0.23666653294E+00  0.10026366395E+04  0.10033399761E+04  0.25500000920E-02 0.  1.
       -2    1    3    3    0  502  0.37560894410E+02  0.23666653294E+00 -0.15632919090E+03  0.16077839636E+03  0.25500000920E-02 0. -1.
</event>
<event>
 5   0  0.3714448E-03  0.8003203E+03  0.7818609E-02  0.9559554E-01
       -1   -1    0    0    0  501  0.00000000000E+00  0.00000000000E+00  0.22054789381E+03  0.22054789387E+03  0.50400001928E-02 0. -1.
        1   -1    0    0  501    0  0.00000000000E+00  0.00000000000E+00 -0.72604699895E+03  0.72604699896E+03  0.50400001928E-02 0.  1.
    10030    2    1    2    0    0  0.00000000000E+00  0.00000000000E+00 -0.50549910513E+03  0.94659489283E+03  0.80032027704E+03 0.  0.
        1    1    3    3  502    0  0.32968130030E+02 -0.97493800226E+02 -0.71012569096E+03  0.71754472730E+03  0.50400001928E-02 0.  1.
       -1    1    3    3    0  502 -0.32968130030E+02  0.97493800226E+02  0.20462658583E+03  0.22905016554E+03  0.50400001928E-02 0. -1.
</event>
<event>
 5   0  0.3753450E-03  0.7999465E+03  0.7818609E-02  0.9560095E-01
       -1   -1    0    0    0  501  0.00000000000E+00  0.00000000000E+00  0.10797231942E+03  0.10797231953E+03  0.50400001928E-02 0. -1.
        1   -1    0    0  501    0  0.00000000000E+00  0.00000000000E+00 -0.14816629593E+04  0.14816629593E+04  0.50400001928E-02 0.  1.
    10030    2    1    2    0    0  0.00000000000E+00  0.00000000000E+00 -0.13736906399E+04  0.15896352788E+04  0.79994646423E+03 0.  0.
        5    1    3    3  502    0  0.25775216657E+03  0.17928558732E+02 -0.12935005205E+04  0.13190615221E+04  0.46999998093E+01 0.  1.
       -5    1    3    3    0  502 -0.25775216657E+03 -0.17928558732E+02 -0.80190119395E+02  0.27057375674E+03  0.46999998093E+01 0. -1.
</event>
<event>
 5   0  0.3860515E-03  0.7997650E+03  0.7818609E-02  0.9560357E-01
        1   -1    0    0  501    0  0.00000000000E+00  0.00000000000E+00  0.12073314362E+04  0.12073314362E+04  0.50400001928E-02 0. -1.
       -1   -1    0    0    0  501  0.00000000000E+00  0.00000000000E+00 -0.13244581569E+03  0.13244581579E+03  0.50400001928E-02 0.  1.
    10030    2    1    2    0    0  0.00000000000E+00  0.00000000000E+00  0.10748856205E+04  0.13397772520E+04  0.79976495784E+03 0.  0.
        4    1    3    3  502    0 -0.19624992536E+03  0.33206088240E+03  0.71414348938E+03  0.81165325056E+03  0.12699999809E+01 0. -1.
       -4    1    3    3    0  502  0.19624992536E+03 -0.33206088240E+03  0.36074213112E+03  0.52812400143E+03  0.12699999809E+01 0.  1.
</event>
<event>
 5   0  0.6337108E-03  0.8007727E+03  0.7818609E-02  0.9558899E-01
       -2   -1    0    0    0  501  0.00000000000E+00  0.00000000000E+00  0.42500971125E+03  0.42500971126E+03  0.25500000920E-02 0. -1.
        2   -1    0    0  501    0  0.00000000000E+00  0.00000000000E+00 -0.37718954725E+03  0.37718954726E+03  0.25500000920E-02 0.  1.
    10030    2    1    2    0    0  0.00000000000E+00  0.00000000000E+00  0.47820163996E+02  0.80219925852E+03  0.80077267828E+03 0.  0.
        4    1    3    3  502    0 -0.47313609951E+02 -0.37138002533E+03  0.16609921927E+03  0.40957571271E+03  0.12699999809E+01 0. -1.
       -4    1    3    3    0  502  0.47313609951E+02  0.37138002533E+03 -0.11827905527E+03  0.39262354580E+03  0.12699999809E+01 0.  1.
</event>
<event>
 5   0  0.2478000E-03  0.8001874E+03  0.7818609E-02  0.9559746E-01
        3   -1    0    0  501    0  0.00000000000E+00  0.00000000000E+00  0.41872979930E+03  0.41872981148E+03  0.10100000352E+00 0.  1.
       -3   -1    0    0    0  501  0.00000000000E+00  0.00000000000E+00 -0.38228698435E+03  0.38228699770E+03  0.10100000352E+00 0. -1.
    10030    2    1    2    0    0  0.00000000000E+00  0.00000000000E+00  0.36442814949E+02  0.80101680918E+03  0.80018738420E+03 0.  0.
        4    1    3    3  502    0  0.30240204597E+03  0.25312569004E+03 -0.49329923605E+02  0.39743510996E+03  0.12699999809E+01 0. -1.
       -4    1    3    3    0  502 -0.30240204597E+03 -0.25312569004E+03  0.85772738553E+02  0.40358169922E+03  0.12699999809E+01 0.  1.
</event>
<event>
 5   0  0.6337108E-03  0.7904491E+03  0.7818609E-02  0.9573946E-01
        2   -1    0    0  501    0  0.00000000000E+00  0.00000000000E+00  0.42608214117E+03  0.42608214118E+03  0.25500000920E-02 0. -1.
       -2   -1    0    0    0  501  0.00000000000E+00  0.00000000000E+00 -0.36660167365E+03  0.36660167366E+03  0.25500000920E-02 0.  1.
    10030    2    1    2    0    0  0.00000000000E+00  0.00000000000E+00  0.59480467518E+02  0.79268381484E+03  0.79044905231E+03 0.  0.
        4    1    3    3  502    0  0.29250309700E+03  0.21744695617E+03  0.18301072684E+03  0.40784283681E+03  0.12699999809E+01 0. -1.
       -4    1    3    3    0  502 -0.29250309700E+03 -0.21744695617E+03 -0.12353025932E+03  0.38484097803E+03  0.12699999809E+01 0.  1.
</event>
<event>
 5   0  0.3714448E-03  0.7455522E+03  0.7818609E-02  0.9642354E-01
        1   -1    0    0  501    0  0.00000000000E+00  0.00000000000E+00  0.97836418429E+03  0.97836418430E+03  0.50400001928E-02 0.  1.
       -1   -1    0    0    0  501  0.00000000000E+00  0.00000000000E+00 -0.14203505765E+03  0.14203505774E+03  0.50400001928E-02 0. -1.
    10030    2    1    2    0    0  0.00000000000E+00  0.00000000000E+00  0.83632912664E+03  0.11203992420E+04  0.74555218028E+03 0.  0.
        1    1    3    3  502    0 -0.25566404760E+03 -0.19538903837E+03  0.13533463353E+03  0.34907942450E+03  0.50400001928E-02 0. -1.
       -1    1    3    3    0  502  0.25566404760E+03  0.19538903837E+03  0.70099449311E+03  0.77131981755E+03  0.50400001928E-02 0.  1.
</event>
<event>
 5   0  0.3860515E-03  0.7994692E+03  0.7818609E-02  0.9560786E-01
       -1   -1    0    0    0  501  0.00000000000E+00  0.00000000000E+00  0.41348616340E+03  0.41348616343E+03  0.50400001928E-02 0.  1.
        1   -1    0    0  501    0  0.00000000000E+00  0.00000000000E+00 -0.38644034014E+03  0.38644034017E+03  0.50400001928E-02 0. -1.
    10030    2    1    2    0    0  0.00000000000E+00  0.00000000000E+00  0.27045823255E+02  0.79992650360E+03  0.79946915801E+03 0.  0.
        4    1    3    3  502    0  0.90827868322E+02  0.36576266564E+03  0.14684361591E+03  0.40447087617E+03  0.12699999809E+01 0.  1.
       -4    1    3    3    0  502 -0.90827868322E+02 -0.36576266564E+03 -0.11979779266E+03  0.39545562743E+03  0.12699999809E+01 0. -1.
</event>
<event>
 5   0  0.6337108E-03  0.7988539E+03  0.7818609E-02  0.9561678E-01
       -2   -1    0    0    0  501  0.00000000000E+00  0.00000000000E+00  0.26112095882E+03  0.26112095883E+03  0.25500000920E-02 0.  1.
        2   -1    0    0  501    0  0.00000000000E+00  0.00000000000E+00 -0.61098838289E+03  0.61098838290E+03  0.25500000920E-02 0. -1.
    10030    2    1    2    0    0  0.00000000000E+00  0.00000000000E+00 -0.34986742407E+03  0.87210934173E+03  0.79885385992E+03 0.  0.
        4    1    3    3  502    0 -0.33164722937E+03 -0.13886564886E+03  0.14993057672E+02  0.35986102576E+03  0.12699999809E+01 0.  1.
       -4    1    3    3    0  502  0.33164722937E+03  0.13886564886E+03 -0.36486048175E+03  0.51224831598E+03  0.12699999809E+01 0. -1.
</event>
<event>
 5   0  0.6337108E-03  0.7982741E+03  0.7818609E-02  0.9562519E-01
       -2   -1    0    0    0  501  0.00000000000E+00  0.00000000000E+00  0.21442103029E+03  0.21442103031E+03  0.25500000920E-02 0.  1.
        2   -1    0    0  501    0  0.00000000000E+00  0.00000000000E+00 -0.74297933111E+03  0.74297933112E+03  0.25500000920E-02 0. -1.
    10030    2    1    2    0    0  0.00000000000E+00  0.00000000000E+00 -0.52855830082E+03  0.95740036142E+03  0.79827412252E+03 0.  0.
        4    1    3    3  502    0  0.25597153189E+03  0.24819657767E+03 -0.47944522051E+03  0.59748832514E+03  0.12699999809E+01 0. -1.
       -4    1    3    3    0  502 -0.25597153189E+03 -0.24819657767E+03 -0.49113080310E+02  0.35991203628E+03  0.12699999809E+01 0.  1.
</event>
<event>
 5   0  0.5813850E-03  0.8040198E+03  0.7818609E-02  0.9554217E-01
        2   -1    0    0  501    0  0.00000000000E+00  0.00000000000E+00  0.42543105629E+03  0.42543105630E+03  0.25500000920E-02 0. -1.
       -2   -1    0    0    0  501  0.00000000000E+00  0.00000000000E+00 -0.37987817029E+03  0.37987817030E+03  0.25500000920E-02 0.  1.
    10030    2    1    2    0    0  0.00000000000E+00  0.00000000000E+00  0.45552886004E+02  0.80530922660E+03  0.80401982875E+03 0.  0.
        5    1    3    3  502    0  0.37456720442E+03  0.94925389501E+02  0.13376236238E+03  0.40893261033E+03  0.46999998093E+01 0.  1.
       -5    1    3    3    0  502 -0.37456720442E+03 -0.94925389501E+02 -0.88209476378E+02  0.39637661627E+03  0.46999998093E+01 0. -1.
</event>
<event>
 5   0  0.6256781E-03  0.8011385E+03  0.7818609E-02  0.9558371E-01
        2   -1    0    0  501    0  0.00000000000E+00  0.00000000000E+00  0.88207775621E+03  0.88207775621E+03  0.25500000920E-02 0.  1.
       -2   -1    0    0    0  501  0.00000000000E+00  0.00000000000E+00 -0.18190657366E+03  0.18190657368E+03  0.25500000920E-02 0. -1.
    10030    2    1    2    0    0  0.00000000000E+00  0.00000000000E+00  0.70017118255E+03  0.10639843299E+04  0.80113854569E+03 0.  0.
        1    1    3    3  502    0  0.10757345347E+03 -0.21617900863E+03 -0.74384888791E+02  0.25266286504E+03  0.50400001928E-02 0. -1.
       -1    1    3    3    0  502 -0.10757345347E+03  0.21617900863E+03  0.77455607134E+03  0.81132146485E+03  0.50400001928E-02 0.  1.
</event>
<event>
 5   0  0.3753450E-03  0.7984801E+03  0.7818609E-02  0.9562220E-01
        1   -1    0    0  501    0  0.00000000000E+00  0.00000000000E+00  0.21648962910E+03  0.21648962916E+03  0.50400001928E-02 0.  1.
       -1   -1    0    0    0  501  0.00000000000E+00  0.00000000000E+00 -0.73625975623E+03  0.73625975624E+03  0.50400001928E-02 0. -1.
    10030    2    1    2    0    0  0.00000000000E+00  0.00000000000E+00 -0.51977012712E+03  0.95274938540E+03  0.79848006008E+03 0.  0.
        5    1    3    3  502    0 -0.14629657974E+03 -0.51575104073E+02  0.17902553510E+03  0.23692807520E+03  0.46999998093E+01 0.  1.
       -5    1    3    3    0  502  0.14629657974E+03  0.51575104073E+02 -0.69879566222E+03  0.71582131020E+03  0.46999998093E+01 0. -1.
</event>
<event>
 5   0  0.5813850E-03  0.8207250E+03  0.7818609E-02  0.9530494E-01
       -2   -1    0    0    0  501  0.00000000000E+00  0.00000000000E+00  0.16646949450E+03  0.16646949452E+03  0.25500000920E-02 0. -1.
        2   -1    0    0  501    0  0.00000000000E+00  0.00000000000E+00 -0.10115811177E+04  0.10115811177E+04  0.25500000920E-02 0.  1.
    10030    2    1    2    0    0  0.00000000000E+00  0.00000000000E+00 -0.84511162318E+03  0.11780506122E+04  0.82072503877E+03 0.  0.
        5    1    3    3  502    0 -0.17626525594E+03 -0.26382162843E+02  0.10797091909E+03  0.20843528572E+03  0.46999998093E+01 0. -1.
       -5    1    3    3    0  502  0.17626525594E+03  0.26382162843E+02 -0.95308254226E+03  0.96961532647E+03  0.46999998093E+01 0.  1.
</event>
<event>
 5   0  0.2478000E-03  0.7972410E+03  0.7818609E-02  0.9564019E-01
       -4   -1    0    0    0  501  0.00000000000E+00  0.00000000000E+00  0.56421555111E+03  0.56421698043E+03  0.12699999809E+01 0.  1.
        4   -1    0    0  501    0  0.00000000000E+00  0.00000000000E+00 -0.28162370079E+03  0.28162656435E+03  0.12699999809E+01 0. -1.
    10030    2    1    2    0    0  0.00000000000E+00  0.00000000000E+00  0.28259185032E+03  0.84584354478E+03  0.79724096005E+03 0.  0.
        1    1    3    3  502    0  0.10006315345E+03  0.22648086155E+03 -0.19014619973E+03  0.31218871316E+03  0.50400001928E-02 0. -1.
       -1    1    3    3    0  502 -0.10006315345E+03 -0.22648086155E+03  0.47273805005E+03  0.53365483162E+03  0.50400001928E-02 0.  1.
</event>
<event>
 5   0  0.5813850E-03  0.7991199E+03  0.7818609E-02  0.9561292E-01
        2   -1    0    0  501    0  0.00000000000E+00  0.00000000000E+00  0.42851787344E+03  0.42851787345E+03  0.25500000920E-02 0.  1.
       -2   -1    0    0    0  501  0.00000000000E+00  0.00000000000E+00 -0.37255889952E+03  0.37255889953E+03  0.25500000920E-02 0. -1.
    10030    2    1    2    0    0  0.00000000000E+00  0.00000000000E+00  0.55958973919E+02  0.80107677298E+03  0.79911988427E+03 0.  0.
        5    1    3    3  502    0 -0.29287609193E+03 -0.13898876944E+03  0.26207172619E+03  0.41689082854E+03  0.46999998093E+01 0.  1.
       -5    1    3    3    0  502  0.29287609193E+03  0.13898876944E+03 -0.20611275227E+03  0.38418594444E+03  0.46999998093E+01 0. -1.
</event>
<event>
 5   0  0.3627496E-03  0.8019740E+03  0.7818609E-02  0.9557164E-01
        1   -1    0    0  501    0  0.00000000000E+00  0.00000000000E+00  0.54470393064E+03  0.54470393067E+03  0.50400001928E-02 0. -1.
       -1   -1    0    0    0  501  0.00000000000E+00  0.00000000000E+00 -0.29518892642E+03  0.29518892647E+03  0.50400001928E-02 0.  1.
    10030    2    1    2    0    0  0.00000000000E+00  0.00000000000E+00  0.24951500422E+03  0.83989285713E+03  0.80197398595E+03 0.  0.
        3    1    3    3  502    0 -0.12700914875E+03 -0.19223000220E+03  0.46846205945E+03  0.52205402878E+03  0.10100000352E+00 0. -1.
       -3    1    3    3    0  502  0.12700914875E+03  0.19223000220E+03 -0.21894705524E+03  0.31783882836E+03  0.10100000352E+00 0.  1.
</event>
<event>
 5   0  0.3671128E-03  0.8073007E+03  0.7818609E-02  0.9549509E-01
       -1   -1    0    0    0  501  0.00000000000E+00  0.00000000000E+00  0.27715489276E+03  0.27715489281E+03  0.50400001928E-02 0. -1.
        1   -1    0    0  501    0  0.00000000000E+00  0.00000000000E+00 -0.58787924750E+03  0.58787924752E+03  0.50400001928E-02 0.  1.
    10030    2    1    2    0    0  0.00000000000E+00  0.00000000000E+00 -0.31072435474E+03  0.86503414033E+03  0.80730071182E+03 0.  0.
        2    1    3    3  502    0  0.16761121788E+03 -0.36716779986E+03 -0.16102157867E+03  0.43454995388E+03  0.25500000920E-02 0.  1.
       -2    1    3    3    0  502 -0.16761121788E+03  0.36716779986E+03 -0.14970277607E+03  0.43048418645E+03  0.25500000920E-02 0. -1.
</event>
<event>
 5   0  0.3627496E-03  0.7946348E+03  0.7818609E-02  0.9567816E-01
        1   -1    0    0  501    0  0.00000000000E+00  0.00000000000E+00  0.39568000327E+03  0.39568000330E+03  0.50400001928E-02 0. -1.
       -1   -1    0    0    0  501  0.00000000000E+00  0.00000000000E+00 -0.39896160827E+03  0.39896160831E+03  0.50400001928E-02 0.  1.
    10030    2    1    2    0    0  0.00000000000E+00  0.00000000000E+00 -0.32816050056E+01  0.79464161161E+03  0.79463483561E+03 0.  0.
        3    1    3    3  502    0 -0.28086204136E+03  0.10749884268E+03  0.25801817130E+03  0.39624850079E+03  0.10100000352E+00 0. -1.
       -3    1    3    3    0  502  0.28086204136E+03 -0.10749884268E+03 -0.26129977631E+03  0.39839311082E+03  0.10100000352E+00 0.  1.
</event>
<event>
 5   0  0.3627496E-03  0.8041703E+03  0.7818609E-02  0.9554000E-01
       -1   -1    0    0    0  501  0.00000000000E+00  0.00000000000E+00  0.41425388977E+03  0.41425388980E+03  0.50400001928E-02 0. -1.
        1   -1    0    0  501    0  0.00000000000E+00  0.00000000000E+00 -0.39027390235E+03  0.39027390238E+03  0.50400001928E-02 0.  1.
    10030    2    1    2    0    0  0.00000000000E+00  0.00000000000E+00  0.23979987425E+02  0.80452779218E+03  0.80417033556E+03 0.  0.
        3    1    3    3  502    0 -0.32778092846E+03  0.12414195142E+03  0.20910780246E+03  0.40813924635E+03  0.10100000352E+00 0. -1.
       -3    1    3    3    0  502  0.32778092846E+03 -0.12414195142E+03 -0.18512781504E+03  0.39638854583E+03  0.10100000352E+00 0.  1.
</event>
<event>
 5   0  0.6153659E-03  0.8006888E+03  0.7818609E-02  0.9559021E-01
        2   -1    0    0  501    0  0.00000000000E+00  0.00000000000E+00  0.15080140382E+04  0.15080140382E+04  0.25500000920E-02 0.  1.
       -2   -1    0    0    0  501  0.00000000000E+00  0.00000000000E+00 -0.10628258840E+03  0.10628258843E+03  0.25500000920E-02 0. -1.
    10030    2    1    2    0    0  0.00000000000E+00  0.00000000000E+00  0.14017314498E+04  0.16142966266E+04  0.80068879184E+03 0.  0.
        2    1    3    3  502    0  0.26893435948E+03 -0.20572783748E+02  0.12973374793E+04  0.13250786634E+04  0.25500000920E-02 0.  1.
       -2    1    3    3    0  502 -0.26893435948E+03  0.20572783748E+02  0.10439397051E+03  0.28921796318E+03  0.25500000920E-02 0. -1.
</event>
<event>
 5   0  0.3627496E-03  0.7991917E+03  0.7818609E-02  0.9561188E-01
        1   -1    0    0  501    0  0.00000000000E+00  0.00000000000E+00  0.16150273172E+03  0.16150273180E+03  0.50400001928E-02 0.  1.
       -1   -1    0    0    0  501  0.00000000000E+00  0.00000000000E+00 -0.98869449935E+03  0.98869449937E+03  0.50400001928E-02 0. -1.
    10030    2    1    2    0    0  0.00000000000E+00  0.00000000000E+00 -0.82719176763E+03  0.11501972312E+04  0.79919174804E+03 0.  0.
        3    1    3    3  502    0 -0.35420569687E+03 -0.14704826432E+03 -0.25209741139E+03  0.45895313787E+03  0.10100000352E+00 0.  1.
       -3    1    3    3    0  502  0.35420569687E+03  0.14704826432E+03 -0.57509435624E+03  0.69124409329E+03  0.10100000352E+00 0. -1.
</event>
<event>
 5   0  0.3671128E-03  0.7897139E+03  0.7818609E-02  0.9575026E-01
       -1   -1    0    0    0  501  0.00000000000E+00  0.00000000000E+00  0.21714527660E+03  0.21714527665E+03  0.50400001928E-02 0. -1.
        1   -1    0    0  501    0  0.00000000000E+00  0.00000000000E+00 -0.71800781181E+03  0.71800781183E+03  0.50400001928E-02 0.  1.
    10030    2    1    2    0    0  0.00000000000E+00  0.00000000000E+00 -0.50086253522E+03  0.93515308848E+03  0.78971388472E+03 0.  0.
        2    1    3    3  502    0  0.14300336581E+03  0.29079095208E+03  0.16735967882E+02  0.32448333251E+03  0.25500000920E-02 0.  1.
       -2    1    3    3    0  502 -0.14300336581E+03 -0.29079095208E+03 -0.51759850310E+03  0.61066975598E+03  0.25500000920E-02 0. -1.
</event>
<event>
 5   0  0.3714448E-03  0.8002242E+03  0.7818609E-02  0.9559693E-01
        1   -1    0    0  501    0  0.00000000000E+00  0.00000000000E+00  0.31999242314E+03  0.31999242318E+03  0.50400001928E-02 0. -1.
       -1   -1    0    0    0  501  0.00000000000E+00  0.00000000000E+00 -0.50029209958E+03  0.50029209961E+03  0.50400001928E-02 0.  1.
    10030    2    1    2    0    0  0.00000000000E+00  0.00000000000E+00 -0.18029967644E+03  0.82028452279E+03  0.80022417172E+03 0.  0.
        1    1    3    3  502    0  0.48670171907E+02  0.62941520214E+01  0.31689562538E+03  0.32067310363E+03  0.50400001928E-02 0. -1.
       -1    1    3    3    0  502 -0.48670171907E+02 -0.62941520214E+01 -0.49719530181E+03  0.49961141916E+03  0.50400001928E-02 0.  1.
</event>
<event>
 5   0  0.6256781E-03  0.7999788E+03  0.7818609E-02  0.9560048E-01
       -2   -1    0    0    0  501  0.00000000000E+00  0.00000000000E+00  0.15838372878E+03  0.15838372880E+03  0.25500000920E-02 0. -1.
        2   -1    0    0  501    0  0.00000000000E+00  0.00000000000E+00 -0.10101512120E+04  0.10101512120E+04  0.25500000920E-02 0.  1.
    10030    2    1    2    0    0  0.00000000000E+00  0.00000000000E+00 -0.85176748320E+03  0.11685349408E+04  0.79997878873E+03 0.  0.
        1    1    3    3  502    0 -0.84425771148E+02  0.46388385613E+02 -0.99295421637E+03  0.99761599275E+03  0.50400001928E-02 0.  1.
       -1    1    3    3    0  502  0.84425771148E+02 -0.46388385613E+02  0.14118673317E+03  0.17091894805E+03  0.50400001928E-02 0. -1.
</event>
<event>
 5   0  0.6153659E-03  0.8007589E+03  0.7818609E-02  0.9558919E-01
        2   -1    0    0  501    0  0.00000000000E+00  0.00000000000E+00  0.83202419826E+03  0.83202419826E+03  0.25500000920E-02 0.  1.
       -2   -1    0    0    0  501  0.00000000000E+00  0.00000000000E+00 -0.19266712630E+03  0.19266712632E+03  0.25500000920E-02 0. -1.
    10030    2    1    2    0    0  0.00000000000E+00  0.00000000000E+00  0.63935707195E+03  0.10246913246E+04  0.80075891829E+03 0.  0.
        2    1    3    3  502    0  0.20164335271E+03 -0.25498672970E+03  0.20597594982E+02  0.32573384064E+03  0.25500000920E-02 0. -1.
       -2    1    3    3    0  502 -0.20164335271E+03  0.25498672970E+03  0.61875947697E+03  0.69895748394E+03  0.25500000920E-02 0.  1.
</event>
<event>
 5   0  0.3627496E-03  0.7951050E+03  0.7818609E-02  0.9567130E-01
        1   -1    0    0  501    0  0.00000000000E+00  0.00000000000E+00  0.95711661193E+03  0.95711661194E+03  0.50400001928E-02 0. -1.
       -1   -1    0    0    0  501  0.00000000000E+00  0.00000000000E+00 -0.16512930818E+03  0.16512930825E+03  0.50400001928E-02 0.  1.
    10030    2    1    2    0    0  0.00000000000E+00  0.00000000000E+00  0.79198730375E+03  0.11222459202E+04  0.79510503462E+03 0.  0.
        3    1    3    3  502    0  0.18907408523E+03 -0.32167798131E+02 -0.95513526534E+02  0.21425830414E+03  0.10100000352E+00 0.  1.
       -3    1    3    3    0  502 -0.18907408523E+03  0.32167798131E+02  0.88750083028E+03  0.90798761605E+03  0.10100000352E+00 0. -1.
</event>
<event>
 5   0  0.6256781E-03  0.7984826E+03  0.7818609E-02  0.9562216E-01
        2   -1    0    0  501    0  0.00000000000E+00  0.00000000000E+00  0.10746728922E+04  0.10746728922E+04  0.25500000920E-02 0.  1.
       -2   -1    0    0    0  501  0.00000000000E+00  0.00000000000E+00 -0.14831825213E+03  0.14831825215E+03  0.25500000920E-02 0. -1.
    10030    2    1    2    0    0  0.00000000000E+00  0.00000000000E+00  0.92635464012E+03  0.12229911444E+04  0.79848257339E+03 0.  0.
        1    1    3    3  502    0 -0.34461790655E+03  0.88578563526E+02  0.74051041624E+03  0.82156152540E+03  0.50400001928E-02 0.  1.
       -1    1    3    3    0  502  0.34461790655E+03 -0.88578563526E+02  0.18584422388E+03  0.40142961900E+03  0.50400001928E-02 0. -1.
</event>
<event>
 5   0  0.3714448E-03  0.7993189E+03  0.7818609E-02  0.9561003E-01
        1   -1    0    0  501    0  0.00000000000E+00  0.00000000000E+00  0.19574249584E+04  0.19574249584E+04  0.50400001928E-02 0. -1.
       -1   -1    0    0    0  501  0.00000000000E+00  0.00000000000E+00 -0.81600928395E+02  0.81600928551E+02  0.50400001928E-02 0.  1.
    10030    2    1    2    0    0  0.00000000000E+00  0.00000000000E+00  0.18758240300E+04  0.20390258870E+04  0.79931894519E+03 0.  0.
        1    1    3    3  502    0 -0.38057424593E+03 -0.52334438088E+02  0.65670425670E+03  0.76081280935E+03  0.50400001928E-02 0.  1.
       -1    1    3    3    0  502  0.38057424593E+03  0.52334438088E+02  0.12191197733E+04  0.12782130776E+04  0.50400001928E-02 0. -1.
</event>
<event>
 5   0  0.3627496E-03  0.7986445E+03  0.7818609E-02  0.9561981E-01
       -1   -1    0    0    0  501  0.00000000000E+00  0.00000000000E+00  0.61007008214E+03  0.61007008216E+03  0.50400001928E-02 0.  1.
        1   -1    0    0  501    0  0.00000000000E+00  0.00000000000E+00 -0.26137695225E+03  0.26137695230E+03  0.50400001928E-02 0. -1.
    10030    2    1    2    0    0  0.00000000000E+00  0.00000000000E+00  0.34869312989E+03  0.87144703446E+03  0.79864449853E+03 0.  0.
        3    1    3    3  502    0 -0.38302061019E+03 -0.96102479703E+02  0.23906402538E+03  0.46161899102E+03  0.10100000352E+00 0. -1.
       -3    1    3    3    0  502  0.38302061019E+03  0.96102479703E+02  0.10962910451E+03  0.40982804344E+03  0.10100000352E+00 0.  1.
</event>
<event>
 5   0  0.6337108E-03  0.8020945E+03  0.7818609E-02  0.9556990E-01
        2   -1    0    0  501    0  0.00000000000E+00  0.00000000000E+00  0.84887597229E+03  0.84887597229E+03  0.25500000920E-02 0. -1.
       -2   -1    0    0    0  501  0.00000000000E+00  0.00000000000E+00 -0.18947279971E+03  0.18947279973E+03  0.25500000920E-02 0.  1.
    10030    2    1    2    0    0  0.00000000000E+00  0.00000000000E+00  0.65940317257E+03  0.10383487720E+04  0.80209452582E+03 0.  0.
        4    1    3    3  502    0  0.23819271461E+03  0.11669819817E+02  0.74711076110E+03  0.78424999600E+03  0.12699999809E+01 0. -1.
       -4    1    3    3    0  502 -0.23819271461E+03 -0.11669819817E+02 -0.87707588521E+02  0.25409877601E+03  0.12699999809E+01 0.  1.
</event>
<event>
 5   0  0.5813850E-03  0.8048874E+03  0.7818609E-02  0.9552970E-01
       -2   -1    0    0    0  501  0.00000000000E+00  0.00000000000E+00  0.27206108658E+03  0.27206108659E+03  0.25500000920E-02 0.  1.
        2   -1    0    0  501    0  0.00000000000E+00  0.00000000000E+00 -0.59531086722E+03  0.59531086722E+03  0.25500000920E-02 0. -1.
    10030    2    1    2    0    0  0.00000000000E+00  0.00000000000E+00 -0.32324978063E+03  0.86737195382E+03  0.80488737447E+03 0.  0.
        5    1    3    3  502    0  0.23867316464E+03 -0.27517617916E+03 -0.34593459708E+03  0.50237400863E+03  0.46999998093E+01 0. -1.
       -5    1    3    3    0  502 -0.23867316464E+03  0.27517617916E+03  0.22684816451E+02  0.36499794518E+03  0.46999998093E+01 0.  1.
</event>
<event>
 5   0  0.2478000E-03  0.8005690E+03  0.7818609E-02  0.9559194E-01
       -3   -1    0    0    0  501  0.00000000000E+00  0.00000000000E+00  0.17768114589E+03  0.17768117460E+03  0.10100000352E+00 0. -1.
        3   -1    0    0  501    0  0.00000000000E+00  0.00000000000E+00 -0.90177081043E+03  0.90177081609E+03  0.10100000352E+00 0.  1.
    10030    2    1    2    0    0  0.00000000000E+00  0.00000000000E+00 -0.72408966454E+03  0.10794519907E+04  0.80056902132E+03 0.  0.
        2    1    3    3  502    0 -0.18085054369E+03  0.55913689887E+02 -0.83760450266E+03  0.85872845694E+03  0.25500000920E-02 0.  1.
       -2    1    3    3    0  502  0.18085054369E+03 -0.55913689887E+02  0.11351483812E+03  0.22072353374E+03  0.25500000920E-02 0. -1.
</event>
<event>
 5   0  0.6256781E-03  0.8018716E+03  0.7818609E-02  0.9557312E-01
       -2   -1    0    0    0  501  0.00000000000E+00  0.00000000000E+00  0.29507894873E+03  0.29507894874E+03  0.25500000920E-02 0.  1.
        2   -1    0    0  501    0  0.00000000000E+00  0.00000000000E+00 -0.54476779282E+03  0.54476779283E+03  0.25500000920E-02 0. -1.
    10030    2    1    2    0    0  0.00000000000E+00  0.00000000000E+00 -0.24968884409E+03  0.83984674157E+03  0.80187157979E+03 0.  0.
        1    1    3    3  502    0 -0.28049276321E+03 -0.20715867817E+03 -0.33210122534E+03  0.48154141260E+03  0.50400001928E-02 0. -1.
       -1    1    3    3    0  502  0.28049276321E+03  0.20715867817E+03  0.82412381248E+02  0.35830532897E+03  0.50400001928E-02 0.  1.
</event>
<event>
 5   0  0.5813850E-03  0.8004168E+03  0.7818609E-02  0.9559414E-01
        2   -1    0    0  501    0  0.00000000000E+00  0.00000000000E+00  0.29534619789E+03  0.29534619790E+03  0.25500000920E-02 0. -1.
       -2   -1    0    0    0  501  0.00000000000E+00  0.00000000000E+00 -0.54230177793E+03  0.54230177794E+03  0.25500000920E-02 0.  1.
    10030    2    1    2    0    0  0.00000000000E+00  0.00000000000E+00 -0.24695558005E+03  0.83764797584E+03  0.80041681199E+03 0.  0.
        5    1    3    3  502    0 -0.33746666485E+03  0.21000476733E+03 -0.74852273879E+02  0.40448820142E+03  0.46999998093E+01 0.  1.
       -5    1    3    3    0  502  0.33746666485E+03 -0.21000476733E+03 -0.17210330617E+03  0.43315977442E+03  0.46999998093E+01 0. -1.
</event>
<event>
 5   0  0.6337108E-03  0.8009493E+03  0.7818609E-02  0.9558644E-01
       -2   -1    0    0    0  501  0.00000000000E+00  0.00000000000E+00  0.22613943817E+03  0.22613943818E+03  0.25500000920E-02 0.  1.
        2   -1    0    0  501    0  0.00000000000E+00  0.00000000000E+00 -0.70920818271E+03  0.70920818272E+03  0.25500000920E-02 0. -1.
    10030    2    1    2    0    0  0.00000000000E+00  0.00000000000E+00 -0.48306874454E+03  0.93534762090E+03  0.80094928677E+03 0.  0.
        4    1    3    3  502    0  0.18409673896E+03  0.63783992737E+02  0.16705892185E+03  0.25665210557E+03  0.12699999809E+01 0.  1.
       -4    1    3    3    0  502 -0.18409673896E+03 -0.63783992737E+02 -0.65012766639E+03  0.67869551533E+03  0.12699999809E+01 0. -1.
</event>
<event>
 5   0  0.3627496E-03  0.8026162E+03  0.7818609E-02  0.9556238E-01
        1   -1    0    0  501    0  0.00000000000E+00  0.00000000000E+00  0.13355335855E+04  0.13355335855E+04  0.50400001928E-02 0.  1.
       -1   -1    0    0    0  501  0.00000000000E+00  0.00000000000E+00 -0.12058715655E+03  0.12058715665E+03  0.50400001928E-02 0. -1.
    10030    2    1    2    0    0  0.00000000000E+00  0.00000000000E+00  0.12149464290E+04  0.14561207422E+04  0.80261621622E+03 0.  0.
        3    1    3    3  502    0 -0.10926394587E+03 -0.14108189401E+03  0.12595968180E+04  0.12721740702E+04  0.10100000352E+00 0.  1.
       -3    1    3    3    0  502  0.10926394587E+03  0.14108189401E+03 -0.44650389075E+02  0.18394667197E+03  0.10100000352E+00 0. -1.
</event>
<event>
 5   0  0.3627496E-03  0.7976021E+03  0.7818609E-02  0.9563495E-01
       -1   -1    0    0    0  501  0.00000000000E+00  0.00000000000E+00  0.32482510298E+03  0.32482510302E+03  0.50400001928E-02 0. -1.
        1   -1    0    0  501    0  0.00000000000E+00  0.00000000000E+00 -0.48962430224E+03  0.48962430227E+03  0.50400001928E-02 0.  1.
    10030    2    1    2    0    0  0.00000000000E+00  0.00000000000E+00 -0.16479919926E+03  0.81444940529E+03  0.79760206726E+03 0.  0.
        3    1    3    3  502    0 -0.12136150665E+03  0.31124133838E+03 -0.30481327007E+03  0.45222884232E+03  0.10100000352E+00 0.  1.
       -3    1    3    3    0  502  0.12136150665E+03 -0.31124133838E+03  0.14001407081E+03  0.36222056297E+03  0.10100000352E+00 0. -1.
</event>
<event>
 5   0  0.6536209E-03  0.7952431E+03  0.7818609E-02  0.9566928E-01
        2   -1    0    0  501    0  0.00000000000E+00  0.00000000000E+00  0.10478875539E+04  0.10478875539E+04  0.25500000920E-02 0. -1.
       -2   -1    0    0    0  501  0.00000000000E+00  0.00000000000E+00 -0.15087771540E+03  0.15087771542E+03  0.25500000920E-02 0.  1.
    10030    2    1    2    0    0  0.00000000000E+00  0.00000000000E+00  0.89700983854E+03  0.11987652694E+04  0.79524305757E+03 0.  0.
        3    1    3    3  502    0  0.26090721740E+03  0.22249295151E+03  0.75196911658E+03  0.82645825790E+03  0.10100000352E+00 0. -1.
       -3    1    3    3    0  502 -0.26090721740E+03 -0.22249295151E+03  0.14504072196E+03  0.37230701147E+03  0.10100000352E+00 0.  1.
</event>
<event>
 5   0  0.6337108E-03  0.8011924E+03  0.7818609E-02  0.9558293E-01
        2   -1    0    0  501    0  0.00000000000E+00  0.00000000000E+00  0.18681169117E+04  0.18681169117E+04  0.25500000920E-02 0. -1.
       -2   -1    0    0    0  501  0.00000000000E+00  0.00000000000E+00 -0.85903246054E+02  0.85903246091E+02  0.25500000920E-02 0.  1.
    10030    2    1    2    0    0  0.00000000000E+00  0.00000000000E+00  0.17822136657E+04  0.19540201578E+04  0.80119237830E+03 0.  0.
        4    1    3    3  502    0 -0.21133470758E+03 -0.63696531587E+02  0.75787342859E+02  0.23337725040E+03  0.12699999809E+01 0.  1.
       -4    1    3    3    0  502  0.21133470758E+03  0.63696531587E+02  0.17064263228E+04  0.17206429074E+04  0.12699999809E+01 0. -1.
</event>
<event>
 5   0  0.3671128E-03  0.8032376E+03  0.7818609E-02  0.9555343E-01
        1   -1    0    0  501    0  0.00000000000E+00  0.00000000000E+00  0.74868444319E+03  0.74868444321E+03  0.50400001928E-02 0.  1.
       -1   -1    0    0    0  501  0.00000000000E+00  0.00000000000E+00 -0.21544144810E+03  0.21544144816E+03  0.50400001928E-02 0. -1.
    10030    2    1    2    0    0  0.00000000000E+00  0.00000000000E+00  0.53324299510E+03  0.96412589137E+03  0.80323760033E+03 0.  0.
        2    1    3    3  502    0  0.25566711566E+03 -0.89899276551E+02 -0.89141571104E+02  0.28529594049E+03  0.25500000920E-02 0. -1.
       -2    1    3    3    0  502 -0.25566711566E+03  0.89899276551E+02  0.62238456620E+03  0.67882995088E+03  0.25500000920E-02 0.  1.
</event>
<event>
 5   0  0.3714448E-03  0.8004283E+03  0.7818609E-02  0.9559397E-01
        1   -1    0    0  501    0  0.00000000000E+00  0.00000000000E+00  0.21133067661E+03  0.21133067667E+03  0.50400001928E-02 0. -1.
       -1   -1    0    0    0  501  0.00000000000E+00  0.00000000000E+00 -0.75791823363E+03  0.75791823364E+03  0.50400001928E-02 0.  1.
    10030    2    1    2    0    0  0.00000000000E+00  0.00000000000E+00 -0.54658755702E+03  0.96924891031E+03  0.80042831825E+03 0.  0.
        1    1    3    3  502    0 -0.95756726641E+02 -0.31613649420E+03 -0.54691650975E+03  0.63892824505E+03  0.50400001928E-02 0.  1.
       -1    1    3    3    0  502  0.95756726641E+02  0.31613649420E+03  0.32895272786E+00  0.33032066526E+03  0.50400001928E-02 0. -1.
</event>
<event>
 5   0  0.3671128E-03  0.8017665E+03  0.7818609E-02  0.9557464E-01
        1   -1    0    0  501    0  0.00000000000E+00  0.00000000000E+00  0.39879024868E+03  0.39879024871E+03  0.50400001928E-02 0.  1.
       -1   -1    0    0    0  501  0.00000000000E+00  0.00000000000E+00 -0.40298728037E+03  0.40298728040E+03  0.50400001928E-02 0. -1.
    10030    2    1    2    0    0  0.00000000000E+00  0.00000000000E+00 -0.41970316852E+01  0.80177752911E+03  0.80176654402E+03 0.  0.
        2    1    3    3  502    0  0.45107268837E+01  0.30329038304E+03  0.26001572885E+03  0.39951668596E+03  0.25500000920E-02 0.  1.
       -2    1    3    3    0  502 -0.45107268837E+01 -0.30329038304E+03 -0.26421276053E+03  0.40226084316E+03  0.25500000920E-02 0. -1.
</event>
<event>
 5   0  0.2478000E-03  0.8000454E+03  0.7818609E-02  0.9559951E-01
       -3   -1    0    0    0  501  0.00000000000E+00  0.00000000000E+00  0.10653087323E+03  0.10653092111E+03  0.10100000352E+00 0.  1.
        3   -1    0    0  501    0  0.00000000000E+00  0.00000000000E+00 -0.15020820720E+04  0.15020820754E+04  0.10100000352E+00 0. -1.
    10030    2    1    2    0    0  0.00000000000E+00  0.00000000000E+00 -0.13955511988E+04  0.16086129965E+04  0.80004538880E+03 0.  0.
        4    1    3    3  502    0  0.33614612074E+02 -0.27438585596E+03 -0.11642584153E+03  0.29995687952E+03  0.12699999809E+01 0.  1.
       -4    1    3    3    0  502 -0.33614612074E+02  0.27438585596E+03 -0.12791253573E+04  0.13086561170E+04  0.12699999809E+01 0. -1.
</event>
<event>
 5   0  0.6337108E-03  0.8013756E+03  0.7818609E-02  0.9558028E-01
        2   -1    0    0  501    0  0.00000000000E+00  0.00000000000E+00  0.39061588402E+03  0.39061588403E+03  0.25500000920E-02 0. -1.
       -2   -1    0    0    0  501  0.00000000000E+00  0.00000000000E+00 -0.41101945108E+03  0.41101945109E+03  0.25500000920E-02 0.  1.
    10030    2    1    2    0    0  0.00000000000E+00  0.00000000000E+00 -0.20403567057E+02  0.80163533512E+03  0.80137563287E+03 0.  0.
        4    1    3    3  502    0  0.16430408231E+03 -0.36471811447E+03 -0.33317254685E+02  0.40140601247E+03  0.12699999809E+01 0. -1.
       -4    1    3    3    0  502 -0.16430408231E+03  0.36471811447E+03  0.12913687628E+02  0.40022932265E+03  0.12699999809E+01 0.  1.
</event>
<event>
 5   0  0.6337108E-03  0.8071214E+03  0.7818609E-02  0.9549766E-01
       -2   -1    0    0    0  501  0.00000000000E+00  0.00000000000E+00  0.22680897861E+03  0.22680897862E+03  0.25500000920E-02 0. -1.
        2   -1    0    0  501    0  0.00000000000E+00  0.00000000000E+00 -0.71805456738E+03  0.71805456738E+03  0.25500000920E-02 0.  1.
    10030    2    1    2    0    0  0.00000000000E+00  0.00000000000E+00 -0.49124558877E+03  0.94486354600E+03  0.80712136143E+03 0.  0.
        4    1    3    3  502    0  0.24753038338E+03 -0.53657677985E+02 -0.61342049416E+03  0.66365409112E+03  0.12699999809E+01 0.  1.
       -4    1    3    3    0  502 -0.24753038338E+03  0.53657677985E+02  0.12217490539E+03  0.28120945488E+03  0.12699999809E+01 0. -1.
</event>
<event>
 5   0  0.5813850E-03  0.7996648E+03  0.7818609E-02  0.9560502E-01
       -2   -1    0    0    0  501  0.00000000000E+00  0.00000000000E+00  0.14648074234E+03  0.14648074236E+03  0.25500000920E-02 0.  1.
        2   -1    0    0  501    0  0.00000000000E+00  0.00000000000E+00 -0.10913787363E+04  0.10913787363E+04  0.25500000920E-02 0. -1.
    10030    2    1    2    0    0  0.00000000000E+00  0.00000000000E+00 -0.94489799393E+03  0.12378594786E+04  0.79966484848E+03 0.  0.
        5    1    3    3  502    0 -0.23695074827E+03 -0.32166756226E+03 -0.49583311174E+03  0.63677958699E+03  0.46999998093E+01 0. -1.
       -5    1    3    3    0  502  0.23695074827E+03  0.32166756226E+03 -0.44906488219E+03  0.60107989164E+03  0.46999998093E+01 0.  1.
</event>
<event>
 5   0  0.2478000E-03  0.8463566E+03  0.7818609E-02  0.9495240E-01
       -3   -1    0    0    0  501  0.00000000000E+00  0.00000000000E+00  0.51589508596E+03  0.51589509585E+03  0.10100000352E+00 0. -1.
        3   -1    0    0  501    0  0.00000000000E+00  0.00000000000E+00 -0.34712454912E+03  0.34712456381E+03  0.10100000352E+00 0.  1.
    10030    2    1    2    0    0  0.00000000000E+00  0.00000000000E+00  0.16877053684E+03  0.86301965966E+03  0.84635656720E+03 0.  0.
        1    1    3    3  502    0 -0.56237434152E+02  0.37836432955E+03 -0.10016881359E+03  0.39541877310E+03  0.50400001928E-02 0.  1.
       -1    1    3    3    0  502  0.56237434152E+02 -0.37836432955E+03  0.26893935043E+03  0.46760088656E+03  0.50400001928E-02 0. -1.
</event>
<event>
 5   0  0.3627496E-03  0.8007118E+03  0.7818609E-02  0.9558987E-01
        1   -1    0    0  501    0  0.00000000000E+00  0.00000000000E+00  0.37460647689E+03  0.37460647692E+03  0.50400001928E-02 0. -1.
       -1   -1    0    0    0  501  0.00000000000E+00  0.00000000000E+00 -0.42787523272E+03  0.42787523274E+03  0.50400001928E-02 0.  1.
    10030    2    1    2    0    0  0.00000000000E+00  0.00000000000E+00 -0.53268755824E+02  0.80248170967E+03  0.80071176712E+03 0.  0.
        3    1    3    3  502    0 -0.70364480354E+02 -0.31878781369E+03  0.20562774638E+03  0.38582328925E+03  0.10100000352E+00 0. -1.
       -3    1    3    3    0  502  0.70364480354E+02  0.31878781369E+03 -0.25889650220E+03  0.41665842042E+03  0.10100000352E+00 0.  1.
</event>
<event>
 5   0  0.3671128E-03  0.7985930E+03  0.7818609E-02  0.9562056E-01
       -1   -1    0    0    0  501  0.00000000000E+00  0.00000000000E+00  0.46709694536E+03  0.46709694539E+03  0.50400001928E-02 0.  1.
        1   -1    0    0  501    0  0.00000000000E+00  0.00000000000E+00 -0.34133749895E+03  0.34133749899E+03  0.50400001928E-02 0. -1.
    10030    2    1    2    0    0  0.00000000000E+00  0.00000000000E+00  0.12575944641E+03  0.80843444438E+03  0.79859302056E+03 0.  0.
        2    1    3    3  502    0 -0.23218930054E+03  0.95439585809E+01 -0.26582895801E+03  0.35308355011E+03  0.25500000920E-02 0. -1.
       -2    1    3    3    0  502  0.23218930054E+03 -0.95439585809E+01  0.39158840442E+03  0.45535089427E+03  0.25500000920E-02 0.  1.
</event>
<event>
 5   0  0.6256781E-03  0.7967676E+03  0.7818609E-02  0.9564708E-01
       -2   -1    0    0    0  501  0.00000000000E+00  0.00000000000E+00  0.10733792179E+03  0.10733792182E+03  0.25500000920E-02 0. -1.
        2   -1    0    0  501    0  0.00000000000E+00  0.00000000000E+00 -0.14785982762E+04  0.14785982762E+04  0.25500000920E-02 0.  1.
    10030    2    1    2    0    0  0.00000000000E+00  0.00000000000E+00 -0.13712603544E+04  0.15859361980E+04  0.79676763528E+03 0.  0.
        1    1    3    3  502    0 -0.25908296748E+03 -0.97521906963E+02 -0.11538726574E+03  0.29991453365E+03  0.50400001928E-02 0. -1.
       -1    1    3    3    0  502  0.25908296748E+03  0.97521906963E+02 -0.12558730886E+04  0.12860216643E+04  0.50400001928E-02 0.  1.
</event>
<event>
 5   0  0.3671128E-03  0.7823820E+03  0.7818609E-02  0.9585875E-01
       -1   -1    0    0    0  501  0.00000000000E+00  0.00000000000E+00  0.16298510854E+03  0.16298510862E+03  0.50400001928E-02 0.  1.
        1   -1    0    0  501    0  0.00000000000E+00  0.00000000000E+00 -0.93892245906E+03  0.93892245907E+03  0.50400001928E-02 0. -1.
    10030    2    1    2    0    0  0.00000000000E+00  0.00000000000E+00 -0.77593735052E+03  0.11019075677E+04  0.78238195008E+03 0.  0.
        2    1    3    3  502    0  0.80410435668E+02 -0.50321429306E+02 -0.92247922685E+03  0.92734352232E+03  0.25500000920E-02 0. -1.
       -2    1    3    3    0  502 -0.80410435668E+02  0.50321429306E+02  0.14654187633E+03  0.17456404537E+03  0.25500000920E-02 0.  1.
</event>
<event>
 5   0  0.6337108E-03  0.8021491E+03  0.7818609E-02  0.9556912E-01
        2   -1    0    0  501    0  0.00000000000E+00  0.00000000000E+00  0.26102526602E+03  0.26102526603E+03  0.25500000920E-02 0.  1.
       -2   -1    0    0    0  501  0.00000000000E+00  0.00000000000E+00 -0.61626528436E+03  0.61626528436E+03  0.25500000920E-02 0. -1.
    10030    2    1    2    0    0  0.00000000000E+00  0.00000000000E+00 -0.35524001834E+03  0.87729055039E+03  0.80214913774E+03 0.  0.
        4    1    3    3  502    0  0.24443302925E+03  0.62894654548E+02  0.16327688124E+03  0.30060638084E+03  0.12699999809E+01 0.  1.
       -4    1    3    3    0  502 -0.24443302925E+03 -0.62894654548E+02 -0.51851689958E+03  0.57668416955E+03  0.12699999809E+01 0. -1.
</event>
<event>
 5   0  0.3753450E-03  0.7994480E+03  0.7818609E-02  0.9560816E-01
       -1   -1    0    0    0  501  0.00000000000E+00  0.00000000000E+00  0.56459995837E+03  0.56459995839E+03  0.50400001928E-02 0.  1.
        1   -1    0    0  501    0  0.00000000000E+00  0.00000000000E+00 -0.28299557402E+03  0.28299557407E+03  0.50400001928E-02 0. -1.
    10030    2    1    2    0    0  0.00000000000E+00  0.00000000000E+00  0.28160438434E+03  0.84759553246E+03  0.79944803293E+03 0.  0.
        5    1    3    3  502    0 -0.28562411660E+02  0.18249430093E+03  0.51660288504E+03  0.54865345352E+03  0.46999998093E+01 0.  1.
       -5    1    3    3    0  502  0.28562411660E+02 -0.18249430093E+03 -0.23499850069E+03  0.29894207894E+03  0.46999998093E+01 0. -1.
</event>
<event>
 5   0  0.6153659E-03  0.8019352E+03  0.7818609E-02  0.9557220E-01
       -2   -1    0    0    0  501  0.00000000000E+00  0.00000000000E+00  0.37099666564E+03  0.37099666565E+03  0.25500000920E-02 0.  1.
        2   -1    0    0  501    0  0.00000000000E+00  0.00000000000E+00 -0.43335969329E+03  0.43335969329E+03  0.25500000920E-02 0. -1.
    10030    2    1    2    0    0  0.00000000000E+00  0.00000000000E+00 -0.62363027643E+02  0.80435635894E+03  0.80193516257E+03 0.  0.
        2    1    3    3  502    0 -0.14596685523E+03 -0.10888477695E+03  0.32712634550E+03  0.37439800134E+03  0.25500000920E-02 0.  1.
       -2    1    3    3    0  502  0.14596685523E+03  0.10888477695E+03 -0.38948937314E+03  0.42995835761E+03  0.25500000920E-02 0. -1.
</event>
<event>
 5   0  0.3860515E-03  0.8008043E+03  0.7818609E-02  0.9558854E-01
        1   -1    0    0  501    0  0.00000000000E+00  0.00000000000E+00  0.37203179348E+03  0.37203179351E+03  0.50400001928E-02 0.  1.
       -1   -1    0    0    0  501  0.00000000000E+00  0.00000000000E+00 -0.43093598155E+03  0.43093598158E+03  0.50400001928E-02 0. -1.
    10030    2    1    2    0    0  0.00000000000E+00  0.00000000000E+00 -0.58904188072E+02  0.80296777509E+03  0.80080431097E+03 0.  0.
        4    1    3    3  502    0  0.19553194347E+03 -0.10440980552E+03  0.30489458280E+03  0.37695685154E+03  0.12699999809E+01 0.  1.
       -4    1    3    3    0  502 -0.19553194347E+03  0.10440980552E+03 -0.36379877087E+03  0.42601092356E+03  0.12699999809E+01 0. -1.
</event>
<event>
 5   0  0.6337108E-03  0.7968605E+03  0.7818609E-02  0.9564573E-01
        2   -1    0    0  501    0  0.00000000000E+00  0.00000000000E+00  0.59676296680E+03  0.59676296680E+03  0.25500000920E-02 0.  1.
       -2   -1    0    0    0  501  0.00000000000E+00  0.00000000000E+00 -0.26601294388E+03  0.26601294389E+03  0.25500000920E-02 0. -1.
    10030    2    1    2    0    0  0.00000000000E+00  0.00000000000E+00  0.33075002292E+03  0.86277591069E+03  0.79686052382E+03 0.  0.
        4    1    3    3  502    0 -0.17511248001E+03  0.28802841266E+03  0.39536119829E+03  0.51955446025E+03  0.12699999809E+01 0.  1.
       -4    1    3    3    0  502  0.17511248001E+03 -0.28802841266E+03 -0.64611175373E+02  0.34322145044E+03  0.12699999809E+01 0. -1.
</event>
<event>
 5   0  0.3627496E-03  0.7986640E+03  0.7818609E-02  0.9561953E-01
       -1   -1    0    0    0  501  0.00000000000E+00  0.00000000000E+00  0.62336868703E+03  0.62336868705E+03  0.50400001928E-02 0.  1.
        1   -1    0    0  501    0  0.00000000000E+00  0.00000000000E+00 -0.25581338286E+03  0.25581338291E+03  0.50400001928E-02 0. -1.
    10030    2    1    2    0    0  0.00000000000E+00  0.00000000000E+00  0.36755530417E+03  0.87918206996E+03  0.79866401604E+03 0.  0.
        3    1    3    3  502    0  0.27360115846E+03 -0.12818407087E+03 -0.10365399262E+03  0.31942590741E+03  0.10100000352E+00 0. -1.
       -3    1    3    3    0  502 -0.27360115846E+03  0.12818407087E+03  0.47120929679E+03  0.55975616256E+03  0.10100000352E+00 0.  1.
</event>
<event>
 5   0  0.5813850E-03  0.8019790E+03  0.7818609E-02  0.9557157E-01
        2   -1    0    0  501    0  0.00000000000E+00  0.00000000000E+00  0.10013722764E+04  0.10013722764E+04  0.25500000920E-02 0. -1.
       -2   -1    0    0    0  501  0.00000000000E+00  0.00000000000E+00 -0.16057223768E+03  0.16057223770E+03  0.25500000920E-02 0.  1.
    10030    2    1    2    0    0  0.00000000000E+00  0.00000000000E+00  0.84080003875E+03  0.11619445141E+04  0.80197902014E+03 0.  0.
        5    1    3    3  502    0  0.29414190151E+03 -0.19345068568E+03  0.14235783599E+03  0.37977686802E+03  0.46999998093E+01 0.  1.
       -5    1    3    3    0  502 -0.29414190151E+03  0.19345068568E+03  0.69844220276E+03  0.78216764610E+03  0.46999998093E+01 0. -1.
</event>
<event>
 5   0  0.5813850E-03  0.8002894E+03  0.7818609E-02  0.9559598E-01
       -2   -1    0    0    0  501  0.00000000000E+00  0.00000000000E+00  0.84073337013E+03  0.84073337013E+03  0.25500000920E-02 0. -1.
        2   -1    0    0  501    0  0.00000000000E+00  0.00000000000E+00 -0.19044776210E+03  0.19044776212E+03  0.25500000920E-02 0.  1.
    10030    2    1    2    0    0  0.00000000000E+00  0.00000000000E+00  0.65028560803E+03  0.10311811323E+04  0.80028941984E+03 0.  0.
        5    1    3    3  502    0  0.27899333259E+03 -0.49943638616E+02 -0.38760536592E+02  0.28610507836E+03  0.46999998093E+01 0.  1.
       -5    1    3    3    0  502 -0.27899333259E+03  0.49943638616E+02  0.68904614462E+03  0.74507605389E+03  0.46999998093E+01 0. -1.
</event>
<event>
 5   0  0.6256781E-03  0.8003261E+03  0.7818609E-02  0.9559545E-01
        2   -1    0    0  501    0  0.00000000000E+00  0.00000000000E+00  0.11821631013E+04  0.11821631013E+04  0.25500000920E-02 0.  1.
       -2   -1    0    0    0  501  0.00000000000E+00  0.00000000000E+00 -0.13545547719E+03  0.13545547722E+03  0.25500000920E-02 0. -1.
    10030    2    1    2    0    0  0.00000000000E+00  0.00000000000E+00  0.10467076241E+04  0.13176185785E+04  0.80032610110E+03 0.  0.
        1    1    3    3  502    0  0.51699436597E+02 -0.33956144461E+03  0.18532736662E+03  0.39028328078E+03  0.50400001928E-02 0. -1.
       -1    1    3    3    0  502 -0.51699436597E+02  0.33956144461E+03  0.86138025752E+03  0.92733529777E+03  0.50400001928E-02 0.  1.
</event>
<event>
 5   0  0.3671128E-03  0.7983048E+03  0.7818609E-02  0.9562474E-01
        1   -1    0    0  501    0  0.00000000000E+00  0.00000000000E+00  0.83640177588E+03  0.83640177590E+03  0.50400001928E-02 0.  1.
       -1   -1    0    0    0  501  0.00000000000E+00  0.00000000000E+00 -0.19048578094E+03  0.19048578101E+03  0.50400001928E-02 0. -1.
    10030    2    1    2    0    0  0.00000000000E+00  0.00000000000E+00  0.64591599494E+03  0.10268875569E+04  0.79830481773E+03 0.  0.
        2    1    3    3  502    0  0.24341545594E+03  0.21194544755E+03  0.20872684616E+02  0.32343102185E+03  0.25500000920E-02 0. -1.
       -2    1    3    3    0  502 -0.24341545594E+03 -0.21194544755E+03  0.62504331032E+03  0.70345653505E+03  0.25500000920E-02 0.  1.
</event>
<event>
 5   0  0.3627496E-03  0.8166197E+03  0.7818609E-02  0.9536268E-01
       -1   -1    0    0    0  501  0.00000000000E+00  0.00000000000E+00  0.13765036724E+03  0.13765036733E+03  0.50400001928E-02 0. -1.
        1   -1    0    0  501    0  0.00000000000E+00  0.00000000000E+00 -0.12111621689E+04  0.12111621689E+04  0.50400001928E-02 0.  1.
    10030    2    1    2    0    0  0.00000000000E+00  0.00000000000E+00 -0.10735118016E+04  0.13488125362E+04  0.81661966032E+03 0.  0.
        3    1    3    3  502    0  0.35826684630E+02 -0.90949661234E+02 -0.11915501637E+04  0.11955530917E+04  0.10100000352E+00 0.  1.
       -3    1    3    3    0  502 -0.35826684630E+02  0.90949661234E+02  0.11803836208E+03  0.15325944452E+03  0.10100000352E+00 0. -1.
</event>
<event>
 5   0  0.3714448E-03  0.7997413E+03  0.7818609E-02  0.9560392E-01
       -1   -1    0    0    0  501  0.00000000000E+00  0.00000000000E+00  0.58285975095E+03  0.58285975097E+03  0.50400001928E-02 0. -1.
        1   -1    0    0  501    0  0.00000000000E+00  0.00000000000E+00 -0.27433103541E+03  0.27433103546E+03  0.50400001928E-02 0.  1.
    10030    2    1    2    0    0  0.00000000000E+00  0.00000000000E+00  0.30852871554E+03  0.85719078642E+03  0.79974125567E+03 0.  0.
        1    1    3    3  502    0 -0.21810578014E+02 -0.10692899944E+03 -0.25806075567E+03  0.28018719792E+03  0.50400001928E-02 0.  1.
       -1    1    3    3    0  502  0.21810578014E+02  0.10692899944E+03  0.56658947121E+03  0.57700358850E+03  0.50400001928E-02 0. -1.
</event>
<event>
 5   0  0.6337108E-03  0.7979494E+03  0.7818609E-02  0.9562990E-01
       -2   -1    0    0    0  501  0.00000000000E+00  0.00000000000E+00  0.16995111173E+03  0.16995111175E+03  0.25500000920E-02 0.  1.
        2   -1    0    0  501    0  0.00000000000E+00  0.00000000000E+00 -0.93662701185E+03  0.93662701185E+03  0.25500000920E-02 0. -1.
    10030    2    1    2    0    0  0.00000000000E+00  0.00000000000E+00 -0.76667590012E+03  0.11065781236E+04  0.79794937672E+03 0.  0.
        4    1    3    3  502    0 -0.31063092078E+03 -0.22090969923E+03 -0.54675731891E+03  0.66651169745E+03  0.12699999809E+01 0. -1.
       -4    1    3    3    0  502  0.31063092078E+03  0.22090969923E+03 -0.21991858121E+03  0.44006642615E+03  0.12699999809E+01 0.  1.
</event>
<event>
 5   0  0.3753450E-03  0.8029055E+03  0.7818609E-02  0.9555821E-01
       -1   -1    0    0    0  501  0.00000000000E+00  0.00000000000E+00  0.25302557072E+03  0.25302557077E+03  0.50400001928E-02 0.  1.
        1   -1    0    0  501    0  0.00000000000E+00  0.00000000000E+00 -0.63694878190E+03  0.63694878192E+03  0.50400001928E-02 0. -1.
    10030    2    1    2    0    0  0.00000000000E+00  0.00000000000E+00 -0.38392321118E+03  0.88997435269E+03  0.80290554636E+03 0.  0.
        5    1    3    3  502    0 -0.23260368819E+03  0.25403915267E+03  0.36554631536E+02  0.34640828214E+03  0.46999998093E+01 0.  1.
       -5    1    3    3    0  502  0.23260368819E+03 -0.25403915267E+03 -0.42047784272E+03  0.54356607056E+03  0.46999998093E+01 0. -1.
</event>
<event>
 5   0  0.3860515E-03  0.7970397E+03  0.7818609E-02  0.9564312E-01
       -1   -1    0    0    0  501  0.00000000000E+00  0.00000000000E+00  0.44987030259E+03  0.44987030262E+03  0.50400001928E-02 0.  1.
        1   -1    0    0  501    0  0.00000000000E+00  0.00000000000E+00 -0.35303076304E+03  0.35303076308E+03  0.50400001928E-02 0. -1.
    10030    2    1    2    0    0  0.00000000000E+00  0.00000000000E+00  0.96839539555E+02  0.80290106570E+03  0.79703966330E+03 0.  0.
        4    1    3    3  502    0 -0.16754463035E+03 -0.11378670815E+03  0.39416065275E+03  0.44315104782E+03  0.12699999809E+01 0.  1.
       -4    1    3    3    0  502  0.16754463035E+03  0.11378670815E+03 -0.29732111319E+03  0.35975001788E+03  0.12699999809E+01 0. -1.
</event>
<event>
 5   0  0.3671128E-03  0.8008529E+03  0.7818609E-02  0.9558783E-01
       -1   -1    0    0    0  501  0.00000000000E+00  0.00000000000E+00  0.26676156225E+03  0.26676156229E+03  0.50400001928E-02 0. -1.
        1   -1    0    0  501    0  0.00000000000E+00  0.00000000000E+00 -0.60106608014E+03  0.60106608016E+03  0.50400001928E-02 0.  1.
    10030    2    1    2    0    0  0.00000000000E+00  0.00000000000E+00 -0.33430451789E+03  0.86782764245E+03  0.80085286184E+03 0.  0.
        2    1    3    3  502    0  0.27089930942E+03 -0.19968794588E+02  0.15165608750E+03  0.31110248710E+03  0.25500000920E-02 0. -1.
       -2    1    3    3    0  502 -0.27089930942E+03  0.19968794588E+02 -0.48596060539E+03  0.55672515535E+03  0.25500000920E-02 0.  1.
</event>
<event>
 5   0  0.6536209E-03  0.7949954E+03  0.7818609E-02  0.9567289E-01
        2   -1    0    0  501    0  0.00000000000E+00  0.00000000000E+00  0.65848947658E+03  0.65848947659E+03  0.25500000920E-02 0.  1.
       -2   -1    0    0    0  501  0.00000000000E+00  0.00000000000E+00 -0.23994979903E+03  0.23994979904E+03  0.25500000920E-02 0. -1.
    10030    2    1    2    0    0  0.00000000000E+00  0.00000000000E+00  0.41853967756E+03  0.89843927563E+03  0.79499539012E+03 0.  0.
        3    1    3    3  502    0 -0.26629297788E+03  0.23309431936E+03  0.41381665390E+03  0.54450816801E+03  0.10100000352E+00 0.  1.
       -3    1    3    3    0  502  0.26629297788E+03 -0.23309431936E+03  0.47230236596E+01  0.35393110762E+03  0.10100000352E+00 0. -1.
</event>
<event>
 5   0  0.6337108E-03  0.7796758E+03  0.7818609E-02  0.9589911E-01
        2   -1    0    0  501    0  0.00000000000E+00  0.00000000000E+00  0.42020141196E+03  0.42020141197E+03  0.25500000920E-02 0. -1.
       -2   -1    0    0    0  501  0.00000000000E+00  0.00000000000E+00 -0.36166844384E+03  0.36166844385E+03  0.25500000920E-02 0.  1.
    10030    2    1    2    0    0  0.00000000000E+00  0.00000000000E+00  0.58532968123E+02  0.78186985581E+03  0.77967580639E+03 0.  0.
        4    1    3    3  502    0  0.14042850811E+03 -0.36102541141E+03  0.73121278491E+02  0.39421802070E+03  0.12699999809E+01 0. -1.
       -4    1    3    3    0  502 -0.14042850811E+03  0.36102541141E+03 -0.14588310369E+02  0.38765183512E+03  0.12699999809E+01 0.  1.
</event>
<event>
 5   0  0.6256781E-03  0.8480633E+03  0.7818609E-02  0.9492940E-01
       -2   -1    0    0    0  501  0.00000000000E+00  0.00000000000E+00  0.95134949692E+02  0.95134949726E+02  0.25500000920E-02 0.  1.
        2   -1    0    0  501    0  0.00000000000E+00  0.00000000000E+00 -0.18899765564E+04  0.18899765564E+04  0.25500000920E-02 0. -1.
    10030    2    1    2    0    0  0.00000000000E+00  0.00000000000E+00 -0.17948416067E+04  0.19851115061E+04  0.84806326332E+03 0.  0.
        1    1    3    3  502    0 -0.59005884144E+02  0.74504336208E+02 -0.18647242670E+04  0.18671446603E+04  0.50400001928E-02 0. -1.
       -1    1    3    3    0  502  0.59005884144E+02 -0.74504336208E+02  0.69882660306E+02  0.11796684583E+03  0.50400001928E-02 0.  1.
</event>
<event>
 5   0  0.6536209E-03  0.8011259E+03  0.7818609E-02  0.9558389E-01
        2   -1    0    0  501    0  0.00000000000E+00  0.00000000000E+00  0.78385524542E+03  0.78385524543E+03  0.25500000920E-02 0.  1.
       -2   -1    0    0    0  501  0.00000000000E+00  0.00000000000E+00 -0.20469426259E+03  0.20469426261E+03  0.25500000920E-02 0. -1.
    10030    2    1    2    0    0  0.00000000000E+00  0.00000000000E+00  0.57916098283E+03  0.98854950804E+03  0.80112588637E+03 0.  0.
        3    1    3    3  502    0  0.19190073825E+03  0.33962769797E+03  0.17731275036E+03  0.42850051133E+03  0.10100000352E+00 0.  1.
       -3    1    3    3    0  502 -0.19190073825E+03 -0.33962769797E+03  0.40184823247E+03  0.56004899671E+03  0.10100000352E+00 0. -1.
</event>
<event>
 5   0  0.3753450E-03  0.7853049E+03  0.7818609E-02  0.9581535E-01
       -1   -1    0    0    0  501  0.00000000000E+00  0.00000000000E+00  0.42164523676E+03  0.42164523679E+03  0.50400001928E-02 0.  1.
        1   -1    0    0  501    0  0.00000000000E+00  0.00000000000E+00 -0.36565322926E+03  0.36565322929E+03  0.50400001928E-02 0. -1.
    10030    2    1    2    0    0  0.00000000000E+00  0.00000000000E+00  0.55992007497E+02  0.78729846608E+03  0.78530488970E+03 0.  0.
        5    1    3    3  502    0 -0.31598856095E+03  0.22763486742E+03 -0.22004938715E+02  0.39009320789E+03  0.46999998093E+01 0. -1.
       -5    1    3    3    0  502  0.31598856095E+03 -0.22763486742E+03  0.77996946213E+02  0.39720525819E+03  0.46999998093E+01 0.  1.
</event>
<event>
 5   0  0.3860515E-03  0.8057969E+03  0.7818609E-02  0.9551664E-01
       -1   -1    0    0    0  501  0.00000000000E+00  0.00000000000E+00  0.99665644915E+02  0.99665645042E+02  0.50400001928E-02 0.  1.
        1   -1    0    0  501    0  0.00000000000E+00  0.00000000000E+00 -0.16287172728E+04  0.16287172728E+04  0.50400001928E-02 0. -1.
    10030    2    1    2    0    0  0.00000000000E+00  0.00000000000E+00 -0.15290516278E+04  0.17283829178E+04  0.80579689126E+03 0.  0.
        4    1    3    3  502    0 -0.37638884447E+03  0.14364108958E+03 -0.75396982166E+03  0.85485287022E+03  0.12699999809E+01 0.  1.
       -4    1    3    3    0  502  0.37638884447E+03 -0.14364108958E+03 -0.77508180618E+03  0.87353004758E+03  0.12699999809E+01 0. -1.
</event>
<event>
 5   0  0.3627496E-03  0.7990867E+03  0.7818609E-02  0.9561340E-01
       -1   -1    0    0    0  501  0.00000000000E+00  0.00000000000E+00  0.14040427902E+03  0.14040427911E+03  0.50400001928E-02 0.  1.
        1   -1    0    0  501    0  0.00000000000E+00  0.00000000000E+00 -0.11369660139E+04  0.11369660139E+04  0.50400001928E-02 0. -1.
    10030    2    1    2    0    0  0.00000000000E+00  0.00000000000E+00 -0.99656173490E+03  0.12773702930E+04  0.79908671250E+03 0.  0.
        3    1    3    3  502    0  0.93331259567E+02  0.11778203129E+03 -0.10900671340E+04  0.11003770707E+04  0.10100000352E+00 0. -1.
       -3    1    3    3    0  502 -0.93331259567E+02 -0.11778203129E+03  0.93505399072E+02  0.17699322237E+03  0.10100000352E+00 0.  1.
</event>
<event>
 5   0  0.3714448E-03  0.7993402E+03  0.7818609E-02  0.9560973E-01
       -1   -1    0    0    0  501  0.00000000000E+00  0.00000000000E+00  0.37460183625E+03  0.37460183628E+03  0.50400001928E-02 0.  1.
        1   -1    0    0  501    0  0.00000000000E+00  0.00000000000E+00 -0.42641596959E+03  0.42641596962E+03  0.50400001928E-02 0. -1.
    10030    2    1    2    0    0  0.00000000000E+00  0.00000000000E+00 -0.51814133342E+02  0.80101780591E+03  0.79934024105E+03 0.  0.
        1    1    3    3  502    0 -0.18962022714E+03  0.30779664772E+03  0.14486653984E+03  0.38946234899E+03  0.50400001928E-02 0.  1.
       -1    1    3    3    0  502  0.18962022714E+03 -0.30779664772E+03 -0.19668067318E+03  0.41155545692E+03  0.50400001928E-02 0. -1.
</event>
<event>
 5   0  0.6337108E-03  0.7999400E+03  0.7818609E-02  0.9560104E-01
       -2   -1    0    0    0  501  0.00000000000E+00  0.00000000000E+00  0.19819513986E+03  0.19819513987E+03  0.25500000920E-02 0. -1.
        2   -1    0    0  501    0  0.00000000000E+00  0.00000000000E+00 -0.80716415031E+03  0.80716415031E+03  0.25500000920E-02 0.  1.
    10030    2    1    2    0    0  0.00000000000E+00  0.00000000000E+00 -0.60896901045E+03  0.10053592902E+04  0.79994002692E+03 0.  0.
        4    1    3    3  502    0  0.54613938532E+02 -0.20326250219E+03 -0.73193481191E+03  0.76159602735E+03  0.12699999809E+01 0.  1.
       -4    1    3    3    0  502 -0.54613938532E+02  0.20326250219E+03  0.12296580146E+03  0.24376326284E+03  0.12699999809E+01 0. -1.
</event>
<event>
 5   0  0.6256781E-03  0.8006946E+03  0.7818609E-02  0.9559012E-01
        2   -1    0    0  501    0  0.00000000000E+00  0.00000000000E+00  0.13234752095E+04  0.13234752095E+04  0.25500000920E-02 0.  1.
       -2   -1    0    0    0  501  0.00000000000E+00  0.00000000000E+00 -0.12110386260E+03  0.12110386263E+03  0.25500000920E-02 0. -1.
    10030    2    1    2    0    0  0.00000000000E+00  0.00000000000E+00  0.12023713469E+04  0.14445790721E+04  0.80069459833E+03 0.  0.
        1    1    3    3  502    0  0.34191126462E+03  0.20765177753E+03  0.63001757278E+03  0.74628728759E+03  0.50400001928E-02 0.  1.
       -1    1    3    3    0  502 -0.34191126462E+03 -0.20765177753E+03  0.57235377412E+03  0.69829178454E+03  0.50400001928E-02 0. -1.
</event>
<event>
 5   0  0.6153659E-03  0.8008855E+03  0.7818609E-02  0.9558736E-01
        2   -1    0    0  501    0  0.00000000000E+00  0.00000000000E+00  0.53174937294E+03  0.53174937295E+03  0.25500000920E-02 0.  1.
       -2   -1    0    0    0  501  0.00000000000E+00  0.00000000000E+00 -0.30156012058E+03  0.30156012059E+03  0.25500000920E-02 0. -1.
    10030    2    1    2    0    0  0.00000000000E+00  0.00000000000E+00  0.23018925236E+03  0.83330949354E+03  0.80088552249E+03 0.  0.
        2    1    3    3  502    0  0.28467164274E+03  0.77760706225E+02  0.39673712719E+03  0.49445426453E+03  0.25500000920E-02 0.  1.
       -2    1    3    3    0  502 -0.28467164274E+03 -0.77760706225E+02 -0.16654787484E+03  0.33885522901E+03  0.25500000920E-02 0. -1.
</event>
<event>
 5   0  0.3714448E-03  0.7979008E+03  0.7818609E-02  0.9563061E-01
        1   -1    0    0  501    0  0.00000000000E+00  0.00000000000E+00  0.25803768745E+03  0.25803768750E+03  0.50400001928E-02 0.  1.
       -1   -1    0    0    0  501  0.00000000000E+00  0.00000000000E+00 -0.61681459745E+03  0.61681459747E+03  0.50400001928E-02 0. -1.
    10030    2    1    2    0    0  0.00000000000E+00  0.00000000000E+00 -0.35877691000E+03  0.87485228497E+03  0.79790077665E+03 0.  0.
        1    1    3    3  502    0 -0.39857029710E+03  0.96902223571E+01 -0.16352864396E+03  0.43092203420E+03  0.50400001928E-02 0. -1.
       -1    1    3    3    0  502  0.39857029710E+03 -0.96902223571E+01 -0.19524826603E+03  0.44393025077E+03  0.50400001928E-02 0.  1.
</event>
<event>
 5   0  0.6536209E-03  0.7983498E+03  0.7818609E-02  0.9562409E-01
       -2   -1    0    0    0  501  0.00000000000E+00  0.00000000000E+00  0.10322805176E+03  0.10322805179E+03  0.25500000920E-02 0.  1.
        2   -1    0    0  501    0  0.00000000000E+00  0.00000000000E+00 -0.15435783606E+04  0.15435783606E+04  0.25500000920E-02 0. -1.
    10030    2    1    2    0    0  0.00000000000E+00  0.00000000000E+00 -0.14403503089E+04  0.16468064124E+04  0.79834976530E+03 0.  0.
        3    1    3    3  502    0  0.14616723194E+03 -0.22705174270E+03 -0.13265826729E+04  0.13537868930E+04  0.10100000352E+00 0. -1.
       -3    1    3    3    0  502 -0.14616723194E+03  0.22705174270E+03 -0.11376763601E+03  0.29301951941E+03  0.10100000352E+00 0.  1.
</event>
<event>
 5   0  0.5813850E-03  0.8023121E+03  0.7818609E-02  0.9556676E-01
        2   -1    0    0  501    0  0.00000000000E+00  0.00000000000E+00  0.10735178957E+04  0.10735178957E+04  0.25500000920E-02 0.  1.
       -2   -1    0    0    0  501  0.00000000000E+00  0.00000000000E+00 -0.14990545035E+03  0.14990545037E+03  0.25500000920E-02 0. -1.
    10030    2    1    2    0    0  0.00000000000E+00  0.00000000000E+00  0.92361244534E+03  0.12234233461E+04  0.80231211788E+03 0.  0.
        5    1    3    3  502    0 -0.98639894167E+02  0.28717760876E+02 -0.12946192774E+03  0.16533910379E+03  0.46999998093E+01 0. -1.
       -5    1    3    3    0  502  0.98639894167E+02 -0.28717760876E+02  0.10530743731E+04  0.10580842423E+04  0.46999998093E+01 0.  1.
</event>
<event>
 5   0  0.6256781E-03  0.7995210E+03  0.7818609E-02  0.9560711E-01
        2   -1    0    0  501    0  0.00000000000E+00  0.00000000000E+00  0.19236159208E+03  0.19236159209E+03  0.25500000920E-02 0.  1.
       -2   -1    0    0    0  501  0.00000000000E+00  0.00000000000E+00 -0.83077119052E+03  0.83077119052E+03  0.25500000920E-02 0. -1.
    10030    2    1    2    0    0  0.00000000000E+00  0.00000000000E+00 -0.63840959844E+03  0.10231327826E+04  0.79952102879E+03 0.  0.
        1    1    3    3  502    0  0.33391521221E+03 -0.24435669171E+02 -0.39682853322E+02  0.33715159758E+03  0.50400001928E-02 0.  1.
       -1    1    3    3    0  502 -0.33391521221E+03  0.24435669171E+02 -0.59872674512E+03  0.68598118504E+03  0.50400001928E-02 0. -1.
</event>
<event>
 5   0  0.3714448E-03  0.7979607E+03  0.7818609E-02  0.9562974E-01
        1   -1    0    0  501    0  0.00000000000E+00  0.00000000000E+00  0.70609626310E+03  0.70609626312E+03  0.50400001928E-02 0.  1.
       -1   -1    0    0    0  501  0.00000000000E+00  0.00000000000E+00 -0.22544420164E+03  0.22544420170E+03  0.50400001928E-02 0. -1.
    10030    2    1    2    0    0  0.00000000000E+00  0.00000000000E+00  0.48065206146E+03  0.93154046482E+03  0.79796067160E+03 0.  0.
        1    1    3    3  502    0 -0.11436740697E+03  0.27576946129E+03 -0.68664231484E+02  0.30633882592E+03  0.50400001928E-02 0. -1.
       -1    1    3    3    0  502  0.11436740697E+03 -0.27576946129E+03  0.54931629295E+03  0.62520163890E+03  0.50400001928E-02 0.  1.
</event>
<event>
 5   0  0.3860515E-03  0.8071746E+03  0.7818609E-02  0.9549690E-01
       -1   -1    0    0    0  501  0.00000000000E+00  0.00000000000E+00  0.23349960483E+03  0.23349960489E+03  0.50400001928E-02 0. -1.
        1   -1    0    0  501    0  0.00000000000E+00  0.00000000000E+00 -0.69757166040E+03  0.69757166042E+03  0.50400001928E-02 0.  1.
    10030    2    1    2    0    0  0.00000000000E+00  0.00000000000E+00 -0.46407205557E+03  0.93107126531E+03  0.80717459593E+03 0.  0.
        4    1    3    3  502    0 -0.11420122788E+03  0.37099949881E+03 -0.35943603889E+03  0.52903537455E+03  0.12699999809E+01 0. -1.
       -4    1    3    3    0  502  0.11420122788E+03 -0.37099949881E+03 -0.10463601668E+03  0.40203589076E+03  0.12699999809E+01 0.  1.
</event>
<event>
 5   0  0.3627496E-03  0.8008039E+03  0.7818609E-02  0.9558854E-01
        1   -1    0    0  501    0  0.00000000000E+00  0.00000000000E+00  0.17186937208E+03  0.17186937215E+03  0.50400001928E-02 0.  1.
       -1   -1    0    0    0  501  0.00000000000E+00  0.00000000000E+00 -0.93281152218E+03  0.93281152219E+03  0.50400001928E-02 0. -1.
    10030    2    1    2    0    0  0.00000000000E+00  0.00000000000E+00 -0.76094215010E+03  0.11046808943E+04  0.80080392265E+03 0.  0.
        3    1    3    3  502    0  0.39800569777E+03 -0.34566461844E+02 -0.34349872180E+03  0.52687262011E+03  0.10100000352E+00 0. -1.
       -3    1    3    3    0  502 -0.39800569777E+03  0.34566461844E+02 -0.41744342831E+03  0.57780827424E+03  0.10100000352E+00 0.  1.
</event>
<event>
 5   0  0.6337108E-03  0.8027452E+03  0.7818609E-02  0.9556052E-01
        2   -1    0    0  501    0  0.00000000000E+00  0.00000000000E+00  0.51769628183E+03  0.51769628183E+03  0.25500000920E-02 0. -1.
       -2   -1    0    0    0  501  0.00000000000E+00  0.00000000000E+00 -0.31118624333E+03  0.31118624334E+03  0.25500000920E-02 0.  1.
    10030    2    1    2    0    0  0.00000000000E+00  0.00000000000E+00  0.20651003850E+03  0.82888252517E+03  0.80274519278E+03 0.  0.
        4    1    3    3  502    0 -0.28454800376E+03 -0.27332960408E+03  0.27225300272E+02  0.39549901237E+03  0.12699999809E+01 0.  1.
       -4    1    3    3    0  502  0.28454800376E+03  0.27332960408E+03  0.17928473823E+03  0.43338351280E+03  0.12699999809E+01 0. -1.
</event>
<event>
 5   0  0.5813850E-03  0.7999587E+03  0.7818609E-02  0.9560077E-01
       -2   -1    0    0    0  501  0.00000000000E+00  0.00000000000E+00  0.18992207290E+03  0.18992207292E+03  0.25500000920E-02 0.  1.
        2   -1    0    0  501    0  0.00000000000E+00  0.00000000000E+00 -0.84236376172E+03  0.84236376172E+03  0.25500000920E-02 0. -1.
    10030    2    1    2    0    0  0.00000000000E+00  0.00000000000E+00 -0.65244168882E+03  0.10322858346E+04  0.79995867837E+03 0.  0.
        5    1    3    3  502    0  0.52649702109E+02  0.15646642438E+03  0.14386848243E+03  0.21902959463E+03  0.46999998093E+01 0.  1.
       -5    1    3    3    0  502 -0.52649702109E+02 -0.15646642438E+03 -0.79631017125E+03  0.81325624001E+03  0.46999998093E+01 0. -1.
</event>
<event>
 5   0  0.6153659E-03  0.7993956E+03  0.7818609E-02  0.9560892E-01
        2   -1    0    0  501    0  0.00000000000E+00  0.00000000000E+00  0.52553887078E+03  0.52553887079E+03  0.25500000920E-02 0. -1.
       -2   -1    0    0    0  501  0.00000000000E+00  0.00000000000E+00 -0.30398952437E+03  0.30398952438E+03  0.25500000920E-02 0.  1.
    10030    2    1    2    0    0  0.00000000000E+00  0.00000000000E+00  0.22154934641E+03  0.82952839517E+03  0.79939555008E+03 0.  0.
        2    1    3    3  502    0  0.26627929820E+03 -0.12625355470E+03  0.39097849797E+03  0.48960066442E+03  0.25500000920E-02 0. -1.
       -2    1    3    3    0  502 -0.26627929820E+03  0.12625355470E+03 -0.16942915156E+03  0.33992773074E+03  0.25500000920E-02 0.  1.
</event>
<event>
 5   0  0.6536209E-03  0.8026154E+03  0.7818609E-02  0.9556239E-01
       -2   -1    0    0    0  501  0.00000000000E+00  0.00000000000E+00  0.40587045596E+03  0.40587045597E+03  0.25500000920E-02 0. -1.
        2   -1    0    0  501    0  0.00000000000E+00  0.00000000000E+00 -0.39679620526E+03  0.39679620527E+03  0.25500000920E-02 0.  1.
    10030    2    1    2    0    0  0.00000000000E+00  0.00000000000E+00  0.90742506965E+01  0.80266666124E+03  0.80261536681E+03 0.  0.
        3    1    3    3  502    0  0.28152795065E+03 -0.13809870388E+03  0.25498996399E+03  0.40416473244E+03  0.10100000352E+00 0. -1.
       -3    1    3    3    0  502 -0.28152795065E+03  0.13809870388E+03 -0.24591571329E+03  0.39850192880E+03  0.10100000352E+00 0.  1.
</event>
<event>
 5   0  0.6153659E-03  0.7989400E+03  0.7818609E-02  0.9561553E-01
        2   -1    0    0  501    0  0.00000000000E+00  0.00000000000E+00  0.48373403335E+03  0.48373403335E+03  0.25500000920E-02 0. -1.
       -2   -1    0    0    0  501  0.00000000000E+00  0.00000000000E+00 -0.32988435726E+03  0.32988435727E+03  0.25500000920E-02 0.  1.
    10030    2    1    2    0    0  0.00000000000E+00  0.00000000000E+00  0.15384967608E+03  0.81361839063E+03  0.79894002449E+03 0.  0.
        2    1    3    3  502    0  0.24690394777E+03 -0.13854946426E+03  0.36391577099E+03  0.46107721897E+03  0.25500000920E-02 0. -1.
       -2    1    3    3    0  502 -0.24690394777E+03  0.13854946426E+03 -0.21006609491E+03  0.35254117165E+03  0.25500000920E-02 0.  1.
</event>
<event>
 5   0  0.6536209E-03  0.7974488E+03  0.7818609E-02  0.9563717E-01
        2   -1    0    0  501    0  0.00000000000E+00  0.00000000000E+00  0.11031168575E+04  0.11031168575E+04  0.25500000920E-02 0.  1.
       -2   -1    0    0    0  501  0.00000000000E+00  0.00000000000E+00 -0.14411995491E+03  0.14411995493E+03  0.25500000920E-02 0. -1.
    10030    2    1    2    0    0  0.00000000000E+00  0.00000000000E+00  0.95899690254E+03  0.12472368124E+04  0.79744881158E+03 0.  0.
        3    1    3    3  502    0  0.30635621320E+03  0.22215963056E+03  0.28307605065E+03  0.47258977080E+03  0.10100000352E+00 0. -1.
       -3    1    3    3    0  502 -0.30635621320E+03 -0.22215963056E+03  0.67592085190E+03  0.77464704159E+03  0.10100000352E+00 0.  1.
</event>
<event>
 5   0  0.6536209E-03  0.8015098E+03  0.7818609E-02  0.9557834E-01
       -2   -1    0    0    0  501  0.00000000000E+00  0.00000000000E+00  0.31583780724E+03  0.31583780725E+03  0.25500000920E-02 0. -1.
        2   -1    0    0  501    0  0.00000000000E+00  0.00000000000E+00 -0.50850307755E+03  0.50850307755E+03  0.25500000920E-02 0.  1.
    10030    2    1    2    0    0  0.00000000000E+00  0.00000000000E+00 -0.19266527031E+03  0.82434088480E+03  0.80150981776E+03 0.  0.
        3    1    3    3  502    0 -0.26440868355E+03  0.26189287268E+03  0.56578775387E+02  0.37643192841E+03  0.10100000352E+00 0. -1.
       -3    1    3    3    0  502  0.26440868355E+03 -0.26189287268E+03 -0.24924404570E+03  0.44790895639E+03  0.10100000352E+00 0.  1.
</event>
<event>
 5   0  0.6337108E-03  0.8063027E+03  0.7818609E-02  0.9550939E-01
       -2   -1    0    0    0  501  0.00000000000E+00  0.00000000000E+00  0.16814135112E+03  0.16814135114E+03  0.25500000920E-02 0. -1.
        2   -1    0    0  501    0  0.00000000000E+00  0.00000000000E+00 -0.96663320311E+03  0.96663320312E+03  0.25500000920E-02 0.  1.
    10030    2    1    2    0    0  0.00000000000E+00  0.00000000000E+00 -0.79849185200E+03  0.11347745543E+04  0.80630270450E+03 0.  0.
        4    1    3    3  502    0 -0.38175271805E+03 -0.43924132021E+02 -0.22765554146E+03  0.44664653315E+03  0.12699999809E+01 0. -1.
       -4    1    3    3    0  502  0.38175271805E+03  0.43924132021E+02 -0.57083631053E+03  0.68812802111E+03  0.12699999809E+01 0.  1.
</event>
<event>
 5   0  0.3627496E-03  0.7991632E+03  0.7818609E-02  0.9561229E-01
       -1   -1    0    0    0  501  0.00000000000E+00  0.00000000000E+00  0.26780646394E+03  0.26780646399E+03  0.50400001928E-02 0.  1.
        1   -1    0    0  501    0  0.00000000000E+00  0.00000000000E+00 -0.59619720040E+03  0.59619720042E+03  0.50400001928E-02 0. -1.
    10030    2    1    2    0    0  0.00000000000E+00  0.00000000000E+00 -0.32839073646E+03  0.86400366441E+03  0.79916322258E+03 0.  0.
        3    1    3    3  502    0 -0.15722244109E+03 -0.28299086696E+03  0.89036751756E+02  0.33575330248E+03  0.10100000352E+00 0.  1.
       -3    1    3    3    0  502  0.15722244109E+03  0.28299086696E+03 -0.41742748821E+03  0.52825036193E+03  0.10100000352E+00 0. -1.
</event>
<event>
 5   0  0.3671128E-03  0.8027719E+03  0.7818609E-02  0.9556014E-01
       -1   -1    0    0    0  501  0.00000000000E+00  0.00000000000E+00  0.11430243784E+03  0.11430243795E+03  0.50400001928E-02 0. -1.
        1   -1    0    0  501    0  0.00000000000E+00  0.00000000000E+00 -0.14095120705E+04  0.14095120705E+04  0.50400001928E-02 0.  1.
    10030    2    1    2    0    0  0.00000000000E+00  0.00000000000E+00 -0.12952096327E+04  0.15238145085E+04  0.80277186278E+03 0.  0.
        2    1    3    3  502    0  0.33060598658E+03 -0.10676216071E+03 -0.10291940807E+04  0.10862499404E+04  0.25500000920E-02 0.  1.
       -2    1    3    3    0  502 -0.33060598658E+03  0.10676216071E+03 -0.26601555201E+03  0.43756456808E+03  0.25500000920E-02 0. -1.
</event>
<event>
 5   0  0.3671128E-03  0.8012510E+03  0.7818609E-02  0.9558208E-01
       -1   -1    0    0    0  501  0.00000000000E+00  0.00000000000E+00  0.40434480603E+03  0.40434480606E+03  0.50400001928E-02 0. -1.
        1   -1    0    0  501    0  0.00000000000E+00  0.00000000000E+00 -0.39694039082E+03  0.39694039085E+03  0.50400001928E-02 0.  1.
    10030    2    1    2    0    0  0.00000000000E+00  0.00000000000E+00  0.74044152144E+01  0.80128519691E+03  0.80125098529E+03 0.  0.
        2    1    3    3  502    0  0.65732533727E+02 -0.45379477888E+02  0.39630109177E+03  0.40427047672E+03  0.25500000920E-02 0. -1.
       -2    1    3    3    0  502 -0.65732533727E+02  0.45379477888E+02 -0.38889667656E+03  0.39701472019E+03  0.25500000920E-02 0.  1.
</event>
<event>
 5   0  0.3627496E-03  0.8029377E+03  0.7818609E-02  0.9555775E-01
       -1   -1    0    0    0  501  0.00000000000E+00  0.00000000000E+00  0.18989868259E+03  0.18989868266E+03  0.50400001928E-02 0.  1.
        1   -1    0    0  501    0  0.00000000000E+00  0.00000000000E+00 -0.84875387387E+03  0.84875387388E+03  0.50400001928E-02 0. -1.
    10030    2    1    2    0    0  0.00000000000E+00  0.00000000000E+00 -0.65885519127E+03  0.10386525565E+04  0.80293771249E+03 0.  0.
        3    1    3    3  502    0  0.23185684756E+03 -0.73855671979E+02 -0.74248836066E+03  0.78134578386E+03  0.10100000352E+00 0. -1.
       -3    1    3    3    0  502 -0.23185684756E+03  0.73855671979E+02  0.83633169382E+02  0.25730677268E+03  0.10100000352E+00 0.  1.
</event>
<event>
 5   0  0.6256781E-03  0.7998833E+03  0.7818609E-02  0.9560186E-01
        2   -1    0    0  501    0  0.00000000000E+00  0.00000000000E+00  0.14733341882E+04  0.14733341882E+04  0.25500000920E-02 0. -1.
       -2   -1    0    0    0  501  0.00000000000E+00  0.00000000000E+00 -0.10856554179E+03  0.10856554182E+03  0.25500000920E-02 0.  1.
    10030    2    1    2    0    0  0.00000000000E+00  0.00000000000E+00  0.13647686464E+04  0.15818997300E+04  0.79988330250E+03 0.  0.
        1    1    3    3  502    0  0.13718502129E+02 -0.35076147628E+03  0.10614127079E+04  0.11179529271E+04  0.50400001928E-02 0. -1.
       -1    1    3    3    0  502 -0.13718502129E+02  0.35076147628E+03  0.30335593851E+03  0.46394680298E+03  0.50400001928E-02 0.  1.
</event>
<event>
 5   0  0.3627496E-03  0.8035498E+03  0.7818609E-02  0.9554893E-01
        1   -1    0    0  501    0  0.00000000000E+00  0.00000000000E+00  0.14812153932E+03  0.14812153940E+03  0.50400001928E-02 0. -1.
       -1   -1    0    0    0  501  0.00000000000E+00  0.00000000000E+00 -0.10898015257E+04  0.10898015257E+04  0.50400001928E-02 0.  1.
    10030    2    1    2    0    0  0.00000000000E+00  0.00000000000E+00 -0.94167998640E+03  0.12379230651E+04  0.80354982322E+03 0.  0.
        3    1    3    3  502    0 -0.13060288250E+03  0.50835645340E+02 -0.10509240440E+04  0.10602276795E+04  0.10100000352E+00 0.  1.
       -3    1    3    3    0  502  0.13060288250E+03 -0.50835645340E+02  0.10924405765E+03  0.17769538566E+03  0.10100000352E+00 0. -1.
</event>
<event>
 5   0  0.6536209E-03  0.7949127E+03  0.7818609E-02  0.9567410E-01
       -2   -1    0    0    0  501  0.00000000000E+00  0.00000000000E+00  0.40298794191E+03  0.40298794192E+03  0.25500000920E-02 0.  1.
        2   -1    0    0  501    0  0.00000000000E+00  0.00000000000E+00 -0.39200069775E+03  0.39200069776E+03  0.25500000920E-02 0. -1.
    10030    2    1    2    0    0  0.00000000000E+00  0.00000000000E+00  0.10987244166E+02  0.79498863968E+03  0.79491271073E+03 0.  0.
        3    1    3    3  502    0 -0.10683432090E+03 -0.19578339560E+03 -0.32351627206E+03  0.39294719569E+03  0.10100000352E+00 0. -1.
       -3    1    3    3    0  502  0.10683432090E+03  0.19578339560E+03  0.33450351622E+03  0.40204144399E+03  0.10100000352E+00 0.  1.
</event>
<event>
 5   0  0.3714448E-03  0.8031666E+03  0.7818609E-02  0.9555445E-01
       -1   -1    0    0    0  501  0.00000000000E+00  0.00000000000E+00  0.65801045156E+03  0.65801045158E+03  0.50400001928E-02 0. -1.
        1   -1    0    0  501    0  0.00000000000E+00  0.00000000000E+00 -0.24508596999E+03  0.24508597004E+03  0.50400001928E-02 0.  1.
    10030    2    1    2    0    0  0.00000000000E+00  0.00000000000E+00  0.41292448157E+03  0.90309642162E+03  0.80316655761E+03 0.  0.
        1    1    3    3  502    0  0.11831259211E+03 -0.11848081656E+03  0.61688866596E+03  0.63920825993E+03  0.50400001928E-02 0. -1.
       -1    1    3    3    0  502 -0.11831259211E+03  0.11848081656E+03 -0.20396418439E+03  0.26388816170E+03  0.50400001928E-02 0.  1.
</event>
<event>
 5   0  0.6337108E-03  0.8009065E+03  0.7818609E-02  0.9558706E-01
       -2   -1    0    0    0  501  0.00000000000E+00  0.00000000000E+00  0.38932816596E+03  0.38932816596E+03  0.25500000920E-02 0.  1.
        2   -1    0    0  501    0  0.00000000000E+00  0.00000000000E+00 -0.41189621854E+03  0.41189621855E+03  0.25500000920E-02 0. -1.
    10030    2    1    2    0    0  0.00000000000E+00  0.00000000000E+00 -0.22568052583E+02  0.80122438451E+03  0.80090648476E+03 0.  0.
        4    1    3    3  502    0 -0.29400783352E+03 -0.81383322240E+02  0.24823624210E+03  0.39330229608E+03  0.12699999809E+01 0.  1.
       -4    1    3    3    0  502  0.29400783352E+03  0.81383322240E+02 -0.27080429469E+03  0.40792208843E+03  0.12699999809E+01 0. -1.
</event>
<event>
 5   0  0.6337108E-03  0.8059457E+03  0.7818609E-02  0.9551451E-01
       -2   -1    0    0    0  501  0.00000000000E+00  0.00000000000E+00  0.46113253145E+03  0.46113253146E+03  0.25500000920E-02 0. -1.
        2   -1    0    0  501    0  0.00000000000E+00  0.00000000000E+00 -0.35214846868E+03  0.35214846869E+03  0.25500000920E-02 0.  1.
    10030    2    1    2    0    0  0.00000000000E+00  0.00000000000E+00  0.10898406277E+03  0.81328100014E+03  0.80594569250E+03 0.  0.
        4    1    3    3  502    0 -0.40122672778E+03 -0.36428208340E+02  0.63266020323E+02  0.40781626215E+03  0.12699999809E+01 0.  1.
       -4    1    3    3    0  502  0.40122672778E+03  0.36428208340E+02  0.45718042448E+02  0.40546473799E+03  0.12699999809E+01 0. -1.
</event>
<event>
 5   0  0.3753450E-03  0.7925523E+03  0.7818609E-02  0.9570860E-01
        1   -1    0    0  501    0  0.00000000000E+00  0.00000000000E+00  0.20787835721E+03  0.20787835727E+03  0.50400001928E-02 0. -1.
       -1   -1    0    0    0  501  0.00000000000E+00  0.00000000000E+00 -0.75541676897E+03  0.75541676899E+03  0.50400001928E-02 0.  1.
    10030    2    1    2    0    0  0.00000000000E+00  0.00000000000E+00 -0.54753841176E+03  0.96329512626E+03  0.79255232504E+03 0.  0.
        5    1    3    3  502    0 -0.10447476922E+03  0.36262757307E+03 -0.12691291039E+03  0.39817422189E+03  0.46999998093E+01 0. -1.
       -5    1    3    3    0  502  0.10447476922E+03 -0.36262757307E+03 -0.42062550137E+03  0.56512090437E+03  0.46999998093E+01 0.  1.
</event>
<event>
 5   0  0.3627496E-03  0.8010691E+03  0.7818609E-02  0.9558471E-01
        1   -1    0    0  501    0  0.00000000000E+00  0.00000000000E+00  0.35586689197E+03  0.35586689201E+03  0.50400001928E-02 0.  1.
       -1   -1    0    0    0  501  0.00000000000E+00  0.00000000000E+00 -0.45080878398E+03  0.45080878400E+03  0.50400001928E-02 0. -1.
    10030    2    1    2    0    0  0.00000000000E+00  0.00000000000E+00 -0.94941892004E+02  0.80667567601E+03  0.80106908779E+03 0.  0.
        3    1    3    3  502    0 -0.10819195672E+02 -0.16486051747E+03  0.31995514904E+03  0.36009353342E+03  0.10100000352E+00 0.  1.
       -3    1    3    3    0  502  0.10819195672E+02  0.16486051747E+03 -0.41489704104E+03  0.44658214259E+03  0.10100000352E+00 0. -1.
</event>
<event>
 5   0  0.3671128E-03  0.7988924E+03  0.7818609E-02  0.9561622E-01
       -1   -1    0    0    0  501  0.00000000000E+00  0.00000000000E+00  0.33314959873E+03  0.33314959877E+03  0.50400001928E-02 0.  1.
        1   -1    0    0  501    0  0.00000000000E+00  0.00000000000E+00 -0.47893577893E+03  0.47893577895E+03  0.50400001928E-02 0. -1.
    10030    2    1    2    0    0  0.00000000000E+00  0.00000000000E+00 -0.14578618020E+03  0.81208537772E+03  0.79889238973E+03 0.  0.
        2    1    3    3  502    0  0.50668506430E+02  0.47288632181E+02 -0.47277706270E+03  0.47783016157E+03  0.25500000920E-02 0. -1.
       -2    1    3    3    0  502 -0.50668506430E+02 -0.47288632181E+02  0.32699088251E+03  0.33425521616E+03  0.25500000920E-02 0.  1.
</event>
<event>
 5   0  0.6337108E-03  0.8014698E+03  0.7818609E-02  0.9557892E-01
       -2   -1    0    0    0  501  0.00000000000E+00  0.00000000000E+00  0.24538486710E+03  0.24538486711E+03  0.25500000920E-02 0.  1.
        2   -1    0    0  501    0  0.00000000000E+00  0.00000000000E+00 -0.65443501421E+03  0.65443501421E+03  0.25500000920E-02 0. -1.
    10030    2    1    2    0    0  0.00000000000E+00  0.00000000000E+00 -0.40905014711E+03  0.89981988132E+03  0.80146977234E+03 0.  0.
        4    1    3    3  502    0 -0.18516595645E+03 -0.21084414910E+03 -0.52571721444E+03  0.59592104267E+03  0.12699999809E+01 0. -1.
       -4    1    3    3    0  502  0.18516595645E+03  0.21084414910E+03  0.11666706733E+03  0.30389883865E+03  0.12699999809E+01 0.  1.
</event>
<event>
 5   0  0.3627496E-03  0.8007444E+03  0.7818609E-02  0.9558940E-01
       -1   -1    0    0    0  501  0.00000000000E+00  0.00000000000E+00  0.20193167831E+03  0.20193167837E+03  0.50400001928E-02 0.  1.
        1   -1    0    0  501    0  0.00000000000E+00  0.00000000000E+00 -0.79382236410E+03  0.79382236412E+03  0.50400001928E-02 0. -1.
    10030    2    1    2    0    0  0.00000000000E+00  0.00000000000E+00 -0.59189068579E+03  0.99575404249E+03  0.80074435946E+03 0.  0.
        3    1    3    3  502    0 -0.11773789633E+03 -0.31711705031E+03 -0.56228393094E+03  0.65619255179E+03  0.10100000352E+00 0. -1.
       -3    1    3    3    0  502  0.11773789633E+03  0.31711705031E+03 -0.29606754849E+02  0.33956149070E+03  0.10100000352E+00 0.  1.
</event>
<event>
 5   0  0.6153659E-03  0.8002263E+03  0.7818609E-02  0.9559690E-01
        2   -1    0    0  501    0  0.00000000000E+00  0.00000000000E+00  0.59322800679E+03  0.59322800680E+03  0.25500000920E-02 0. -1.
       -2   -1    0    0    0  501  0.00000000000E+00  0.00000000000E+00 -0.26986339827E+03  0.26986339828E+03  0.25500000920E-02 0.  1.
    10030    2    1    2    0    0  0.00000000000E+00  0.00000000000E+00  0.32336460852E+03  0.86309140508E+03  0.80022628267E+03 0.  0.
        2    1    3    3  502    0 -0.30698956152E+03  0.13838436667E+02 -0.11468242868E+03  0.32800328148E+03  0.25500000920E-02 0.  1.
       -2    1    3    3    0  502  0.30698956152E+03 -0.13838436667E+02  0.43804703720E+03  0.53508812360E+03  0.25500000920E-02 0. -1.
</event>
<event>
 5   0  0.6337108E-03  0.8014504E+03  0.7818609E-02  0.9557920E-01
       -2   -1    0    0    0  501  0.00000000000E+00  0.00000000000E+00  0.22521933603E+03  0.22521933605E+03  0.25500000920E-02 0.  1.
        2   -1    0    0  501    0  0.00000000000E+00  0.00000000000E+00 -0.71299696434E+03  0.71299696434E+03  0.25500000920E-02 0. -1.
    10030    2    1    2    0    0  0.00000000000E+00  0.00000000000E+00 -0.48777762831E+03  0.93821630039E+03  0.80145044241E+03 0.  0.
        4    1    3    3  502    0  0.39882269473E+03 -0.38981381856E+02 -0.24388104701E+03  0.46910411206E+03  0.12699999809E+01 0. -1.
       -4    1    3    3    0  502 -0.39882269473E+03  0.38981381856E+02 -0.24389658130E+03  0.46911218832E+03  0.12699999809E+01 0.  1.
</event>
<event>
 5   0  0.3753450E-03  0.8001089E+03  0.7818609E-02  0.9559860E-01
        1   -1    0    0  501    0  0.00000000000E+00  0.00000000000E+00  0.75416273680E+03  0.75416273682E+03  0.50400001928E-02 0. -1.
       -1   -1    0    0    0  501  0.00000000000E+00  0.00000000000E+00 -0.21221355500E+03  0.21221355506E+03  0.50400001928E-02 0.  1.
    10030    2    1    2    0    0  0.00000000000E+00  0.00000000000E+00  0.54194918180E+03  0.96637629188E+03  0.80010888125E+03 0.  0.
        5    1    3    3  502    0  0.29069401354E+03 -0.10443533686E+03 -0.36035616278E+02  0.31101511978E+03  0.46999998093E+01 0.  1.
       -5    1    3    3    0  502 -0.29069401354E+03  0.10443533686E+03  0.57798479808E+03  0.65536117210E+03  0.46999998093E+01 0. -1.
</event>
<event>
 5   0  0.2478000E-03  0.7992653E+03  0.7818609E-02  0.9561081E-01
        4   -1    0    0  501    0  0.00000000000E+00  0.00000000000E+00  0.42153181158E+03  0.42153372472E+03  0.12699999809E+01 0.  1.
       -4   -1    0    0    0  501  0.00000000000E+00  0.00000000000E+00 -0.37886734274E+03  0.37886947132E+03  0.12699999809E+01 0. -1.
    10030    2    1    2    0    0  0.00000000000E+00  0.00000000000E+00  0.42664468838E+02  0.80040319603E+03  0.79926529971E+03 0.  0.
        4    1    3    3  502    0  0.18407584447E+03  0.30659188643E+03 -0.15730934540E+03  0.39067933704E+03  0.12699999809E+01 0. -1.
       -4    1    3    3    0  502 -0.18407584447E+03 -0.30659188643E+03  0.19997381424E+03  0.40972385899E+03  0.12699999809E+01 0.  1.
</event>
<event>
 5   0  0.6153659E-03  0.8004115E+03  0.7818609E-02  0.9559422E-01
       -2   -1    0    0    0  501  0.00000000000E+00  0.00000000000E+00  0.19802697152E+03  0.19802697154E+03  0.25500000920E-02 0. -1.
        2   -1    0    0  501    0  0.00000000000E+00  0.00000000000E+00 -0.80880218247E+03  0.80880218247E+03  0.25500000920E-02 0.  1.
    10030    2    1    2    0    0  0.00000000000E+00  0.00000000000E+00 -0.61077521095E+03  0.10068291540E+04  0.80041151108E+03 0.  0.
        2    1    3    3  502    0 -0.27355960938E+03 -0.28117265419E+03 -0.20577002834E+03  0.44298332465E+03  0.25500000920E-02 0. -1.
       -2    1    3    3    0  502  0.27355960938E+03  0.28117265419E+03 -0.40500518260E+03  0.56384582936E+03  0.25500000920E-02 0.  1.
</event>
<event>
 5   0  0.6536209E-03  0.7969890E+03  0.7818609E-02  0.9564386E-01
       -2   -1    0    0    0  501  0.00000000000E+00  0.00000000000E+00  0.94522314856E+02  0.94522314891E+02  0.25500000920E-02 0. -1.
        2   -1    0    0  501    0  0.00000000000E+00  0.00000000000E+00 -0.16800039244E+04  0.16800039244E+04  0.25500000920E-02 0.  1.
    10030    2    1    2    0    0  0.00000000000E+00  0.00000000000E+00 -0.15854816095E+04  0.17745262393E+04  0.79698898344E+03 0.  0.
        3    1    3    3  502    0  0.85607563390E+02 -0.26056017465E+03 -0.14905337267E+03  0.31214928741E+03  0.10100000352E+00 0. -1.
       -3    1    3    3    0  502 -0.85607563390E+02  0.26056017465E+03 -0.14364282368E+04  0.14623769519E+04  0.10100000352E+00 0.  1.
</event>
<event>
 5   0  0.5813850E-03  0.7994973E+03  0.7818609E-02  0.9560745E-01
       -2   -1    0    0    0  501  0.00000000000E+00  0.00000000000E+00  0.27790590549E+03  0.27790590551E+03  0.25500000920E-02 0. -1.
        2   -1    0    0  501    0  0.00000000000E+00  0.00000000000E+00 -0.57501117385E+03  0.57501117386E+03  0.25500000920E-02 0.  1.
    10030    2    1    2    0    0  0.00000000000E+00  0.00000000000E+00 -0.29710526836E+03  0.85291707936E+03  0.79949734445E+03 0.  0.
        5    1    3    3  502    0  0.33852856255E+03  0.88720452060E+02  0.57494943814E+02  0.35468389425E+03  0.46999998093E+01 0. -1.
       -5    1    3    3    0  502 -0.33852856255E+03 -0.88720452060E+02 -0.35460021217E+03  0.49823318511E+03  0.46999998093E+01 0.  1.
</event>
<event>
 5   0  0.3671128E-03  0.7980466E+03  0.7818609E-02  0.9562849E-01
        1   -1    0    0  501    0  0.00000000000E+00  0.00000000000E+00  0.13353652533E+04  0.13353652533E+04  0.50400001928E-02 0.  1.
       -1   -1    0    0    0  501  0.00000000000E+00  0.00000000000E+00 -0.11923298956E+03  0.11923298966E+03  0.50400001928E-02 0. -1.
    10030    2    1    2    0    0  0.00000000000E+00  0.00000000000E+00  0.12161322638E+04  0.14545982430E+04  0.79804659359E+03 0.  0.
        2    1    3    3  502    0  0.97971082080E+02  0.24589231720E+03  0.63819786110E+02  0.27227620110E+03  0.25500000920E-02 0. -1.
       -2    1    3    3    0  502 -0.97971082080E+02 -0.24589231720E+03  0.11523124777E+04  0.11823220419E+04  0.25500000920E-02 0.  1.
</event>
<event>
 5   0  0.6153659E-03  0.8115478E+03  0.7818609E-02  0.9543451E-01
        2   -1    0    0  501    0  0.00000000000E+00  0.00000000000E+00  0.11680266905E+04  0.11680266905E+04  0.25500000920E-02 0.  1.
       -2   -1    0    0    0  501  0.00000000000E+00  0.00000000000E+00 -0.14096635599E+03  0.14096635601E+03  0.25500000920E-02 0. -1.
    10030    2    1    2    0    0  0.00000000000E+00  0.00000000000E+00  0.10270603345E+04  0.13089930465E+04  0.81154782059E+03 0.  0.
        2    1    3    3  502    0  0.57879565238E+02  0.44431220470E+02  0.11573578849E+04  0.11596557469E+04  0.25500000920E-02 0.  1.
       -2    1    3    3    0  502 -0.57879565238E+02 -0.44431220470E+02 -0.13029755040E+03  0.14933729966E+03  0.25500000920E-02 0. -1.
</event>
<event>
 5   0  0.2478000E-03  0.7953141E+03  0.7818609E-02  0.9566825E-01
       -4   -1    0    0    0  501  0.00000000000E+00  0.00000000000E+00  0.28197797137E+03  0.28198083134E+03  0.12699999809E+01 0. -1.
        4   -1    0    0  501    0  0.00000000000E+00  0.00000000000E+00 -0.56078600542E+03  0.56078744349E+03  0.12699999809E+01 0.  1.
    10030    2    1    2    0    0  0.00000000000E+00  0.00000000000E+00 -0.27880803405E+03  0.84276827483E+03  0.79531405445E+03 0.  0.
        3    1    3    3  502    0  0.31217319627E+03  0.45761459553E+02  0.11708118534E+03  0.33653265787E+03  0.10100000352E+00 0. -1.
       -3    1    3    3    0  502 -0.31217319627E+03 -0.45761459553E+02 -0.39588921938E+03  0.50623561696E+03  0.10100000352E+00 0.  1.
</event>
<event>
 5   0  0.5813850E-03  0.7961349E+03  0.7818609E-02  0.9565629E-01
       -2   -1    0    0    0  501  0.00000000000E+00  0.00000000000E+00  0.27375848887E+03  0.27375848888E+03  0.25500000920E-02 0.  1.
        2   -1    0    0  501    0  0.00000000000E+00  0.00000000000E+00 -0.57882299144E+03  0.57882299145E+03  0.25500000920E-02 0. -1.
    10030    2    1    2    0    0  0.00000000000E+00  0.00000000000E+00 -0.30506450257E+03  0.85258148033E+03  0.79613493195E+03 0.  0.
        5    1    3    3  502    0  0.23987016158E+03 -0.22374478735E+02 -0.49185286517E+03  0.54770397359E+03  0.46999998093E+01 0. -1.
       -5    1    3    3    0  502 -0.23987016158E+03  0.22374478735E+02  0.18678836259E+03  0.30487750674E+03  0.46999998093E+01 0.  1.
</event>
<event>
 5   0  0.3860515E-03  0.7986148E+03  0.7818609E-02  0.9562024E-01
        1   -1    0    0  501    0  0.00000000000E+00  0.00000000000E+00  0.36977788149E+03  0.36977788152E+03  0.50400001928E-02 0.  1.
       -1   -1    0    0    0  501  0.00000000000E+00  0.00000000000E+00 -0.43119504153E+03  0.43119504156E+03  0.50400001928E-02 0. -1.
    10030    2    1    2    0    0  0.00000000000E+00  0.00000000000E+00 -0.61417160038E+02  0.80097292308E+03  0.79861477320E+03 0.  0.
        4    1    3    3  502    0 -0.37099489709E+03 -0.75938514070E+02  0.96318092527E+02  0.39074628525E+03  0.12699999809E+01 0.  1.
       -4    1    3    3    0  502  0.37099489709E+03  0.75938514070E+02 -0.15773525257E+03  0.41022663783E+03  0.12699999809E+01 0. -1.
</event>
<event>
 5   0  0.3671128E-03  0.7931783E+03  0.7818609E-02  0.9569944E-01
       -1   -1    0    0    0  501  0.00000000000E+00  0.00000000000E+00  0.39293854124E+03  0.39293854128E+03  0.50400001928E-02 0. -1.
        1   -1    0    0  501    0  0.00000000000E+00  0.00000000000E+00 -0.40027364711E+03  0.40027364714E+03  0.50400001928E-02 0.  1.
    10030    2    1    2    0    0  0.00000000000E+00  0.00000000000E+00 -0.73351058696E+01  0.79321218842E+03  0.79317827257E+03 0.  0.
        2    1    3    3  502    0  0.27958003553E+03 -0.27108339371E+03  0.71380578520E+02  0.39591209833E+03  0.25500000920E-02 0. -1.
       -2    1    3    3    0  502 -0.27958003553E+03  0.27108339371E+03 -0.78715684390E+02  0.39730009009E+03  0.25500000920E-02 0.  1.
</event>
<event>
 5   0  0.3714448E-03  0.8036087E+03  0.7818609E-02  0.9554808E-01
        1   -1    0    0  501    0  0.00000000000E+00  0.00000000000E+00  0.10285514288E+04  0.10285514288E+04  0.50400001928E-02 0.  1.
       -1   -1    0    0    0  501  0.00000000000E+00  0.00000000000E+00 -0.15696515663E+03  0.15696515671E+03  0.50400001928E-02 0. -1.
    10030    2    1    2    0    0  0.00000000000E+00  0.00000000000E+00  0.87158627219E+03  0.11855165855E+04  0.80360870126E+03 0.  0.
        1    1    3    3  502    0  0.32785058247E+03  0.22867696817E+03  0.37555024345E+03  0.54846799868E+03  0.50400001928E-02 0.  1.
       -1    1    3    3    0  502 -0.32785058247E+03 -0.22867696817E+03  0.49603602873E+03  0.63704858686E+03  0.50400001928E-02 0. -1.
</event>
<event>
 5   0  0.5813850E-03  0.8180075E+03  0.7818609E-02  0.9534312E-01
        2   -1    0    0  501    0  0.00000000000E+00  0.00000000000E+00  0.23494074474E+03  0.23494074476E+03  0.25500000920E-02 0.  1.
       -2   -1    0    0    0  501  0.00000000000E+00  0.00000000000E+00 -0.71202657009E+03  0.71202657010E+03  0.25500000920E-02 0. -1.
    10030    2    1    2    0    0  0.00000000000E+00  0.00000000000E+00 -0.47708582535E+03  0.94696731485E+03  0.81800746369E+03 0.  0.
        5    1    3    3  502    0  0.14540015793E+03 -0.25083688924E+03  0.95377979951E+02  0.30525300980E+03  0.46999998093E+01 0.  1.
       -5    1    3    3    0  502 -0.14540015793E+03  0.25083688924E+03 -0.57246380530E+03  0.64171430505E+03  0.46999998093E+01 0. -1.
</event>
<event>
 5   0  0.3753450E-03  0.8001549E+03  0.7818609E-02  0.9559793E-01
       -1   -1    0    0    0  501  0.00000000000E+00  0.00000000000E+00  0.11343358633E+03  0.11343358645E+03  0.50400001928E-02 0. -1.
        1   -1    0    0  501    0  0.00000000000E+00  0.00000000000E+00 -0.14110631722E+04  0.14110631722E+04  0.50400001928E-02 0.  1.
    10030    2    1    2    0    0  0.00000000000E+00  0.00000000000E+00 -0.12976295859E+04  0.15244967587E+04  0.80015487566E+03 0.  0.
        5    1    3    3  502    0 -0.38643921542E+03 -0.10153575011E+03 -0.61094431891E+03  0.73001357972E+03  0.46999998093E+01 0.  1.
       -5    1    3    3    0  502  0.38643921542E+03  0.10153575011E+03 -0.68668526695E+03  0.79448317894E+03  0.46999998093E+01 0. -1.
</event>
<event>
 5   0  0.3627496E-03  0.7886557E+03  0.7818609E-02  0.9576584E-01
       -1   -1    0    0    0  501  0.00000000000E+00  0.00000000000E+00  0.24048021364E+03  0.24048021369E+03  0.50400001928E-02 0. -1.
        1   -1    0    0  501    0  0.00000000000E+00  0.00000000000E+00 -0.64659971983E+03  0.64659971985E+03  0.50400001928E-02 0.  1.
    10030    2    1    2    0    0  0.00000000000E+00  0.00000000000E+00 -0.40611950620E+03  0.88707993354E+03  0.78865566325E+03 0.  0.
        3    1    3    3  502    0 -0.38337712280E+02 -0.27956559184E+03  0.10675626579E+03  0.30170119458E+03  0.10100000352E+00 0. -1.
       -3    1    3    3    0  502  0.38337712280E+02  0.27956559184E+03 -0.51287577199E+03  0.58537873896E+03  0.10100000352E+00 0.  1.
</event>
<event>
 5   0  0.6256781E-03  0.8022576E+03  0.7818609E-02  0.9556755E-01
       -2   -1    0    0    0  501  0.00000000000E+00  0.00000000000E+00  0.24596615001E+03  0.24596615002E+03  0.25500000920E-02 0. -1.
        2   -1    0    0  501    0  0.00000000000E+00  0.00000000000E+00 -0.65417251427E+03  0.65417251428E+03  0.25500000920E-02 0.  1.
    10030    2    1    2    0    0  0.00000000000E+00  0.00000000000E+00 -0.40820636426E+03  0.90013866430E+03  0.80225755163E+03 0.  0.
        1    1    3    3  502    0  0.11137550915E+03 -0.33423788562E+03  0.11090719181E+02  0.35248045662E+03  0.50400001928E-02 0.  1.
       -1    1    3    3    0  502 -0.11137550915E+03  0.33423788562E+03 -0.41929708345E+03  0.54765820768E+03  0.50400001928E-02 0. -1.
</event>
<event>
 5   0  0.3714448E-03  0.7996327E+03  0.7818609E-02  0.9560549E-01
        1   -1    0    0  501    0  0.00000000000E+00  0.00000000000E+00  0.35843257652E+03  0.35843257656E+03  0.50400001928E-02 0.  1.
       -1   -1    0    0    0  501  0.00000000000E+00  0.00000000000E+00 -0.44597818990E+03  0.44597818993E+03  0.50400001928E-02 0. -1.
    10030    2    1    2    0    0  0.00000000000E+00  0.00000000000E+00 -0.87545613378E+02  0.80441076649E+03  0.79963269494E+03 0.  0.
        1    1    3    3  502    0 -0.19480835664E+03 -0.18579399761E+03 -0.34114600015E+03  0.43456909555E+03  0.50400001928E-02 0. -1.
       -1    1    3    3    0  502  0.19480835664E+03  0.18579399761E+03  0.25360038677E+03  0.36984167094E+03  0.50400001928E-02 0.  1.
</event>
<event>
 5   0  0.6536209E-03  0.8002427E+03  0.7818609E-02  0.9559666E-01
       -2   -1    0    0    0  501  0.00000000000E+00  0.00000000000E+00  0.16605117969E+03  0.16605117971E+03  0.25500000920E-02 0. -1.
        2   -1    0    0  501    0  0.00000000000E+00  0.00000000000E+00 -0.96414306254E+03  0.96414306255E+03  0.25500000920E-02 0.  1.
    10030    2    1    2    0    0  0.00000000000E+00  0.00000000000E+00 -0.79809188285E+03  0.11301942423E+04  0.80024269553E+03 0.  0.
        3    1    3    3  502    0 -0.23764316035E+03 -0.10953657767E+03  0.28455218378E+02  0.26321520314E+03  0.10100000352E+00 0. -1.
       -3    1    3    3    0  502  0.23764316035E+03  0.10953657767E+03 -0.82654710123E+03  0.86697903912E+03  0.10100000352E+00 0.  1.
</event>
<event>
 5   0  0.3714448E-03  0.8031315E+03  0.7818609E-02  0.9555495E-01
        1   -1    0    0  501    0  0.00000000000E+00  0.00000000000E+00  0.87272319695E+03  0.87272319697E+03  0.50400001928E-02 0. -1.
       -1   -1    0    0    0  501  0.00000000000E+00  0.00000000000E+00 -0.18477226628E+03  0.18477226635E+03  0.50400001928E-02 0.  1.
    10030    2    1    2    0    0  0.00000000000E+00  0.00000000000E+00  0.68795093067E+03  0.10574954633E+04  0.80313147861E+03 0.  0.
        1    1    3    3  502    0  0.16217585899E+03  0.14833249753E+03 -0.98549598538E+02  0.24086419921E+03  0.50400001928E-02 0.  1.
       -1    1    3    3    0  502 -0.16217585899E+03 -0.14833249753E+03  0.78650052921E+03  0.81663126411E+03  0.50400001928E-02 0. -1.
</event>
<event>
 5   0  0.3860515E-03  0.8010925E+03  0.7818609E-02  0.9558437E-01
        1   -1    0    0  501    0  0.00000000000E+00  0.00000000000E+00  0.11915236390E+04  0.11915236390E+04  0.50400001928E-02 0. -1.
       -1   -1    0    0    0  501  0.00000000000E+00  0.00000000000E+00 -0.13464886498E+03  0.13464886507E+03  0.50400001928E-02 0.  1.
    10030    2    1    2    0    0  0.00000000000E+00  0.00000000000E+00  0.10568747740E+04  0.13261725041E+04  0.80109251813E+03 0.  0.
        4    1    3    3  502    0 -0.37003360718E+03 -0.13737766640E+03  0.41569375107E+03  0.57323677590E+03  0.12699999809E+01 0. -1.
       -4    1    3    3    0  502  0.37003360718E+03  0.13737766640E+03  0.64118102293E+03  0.75293572815E+03  0.12699999809E+01 0.  1.
</event>
<event>
 5   0  0.6256781E-03  0.8001401E+03  0.7818609E-02  0.9559814E-01
        2   -1    0    0  501    0  0.00000000000E+00  0.00000000000E+00  0.69852276731E+03  0.69852276731E+03  0.25500000920E-02 0.  1.
       -2   -1    0    0    0  501  0.00000000000E+00  0.00000000000E+00 -0.22913504976E+03  0.22913504978E+03  0.25500000920E-02 0. -1.
    10030    2    1    2    0    0  0.00000000000E+00  0.00000000000E+00  0.46938771754E+03  0.92765781709E+03  0.80014011037E+03 0.  0.
        1    1    3    3  502    0 -0.20426666343E+03 -0.22650851681E+03 -0.65457565395E+02  0.31195459744E+03  0.50400001928E-02 0. -1.
       -1    1    3    3    0  502  0.20426666343E+03  0.22650851681E+03  0.53484528294E+03  0.61570321964E+03  0.50400001928E-02 0.  1.
</event>
<event>
 5   0  0.3714448E-03  0.7988286E+03  0.7818609E-02  0.9561714E-01
        1   -1    0    0  501    0  0.00000000000E+00  0.00000000000E+00  0.51155150110E+03  0.51155150112E+03  0.50400001928E-02 0.  1.
       -1   -1    0    0    0  501  0.00000000000E+00  0.00000000000E+00 -0.31185869138E+03  0.31185869142E+03  0.50400001928E-02 0. -1.
    10030    2    1    2    0    0  0.00000000000E+00  0.00000000000E+00  0.19969280972E+03  0.82341019254E+03  0.79882859671E+03 0.  0.
        1    1    3    3  502    0 -0.69339237279E+02  0.38762156162E+03  0.30904960522E+02  0.39498546995E+03  0.50400001928E-02 0. -1.
       -1    1    3    3    0  502  0.69339237279E+02 -0.38762156162E+03  0.16878784920E+03  0.42842472259E+03  0.50400001928E-02 0.  1.
</event>
<event>
 5   0  0.3714448E-03  0.8008359E+03  0.7818609E-02  0.9558808E-01
        1   -1    0    0  501    0  0.00000000000E+00  0.00000000000E+00  0.11516740471E+04  0.11516740472E+04  0.50400001928E-02 0. -1.
       -1   -1    0    0    0  501  0.00000000000E+00  0.00000000000E+00 -0.13921868843E+03  0.13921868852E+03  0.50400001928E-02 0.  1.
    10030    2    1    2    0    0  0.00000000000E+00  0.00000000000E+00  0.10124553587E+04  0.12908927357E+04  0.80083593929E+03 0.  0.
        1    1    3    3  502    0 -0.16585829967E+03  0.26306972364E+03  0.91280493223E+03  0.96432748555E+03  0.50400001928E-02 0. -1.
       -1    1    3    3    0  502  0.16585829967E+03 -0.26306972364E+03  0.99650426483E+02  0.32656525013E+03  0.50400001928E-02 0.  1.
</event>
<event>
 5   0  0.6536209E-03  0.8013652E+03  0.7818609E-02  0.9558043E-01
       -2   -1    0    0    0  501  0.00000000000E+00  0.00000000000E+00  0.29648080316E+03  0.29648080317E+03  0.25500000920E-02 0.  1.
        2   -1    0    0  501    0  0.00000000000E+00  0.00000000000E+00 -0.54150742870E+03  0.54150742871E+03  0.25500000920E-02 0. -1.
    10030    2    1    2    0    0  0.00000000000E+00  0.00000000000E+00 -0.24502662555E+03  0.83798823188E+03  0.80136522856E+03 0.  0.
        3    1    3    3  502    0 -0.31183062397E+03  0.22175615059E+03 -0.24682606311E+03  0.45534299599E+03  0.10100000352E+00 0. -1.
       -3    1    3    3    0  502  0.31183062397E+03 -0.22175615059E+03  0.17994375671E+01  0.38264523588E+03  0.10100000352E+00 0.  1.
</event>
<event>
 5   0  0.5813850E-03  0.7992762E+03  0.7818609E-02  0.9561065E-01
        2   -1    0    0  501    0  0.00000000000E+00  0.00000000000E+00  0.30254138927E+03  0.30254138928E+03  0.25500000920E-02 0.  1.
       -2   -1    0    0    0  501  0.00000000000E+00  0.00000000000E+00 -0.52789674779E+03  0.52789674780E+03  0.25500000920E-02 0. -1.
    10030    2    1    2    0    0  0.00000000000E+00  0.00000000000E+00 -0.22535535853E+03  0.83043813707E+03  0.79927621126E+03 0.  0.
        5    1    3    3  502    0  0.17440357575E+03 -0.13695798385E+03 -0.45807573619E+03  0.50894947358E+03  0.46999998093E+01 0. -1.
       -5    1    3    3    0  502 -0.17440357575E+03  0.13695798385E+03  0.23272037766E+03  0.32148866349E+03  0.46999998093E+01 0.  1.
</event>
<event>
 5   0  0.6153659E-03  0.8149966E+03  0.7818609E-02  0.9538560E-01
        2   -1    0    0  501    0  0.00000000000E+00  0.00000000000E+00  0.19854485690E+04  0.19854485690E+04  0.25500000920E-02 0.  1.
       -2   -1    0    0    0  501  0.00000000000E+00  0.00000000000E+00 -0.83635935951E+02  0.83635935990E+02  0.25500000920E-02 0. -1.
    10030    2    1    2    0    0  0.00000000000E+00  0.00000000000E+00  0.19018126330E+04  0.20690845050E+04  0.81499656291E+03 0.  0.
        2    1    3    3  502    0  0.58801231756E+02  0.40285627850E+03  0.90663537010E+03  0.99385032088E+03  0.25500000920E-02 0.  1.
       -2    1    3    3    0  502 -0.58801231756E+02 -0.40285627850E+03  0.99517726291E+03  0.10752341841E+04  0.25500000920E-02 0. -1.
</event>
<event>
 5   0  0.6153659E-03  0.8252138E+03  0.7818609E-02  0.9524221E-01
       -2   -1    0    0    0  501  0.00000000000E+00  0.00000000000E+00  0.32700927518E+03  0.32700927518E+03  0.25500000920E-02 0.  1.
        2   -1    0    0  501    0  0.00000000000E+00  0.00000000000E+00 -0.52061052749E+03  0.52061052749E+03  0.25500000920E-02 0. -1.
    10030    2    1    2    0    0  0.00000000000E+00  0.00000000000E+00 -0.19360125231E+03  0.84761980268E+03  0.82521384198E+03 0.  0.
        2    1    3    3  502    0 -0.27863234185E+02  0.28217776381E+01 -0.51963314694E+03  0.52038728814E+03  0.25500000920E-02 0. -1.
       -2    1    3    3    0  502  0.27863234185E+02 -0.28217776381E+01  0.32603189463E+03  0.32723251454E+03  0.25500000920E-02 0.  1.
</event>
<event>
 5   0  0.6536209E-03  0.8033570E+03  0.7818609E-02  0.9555171E-01
       -2   -1    0    0    0  501  0.00000000000E+00  0.00000000000E+00  0.73966603022E+03  0.73966603023E+03  0.25500000920E-02 0.  1.
        2   -1    0    0  501    0  0.00000000000E+00  0.00000000000E+00 -0.21813306918E+03  0.21813306919E+03  0.25500000920E-02 0. -1.
    10030    2    1    2    0    0  0.00000000000E+00  0.00000000000E+00  0.52153296105E+03  0.95779909942E+03  0.80335700992E+03 0.  0.
        3    1    3    3  502    0 -0.16499917817E+03  0.36322869910E+03  0.31650693450E+03  0.50925088751E+03  0.10100000352E+00 0.  1.
       -3    1    3    3    0  502  0.16499917817E+03 -0.36322869910E+03  0.20502602655E+03  0.44854821191E+03  0.10100000352E+00 0. -1.
</event>
<event>
 5   0  0.3671128E-03  0.7994064E+03  0.7818609E-02  0.9560877E-01
        1   -1    0    0  501    0  0.00000000000E+00  0.00000000000E+00  0.34056288762E+03  0.34056288766E+03  0.50400001928E-02 0. -1.
       -1   -1    0    0    0  501  0.00000000000E+00  0.00000000000E+00 -0.46911351807E+03  0.46911351810E+03  0.50400001928E-02 0.  1.
    10030    2    1    2    0    0  0.00000000000E+00  0.00000000000E+00 -0.12855063045E+03  0.80967640576E+03  0.79940641569E+03 0.  0.
        2    1    3    3  502    0  0.26262061675E+03  0.23417066004E+03 -0.25633516911E+03  0.43533114441E+03  0.25500000920E-02 0.  1.
       -2    1    3    3    0  502 -0.26262061675E+03 -0.23417066004E+03  0.12778453866E+03  0.37434526135E+03  0.25500000920E-02 0. -1.
</event>
<event>
 5   0  0.6256781E-03  0.7992624E+03  0.7818609E-02  0.9561085E-01
        2   -1    0    0  501    0  0.00000000000E+00  0.00000000000E+00  0.10578064640E+04  0.10578064640E+04  0.25500000920E-02 0.  1.
       -2   -1    0    0    0  501  0.00000000000E+00  0.00000000000E+00 -0.15097760345E+03  0.15097760347E+03  0.25500000920E-02 0. -1.
    10030    2    1    2    0    0  0.00000000000E+00  0.00000000000E+00  0.90682886059E+03  0.12087840675E+04  0.79926237211E+03 0.  0.
        1    1    3    3  502    0 -0.47540869935E+02  0.38525791816E+03  0.30976840623E+03  0.49662889902E+03  0.50400001928E-02 0.  1.
       -1    1    3    3    0  502  0.47540869935E+02 -0.38525791816E+03  0.59706045436E+03  0.71215516849E+03  0.50400001928E-02 0. -1.
</event>
<event>
 5   0  0.3714448E-03  0.7973543E+03  0.7818609E-02  0.9563855E-01
       -1   -1    0    0    0  501  0.00000000000E+00  0.00000000000E+00  0.28143264486E+03  0.28143264491E+03  0.50400001928E-02 0. -1.
        1   -1    0    0  501    0  0.00000000000E+00  0.00000000000E+00 -0.56476560521E+03  0.56476560523E+03  0.50400001928E-02 0.  1.
    10030    2    1    2    0    0  0.00000000000E+00  0.00000000000E+00 -0.28333296035E+03  0.84619825014E+03  0.79735432031E+03 0.  0.
        1    1    3    3  502    0  0.15963776333E+02  0.28923257462E+03 -0.43236804616E+03  0.52043486791E+03  0.50400001928E-02 0.  1.
       -1    1    3    3    0  502 -0.15963776333E+02 -0.28923257462E+03  0.14903508581E+03  0.32576338223E+03  0.50400001928E-02 0. -1.
</event>
<event>
 5   0  0.3627496E-03  0.8072763E+03  0.7818609E-02  0.9549544E-01
        1   -1    0    0  501    0  0.00000000000E+00  0.00000000000E+00  0.60507508604E+03  0.60507508606E+03  0.50400001928E-02 0.  1.
       -1   -1    0    0    0  501  0.00000000000E+00  0.00000000000E+00 -0.26926205684E+03  0.26926205689E+03  0.50400001928E-02 0. -1.
    10030    2    1    2    0    0  0.00000000000E+00  0.00000000000E+00  0.33581302919E+03  0.87433714295E+03  0.80727631513E+03 0.  0.
        3    1    3    3  502    0  0.57384389833E+02  0.86020919707E+02 -0.25467308929E+03  0.27486534783E+03  0.10100000352E+00 0. -1.
       -3    1    3    3    0  502 -0.57384389833E+02 -0.86020919707E+02  0.59048611849E+03  0.59947179512E+03  0.10100000352E+00 0.  1.
</event>
<event>
 5   0  0.3860515E-03  0.8022746E+03  0.7818609E-02  0.9556731E-01
       -1   -1    0    0    0  501  0.00000000000E+00  0.00000000000E+00  0.25247425537E+03  0.25247425542E+03  0.50400001928E-02 0. -1.
        1   -1    0    0  501    0  0.00000000000E+00  0.00000000000E+00 -0.63733672308E+03  0.63733672310E+03  0.50400001928E-02 0.  1.
    10030    2    1    2    0    0  0.00000000000E+00  0.00000000000E+00 -0.38486246771E+03  0.88981097852E+03  0.80227455303E+03 0.  0.
        4    1    3    3  502    0  0.81195150086E+02 -0.28130475126E+03  0.11168447981E+03  0.31336887434E+03  0.12699999809E+01 0. -1.
       -4    1    3    3    0  502 -0.81195150086E+02  0.28130475126E+03 -0.49654694752E+03  0.57644210418E+03  0.12699999809E+01 0.  1.
</event>
<event>
 5   0  0.6337108E-03  0.8018994E+03  0.7818609E-02  0.9557272E-01
        2   -1    0    0  501    0  0.00000000000E+00  0.00000000000E+00  0.16124918190E+04  0.16124918190E+04  0.25500000920E-02 0.  1.
       -2   -1    0    0    0  501  0.00000000000E+00  0.00000000000E+00 -0.99697049129E+02  0.99697049162E+02  0.25500000920E-02 0. -1.
    10030    2    1    2    0    0  0.00000000000E+00  0.00000000000E+00  0.15127947699E+04  0.17121888682E+04  0.80189943542E+03 0.  0.
        4    1    3    3  502    0 -0.85223528302E+02 -0.13913542221E+03 -0.25602373480E+02  0.16516297987E+03  0.12699999809E+01 0. -1.
       -4    1    3    3    0  502  0.85223528302E+02  0.13913542221E+03  0.15383971434E+04  0.15470258883E+04  0.12699999809E+01 0.  1.
</event>
<event>
 5   0  0.3627496E-03  0.8019878E+03  0.7818609E-02  0.9557144E-01
        1   -1    0    0  501    0  0.00000000000E+00  0.00000000000E+00  0.69835138416E+03  0.69835138418E+03  0.50400001928E-02 0.  1.
       -1   -1    0    0    0  501  0.00000000000E+00  0.00000000000E+00 -0.23025098807E+03  0.23025098813E+03  0.50400001928E-02 0. -1.
    10030    2    1    2    0    0  0.00000000000E+00  0.00000000000E+00  0.46810039609E+03  0.92860237231E+03  0.80198777113E+03 0.  0.
        3    1    3    3  502    0  0.28609385670E+02 -0.35399205464E+03  0.18463720992E+02  0.35562591425E+03  0.10100000352E+00 0. -1.
       -3    1    3    3    0  502 -0.28609385670E+02  0.35399205464E+03  0.44963667510E+03  0.57297645806E+03  0.10100000352E+00 0.  1.
</event>
<event>
 5   0  0.5813850E-03  0.8143399E+03  0.7818609E-02  0.9539489E-01
        2   -1    0    0  501    0  0.00000000000E+00  0.00000000000E+00  0.39703339148E+03  0.39703339149E+03  0.25500000920E-02 0.  1.
       -2   -1    0    0    0  501  0.00000000000E+00  0.00000000000E+00 -0.41756533357E+03  0.41756533358E+03  0.25500000920E-02 0. -1.
    10030    2    1    2    0    0  0.00000000000E+00  0.00000000000E+00 -0.20531942091E+02  0.81459872506E+03  0.81433993039E+03 0.  0.
        5    1    3    3  502    0 -0.19530344501E+03  0.77988560829E+02 -0.35900211975E+03  0.41608924912E+03  0.46999998093E+01 0. -1.
       -5    1    3    3    0  502  0.19530344501E+03 -0.77988560829E+02  0.33847017766E+03  0.39850947594E+03  0.46999998093E+01 0.  1.
</event>
<event>
 5   0  0.3627496E-03  0.8048955E+03  0.7818609E-02  0.9552958E-01
        1   -1    0    0  501    0  0.00000000000E+00  0.00000000000E+00  0.26167984940E+03  0.26167984945E+03  0.50400001928E-02 0. -1.
       -1   -1    0    0    0  501  0.00000000000E+00  0.00000000000E+00 -0.61894026080E+03  0.61894026082E+03  0.50400001928E-02 0.  1.
    10030    2    1    2    0    0  0.00000000000E+00  0.00000000000E+00 -0.35726041140E+03  0.88062011027E+03  0.80489550692E+03 0.  0.
        3    1    3    3  502    0 -0.26342254982E+03 -0.95997456613E+02  0.13724878375E+03  0.31216052004E+03  0.10100000352E+00 0. -1.
       -3    1    3    3    0  502  0.26342254982E+03  0.95997456613E+02 -0.49450919515E+03  0.56845959022E+03  0.10100000352E+00 0.  1.
</event>
<event>
 5   0  0.6256781E-03  0.7961630E+03  0.7818609E-02  0.9565588E-01
        2   -1    0    0  501    0  0.00000000000E+00  0.00000000000E+00  0.88445801493E+03  0.88445801494E+03  0.25500000920E-02 0. -1.
       -2   -1    0    0    0  501  0.00000000000E+00  0.00000000000E+00 -0.17917062075E+03  0.17917062077E+03  0.25500000920E-02 0.  1.
    10030    2    1    2    0    0  0.00000000000E+00  0.00000000000E+00  0.70528739418E+03  0.10636286357E+04  0.79616302746E+03 0.  0.
        1    1    3    3  502    0 -0.35396547309E+03  0.17922770844E+03  0.39603129946E+03  0.56058444305E+03  0.50400001928E-02 0. -1.
       -1    1    3    3    0  502  0.35396547309E+03 -0.17922770844E+03  0.30925609472E+03  0.50304419265E+03  0.50400001928E-02 0.  1.
</event>
<event>
 5   0  0.3627496E-03  0.7979326E+03  0.7818609E-02  0.9563014E-01
       -1   -1    0    0    0  501  0.00000000000E+00  0.00000000000E+00  0.46695245042E+03  0.46695245044E+03  0.50400001928E-02 0. -1.
        1   -1    0    0  501    0  0.00000000000E+00  0.00000000000E+00 -0.34087866540E+03  0.34087866544E+03  0.50400001928E-02 0.  1.
    10030    2    1    2    0    0  0.00000000000E+00  0.00000000000E+00  0.12607378501E+03  0.80783111588E+03  0.79793264911E+03 0.  0.
        3    1    3    3  502    0  0.96019481699E+02  0.36657984876E+03  0.18937917883E+03  0.42363310773E+03  0.10100000352E+00 0. -1.
       -3    1    3    3    0  502 -0.96019481699E+02 -0.36657984876E+03 -0.63305393821E+02  0.38419800816E+03  0.10100000352E+00 0.  1.
</event>
<event>
 5   0  0.5813850E-03  0.7969311E+03  0.7818609E-02  0.9564470E-01
        2   -1    0    0  501    0  0.00000000000E+00  0.00000000000E+00  0.45361614256E+03  0.45361614257E+03  0.25500000920E-02 0.  1.
       -2   -1    0    0    0  501  0.00000000000E+00  0.00000000000E+00 -0.35002013517E+03  0.35002013518E+03  0.25500000920E-02 0. -1.
    10030    2    1    2    0    0  0.00000000000E+00  0.00000000000E+00  0.10359600739E+03  0.80363627775E+03  0.79693107240E+03 0.  0.
        5    1    3    3  502    0  0.47132161315E+02 -0.35105881304E+03 -0.13218974458E+03  0.37810044884E+03  0.46999998093E+01 0. -1.
       -5    1    3    3    0  502 -0.47132161315E+02  0.35105881304E+03  0.23578575198E+03  0.42553582890E+03  0.46999998093E+01 0.  1.
</event>
<event>
 5   0  0.6536209E-03  0.8006406E+03  0.7818609E-02  0.9559090E-01
        2   -1    0    0  501    0  0.00000000000E+00  0.00000000000E+00  0.53667070072E+03  0.53667070073E+03  0.25500000920E-02 0. -1.
       -2   -1    0    0    0  501  0.00000000000E+00  0.00000000000E+00 -0.29861202693E+03  0.29861202694E+03  0.25500000920E-02 0.  1.
    10030    2    1    2    0    0  0.00000000000E+00  0.00000000000E+00  0.23805867380E+03  0.83528272767E+03  0.80064055791E+03 0.  0.
        3    1    3    3  502    0  0.64834935811E+02 -0.39384359695E+03  0.15101478194E+03  0.42675733424E+03  0.10100000352E+00 0. -1.
       -3    1    3    3    0  502 -0.64834935811E+02  0.39384359695E+03  0.87043891857E+02  0.40852539343E+03  0.10100000352E+00 0.  1.
</event>
<event>
 5   0  0.2478000E-03  0.7996149E+03  0.7818609E-02  0.9560575E-01
        3   -1    0    0  501    0  0.00000000000E+00  0.00000000000E+00  0.14368101671E+03  0.14368105221E+03  0.10100000352E+00 0.  1.
       -3   -1    0    0    0  501  0.00000000000E+00  0.00000000000E+00 -0.11125059843E+04  0.11125059889E+04  0.10100000352E+00 0. -1.
    10030    2    1    2    0    0  0.00000000000E+00  0.00000000000E+00 -0.96882496758E+03  0.12561870411E+04  0.79961494758E+03 0.  0.
        3    1    3    3  502    0 -0.39556330409E+03 -0.34018689714E+02 -0.41041890576E+03  0.57102652057E+03  0.10100000352E+00 0.  1.
       -3    1    3    3    0  502  0.39556330409E+03  0.34018689714E+02 -0.55840606182E+03  0.68516052051E+03  0.10100000352E+00 0. -1.
</event>
<event>
 5   0  0.6536209E-03  0.7980252E+03  0.7818609E-02  0.9562880E-01
        2   -1    0    0  501    0  0.00000000000E+00  0.00000000000E+00  0.72121129848E+03  0.72121129849E+03  0.25500000920E-02 0. -1.
       -2   -1    0    0    0  501  0.00000000000E+00  0.00000000000E+00 -0.22075509626E+03  0.22075509627E+03  0.25500000920E-02 0.  1.
    10030    2    1    2    0    0  0.00000000000E+00  0.00000000000E+00  0.50045620222E+03  0.94196639476E+03  0.79802523677E+03 0.  0.
        3    1    3    3  502    0 -0.17672204932E+03  0.24171640062E+03  0.56152762783E+03  0.63637315159E+03  0.10100000352E+00 0. -1.
       -3    1    3    3    0  502  0.17672204932E+03 -0.24171640062E+03 -0.61071425606E+02  0.30559324317E+03  0.10100000352E+00 0.  1.
</event>
<event>
 5   0  0.3860515E-03  0.8005457E+03  0.7818609E-02  0.9559228E-01
        1   -1    0    0  501    0  0.00000000000E+00  0.00000000000E+00  0.14589033601E+04  0.14589033602E+04  0.50400001928E-02 0. -1.
       -1   -1    0    0    0  501  0.00000000000E+00  0.00000000000E+00 -0.10982109123E+03  0.10982109135E+03  0.50400001928E-02 0.  1.
    10030    2    1    2    0    0  0.00000000000E+00  0.00000000000E+00  0.13490822689E+04  0.15687244515E+04  0.80054571165E+03 0.  0.
        4    1    3    3  502    0 -0.12555720816E+03  0.36374717454E+03  0.45863144131E+03  0.59868274684E+03  0.12699999809E+01 0.  1.
       -4    1    3    3    0  502  0.12555720816E+03 -0.36374717454E+03  0.89045082760E+03  0.97004170466E+03  0.12699999809E+01 0. -1.
</event>
<event>
 5   0  0.3860515E-03  0.7972476E+03  0.7818609E-02  0.9564010E-01
       -1   -1    0    0    0  501  0.00000000000E+00  0.00000000000E+00  0.86992039039E+02  0.86992039185E+02  0.50400001928E-02 0.  1.
        1   -1    0    0  501    0  0.00000000000E+00  0.00000000000E+00 -0.18266147003E+04  0.18266147003E+04  0.50400001928E-02 0. -1.
    10030    2    1    2    0    0  0.00000000000E+00  0.00000000000E+00 -0.17396226612E+04  0.19136067395E+04  0.79724760887E+03 0.  0.
        4    1    3    3  502    0 -0.25988436272E+03 -0.16783398476E+03 -0.14731869457E+04  0.15053204039E+04  0.12699999809E+01 0. -1.
       -4    1    3    3    0  502  0.25988436272E+03  0.16783398476E+03 -0.26643571556E+03  0.40828633562E+03  0.12699999809E+01 0.  1.
</event>
<event>
 5   0  0.3714448E-03  0.7927946E+03  0.7818609E-02  0.9570506E-01
       -1   -1    0    0    0  501  0.00000000000E+00  0.00000000000E+00  0.46799416638E+03  0.46799416641E+03  0.50400001928E-02 0. -1.
        1   -1    0    0  501    0  0.00000000000E+00  0.00000000000E+00 -0.33575378240E+03  0.33575378244E+03  0.50400001928E-02 0.  1.
    10030    2    1    2    0    0  0.00000000000E+00  0.00000000000E+00  0.13224038398E+03  0.80374794885E+03  0.79279458003E+03 0.  0.
        1    1    3    3  502    0  0.15763744920E+03  0.36314582147E+03  0.45683346575E+02  0.39851150701E+03  0.50400001928E-02 0.  1.
       -1    1    3    3    0  502 -0.15763744920E+03 -0.36314582147E+03  0.86557037400E+02  0.40523644184E+03  0.50400001928E-02 0. -1.
</event>
<event>
 5   0  0.3753450E-03  0.8000373E+03  0.7818609E-02  0.9559963E-01
       -1   -1    0    0    0  501  0.00000000000E+00  0.00000000000E+00  0.19065913666E+03  0.19065913672E+03  0.50400001928E-02 0. -1.
        1   -1    0    0  501    0  0.00000000000E+00  0.00000000000E+00 -0.83927226107E+03  0.83927226108E+03  0.50400001928E-02 0.  1.
    10030    2    1    2    0    0  0.00000000000E+00  0.00000000000E+00 -0.64861312441E+03  0.10299313978E+04  0.80003731102E+03 0.  0.
        5    1    3    3  502    0 -0.89846271013E+02 -0.34794892039E+03 -0.55042706215E+03  0.65736811937E+03  0.46999998093E+01 0.  1.
       -5    1    3    3    0  502  0.89846271013E+02  0.34794892039E+03 -0.98186062258E+02  0.37256327843E+03  0.46999998093E+01 0. -1.
</event>
<event>
 5   0  0.3627496E-03  0.7985112E+03  0.7818609E-02  0.9562175E-01
       -1   -1    0    0    0  501  0.00000000000E+00  0.00000000000E+00  0.58834330331E+03  0.58834330333E+03  0.50400001928E-02 0.  1.
        1   -1    0    0  501    0  0.00000000000E+00  0.00000000000E+00 -0.27093879774E+03  0.27093879779E+03  0.50400001928E-02 0. -1.
    10030    2    1    2    0    0  0.00000000000E+00  0.00000000000E+00  0.31740450557E+03  0.85928210112E+03  0.79851118286E+03 0.  0.
        3    1    3    3  502    0  0.28684513934E+03 -0.17359887981E+03 -0.74562803380E+02  0.34347682147E+03  0.10100000352E+00 0. -1.
       -3    1    3    3    0  502 -0.28684513934E+03  0.17359887981E+03  0.39196730895E+03  0.51580527966E+03  0.10100000352E+00 0.  1.
</event>
<event>
 5   0  0.3671128E-03  0.8007868E+03  0.7818609E-02  0.9558879E-01
       -1   -1    0    0    0  501  0.00000000000E+00  0.00000000000E+00  0.26747826136E+03  0.26747826141E+03  0.50400001928E-02 0.  1.
        1   -1    0    0  501    0  0.00000000000E+00  0.00000000000E+00 -0.59935665062E+03  0.59935665064E+03  0.50400001928E-02 0. -1.
    10030    2    1    2    0    0  0.00000000000E+00  0.00000000000E+00 -0.33187838926E+03  0.86683491205E+03  0.80078680028E+03 0.  0.
        2    1    3    3  502    0  0.29993207294E+03 -0.22799145813E+03 -0.19202299549E+02  0.37723743408E+03  0.25500000920E-02 0.  1.
       -2    1    3    3    0  502 -0.29993207294E+03  0.22799145813E+03 -0.31267608971E+03  0.48959747797E+03  0.25500000920E-02 0. -1.
</event>
<event>
 5   0  0.3671128E-03  0.8021770E+03  0.7818609E-02  0.9556871E-01
       -1   -1    0    0    0  501  0.00000000000E+00  0.00000000000E+00  0.16751831101E+03  0.16751831109E+03  0.50400001928E-02 0.  1.
        1   -1    0    0  501    0  0.00000000000E+00  0.00000000000E+00 -0.96032479602E+03  0.96032479603E+03  0.50400001928E-02 0. -1.
    10030    2    1    2    0    0  0.00000000000E+00  0.00000000000E+00 -0.79280648501E+03  0.11278431071E+04  0.80217700766E+03 0.  0.
        2    1    3    3  502    0 -0.86665492798E+02  0.36977052137E+03 -0.57771901962E+03  0.69137573847E+03  0.25500000920E-02 0. -1.
       -2    1    3    3    0  502  0.86665492798E+02 -0.36977052137E+03 -0.21508746539E+03  0.43646736865E+03  0.25500000920E-02 0.  1.
</event>
<event>
 5   0  0.6153659E-03  0.7992796E+03  0.7818609E-02  0.9561060E-01
       -2   -1    0    0    0  501  0.00000000000E+00  0.00000000000E+00  0.55728813251E+02  0.55728813310E+02  0.25500000920E-02 0. -1.
        2   -1    0    0  501    0  0.00000000000E+00  0.00000000000E+00 -0.28658779778E+04  0.28658779778E+04  0.25500000920E-02 0.  1.
    10030    2    1    2    0    0  0.00000000000E+00  0.00000000000E+00 -0.28101491646E+04  0.29216067911E+04  0.79927962244E+03 0.  0.
        2    1    3    3  502    0 -0.99156077592E+02 -0.34408191067E+02 -0.28145998107E+04  0.28165560434E+04  0.25500000920E-02 0.  1.
       -2    1    3    3    0  502  0.99156077592E+02  0.34408191067E+02  0.44506461352E+01  0.10505074771E+03  0.25500000920E-02 0. -1.
</event>
<event>
 5   0  0.3627496E-03  0.7934212E+03  0.7818609E-02  0.9569589E-01
        1   -1    0    0  501    0  0.00000000000E+00  0.00000000000E+00  0.12274604387E+04  0.12274604387E+04  0.50400001928E-02 0. -1.
       -1   -1    0    0    0  501  0.00000000000E+00  0.00000000000E+00 -0.12821538030E+03  0.12821538040E+03  0.50400001928E-02 0.  1.
    10030    2    1    2    0    0  0.00000000000E+00  0.00000000000E+00  0.10992450584E+04  0.13556758191E+04  0.79342121734E+03 0.  0.
        3    1    3    3  502    0  0.21869174232E+02 -0.39609033022E+03  0.54334773687E+03  0.67275001586E+03  0.10100000352E+00 0. -1.
       -3    1    3    3    0  502 -0.21869174232E+02  0.39609033022E+03  0.55589732152E+03  0.68292580325E+03  0.10100000352E+00 0.  1.
</event>
<event>
 5   0  0.3714448E-03  0.7917260E+03  0.7818609E-02  0.9572071E-01
        1   -1    0    0  501    0  0.00000000000E+00  0.00000000000E+00  0.26498728491E+04  0.26498728491E+04  0.50400001928E-02 0.  1.
       -1   -1    0    0    0  501  0.00000000000E+00  0.00000000000E+00 -0.59137754378E+02  0.59137754592E+02  0.50400001928E-02 0. -1.
    10030    2    1    2    0    0  0.00000000000E+00  0.00000000000E+00  0.25907350947E+04  0.27090106037E+04  0.79172603842E+03 0.  0.
        1    1    3    3  502    0  0.15114859346E+03 -0.25660568485E+03  0.21877245235E+04  0.22079019375E+04  0.50400001928E-02 0.  1.
       -1    1    3    3    0  502 -0.15114859346E+03  0.25660568485E+03  0.40301057119E+03  0.50110866618E+03  0.50400001928E-02 0. -1.
</event>
<event>
 5   0  0.6153659E-03  0.7983315E+03  0.7818609E-02  0.9562435E-01
       -2   -1    0    0    0  501  0.00000000000E+00  0.00000000000E+00  0.12198136517E+03  0.12198136519E+03  0.25500000920E-02 0. -1.
        2   -1    0    0  501    0  0.00000000000E+00  0.00000000000E+00 -0.13062102924E+04  0.13062102924E+04  0.25500000920E-02 0.  1.
    10030    2    1    2    0    0  0.00000000000E+00  0.00000000000E+00 -0.11842289272E+04  0.14281916576E+04  0.79833154686E+03 0.  0.
        2    1    3    3  502    0 -0.25543343263E+03 -0.16435424234E+03 -0.10554362923E+04  0.10982733369E+04  0.25500000920E-02 0.  1.
       -2    1    3    3    0  502  0.25543343263E+03  0.16435424234E+03 -0.12879263491E+03  0.32991832064E+03  0.25500000920E-02 0. -1.
</event>
<event>
 5   0  0.3671128E-03  0.7778224E+03  0.7818609E-02  0.9592685E-01
       -1   -1    0    0    0  501  0.00000000000E+00  0.00000000000E+00  0.96781575123E+02  0.96781575254E+02  0.50400001928E-02 0. -1.
        1   -1    0    0  501    0  0.00000000000E+00  0.00000000000E+00 -0.15628172168E+04  0.15628172169E+04  0.50400001928E-02 0.  1.
    10030    2    1    2    0    0  0.00000000000E+00  0.00000000000E+00 -0.14660356417E+04  0.16595987921E+04  0.77782237559E+03 0.  0.
        2    1    3    3  502    0  0.20977802365E+03  0.20093105750E+03 -0.12847701738E+04  0.13171994946E+04  0.25500000920E-02 0.  1.
       -2    1    3    3    0  502 -0.20977802365E+03 -0.20093105750E+03 -0.18126546795E+03  0.34239929753E+03  0.25500000920E-02 0. -1.
</event>
<event>
 5   0  0.3627496E-03  0.8017312E+03  0.7818609E-02  0.9557515E-01
       -1   -1    0    0    0  501  0.00000000000E+00  0.00000000000E+00  0.29714856607E+03  0.29714856612E+03  0.50400001928E-02 0.  1.
        1   -1    0    0  501    0  0.00000000000E+00  0.00000000000E+00 -0.54078407977E+03  0.54078407980E+03  0.50400001928E-02 0. -1.
    10030    2    1    2    0    0  0.00000000000E+00  0.00000000000E+00 -0.24363551370E+03  0.83793264591E+03  0.80173116164E+03 0.  0.
        3    1    3    3  502    0  0.17805968860E+03  0.15046542053E+03  0.21901806373E+03  0.31986562478E+03  0.10100000352E+00 0.  1.
       -3    1    3    3    0  502 -0.17805968860E+03 -0.15046542053E+03 -0.46265357742E+03  0.51806702113E+03  0.10100000352E+00 0. -1.
</event>
<event>
 5   0  0.6256781E-03  0.7967158E+03  0.7818609E-02  0.9564783E-01
       -2   -1    0    0    0  501  0.00000000000E+00  0.00000000000E+00  0.39522150435E+03  0.39522150436E+03  0.25500000920E-02 0. -1.
        2   -1    0    0  501    0  0.00000000000E+00  0.00000000000E+00 -0.40151918137E+03  0.40151918138E+03  0.25500000920E-02 0.  1.
    10030    2    1    2    0    0  0.00000000000E+00  0.00000000000E+00 -0.62976770171E+01  0.79674068574E+03  0.79671579598E+03 0.  0.
        1    1    3    3  502    0 -0.28273524882E+03 -0.42595867600E+02  0.27423211446E+03  0.39617784074E+03  0.50400001928E-02 0. -1.
       -1    1    3    3    0  502  0.28273524882E+03  0.42595867600E+02 -0.28052979148E+03  0.40056284500E+03  0.50400001928E-02 0.  1.
</event>
<event>
 5   0  0.6153659E-03  0.7943523E+03  0.7818609E-02  0.9568228E-01
        2   -1    0    0  501    0  0.00000000000E+00  0.00000000000E+00  0.46582339849E+03  0.46582339849E+03  0.25500000920E-02 0.  1.
       -2   -1    0    0    0  501  0.00000000000E+00  0.00000000000E+00 -0.33864527899E+03  0.33864527900E+03  0.25500000920E-02 0. -1.
    10030    2    1    2    0    0  0.00000000000E+00  0.00000000000E+00  0.12717811949E+03  0.80446867750E+03  0.79435230156E+03 0.  0.
        2    1    3    3  502    0  0.21424306274E+03  0.17230190834E+03  0.35387664441E+03  0.44812578258E+03  0.25500000920E-02 0.  1.
       -2    1    3    3    0  502 -0.21424306274E+03 -0.17230190834E+03 -0.22669852492E+03  0.35634289491E+03  0.25500000920E-02 0. -1.
</event>
<event>
 5   0  0.6337108E-03  0.7969263E+03  0.7818609E-02  0.9564477E-01
       -2   -1    0    0    0  501  0.00000000000E+00  0.00000000000E+00  0.18202820939E+03  0.18202820941E+03  0.25500000920E-02 0.  1.
        2   -1    0    0  501    0  0.00000000000E+00  0.00000000000E+00 -0.87224330720E+03  0.87224330720E+03  0.25500000920E-02 0. -1.
    10030    2    1    2    0    0  0.00000000000E+00  0.00000000000E+00 -0.69021509781E+03  0.10542715166E+04  0.79692631371E+03 0.  0.
        4    1    3    3  502    0 -0.37876955268E+03  0.12162624787E+03 -0.31517451508E+03  0.50753906851E+03  0.12699999809E+01 0.  1.
       -4    1    3    3    0  502  0.37876955268E+03 -0.12162624787E+03 -0.37504058273E+03  0.54673244810E+03  0.12699999809E+01 0. -1.
</event>
<event>
 5   0  0.5813850E-03  0.8040877E+03  0.7818609E-02  0.9554119E-01
       -2   -1    0    0    0  501  0.00000000000E+00  0.00000000000E+00  0.14725548779E+03  0.14725548781E+03  0.25500000920E-02 0. -1.
        2   -1    0    0  501    0  0.00000000000E+00  0.00000000000E+00 -0.10976789530E+04  0.10976789530E+04  0.25500000920E-02 0.  1.
    10030    2    1    2    0    0  0.00000000000E+00  0.00000000000E+00 -0.95042346524E+03  0.12449344408E+04  0.80408768099E+03 0.  0.
        5    1    3    3  502    0 -0.73461991956E+02  0.72557851241E+01  0.13662970607E+03  0.15536755536E+03  0.46999998093E+01 0. -1.
       -5    1    3    3    0  502  0.73461991956E+02 -0.72557851241E+01 -0.10870531713E+04  0.10895668855E+04  0.46999998093E+01 0.  1.
</event>
<event>
 5   0  0.6337108E-03  0.8079277E+03  0.7818609E-02  0.9548612E-01
       -2   -1    0    0    0  501  0.00000000000E+00  0.00000000000E+00  0.14268529427E+03  0.14268529429E+03  0.25500000920E-02 0. -1.
        2   -1    0    0  501    0  0.00000000000E+00  0.00000000000E+00 -0.11436834660E+04  0.11436834660E+04  0.25500000920E-02 0.  1.
    10030    2    1    2    0    0  0.00000000000E+00  0.00000000000E+00 -0.10009981717E+04  0.12863687603E+04  0.80792774903E+03 0.  0.
        4    1    3    3  502    0  0.33775269183E+03  0.14543077051E+03 -0.23427482202E+03  0.43601983324E+03  0.12699999809E+01 0.  1.
       -4    1    3    3    0  502 -0.33775269183E+03 -0.14543077051E+03 -0.76672334971E+03  0.85034892706E+03  0.12699999809E+01 0. -1.
</event>
<event>
 5   0  0.6256781E-03  0.8020750E+03  0.7818609E-02  0.9557018E-01
       -2   -1    0    0    0  501  0.00000000000E+00  0.00000000000E+00  0.88616122966E+02  0.88616123002E+02  0.25500000920E-02 0.  1.
        2   -1    0    0  501    0  0.00000000000E+00  0.00000000000E+00 -0.18149190936E+04  0.18149190936E+04  0.25500000920E-02 0. -1.
    10030    2    1    2    0    0  0.00000000000E+00  0.00000000000E+00 -0.17263029706E+04  0.19035352166E+04  0.80207504288E+03 0.  0.
        1    1    3    3  502    0  0.13679199760E+03 -0.21797854728E+03 -0.13318726872E+03  0.28976809047E+03  0.50400001928E-02 0.  1.
       -1    1    3    3    0  502 -0.13679199760E+03  0.21797854728E+03 -0.15931157019E+04  0.16137671261E+04  0.50400001928E-02 0. -1.
</event>
<event>
 5   0  0.3671128E-03  0.8000013E+03  0.7818609E-02  0.9560015E-01
       -1   -1    0    0    0  501  0.00000000000E+00  0.00000000000E+00  0.71450945221E+03  0.71450945223E+03  0.50400001928E-02 0. -1.
        1   -1    0    0  501    0  0.00000000000E+00  0.00000000000E+00 -0.22393060688E+03  0.22393060694E+03  0.50400001928E-02 0.  1.
    10030    2    1    2    0    0  0.00000000000E+00  0.00000000000E+00  0.49057884534E+03  0.93844005917E+03  0.80000133822E+03 0.  0.
        2    1    3    3  502    0  0.16024486885E+03  0.14253305470E+03  0.64136724694E+03  0.67627363924E+03  0.25500000920E-02 0. -1.
       -2    1    3    3    0  502 -0.16024486885E+03 -0.14253305470E+03 -0.15078840161E+03  0.26216641993E+03  0.25500000920E-02 0.  1.
</event>
<event>
 5   0  0.6153659E-03  0.7993299E+03  0.7818609E-02  0.9560987E-01
        2   -1    0    0  501    0  0.00000000000E+00  0.00000000000E+00  0.11261146454E+04  0.11261146454E+04  0.25500000920E-02 0. -1.
       -2   -1    0    0    0  501  0.00000000000E+00  0.00000000000E+00 -0.14184354046E+03  0.14184354048E+03  0.25500000920E-02 0.  1.
    10030    2    1    2    0    0  0.00000000000E+00  0.00000000000E+00  0.98427110499E+03  0.12679581859E+04  0.79932994012E+03 0.  0.
        2    1    3    3  502    0  0.11631007033E+03 -0.35618539353E+03  0.71271366130E+03  0.80520607924E+03  0.25500000920E-02 0.  1.
       -2    1    3    3    0  502 -0.11631007033E+03  0.35618539353E+03  0.27155744368E+03  0.46275210670E+03  0.25500000920E-02 0. -1.
</event>
<event>
 5   0  0.6536209E-03  0.8017870E+03  0.7818609E-02  0.9557434E-01
       -2   -1    0    0    0  501  0.00000000000E+00  0.00000000000E+00  0.23502835674E+03  0.23502835675E+03  0.25500000920E-02 0.  1.
        2   -1    0    0  501    0  0.00000000000E+00  0.00000000000E+00 -0.68381371374E+03  0.68381371374E+03  0.25500000920E-02 0. -1.
    10030    2    1    2    0    0  0.00000000000E+00  0.00000000000E+00 -0.44878535700E+03  0.91884207049E+03  0.80178703772E+03 0.  0.
        3    1    3    3  502    0  0.38434684697E+02 -0.27583890144E+03 -0.55485070664E+03  0.62082496841E+03  0.10100000352E+00 0. -1.
       -3    1    3    3    0  502 -0.38434684697E+02  0.27583890144E+03  0.10606534965E+03  0.29801710208E+03  0.10100000352E+00 0.  1.
</event>
<event>
 5   0  0.5813850E-03  0.7984107E+03  0.7818609E-02  0.9562320E-01
       -2   -1    0    0    0  501  0.00000000000E+00  0.00000000000E+00  0.68058040163E+02  0.68058040210E+02  0.25500000920E-02 0.  1.
        2   -1    0    0  501    0  0.00000000000E+00  0.00000000000E+00 -0.23416028964E+04  0.23416028964E+04  0.25500000920E-02 0. -1.
    10030    2    1    2    0    0  0.00000000000E+00  0.00000000000E+00 -0.22735448562E+04  0.24096609366E+04  0.79841068136E+03 0.  0.
        5    1    3    3  502    0  0.12697461002E+03  0.41480509389E+02 -0.22720635736E+04  0.22759916864E+04  0.46999998093E+01 0. -1.
       -5    1    3    3    0  502 -0.12697461002E+03 -0.41480509389E+02 -0.14812826498E+01  0.13366925019E+03  0.46999998093E+01 0.  1.
</event>
<event>
 5   0  0.6256781E-03  0.7972275E+03  0.7818609E-02  0.9564039E-01
       -2   -1    0    0    0  501  0.00000000000E+00  0.00000000000E+00  0.62299681719E+03  0.62299681720E+03  0.25500000920E-02 0. -1.
        2   -1    0    0  501    0  0.00000000000E+00  0.00000000000E+00 -0.25504609872E+03  0.25504609873E+03  0.25500000920E-02 0.  1.
    10030    2    1    2    0    0  0.00000000000E+00  0.00000000000E+00  0.36795071847E+03  0.87804291592E+03  0.79722746502E+03 0.  0.
        1    1    3    3  502    0  0.20816778954E+03 -0.12631309355E+03 -0.16361847076E+03  0.29335955789E+03  0.50400001928E-02 0.  1.
       -1    1    3    3    0  502 -0.20816778954E+03  0.12631309355E+03  0.53156918923E+03  0.58468335804E+03  0.50400001928E-02 0. -1.
</event>
<event>
 5   0  0.3714448E-03  0.8017091E+03  0.7818609E-02  0.9557546E-01
       -1   -1    0    0    0  501  0.00000000000E+00  0.00000000000E+00  0.22973395505E+03  0.22973395511E+03  0.50400001928E-02 0. -1.
        1   -1    0    0  501    0  0.00000000000E+00  0.00000000000E+00 -0.69943681814E+03  0.69943681816E+03  0.50400001928E-02 0.  1.
    10030    2    1    2    0    0  0.00000000000E+00  0.00000000000E+00 -0.46970286308E+03  0.92917077326E+03  0.80170914071E+03 0.  0.
        1    1    3    3  502    0  0.18127967744E+03 -0.14599026473E+03 -0.61309510345E+03  0.65579042746E+03  0.50400001928E-02 0.  1.
       -1    1    3    3    0  502 -0.18127967744E+03  0.14599026473E+03  0.14339224036E+03  0.27338034580E+03  0.50400001928E-02 0. -1.
</event>
<event>
 5   0  0.6153659E-03  0.8007872E+03  0.7818609E-02  0.9558878E-01
       -2   -1    0    0    0  501  0.00000000000E+00  0.00000000000E+00  0.49896216541E+03  0.49896216541E+03  0.25500000920E-02 0. -1.
        2   -1    0    0  501    0  0.00000000000E+00  0.00000000000E+00 -0.32129694973E+03  0.32129694974E+03  0.25500000920E-02 0.  1.
    10030    2    1    2    0    0  0.00000000000E+00  0.00000000000E+00  0.17766521567E+03  0.82025911515E+03  0.80078716719E+03 0.  0.
        2    1    3    3  502    0 -0.50498140803E+02  0.37871495167E+03  0.21149394709E+03  0.43669756870E+03  0.25500000920E-02 0.  1.
       -2    1    3    3    0  502  0.50498140803E+02 -0.37871495167E+03 -0.33828731415E+02  0.38356154646E+03  0.25500000920E-02 0. -1.
</event>
<event>
 5   0  0.3627496E-03  0.8007434E+03  0.7818609E-02  0.9558942E-01
       -1   -1    0    0    0  501  0.00000000000E+00  0.00000000000E+00  0.80795431206E+02  0.80795431363E+02  0.50400001928E-02 0. -1.
        1   -1    0    0  501    0  0.00000000000E+00  0.00000000000E+00 -0.19839920632E+04  0.19839920632E+04  0.50400001928E-02 0.  1.
    10030    2    1    2    0    0  0.00000000000E+00  0.00000000000E+00 -0.19031966320E+04  0.20647874946E+04  0.80074339067E+03 0.  0.
        3    1    3    3  502    0  0.26784359859E+03 -0.20074162472E+03 -0.38512942193E+03  0.51025687162E+03  0.10100000352E+00 0. -1.
       -3    1    3    3    0  502 -0.26784359859E+03  0.20074162472E+03 -0.15180672101E+04  0.15545306230E+04  0.10100000352E+00 0.  1.
</event>
<event>
 5   0  0.5813850E-03  0.7990953E+03  0.7818609E-02  0.9561328E-01
       -2   -1    0    0    0  501  0.00000000000E+00  0.00000000000E+00  0.26754915869E+03  0.26754915870E+03  0.25500000920E-02 0.  1.
        2   -1    0    0  501    0  0.00000000000E+00  0.00000000000E+00 -0.59666914853E+03  0.59666914854E+03  0.25500000920E-02 0. -1.
    10030    2    1    2    0    0  0.00000000000E+00  0.00000000000E+00 -0.32911998985E+03  0.86421830724E+03  0.79909531024E+03 0.  0.
        5    1    3    3  502    0  0.38560447485E+03  0.99273999595E+02 -0.12918167515E+03  0.41863603907E+03  0.46999998093E+01 0.  1.
       -5    1    3    3    0  502 -0.38560447485E+03 -0.99273999595E+02 -0.19993831470E+03  0.44558226816E+03  0.46999998093E+01 0. -1.
</event>
<event>
 5   0  0.3671128E-03  0.8130536E+03  0.7818609E-02  0.9541312E-01
        1   -1    0    0  501    0  0.00000000000E+00  0.00000000000E+00  0.10770847075E+04  0.10770847075E+04  0.50400001928E-02 0.  1.
       -1   -1    0    0    0  501  0.00000000000E+00  0.00000000000E+00 -0.15343642683E+03  0.15343642691E+03  0.50400001928E-02 0. -1.
    10030    2    1    2    0    0  0.00000000000E+00  0.00000000000E+00  0.92364828063E+03  0.12305211344E+04  0.81305357501E+03 0.  0.
        2    1    3    3  502    0  0.39482729622E+03  0.95271977446E+02  0.43566780295E+03  0.59562721400E+03  0.25500000920E-02 0.  1.
       -2    1    3    3    0  502 -0.39482729622E+03 -0.95271977446E+02  0.48798047768E+03  0.63489392038E+03  0.25500000920E-02 0. -1.
</event>
<event>
 5   0  0.6337108E-03  0.8005759E+03  0.7818609E-02  0.9559184E-01
        2   -1    0    0  501    0  0.00000000000E+00  0.00000000000E+00  0.84924961057E+03  0.84924961058E+03  0.25500000920E-02 0. -1.
       -2   -1    0    0    0  501  0.00000000000E+00  0.00000000000E+00 -0.18867295374E+03  0.18867295376E+03  0.25500000920E-02 0.  1.
    10030    2    1    2    0    0  0.00000000000E+00  0.00000000000E+00  0.66057665683E+03  0.10379225643E+04  0.80057587399E+03 0.  0.
        4    1    3    3  502    0  0.22627727627E+03  0.18733638758E+03  0.68280537843E+03  0.74331764783E+03  0.12699999809E+01 0. -1.
       -4    1    3    3    0  502 -0.22627727627E+03 -0.18733638758E+03 -0.22228721601E+02  0.29460491651E+03  0.12699999809E+01 0.  1.
</event>
<event>
 5   0  0.3714448E-03  0.7992902E+03  0.7818609E-02  0.9561045E-01
        1   -1    0    0  501    0  0.00000000000E+00  0.00000000000E+00  0.10628761375E+04  0.10628761375E+04  0.50400001928E-02 0.  1.
       -1   -1    0    0    0  501  0.00000000000E+00  0.00000000000E+00 -0.15026795047E+03  0.15026795056E+03  0.50400001928E-02 0. -1.
    10030    2    1    2    0    0  0.00000000000E+00  0.00000000000E+00  0.91260818700E+03  0.12131440880E+04  0.79929023225E+03 0.  0.
        1    1    3    3  502    0  0.20760464958E+03  0.52776313073E+01  0.97455021860E+03  0.99643146906E+03  0.50400001928E-02 0.  1.
       -1    1    3    3    0  502 -0.20760464958E+03 -0.52776313073E+01 -0.61942031607E+02  0.21671261898E+03  0.50400001928E-02 0. -1.
</event>
<event>
 5   0  0.6256781E-03  0.8007488E+03  0.7818609E-02  0.9558934E-01
       -2   -1    0    0    0  501  0.00000000000E+00  0.00000000000E+00  0.11761372034E+04  0.11761372034E+04  0.25500000920E-02 0. -1.
        2   -1    0    0  501    0  0.00000000000E+00  0.00000000000E+00 -0.13629334107E+03  0.13629334110E+03  0.25500000920E-02 0.  1.
    10030    2    1    2    0    0  0.00000000000E+00  0.00000000000E+00  0.10398438623E+04  0.13124305445E+04  0.80074882212E+03 0.  0.
        1    1    3    3  502    0  0.39082617271E+03  0.62790034547E+02  0.61842570899E+03  0.73426020135E+03  0.50400001928E-02 0. -1.
       -1    1    3    3    0  502 -0.39082617271E+03 -0.62790034547E+02  0.42141815335E+03  0.57817034316E+03  0.50400001928E-02 0.  1.
</event>
<event>
 5   0  0.3860515E-03  0.7991701E+03  0.7818609E-02  0.9561219E-01
        1   -1    0    0  501    0  0.00000000000E+00  0.00000000000E+00  0.66204586604E+03  0.66204586605E+03  0.50400001928E-02 0.  1.
       -1   -1    0    0    0  501  0.00000000000E+00  0.00000000000E+00 -0.24117392995E+03  0.24117393001E+03  0.50400001928E-02 0. -1.
    10030    2    1    2    0    0  0.00000000000E+00  0.00000000000E+00  0.42087193608E+03  0.90321979606E+03  0.79917007790E+03 0.  0.
        4    1    3    3  502    0  0.24473206294E+03 -0.31419752586E+03  0.24710599250E+03  0.46869697280E+03  0.12699999809E+01 0.  1.
       -4    1    3    3    0  502 -0.24473206294E+03  0.31419752586E+03  0.17376594358E+03  0.43452282326E+03  0.12699999809E+01 0. -1.
</event>
<event>
 5   0  0.2478000E-03  0.8002587E+03  0.7818609E-02  0.9559643E-01
       -3   -1    0    0    0  501  0.00000000000E+00  0.00000000000E+00  0.97200862672E+03  0.97200863196E+03  0.10100000352E+00 0. -1.
        3   -1    0    0  501    0  0.00000000000E+00  0.00000000000E+00 -0.16471404930E+03  0.16471408027E+03  0.10100000352E+00 0.  1.
    10030    2    1    2    0    0  0.00000000000E+00  0.00000000000E+00  0.80729457741E+03  0.11367227122E+04  0.80025870179E+03 0.  0.
        2    1    3    3  502    0  0.37210148672E+03 -0.14686677835E+03  0.41587717511E+03  0.57704695804E+03  0.25500000920E-02 0. -1.
       -2    1    3    3    0  502 -0.37210148672E+03  0.14686677835E+03  0.39141740231E+03  0.55967575420E+03  0.25500000920E-02 0.  1.
</event>
<event>
 5   0  0.6536209E-03  0.8004457E+03  0.7818609E-02  0.9559372E-01
       -2   -1    0    0    0  501  0.00000000000E+00  0.00000000000E+00  0.16903928927E+03  0.16903928929E+03  0.25500000920E-02 0. -1.
        2   -1    0    0  501    0  0.00000000000E+00  0.00000000000E+00 -0.94758035867E+03  0.94758035867E+03  0.25500000920E-02 0.  1.
    10030    2    1    2    0    0  0.00000000000E+00  0.00000000000E+00 -0.77854106940E+03  0.11166196480E+04  0.80044565178E+03 0.  0.
        3    1    3    3  502    0 -0.38362486453E+03  0.85245632517E+02 -0.28354992180E+03  0.48459820769E+03  0.10100000352E+00 0. -1.
       -3    1    3    3    0  502  0.38362486453E+03 -0.85245632517E+02 -0.49499114760E+03  0.63202144026E+03  0.10100000352E+00 0.  1.
</event>
<event>
 5   0  0.3627496E-03  0.8028552E+03  0.7818609E-02  0.9555893E-01
        1   -1    0    0  501    0  0.00000000000E+00  0.00000000000E+00  0.89553178639E+03  0.89553178640E+03  0.50400001928E-02 0. -1.
       -1   -1    0    0    0  501  0.00000000000E+00  0.00000000000E+00 -0.17994239800E+03  0.17994239807E+03  0.50400001928E-02 0.  1.
    10030    2    1    2    0    0  0.00000000000E+00  0.00000000000E+00  0.71558938839E+03  0.10754741845E+04  0.80285524765E+03 0.  0.
        3    1    3    3  502    0 -0.29165984108E+03  0.27504979034E+03  0.38545192164E+03  0.55613941072E+03  0.10100000352E+00 0. -1.
       -3    1    3    3    0  502  0.29165984108E+03 -0.27504979034E+03  0.33013746676E+03  0.51933477375E+03  0.10100000352E+00 0.  1.
</event>
<event>
 5   0  0.6256781E-03  0.8097032E+03  0.7818609E-02  0.9546077E-01
        2   -1    0    0  501    0  0.00000000000E+00  0.00000000000E+00  0.17042413763E+04  0.17042413763E+04  0.25500000920E-02 0.  1.
       -2   -1    0    0    0  501  0.00000000000E+00  0.00000000000E+00 -0.96174660365E+02  0.96174660399E+02  0.25500000920E-02 0. -1.
    10030    2    1    2    0    0  0.00000000000E+00  0.00000000000E+00  0.16080667159E+04  0.18004160367E+04  0.80970324336E+03 0.  0.
        1    1    3    3  502    0  0.27831945734E+03  0.18247841279E+03  0.29143506712E+03  0.44237369931E+03  0.50400001928E-02 0. -1.
       -1    1    3    3    0  502 -0.27831945734E+03 -0.18247841279E+03  0.13166316488E+04  0.13580423374E+04  0.50400001928E-02 0.  1.
</event>
<event>
 5   0  0.3860515E-03  0.7695558E+03  0.7818609E-02  0.9605160E-01
       -1   -1    0    0    0  501  0.00000000000E+00  0.00000000000E+00  0.85086100639E+02  0.85086100788E+02  0.50400001928E-02 0.  1.
        1   -1    0    0  501    0  0.00000000000E+00  0.00000000000E+00 -0.17400496882E+04  0.17400496883E+04  0.50400001928E-02 0. -1.
    10030    2    1    2    0    0  0.00000000000E+00  0.00000000000E+00 -0.16549635876E+04  0.18251357890E+04  0.76955582782E+03 0.  0.
        4    1    3    3  502    0 -0.14143718993E+03 -0.12701288907E+03 -0.16208969892E+04  0.16320065610E+04  0.12699999809E+01 0. -1.
       -4    1    3    3    0  502  0.14143718993E+03  0.12701288907E+03 -0.34066598381E+02  0.19312922801E+03  0.12699999809E+01 0.  1.
</event>
<event>
 5   0  0.6536209E-03  0.7958904E+03  0.7818609E-02  0.9565985E-01
       -2   -1    0    0    0  501  0.00000000000E+00  0.00000000000E+00  0.18373010065E+03  0.18373010067E+03  0.25500000920E-02 0.  1.
        2   -1    0    0  501    0  0.00000000000E+00  0.00000000000E+00 -0.86191855878E+03  0.86191855879E+03  0.25500000920E-02 0. -1.
    10030    2    1    2    0    0  0.00000000000E+00  0.00000000000E+00 -0.67818845813E+03  0.10456486595E+04  0.79589040343E+03 0.  0.
        3    1    3    3  502    0  0.87286835532E+01 -0.30791327552E+03 -0.67009505394E+03  0.73750536722E+03  0.10100000352E+00 0. -1.
       -3    1    3    3    0  502 -0.87286835532E+01  0.30791327552E+03 -0.80934041954E+01  0.30814329224E+03  0.10100000352E+00 0.  1.
</event>
<event>
 5   0  0.3860515E-03  0.8048108E+03  0.7818609E-02  0.9553080E-01
        1   -1    0    0  501    0  0.00000000000E+00  0.00000000000E+00  0.12144873013E+04  0.12144873013E+04  0.50400001928E-02 0. -1.
       -1   -1    0    0    0  501  0.00000000000E+00  0.00000000000E+00 -0.13333205369E+03  0.13333205379E+03  0.50400001928E-02 0.  1.
    10030    2    1    2    0    0  0.00000000000E+00  0.00000000000E+00  0.10811552476E+04  0.13478193551E+04  0.80481075075E+03 0.  0.
        4    1    3    3  502    0  0.21926441732E+03 -0.30304095197E+03  0.78907658894E+03  0.87324348230E+03  0.12699999809E+01 0.  1.
       -4    1    3    3    0  502 -0.21926441732E+03  0.30304095197E+03  0.29207865862E+03  0.47457587275E+03  0.12699999809E+01 0. -1.
</event>
<event>
 5   0  0.3753450E-03  0.8051205E+03  0.7818609E-02  0.9552635E-01
        1   -1    0    0  501    0  0.00000000000E+00  0.00000000000E+00  0.50280370663E+03  0.50280370666E+03  0.50400001928E-02 0.  1.
       -1   -1    0    0    0  501  0.00000000000E+00  0.00000000000E+00 -0.32230220629E+03  0.32230220633E+03  0.50400001928E-02 0. -1.
    10030    2    1    2    0    0  0.00000000000E+00  0.00000000000E+00  0.18050150034E+03  0.82510591299E+03  0.80512047299E+03 0.  0.
        5    1    3    3  502    0 -0.34060975074E+03  0.31615465697E+02 -0.12719077102E+03  0.36498509861E+03  0.46999998093E+01 0.  1.
       -5    1    3    3    0  502  0.34060975074E+03 -0.31615465697E+02  0.30769227137E+03  0.46012081438E+03  0.46999998093E+01 0. -1.
</event>
<event>
 5   0  0.3860515E-03  0.8055058E+03  0.7818609E-02  0.9552082E-01
       -1   -1    0    0    0  501  0.00000000000E+00  0.00000000000E+00  0.35080631928E+03  0.35080631932E+03  0.50400001928E-02 0.  1.
        1   -1    0    0  501    0  0.00000000000E+00  0.00000000000E+00 -0.46239165874E+03  0.46239165876E+03  0.50400001928E-02 0. -1.
    10030    2    1    2    0    0  0.00000000000E+00  0.00000000000E+00 -0.11158533946E+03  0.81319797808E+03  0.80550584329E+03 0.  0.
        4    1    3    3  502    0 -0.17687338703E+03  0.34308608400E+03 -0.17185155125E+03  0.42252434798E+03  0.12699999809E+01 0.  1.
       -4    1    3    3    0  502  0.17687338703E+03 -0.34308608400E+03  0.60266211791E+02  0.39067363010E+03  0.12699999809E+01 0. -1.
</event>
<event>
 5   0  0.3627496E-03  0.7990671E+03  0.7818609E-02  0.9561368E-01
       -1   -1    0    0    0  501  0.00000000000E+00  0.00000000000E+00  0.12232599914E+03  0.12232599925E+03  0.50400001928E-02 0.  1.
        1   -1    0    0  501    0  0.00000000000E+00  0.00000000000E+00 -0.13049315024E+04  0.13049315024E+04  0.50400001928E-02 0. -1.
    10030    2    1    2    0    0  0.00000000000E+00  0.00000000000E+00 -0.11826055033E+04  0.14272575017E+04  0.79906708086E+03 0.  0.
        3    1    3    3  502    0 -0.73385480956E+02 -0.16644212855E+03 -0.12266785331E+04  0.12400921920E+04  0.10100000352E+00 0. -1.
       -3    1    3    3    0  502  0.73385480956E+02  0.16644212855E+03  0.44073029837E+02  0.18716530963E+03  0.10100000352E+00 0.  1.
</event>
<event>
 5   0  0.6153659E-03  0.8016750E+03  0.7818609E-02  0.9557596E-01
        2   -1    0    0  501    0  0.00000000000E+00  0.00000000000E+00  0.17315791269E+04  0.17315791269E+04  0.25500000920E-02 0. -1.
       -2   -1    0    0    0  501  0.00000000000E+00  0.00000000000E+00 -0.92788537861E+02  0.92788537896E+02  0.25500000920E-02 0.  1.
    10030    2    1    2    0    0  0.00000000000E+00  0.00000000000E+00  0.16387905891E+04  0.18243676648E+04  0.80167498504E+03 0.  0.
        2    1    3    3  502    0  0.22250050550E+03 -0.11165975593E+03  0.15343269258E+04  0.15543916789E+04  0.25500000920E-02 0. -1.
       -2    1    3    3    0  502 -0.22250050550E+03  0.11165975593E+03  0.10446366323E+03  0.26997598593E+03  0.25500000920E-02 0.  1.
</event>
<event>
 5   0  0.6337108E-03  0.8030362E+03  0.7818609E-02  0.9555633E-01
        2   -1    0    0  501    0  0.00000000000E+00  0.00000000000E+00  0.60522084274E+03  0.60522084275E+03  0.25500000920E-02 0. -1.
       -2   -1    0    0    0  501  0.00000000000E+00  0.00000000000E+00 -0.26637678108E+03  0.26637678110E+03  0.25500000920E-02 0.  1.
    10030    2    1    2    0    0  0.00000000000E+00  0.00000000000E+00  0.33884406166E+03  0.87159762384E+03  0.80303618833E+03 0.  0.
        4    1    3    3  502    0  0.38344801676E+01 -0.27350868671E+03  0.48844456439E+03  0.55982265971E+03  0.12699999809E+01 0. -1.
       -4    1    3    3    0  502 -0.38344801676E+01  0.27350868671E+03 -0.14960050273E+03  0.31177496413E+03  0.12699999809E+01 0.  1.
</event>
<event>
 5   0  0.5813850E-03  0.7970472E+03  0.7818609E-02  0.9564301E-01
       -2   -1    0    0    0  501  0.00000000000E+00  0.00000000000E+00  0.63611154545E+02  0.63611154597E+02  0.25500000920E-02 0.  1.
        2   -1    0    0  501    0  0.00000000000E+00  0.00000000000E+00 -0.24967488797E+04  0.24967488797E+04  0.25500000920E-02 0. -1.
    10030    2    1    2    0    0  0.00000000000E+00  0.00000000000E+00 -0.24331377252E+04  0.25603600343E+04  0.79704724808E+03 0.  0.
        5    1    3    3  502    0  0.45765704722E+02  0.36341359241E+03 -0.17207582467E+04  0.17593166209E+04  0.46999998093E+01 0. -1.
       -5    1    3    3    0  502 -0.45765704722E+02 -0.36341359241E+03 -0.71237947847E+03  0.80104341344E+03  0.46999998093E+01 0.  1.
</event>
<event>
 5   0  0.5813850E-03  0.7977643E+03  0.7818609E-02  0.9563259E-01
        2   -1    0    0  501    0  0.00000000000E+00  0.00000000000E+00  0.16954111666E+04  0.16954111666E+04  0.25500000920E-02 0. -1.
       -2   -1    0    0    0  501  0.00000000000E+00  0.00000000000E+00 -0.93845651779E+02  0.93845651814E+02  0.25500000920E-02 0.  1.
    10030    2    1    2    0    0  0.00000000000E+00  0.00000000000E+00  0.16015655148E+04  0.17892568184E+04  0.79776429100E+03 0.  0.
        5    1    3    3  502    0  0.30980008902E+03 -0.24600560858E+03  0.68663963117E+03  0.79245878613E+03  0.46999998093E+01 0. -1.
       -5    1    3    3    0  502 -0.30980008902E+03  0.24600560858E+03  0.91492588367E+03  0.99679803231E+03  0.46999998093E+01 0.  1.
</event>
<event>
 5   0  0.3671128E-03  0.8023751E+03  0.7818609E-02  0.9556586E-01
       -1   -1    0    0    0  501  0.00000000000E+00  0.00000000000E+00  0.11834003890E+04  0.11834003891E+04  0.50400001928E-02 0. -1.
        1   -1    0    0  501    0  0.00000000000E+00  0.00000000000E+00 -0.13600759398E+03  0.13600759408E+03  0.50400001928E-02 0.  1.
    10030    2    1    2    0    0  0.00000000000E+00  0.00000000000E+00  0.10473927951E+04  0.13194079831E+04  0.80237507364E+03 0.  0.
        2    1    3    3  502    0 -0.39520400905E+03  0.68500460370E+02  0.50965473214E+03  0.64855722018E+03  0.25500000920E-02 0.  1.
       -2    1    3    3    0  502  0.39520400905E+03 -0.68500460370E+02  0.53773806292E+03  0.67085076296E+03  0.25500000920E-02 0. -1.
</event>
<event>
 5   0  0.3860515E-03  0.7972914E+03  0.7818609E-02  0.9563946E-01
       -1   -1    0    0    0  501  0.00000000000E+00  0.00000000000E+00  0.58326879777E+03  0.58326879779E+03  0.50400001928E-02 0. -1.
        1   -1    0    0  501    0  0.00000000000E+00  0.00000000000E+00 -0.27246165734E+03  0.27246165739E+03  0.50400001928E-02 0.  1.
    10030    2    1    2    0    0  0.00000000000E+00  0.00000000000E+00  0.31080714043E+03  0.85573045518E+03  0.79729137295E+03 0.  0.
        4    1    3    3  502    0 -0.26061753430E+03  0.37480607812E+02  0.47665927175E+03  0.54454749049E+03  0.12699999809E+01 0.  1.
       -4    1    3    3    0  502  0.26061753430E+03 -0.37480607812E+02 -0.16585213132E+03  0.31118296469E+03  0.12699999809E+01 0. -1.
</event>
<event>
 5   0  0.6536209E-03  0.7976424E+03  0.7818609E-02  0.9563436E-01
       -2   -1    0    0    0  501  0.00000000000E+00  0.00000000000E+00  0.23381718972E+03  0.23381718973E+03  0.25500000920E-02 0.  1.
        2   -1    0    0  501    0  0.00000000000E+00  0.00000000000E+00 -0.68026807172E+03  0.68026807172E+03  0.25500000920E-02 0. -1.
    10030    2    1    2    0    0  0.00000000000E+00  0.00000000000E+00 -0.44645088200E+03  0.91408526145E+03  0.79764244820E+03 0.  0.
        3    1    3    3  502    0  0.70981637544E+02  0.16483056020E+03  0.18492957981E+03  0.25769452096E+03  0.10100000352E+00 0.  1.
       -3    1    3    3    0  502 -0.70981637544E+02 -0.16483056020E+03 -0.63138046181E+03  0.65639074049E+03  0.10100000352E+00 0. -1.
</event>
<event>
 5   0  0.6256781E-03  0.7996839E+03  0.7818609E-02  0.9560475E-01
        2   -1    0    0  501    0  0.00000000000E+00  0.00000000000E+00  0.10319238175E+04  0.10319238175E+04  0.25500000920E-02 0.  1.
       -2   -1    0    0    0  501  0.00000000000E+00  0.00000000000E+00 -0.15492769192E+03  0.15492769194E+03  0.25500000920E-02 0. -1.
    10030    2    1    2    0    0  0.00000000000E+00  0.00000000000E+00  0.87699612561E+03  0.11868515095E+04  0.79968387580E+03 0.  0.
        1    1    3    3  502    0 -0.27105605200E+03  0.99836019566E+02  0.84881937199E+03  0.89662307600E+03  0.50400001928E-02 0.  1.
       -1    1    3    3    0  502  0.27105605200E+03 -0.99836019566E+02  0.28176753622E+02  0.29022843348E+03  0.50400001928E-02 0. -1.
</event>
<event>
 5   0  0.2478000E-03  0.8018473E+03  0.7818609E-02  0.9557347E-01
       -3   -1    0    0    0  501  0.00000000000E+00  0.00000000000E+00  0.40246108999E+03  0.40246110266E+03  0.10100000352E+00 0. -1.
        3   -1    0    0  501    0  0.00000000000E+00  0.00000000000E+00 -0.39939204285E+03  0.39939205562E+03  0.10100000352E+00 0.  1.
    10030    2    1    2    0    0  0.00000000000E+00  0.00000000000E+00  0.30690471411E+01  0.80185315828E+03  0.80184728496E+03 0.  0.
        2    1    3    3  502    0 -0.16275091967E+03  0.28254025413E+02 -0.36378118964E+03  0.39952835412E+03  0.25500000920E-02 0.  1.
       -2    1    3    3    0  502  0.16275091967E+03 -0.28254025413E+02  0.36685023678E+03  0.40232480416E+03  0.25500000920E-02 0. -1.
</event>
<event>
 5   0  0.5813850E-03  0.8057230E+03  0.7818609E-02  0.9551770E-01
        2   -1    0    0  501    0  0.00000000000E+00  0.00000000000E+00  0.62068144949E+03  0.62068144949E+03  0.25500000920E-02 0.  1.
       -2   -1    0    0    0  501  0.00000000000E+00  0.00000000000E+00 -0.26148257542E+03  0.26148257544E+03  0.25500000920E-02 0. -1.
    10030    2    1    2    0    0  0.00000000000E+00  0.00000000000E+00  0.35919887407E+03  0.88216402493E+03  0.80572298946E+03 0.  0.
        5    1    3    3  502    0 -0.13568863265E+02 -0.28452941846E+03  0.49146364881E+03  0.56806664408E+03  0.46999998093E+01 0.  1.
       -5    1    3    3    0  502  0.13568863265E+02  0.28452941846E+03 -0.13226477475E+03  0.31409738085E+03  0.46999998093E+01 0. -1.
</event>
<event>
 5   0  0.3627496E-03  0.7997437E+03  0.7818609E-02  0.9560388E-01
       -1   -1    0    0    0  501  0.00000000000E+00  0.00000000000E+00  0.15518767636E+03  0.15518767644E+03  0.50400001928E-02 0. -1.
        1   -1    0    0  501    0  0.00000000000E+00  0.00000000000E+00 -0.10303491707E+04  0.10303491707E+04  0.50400001928E-02 0.  1.
    10030    2    1    2    0    0  0.00000000000E+00  0.00000000000E+00 -0.87516149437E+03  0.11855368472E+04  0.79974369318E+03 0.  0.
        3    1    3    3  502    0 -0.36035616893E+03 -0.43861112523E+02 -0.18901022019E+03  0.40927403926E+03  0.10100000352E+00 0. -1.
       -3    1    3    3    0  502  0.36035616893E+03  0.43861112523E+02 -0.68615127419E+03  0.77626280791E+03  0.10100000352E+00 0.  1.
</event>
<event>
 5   0  0.2478000E-03  0.7938826E+03  0.7818609E-02  0.9568914E-01
        3   -1    0    0  501    0  0.00000000000E+00  0.00000000000E+00  0.19896834166E+03  0.19896836730E+03  0.10100000352E+00 0. -1.
       -3   -1    0    0    0  501  0.00000000000E+00  0.00000000000E+00 -0.79189667974E+03  0.79189668618E+03  0.10100000352E+00 0.  1.
    10030    2    1    2    0    0  0.00000000000E+00  0.00000000000E+00 -0.59292833808E+03  0.99086505347E+03  0.79388257324E+03 0.  0.
        4    1    3    3  502    0 -0.27480251757E+03 -0.23952582512E+03 -0.10041815203E+03  0.37811964074E+03  0.12699999809E+01 0. -1.
       -4    1    3    3    0  502  0.27480251757E+03  0.23952582512E+03 -0.49251018605E+03  0.61274541273E+03  0.12699999809E+01 0.  1.
</event>
<event>
 5   0  0.6153659E-03  0.7997805E+03  0.7818609E-02  0.9560335E-01
        2   -1    0    0  501    0  0.00000000000E+00  0.00000000000E+00  0.87548931491E+03  0.87548931491E+03  0.25500000920E-02 0. -1.
       -2   -1    0    0    0  501  0.00000000000E+00  0.00000000000E+00 -0.18265465228E+03  0.18265465230E+03  0.25500000920E-02 0.  1.
    10030    2    1    2    0    0  0.00000000000E+00  0.00000000000E+00  0.69283466263E+03  0.10581439672E+04  0.79978046088E+03 0.  0.
        2    1    3    3  502    0 -0.20894320566E+02 -0.53141422688E+01  0.87471983527E+03  0.87498548728E+03  0.25500000920E-02 0. -1.
       -2    1    3    3    0  502  0.20894320566E+02  0.53141422688E+01 -0.18188517263E+03  0.18315847993E+03  0.25500000920E-02 0.  1.
</event>
<event>
 5   0  0.3714448E-03  0.8009838E+03  0.7818609E-02  0.9558594E-01
        1   -1    0    0  501    0  0.00000000000E+00  0.00000000000E+00  0.10324553164E+04  0.10324553164E+04  0.50400001928E-02 0.  1.
       -1   -1    0    0    0  501  0.00000000000E+00  0.00000000000E+00 -0.15535178041E+03  0.15535178049E+03  0.50400001928E-02 0. -1.
    10030    2    1    2    0    0  0.00000000000E+00  0.00000000000E+00  0.87710353601E+03  0.11878070969E+04  0.80098382419E+03 0.  0.
        1    1    3    3  502    0 -0.33790757931E+03 -0.91244459187E+02  0.72719773358E+03  0.80704623612E+03  0.50400001928E-02 0.  1.
       -1    1    3    3    0  502  0.33790757931E+03  0.91244459187E+02  0.14990580243E+03  0.38076086080E+03  0.50400001928E-02 0. -1.
</event>
<event>
 5   0  0.6536209E-03  0.7951841E+03  0.7818609E-02  0.9567014E-01
        2   -1    0    0  501    0  0.00000000000E+00  0.00000000000E+00  0.30656347692E+03  0.30656347693E+03  0.25500000920E-02 0. -1.
       -2   -1    0    0    0  501  0.00000000000E+00  0.00000000000E+00 -0.51564993289E+03  0.51564993290E+03  0.25500000920E-02 0.  1.
    10030    2    1    2    0    0  0.00000000000E+00  0.00000000000E+00 -0.20908645597E+03  0.82221340983E+03  0.79518409518E+03 0.  0.
        3    1    3    3  502    0  0.14434976793E+03  0.37038762159E+03 -0.96834590741E+02  0.40914642110E+03  0.10100000352E+00 0. -1.
       -3    1    3    3    0  502 -0.14434976793E+03 -0.37038762159E+03 -0.11225186523E+03  0.41306698873E+03  0.10100000352E+00 0.  1.
</event>
<event>
 5   0  0.6153659E-03  0.7938196E+03  0.7818609E-02  0.9569006E-01
        2   -1    0    0  501    0  0.00000000000E+00  0.00000000000E+00  0.56782532244E+03  0.56782532244E+03  0.25500000920E-02 0. -1.
       -2   -1    0    0    0  501  0.00000000000E+00  0.00000000000E+00 -0.27743985837E+03  0.27743985839E+03  0.25500000920E-02 0.  1.
    10030    2    1    2    0    0  0.00000000000E+00  0.00000000000E+00  0.29038546406E+03  0.84526518083E+03  0.79381956904E+03 0.  0.
        2    1    3    3  502    0 -0.38299777634E+03 -0.10371013496E+02  0.25555593938E+03  0.46054716670E+03  0.25500000920E-02 0. -1.
       -2    1    3    3    0  502  0.38299777634E+03  0.10371013496E+02  0.34829524684E+02  0.38471801413E+03  0.25500000920E-02 0.  1.
</event>
<event>
 5   0  0.3714448E-03  0.7456277E+03  0.7818609E-02  0.9642235E-01
        1   -1    0    0  501    0  0.00000000000E+00  0.00000000000E+00  0.25835118562E+03  0.25835118567E+03  0.50400001928E-02 0.  1.
       -1   -1    0    0    0  501  0.00000000000E+00  0.00000000000E+00 -0.53798928367E+03  0.53798928370E+03  0.50400001928E-02 0. -1.
    10030    2    1    2    0    0  0.00000000000E+00  0.00000000000E+00 -0.27963809805E+03  0.79634046936E+03  0.74562770688E+03 0.  0.
        1    1    3    3  502    0  0.17083862786E+03 -0.24248565294E+03  0.10138428031E+03  0.31347073383E+03  0.50400001928E-02 0.  1.
       -1    1    3    3    0  502 -0.17083862786E+03  0.24248565294E+03 -0.38102237837E+03  0.48286973553E+03  0.50400001928E-02 0. -1.
</event>
<event>
 5   0  0.5813850E-03  0.8008355E+03  0.7818609E-02  0.9558809E-01
        2   -1    0    0  501    0  0.00000000000E+00  0.00000000000E+00  0.78603127965E+03  0.78603127965E+03  0.25500000920E-02 0.  1.
       -2   -1    0    0    0  501  0.00000000000E+00  0.00000000000E+00 -0.20397964193E+03  0.20397964195E+03  0.25500000920E-02 0. -1.
    10030    2    1    2    0    0  0.00000000000E+00  0.00000000000E+00  0.58205163772E+03  0.99001092160E+03  0.80083551114E+03 0.  0.
        5    1    3    3  502    0  0.26727388653E+03 -0.27616735140E+03  0.15221309381E+03  0.41339406421E+03  0.46999998093E+01 0. -1.
       -5    1    3    3    0  502 -0.26727388653E+03  0.27616735140E+03  0.42983854391E+03  0.57661685739E+03  0.46999998093E+01 0.  1.
</event>
<event>
 5   0  0.6153659E-03  0.7980569E+03  0.7818609E-02  0.9562834E-01
        2   -1    0    0  501    0  0.00000000000E+00  0.00000000000E+00  0.14880241514E+04  0.14880241514E+04  0.25500000920E-02 0.  1.
       -2   -1    0    0    0  501  0.00000000000E+00  0.00000000000E+00 -0.10700345082E+03  0.10700345085E+03  0.25500000920E-02 0. -1.
    10030    2    1    2    0    0  0.00000000000E+00  0.00000000000E+00  0.13810207006E+04  0.15950276022E+04  0.79805693815E+03 0.  0.
        2    1    3    3  502    0  0.95546669803E+02 -0.27199152446E+02 -0.81892483175E+02  0.12874524772E+03  0.25500000920E-02 0. -1.
       -2    1    3    3    0  502 -0.95546669803E+02  0.27199152446E+02  0.14629131837E+04  0.14662823545E+04  0.25500000920E-02 0.  1.
</event>
<event>
 5   0  0.5813850E-03  0.8073775E+03  0.7818609E-02  0.9549400E-01
       -2   -1    0    0    0  501  0.00000000000E+00  0.00000000000E+00  0.10602497592E+03  0.10602497596E+03  0.25500000920E-02 0. -1.
        2   -1    0    0  501    0  0.00000000000E+00  0.00000000000E+00 -0.15370396600E+04  0.15370396600E+04  0.25500000920E-02 0.  1.
    10030    2    1    2    0    0  0.00000000000E+00  0.00000000000E+00 -0.14310146841E+04  0.16430646359E+04  0.80737746556E+03 0.  0.
        5    1    3    3  502    0  0.34329514114E+03  0.19646818688E+03 -0.87946833480E+03  0.96433290118E+03  0.46999998093E+01 0.  1.
       -5    1    3    3    0  502 -0.34329514114E+03 -0.19646818688E+03 -0.55154634926E+03  0.67873173476E+03  0.46999998093E+01 0. -1.
</event>
<event>
 5   0  0.3860515E-03  0.7956071E+03  0.7818609E-02  0.9566398E-01
        1   -1    0    0  501    0  0.00000000000E+00  0.00000000000E+00  0.35369656443E+03  0.35369656447E+03  0.50400001928E-02 0. -1.
       -1   -1    0    0    0  501  0.00000000000E+00  0.00000000000E+00 -0.44741079467E+03  0.44741079470E+03  0.50400001928E-02 0.  1.
    10030    2    1    2    0    0  0.00000000000E+00  0.00000000000E+00 -0.93714230242E+02  0.80110735917E+03  0.79560709145E+03 0.  0.
        4    1    3    3  502    0 -0.11426445011E+03  0.33292053314E+03 -0.23348572308E+03  0.42238565521E+03  0.12699999809E+01 0.  1.
       -4    1    3    3    0  502  0.11426445011E+03 -0.33292053314E+03  0.13977149283E+03  0.37872170396E+03  0.12699999809E+01 0. -1.
</event>
<event>
 5   0  0.6337108E-03  0.7940701E+03  0.7818609E-02  0.9568640E-01
       -2   -1    0    0    0  501  0.00000000000E+00  0.00000000000E+00  0.16445356792E+03  0.16445356794E+03  0.25500000920E-02 0. -1.
        2   -1    0    0  501    0  0.00000000000E+00  0.00000000000E+00 -0.95854910764E+03  0.95854910765E+03  0.25500000920E-02 0.  1.
    10030    2    1    2    0    0  0.00000000000E+00  0.00000000000E+00 -0.79409553972E+03  0.11230026756E+04  0.79407007446E+03 0.  0.
        4    1    3    3  502    0  0.35177186840E+03 -0.10733398599E+03 -0.18552049796E+03  0.41192657114E+03  0.12699999809E+01 0. -1.
       -4    1    3    3    0  502 -0.35177186840E+03  0.10733398599E+03 -0.60857504177E+03  0.71107610444E+03  0.12699999809E+01 0.  1.
</event>
<event>
 5   0  0.6536209E-03  0.8028499E+03  0.7818609E-02  0.9555901E-01
       -2   -1    0    0    0  501  0.00000000000E+00  0.00000000000E+00  0.58932065982E+03  0.58932065983E+03  0.25500000920E-02 0.  1.
        2   -1    0    0  501    0  0.00000000000E+00  0.00000000000E+00 -0.27343687825E+03  0.27343687826E+03  0.25500000920E-02 0. -1.
    10030    2    1    2    0    0  0.00000000000E+00  0.00000000000E+00  0.31588378158E+03  0.86275753809E+03  0.80284992749E+03 0.  0.
        3    1    3    3  502    0 -0.13302555222E+03  0.14423343595E+03  0.53427775933E+03  0.56916765184E+03  0.10100000352E+00 0.  1.
       -3    1    3    3    0  502  0.13302555222E+03 -0.14423343595E+03 -0.21839397775E+03  0.29358988625E+03  0.10100000352E+00 0. -1.
</event>
<event>
 5   0  0.5813850E-03  0.8025949E+03  0.7818609E-02  0.9556269E-01
       -2   -1    0    0    0  501  0.00000000000E+00  0.00000000000E+00  0.23337059180E+03  0.23337059181E+03  0.25500000920E-02 0. -1.
        2   -1    0    0  501    0  0.00000000000E+00  0.00000000000E+00 -0.69005974739E+03  0.69005974739E+03  0.25500000920E-02 0.  1.
    10030    2    1    2    0    0  0.00000000000E+00  0.00000000000E+00 -0.45668915559E+03  0.92343033921E+03  0.80259492058E+03 0.  0.
        5    1    3    3  502    0 -0.60869150605E+01  0.96674823982E+02  0.21968504442E+03  0.24013887829E+03  0.46999998093E+01 0. -1.
       -5    1    3    3    0  502  0.60869150605E+01 -0.96674823982E+02 -0.67637420001E+03  0.68329146092E+03  0.46999998093E+01 0.  1.
</event>
<event>
 5   0  0.6536209E-03  0.7928397E+03  0.7818609E-02  0.9570440E-01
        2   -1    0    0  501    0  0.00000000000E+00  0.00000000000E+00  0.70200404870E+03  0.70200404870E+03  0.25500000920E-02 0.  1.
       -2   -1    0    0    0  501  0.00000000000E+00  0.00000000000E+00 -0.22385722468E+03  0.22385722469E+03  0.25500000920E-02 0. -1.
    10030    2    1    2    0    0  0.00000000000E+00  0.00000000000E+00  0.47814682402E+03  0.92586127339E+03  0.79283965103E+03 0.  0.
        3    1    3    3  502    0  0.13996782920E+03  0.22432470269E+02 -0.19324839437E+03  0.23966468464E+03  0.10100000352E+00 0. -1.
       -3    1    3    3    0  502 -0.13996782920E+03 -0.22432470269E+02  0.67139521840E+03  0.68619658876E+03  0.10100000352E+00 0.  1.
</event>
<event>
 5   0  0.3627496E-03  0.8001019E+03  0.7818609E-02  0.9559870E-01
       -1   -1    0    0    0  501  0.00000000000E+00  0.00000000000E+00  0.67065916569E+03  0.67065916571E+03  0.50400001928E-02 0. -1.
        1   -1    0    0  501    0  0.00000000000E+00  0.00000000000E+00 -0.23863202599E+03  0.23863202604E+03  0.50400001928E-02 0.  1.
    10030    2    1    2    0    0  0.00000000000E+00  0.00000000000E+00  0.43202713970E+03  0.90929119175E+03  0.80010188223E+03 0.  0.
        3    1    3    3  502    0  0.93279486805E+02 -0.72256017178E+02 -0.21840728623E+03  0.24824130913E+03  0.10100000352E+00 0.  1.
       -3    1    3    3    0  502 -0.93279486805E+02  0.72256017178E+02  0.65043442593E+03  0.66104988262E+03  0.10100000352E+00 0. -1.
</event>
<event>
 5   0  0.3627496E-03  0.7950266E+03  0.7818609E-02  0.9567244E-01
       -1   -1    0    0    0  501  0.00000000000E+00  0.00000000000E+00  0.92521601028E+02  0.92521601166E+02  0.50400001928E-02 0. -1.
        1   -1    0    0  501    0  0.00000000000E+00  0.00000000000E+00 -0.17078911472E+04  0.17078911472E+04  0.50400001928E-02 0.  1.
    10030    2    1    2    0    0  0.00000000000E+00  0.00000000000E+00 -0.16153695462E+04  0.18004127484E+04  0.79502659944E+03 0.  0.
        3    1    3    3  502    0  0.24294066423E+02  0.18196346185E+03 -0.16061458996E+04  0.16166030942E+04  0.10100000352E+00 0.  1.
       -3    1    3    3    0  502 -0.24294066423E+02 -0.18196346185E+03 -0.92236465568E+01  0.18380965418E+03  0.10100000352E+00 0. -1.
</event>
<event>
 5   0  0.6337108E-03  0.8112627E+03  0.7818609E-02  0.9543856E-01
        2   -1    0    0  501    0  0.00000000000E+00  0.00000000000E+00  0.39242745083E+03  0.39242745084E+03  0.25500000920E-02 0. -1.
       -2   -1    0    0    0  501  0.00000000000E+00  0.00000000000E+00 -0.41927949688E+03  0.41927949689E+03  0.25500000920E-02 0.  1.
    10030    2    1    2    0    0  0.00000000000E+00  0.00000000000E+00 -0.26852046048E+02  0.81170694773E+03  0.81126268040E+03 0.  0.
        4    1    3    3  502    0 -0.12572682170E+03 -0.11477464309E+03 -0.38180521039E+03  0.41803981147E+03  0.12699999809E+01 0.  1.
       -4    1    3    3    0  502  0.12572682170E+03  0.11477464309E+03  0.35495316434E+03  0.39366713626E+03  0.12699999809E+01 0. -1.
</event>
<event>
 5   0  0.3753450E-03  0.7968271E+03  0.7818609E-02  0.9564621E-01
        1   -1    0    0  501    0  0.00000000000E+00  0.00000000000E+00  0.25985073044E+03  0.25985073049E+03  0.50400001928E-02 0.  1.
       -1   -1    0    0    0  501  0.00000000000E+00  0.00000000000E+00 -0.61086368963E+03  0.61086368965E+03  0.50400001928E-02 0. -1.
    10030    2    1    2    0    0  0.00000000000E+00  0.00000000000E+00 -0.35101295919E+03  0.87071442014E+03  0.79682714808E+03 0.  0.
        5    1    3    3  502    0  0.16009478473E+03 -0.15233067663E+03  0.18670620028E+03  0.28933764076E+03  0.46999998093E+01 0.  1.
       -5    1    3    3    0  502 -0.16009478473E+03  0.15233067663E+03 -0.53771915947E+03  0.58137677938E+03  0.46999998093E+01 0. -1.
</event>
<event>
 5   0  0.3753450E-03  0.7942359E+03  0.7818609E-02  0.9568398E-01
       -1   -1    0    0    0  501  0.00000000000E+00  0.00000000000E+00  0.18578861834E+03  0.18578861841E+03  0.50400001928E-02 0.  1.
        1   -1    0    0  501    0  0.00000000000E+00  0.00000000000E+00 -0.84882845822E+03  0.84882845824E+03  0.50400001928E-02 0. -1.
    10030    2    1    2    0    0  0.00000000000E+00  0.00000000000E+00 -0.66303983988E+03  0.10346170767E+04  0.79423590074E+03 0.  0.
        5    1    3    3  502    0 -0.16657961391E+03 -0.11745223872E+03 -0.77545045600E+03  0.80180377641E+03  0.46999998093E+01 0. -1.
       -5    1    3    3    0  502  0.16657961391E+03  0.11745223872E+03  0.11241061613E+03  0.23281330024E+03  0.46999998093E+01 0.  1.
</event>
<event>
 5   0  0.3627496E-03  0.7972457E+03  0.7818609E-02  0.9564012E-01
       -1   -1    0    0    0  501  0.00000000000E+00  0.00000000000E+00  0.13403347056E+03  0.13403347065E+03  0.50400001928E-02 0. -1.
        1   -1    0    0  501    0  0.00000000000E+00  0.00000000000E+00 -0.11855259927E+04  0.11855259927E+04  0.50400001928E-02 0.  1.
    10030    2    1    2    0    0  0.00000000000E+00  0.00000000000E+00 -0.10514925222E+04  0.13195594634E+04  0.79724566680E+03 0.  0.
        3    1    3    3  502    0  0.34589467865E+03 -0.35886997790E+02 -0.20322954958E+03  0.40278190792E+03  0.10100000352E+00 0. -1.
       -3    1    3    3    0  502 -0.34589467865E+03  0.35886997790E+02 -0.84826297259E+03  0.91677755546E+03  0.10100000352E+00 0.  1.
</event>
<event>
 5   0  0.3753450E-03  0.8022346E+03  0.7818609E-02  0.9556788E-01
       -1   -1    0    0    0  501  0.00000000000E+00  0.00000000000E+00  0.34390783369E+03  0.34390783373E+03  0.50400001928E-02 0.  1.
        1   -1    0    0  501    0  0.00000000000E+00  0.00000000000E+00 -0.46784367338E+03  0.46784367341E+03  0.50400001928E-02 0. -1.
    10030    2    1    2    0    0  0.00000000000E+00  0.00000000000E+00 -0.12393583970E+03  0.81175150714E+03  0.80223463960E+03 0.  0.
        5    1    3    3  502    0 -0.16142523292E+03 -0.34762006773E+03 -0.18158705593E+03  0.42413885249E+03  0.46999998093E+01 0.  1.
       -5    1    3    3    0  502  0.16142523292E+03  0.34762006773E+03  0.57651216237E+02  0.38761265465E+03  0.46999998093E+01 0. -1.
</event>
<event>
 5   0  0.3714448E-03  0.7996242E+03  0.7818609E-02  0.9560561E-01
        1   -1    0    0  501    0  0.00000000000E+00  0.00000000000E+00  0.80050188997E+03  0.80050188999E+03  0.50400001928E-02 0. -1.
       -1   -1    0    0    0  501  0.00000000000E+00  0.00000000000E+00 -0.19968686743E+03  0.19968686750E+03  0.50400001928E-02 0.  1.
    10030    2    1    2    0    0  0.00000000000E+00  0.00000000000E+00  0.60081502254E+03  0.10001887575E+04  0.79962419879E+03 0.  0.
        1    1    3    3  502    0  0.25093394524E+03 -0.75832619720E+02 -0.77190574518E+02  0.27327059101E+03  0.50400001928E-02 0.  1.
       -1    1    3    3    0  502 -0.25093394524E+03  0.75832619720E+02  0.67800559706E+03  0.72691816648E+03  0.50400001928E-02 0. -1.
</event>
<event>
 5   0  0.6256781E-03  0.7825635E+03  0.7818609E-02  0.9585604E-01
       -2   -1    0    0    0  501  0.00000000000E+00  0.00000000000E+00  0.15069552940E+03  0.15069552942E+03  0.25500000920E-02 0. -1.
        2   -1    0    0  501    0  0.00000000000E+00  0.00000000000E+00 -0.10159650410E+04  0.10159650411E+04  0.25500000920E-02 0.  1.
    10030    2    1    2    0    0  0.00000000000E+00  0.00000000000E+00 -0.86526951165E+03  0.11666605705E+04  0.78256345360E+03 0.  0.
        1    1    3    3  502    0 -0.30961759181E+03  0.40989322698E+02 -0.81236915190E+02  0.32271134803E+03  0.50400001928E-02 0. -1.
       -1    1    3    3    0  502  0.30961759181E+03 -0.40989322698E+02 -0.78403259646E+03  0.84394922245E+03  0.50400001928E-02 0.  1.
</event>
<event>
 5   0  0.3671128E-03  0.8143920E+03  0.7818609E-02  0.9539416E-01
        1   -1    0    0  501    0  0.00000000000E+00  0.00000000000E+00  0.18750084423E+03  0.18750084430E+03  0.50400001928E-02 0. -1.
       -1   -1    0    0    0  501  0.00000000000E+00  0.00000000000E+00 -0.88430842477E+03  0.88430842479E+03  0.50400001928E-02 0.  1.
    10030    2    1    2    0    0  0.00000000000E+00  0.00000000000E+00 -0.69680758054E+03  0.10718092691E+04  0.81439198486E+03 0.  0.
        2    1    3    3  502    0  0.28720216127E+03 -0.28789181635E+03 -0.37606653968E+03  0.55388881703E+03  0.25500000920E-02 0. -1.
       -2    1    3    3    0  502 -0.28720216127E+03  0.28789181635E+03 -0.32074104086E+03  0.51792045206E+03  0.25500000920E-02 0.  1.
</event>
<event>
 5   0  0.3627496E-03  0.7971688E+03  0.7818609E-02  0.9564124E-01
       -1   -1    0    0    0  501  0.00000000000E+00  0.00000000000E+00  0.41635141435E+03  0.41635141438E+03  0.50400001928E-02 0.  1.
        1   -1    0    0  501    0  0.00000000000E+00  0.00000000000E+00 -0.38157555858E+03  0.38157555861E+03  0.50400001928E-02 0. -1.
    10030    2    1    2    0    0  0.00000000000E+00  0.00000000000E+00  0.34775855765E+02  0.79792697299E+03  0.79716879899E+03 0.  0.
        3    1    3    3  502    0 -0.23623534350E+03  0.23023237390E+03 -0.20655556692E+03  0.38920341203E+03  0.10100000352E+00 0. -1.
       -3    1    3    3    0  502  0.23623534350E+03 -0.23023237390E+03  0.24133142269E+03  0.40872356096E+03  0.10100000352E+00 0.  1.
</event>
<event>
 5   0  0.3671128E-03  0.8308387E+03  0.7818609E-02  0.9516422E-01
       -1   -1    0    0    0  501  0.00000000000E+00  0.00000000000E+00  0.77723302922E+02  0.77723303085E+02  0.50400001928E-02 0.  1.
        1   -1    0    0  501    0  0.00000000000E+00  0.00000000000E+00 -0.22203538633E+04  0.22203538633E+04  0.50400001928E-02 0. -1.
    10030    2    1    2    0    0  0.00000000000E+00  0.00000000000E+00 -0.21426305604E+04  0.22980771664E+04  0.83083869940E+03 0.  0.
        2    1    3    3  502    0  0.17840378813E+03 -0.36124592743E+03 -0.79132690895E+03  0.88798919393E+03  0.25500000920E-02 0.  1.
       -2    1    3    3    0  502 -0.17840378813E+03  0.36124592743E+03 -0.13513036514E+04  0.14100879724E+04  0.25500000920E-02 0. -1.
</event>
<event>
 5   0  0.3627496E-03  0.8004805E+03  0.7818609E-02  0.9559322E-01
       -1   -1    0    0    0  501  0.00000000000E+00  0.00000000000E+00  0.15208519618E+03  0.15208519627E+03  0.50400001928E-02 0. -1.
        1   -1    0    0  501    0  0.00000000000E+00  0.00000000000E+00 -0.10533061711E+04  0.10533061711E+04  0.50400001928E-02 0.  1.
    10030    2    1    2    0    0  0.00000000000E+00  0.00000000000E+00 -0.90122097493E+03  0.12053913674E+04  0.80048054500E+03 0.  0.
        3    1    3    3  502    0  0.37906697597E+02  0.12853073226E+03  0.11730124063E+03  0.17809171264E+03  0.10100000352E+00 0. -1.
       -3    1    3    3    0  502 -0.37906697597E+02 -0.12853073226E+03 -0.10185222156E+04  0.10272996547E+04  0.10100000352E+00 0.  1.
</event>
<event>
 5   0  0.5813850E-03  0.8059339E+03  0.7818609E-02  0.9551468E-01
        2   -1    0    0  501    0  0.00000000000E+00  0.00000000000E+00  0.13304883838E+04  0.13304883838E+04  0.25500000920E-02 0. -1.
       -2   -1    0    0    0  501  0.00000000000E+00  0.00000000000E+00 -0.12204717241E+03  0.12204717244E+03  0.25500000920E-02 0.  1.
    10030    2    1    2    0    0  0.00000000000E+00  0.00000000000E+00  0.12084412114E+04  0.14525355563E+04  0.80593385632E+03 0.  0.
        5    1    3    3  502    0  0.39203281908E+02  0.38292320845E+03  0.38950325494E+03  0.54763304912E+03  0.46999998093E+01 0.  1.
       -5    1    3    3    0  502 -0.39203281908E+02 -0.38292320845E+03  0.81893795648E+03  0.90490250715E+03  0.46999998093E+01 0. -1.
</event>
<event>
 5   0  0.6256781E-03  0.7970362E+03  0.7818609E-02  0.9564317E-01
       -2   -1    0    0    0  501  0.00000000000E+00  0.00000000000E+00  0.12699110181E+03  0.12699110184E+03  0.25500000920E-02 0. -1.
        2   -1    0    0  501    0  0.00000000000E+00  0.00000000000E+00 -0.12506126918E+04  0.12506126918E+04  0.25500000920E-02 0.  1.
    10030    2    1    2    0    0  0.00000000000E+00  0.00000000000E+00 -0.11236215899E+04  0.13776037936E+04  0.79703621922E+03 0.  0.
        1    1    3    3  502    0 -0.13572473488E+03 -0.14912019312E+03 -0.11559374394E+04  0.11733922616E+04  0.50400001928E-02 0.  1.
       -1    1    3    3    0  502  0.13572473488E+03  0.14912019312E+03  0.32315849480E+02  0.20421153201E+03  0.50400001928E-02 0. -1.
</event>
<event>
 5   0  0.3714448E-03  0.8001288E+03  0.7818609E-02  0.9559831E-01
       -1   -1    0    0    0  501  0.00000000000E+00  0.00000000000E+00  0.17305862153E+03  0.17305862160E+03  0.50400001928E-02 0. -1.
        1   -1    0    0  501    0  0.00000000000E+00  0.00000000000E+00 -0.92484002644E+03  0.92484002645E+03  0.50400001928E-02 0.  1.
    10030    2    1    2    0    0  0.00000000000E+00  0.00000000000E+00 -0.75178140491E+03  0.10978986481E+04  0.80012884002E+03 0.  0.
        1    1    3    3  502    0  0.18744981898E+03 -0.10110112470E+03 -0.84058800733E+03  0.86714881661E+03  0.50400001928E-02 0.  1.
       -1    1    3    3    0  502 -0.18744981898E+03  0.10110112470E+03  0.88806602417E+02  0.23074983145E+03  0.50400001928E-02 0. -1.
</event>
<event>
 5   0  0.6153659E-03  0.7592146E+03  0.7818609E-02  0.9621004E-01
        2   -1    0    0  501    0  0.00000000000E+00  0.00000000000E+00  0.55709885891E+03  0.55709885891E+03  0.25500000920E-02 0.  1.
       -2   -1    0    0    0  501  0.00000000000E+00  0.00000000000E+00 -0.25866450869E+03  0.25866450870E+03  0.25500000920E-02 0. -1.
    10030    2    1    2    0    0  0.00000000000E+00  0.00000000000E+00  0.29843435022E+03  0.81576336762E+03  0.75921460112E+03 0.  0.
        2    1    3    3  502    0 -0.79012988408E+02 -0.37129235031E+03  0.14835698698E+03  0.40756699735E+03  0.25500000920E-02 0.  1.
       -2    1    3    3    0  502  0.79012988408E+02  0.37129235031E+03  0.15007736323E+03  0.40819637027E+03  0.25500000920E-02 0. -1.
</event>
<event>
 5   0  0.5813850E-03  0.8157569E+03  0.7818609E-02  0.9537486E-01
       -2   -1    0    0    0  501  0.00000000000E+00  0.00000000000E+00  0.16323819898E+03  0.16323819900E+03  0.25500000920E-02 0.  1.
        2   -1    0    0  501    0  0.00000000000E+00  0.00000000000E+00 -0.10191538128E+04  0.10191538128E+04  0.25500000920E-02 0. -1.
    10030    2    1    2    0    0  0.00000000000E+00  0.00000000000E+00 -0.85591561385E+03  0.11823920118E+04  0.81575690719E+03 0.  0.
        5    1    3    3  502    0  0.21333232012E+03  0.10344383217E+03 -0.90897032810E+03  0.93939366221E+03  0.46999998093E+01 0. -1.
       -5    1    3    3    0  502 -0.21333232012E+03 -0.10344383217E+03  0.53054714249E+02  0.24299834964E+03  0.46999998093E+01 0.  1.
</event>
<event>
 5   0  0.3671128E-03  0.7986809E+03  0.7818609E-02  0.9561928E-01
       -1   -1    0    0    0  501  0.00000000000E+00  0.00000000000E+00  0.16032079542E+04  0.16032079542E+04  0.50400001928E-02 0.  1.
        1   -1    0    0  501    0  0.00000000000E+00  0.00000000000E+00 -0.99471057481E+02  0.99471057608E+02  0.50400001928E-02 0. -1.
    10030    2    1    2    0    0  0.00000000000E+00  0.00000000000E+00  0.15037368968E+04  0.17026790119E+04  0.79868088918E+03 0.  0.
        2    1    3    3  502    0 -0.74132610672E+02  0.44504117072E+01  0.15883564004E+04  0.15900916656E+04  0.25500000920E-02 0.  1.
       -2    1    3    3    0  502  0.74132610672E+02 -0.44504117072E+01 -0.84619503685E+02  0.11258734627E+03  0.25500000920E-02 0. -1.
</event>
<event>
 5   0  0.6153659E-03  0.8004727E+03  0.7818609E-02  0.9559333E-01
        2   -1    0    0  501    0  0.00000000000E+00  0.00000000000E+00  0.12280160882E+04  0.12280160882E+04  0.25500000920E-02 0.  1.
       -2   -1    0    0    0  501  0.00000000000E+00  0.00000000000E+00 -0.13044545905E+03  0.13044545907E+03  0.25500000920E-02 0. -1.
    10030    2    1    2    0    0  0.00000000000E+00  0.00000000000E+00  0.10975706291E+04  0.13584615472E+04  0.80047266626E+03 0.  0.
        2    1    3    3  502    0 -0.17663147854E+03  0.31668008060E+03  0.83630880863E+03  0.91153572396E+03  0.25500000920E-02 0.  1.
       -2    1    3    3    0  502  0.17663147854E+03 -0.31668008060E+03  0.26126182049E+03  0.44692582328E+03  0.25500000920E-02 0. -1.
</event>
<event>
 5   0  0.6536209E-03  0.8047747E+03  0.7818609E-02  0.9553132E-01
       -2   -1    0    0    0  501  0.00000000000E+00  0.00000000000E+00  0.56151705539E+03  0.56151705540E+03  0.25500000920E-02 0. -1.
        2   -1    0    0  501    0  0.00000000000E+00  0.00000000000E+00 -0.28835381999E+03  0.28835382000E+03  0.25500000920E-02 0.  1.
    10030    2    1    2    0    0  0.00000000000E+00  0.00000000000E+00  0.27316323540E+03  0.84987087540E+03  0.80477472107E+03 0.  0.
        3    1    3    3  502    0  0.27511931663E+03 -0.64246164685E+02  0.43916372396E+03  0.52219057317E+03  0.10100000352E+00 0. -1.
       -3    1    3    3    0  502 -0.27511931663E+03  0.64246164685E+02 -0.16600048856E+03  0.32768030223E+03  0.10100000352E+00 0.  1.
</event>
<event>
 5   0  0.3753450E-03  0.7945488E+03  0.7818609E-02  0.9567941E-01
       -1   -1    0    0    0  501  0.00000000000E+00  0.00000000000E+00  0.11064281367E+03  0.11064281378E+03  0.50400001928E-02 0. -1.
        1   -1    0    0  501    0  0.00000000000E+00  0.00000000000E+00 -0.14264544266E+04  0.14264544266E+04  0.50400001928E-02 0.  1.
    10030    2    1    2    0    0  0.00000000000E+00  0.00000000000E+00 -0.13158116130E+04  0.15370972404E+04  0.79454875603E+03 0.  0.
        5    1    3    3  502    0 -0.93670273632E+02  0.17028053993E+03  0.12341701214E+02  0.19479217137E+03  0.46999998093E+01 0. -1.
       -5    1    3    3    0  502  0.93670273632E+02 -0.17028053993E+03 -0.13281533142E+04  0.13423050691E+04  0.46999998093E+01 0.  1.
</event>
<event>
 5   0  0.3627496E-03  0.7940667E+03  0.7818609E-02  0.9568645E-01
        1   -1    0    0  501    0  0.00000000000E+00  0.00000000000E+00  0.39479913497E+03  0.39479913500E+03  0.50400001928E-02 0.  1.
       -1   -1    0    0    0  501  0.00000000000E+00  0.00000000000E+00 -0.39928018405E+03  0.39928018408E+03  0.50400001928E-02 0. -1.
    10030    2    1    2    0    0  0.00000000000E+00  0.00000000000E+00 -0.44810490781E+01  0.79407931908E+03  0.79406667554E+03 0.  0.
        3    1    3    3  502    0  0.12470200750E+03 -0.32969951674E+03 -0.18495385789E+03  0.39807072457E+03  0.10100000352E+00 0. -1.
       -3    1    3    3    0  502 -0.12470200750E+03  0.32969951674E+03  0.18047280881E+03  0.39600859452E+03  0.10100000352E+00 0.  1.
</event>
<event>
 5   0  0.6256781E-03  0.7986914E+03  0.7818609E-02  0.9561913E-01
       -2   -1    0    0    0  501  0.00000000000E+00  0.00000000000E+00  0.44341643139E+03  0.44341643140E+03  0.25500000920E-02 0. -1.
        2   -1    0    0  501    0  0.00000000000E+00  0.00000000000E+00 -0.35965511585E+03  0.35965511586E+03  0.25500000920E-02 0.  1.
    10030    2    1    2    0    0  0.00000000000E+00  0.00000000000E+00  0.83761315543E+02  0.80307154726E+03  0.79869139975E+03 0.  0.
        1    1    3    3  502    0 -0.12855290791E+03  0.19511517249E+03  0.36751040354E+03  0.43549934260E+03  0.50400001928E-02 0. -1.
       -1    1    3    3    0  502  0.12855290791E+03 -0.19511517249E+03 -0.28374908800E+03  0.36757220466E+03  0.50400001928E-02 0.  1.
</event>
<event>
 5   0  0.3860515E-03  0.8022945E+03  0.7818609E-02  0.9556702E-01
       -1   -1    0    0    0  501  0.00000000000E+00  0.00000000000E+00  0.60251250605E+03  0.60251250608E+03  0.50400001928E-02 0.  1.
        1   -1    0    0  501    0  0.00000000000E+00  0.00000000000E+00 -0.26708010888E+03  0.26708010893E+03  0.50400001928E-02 0. -1.
    10030    2    1    2    0    0  0.00000000000E+00  0.00000000000E+00  0.33543239717E+03  0.86959261501E+03  0.80229447399E+03 0.  0.
        4    1    3    3  502    0 -0.25264574548E+03  0.11570493734E+03 -0.14586118983E+03  0.31383850120E+03  0.12699999809E+01 0. -1.
       -4    1    3    3    0  502  0.25264574548E+03 -0.11570493734E+03  0.48129358700E+03  0.55575411381E+03  0.12699999809E+01 0.  1.
</event>
<event>
 5   0  0.3671128E-03  0.8008997E+03  0.7818609E-02  0.9558716E-01
        1   -1    0    0  501    0  0.00000000000E+00  0.00000000000E+00  0.28721526635E+03  0.28721526639E+03  0.50400001928E-02 0.  1.
       -1   -1    0    0    0  501  0.00000000000E+00  0.00000000000E+00 -0.55832721822E+03  0.55832721824E+03  0.50400001928E-02 0. -1.
    10030    2    1    2    0    0  0.00000000000E+00  0.00000000000E+00 -0.27111195187E+03  0.84554248463E+03  0.80089974583E+03 0.  0.
        2    1    3    3  502    0 -0.80412045807E+02  0.48390242132E+02  0.27544104126E+03  0.29099051507E+03  0.25500000920E-02 0.  1.
       -2    1    3    3    0  502  0.80412045807E+02 -0.48390242132E+02 -0.54655299313E+03  0.55455196956E+03  0.25500000920E-02 0. -1.
</event>
<event>
 5   0  0.6337108E-03  0.7973303E+03  0.7818609E-02  0.9563889E-01
       -2   -1    0    0    0  501  0.00000000000E+00  0.00000000000E+00  0.79415881399E+02  0.79415881440E+02  0.25500000920E-02 0. -1.
        2   -1    0    0  501    0  0.00000000000E+00  0.00000000000E+00 -0.20012861439E+04  0.20012861439E+04  0.25500000920E-02 0.  1.
    10030    2    1    2    0    0  0.00000000000E+00  0.00000000000E+00 -0.19218702625E+04  0.20807020253E+04  0.79733030317E+03 0.  0.
        4    1    3    3  502    0 -0.37405924280E+02  0.26853491294E+03 -0.17236403360E+04  0.17448346120E+04  0.12699999809E+01 0.  1.
       -4    1    3    3    0  502  0.37405924280E+02 -0.26853491294E+03 -0.19822992647E+03  0.33586741326E+03  0.12699999809E+01 0. -1.
</event>
<event>
 5   0  0.6153659E-03  0.7989618E+03  0.7818609E-02  0.9561521E-01
        2   -1    0    0  501    0  0.00000000000E+00  0.00000000000E+00  0.10083607746E+04  0.10083607746E+04  0.25500000920E-02 0. -1.
       -2   -1    0    0    0  501  0.00000000000E+00  0.00000000000E+00 -0.15826180374E+03  0.15826180376E+03  0.25500000920E-02 0.  1.
    10030    2    1    2    0    0  0.00000000000E+00  0.00000000000E+00  0.85009897082E+03  0.11666225783E+04  0.79896181389E+03 0.  0.
        2    1    3    3  502    0  0.38573983164E+03 -0.93962353181E+02  0.36039079175E+03  0.53619554671E+03  0.25500000920E-02 0.  1.
       -2    1    3    3    0  502 -0.38573983164E+03  0.93962353181E+02  0.48970817907E+03  0.63042703161E+03  0.25500000920E-02 0. -1.
</event>
<event>
 5   0  0.6536209E-03  0.7999580E+03  0.7818609E-02  0.9560078E-01
        2   -1    0    0  501    0  0.00000000000E+00  0.00000000000E+00  0.90756084321E+03  0.90756084321E+03  0.25500000920E-02 0. -1.
       -2   -1    0    0    0  501  0.00000000000E+00  0.00000000000E+00 -0.17627821459E+03  0.17627821461E+03  0.25500000920E-02 0.  1.
    10030    2    1    2    0    0  0.00000000000E+00  0.00000000000E+00  0.73128262862E+03  0.10838390578E+04  0.79995801161E+03 0.  0.
        3    1    3    3  502    0 -0.27253048349E+02  0.48152305961E+02  0.90235080589E+03  0.90404555212E+03  0.10100000352E+00 0. -1.
       -3    1    3    3    0  502  0.27253048349E+02 -0.48152305961E+02 -0.17106817728E+03  0.17979350570E+03  0.10100000352E+00 0.  1.
</event>
<event>
 5   0  0.2478000E-03  0.7984740E+03  0.7818609E-02  0.9562228E-01
        4   -1    0    0  501    0  0.00000000000E+00  0.00000000000E+00  0.10816043705E+04  0.10816051161E+04  0.12699999809E+01 0. -1.
       -4   -1    0    0    0  501  0.00000000000E+00  0.00000000000E+00 -0.14736107010E+03  0.14736654261E+03  0.12699999809E+01 0.  1.
    10030    2    1    2    0    0  0.00000000000E+00  0.00000000000E+00  0.93424330044E+03  0.12289716588E+04  0.79847404066E+03 0.  0.
        2    1    3    3  502    0  0.24041144220E+03 -0.25628724380E+03  0.75878714493E+03  0.83620496542E+03  0.25500000920E-02 0. -1.
       -2    1    3    3    0  502 -0.24041144220E+03  0.25628724380E+03  0.17545615551E+03  0.39276669333E+03  0.25500000920E-02 0.  1.
</event>
<event>
 5   0  0.6337108E-03  0.8006076E+03  0.7818609E-02  0.9559138E-01
        2   -1    0    0  501    0  0.00000000000E+00  0.00000000000E+00  0.13771833383E+04  0.13771833383E+04  0.25500000920E-02 0.  1.
       -2   -1    0    0    0  501  0.00000000000E+00  0.00000000000E+00 -0.11635570793E+03  0.11635570796E+03  0.25500000920E-02 0. -1.
    10030    2    1    2    0    0  0.00000000000E+00  0.00000000000E+00  0.12608276304E+04  0.14935390463E+04  0.80060762499E+03 0.  0.
        4    1    3    3  502    0 -0.29832539903E+03  0.21791302923E+02  0.13414471248E+03  0.32782513841E+03  0.12699999809E+01 0. -1.
       -4    1    3    3    0  502  0.29832539903E+03 -0.21791302923E+02  0.11266829179E+04  0.11657139079E+04  0.12699999809E+01 0.  1.
</event>
<event>
 5   0  0.6536209E-03  0.7945864E+03  0.7818609E-02  0.9567886E-01
       -2   -1    0    0    0  501  0.00000000000E+00  0.00000000000E+00  0.25355851670E+03  0.25355851672E+03  0.25500000920E-02 0.  1.
        2   -1    0    0  501    0  0.00000000000E+00  0.00000000000E+00 -0.62250673101E+03  0.62250673102E+03  0.25500000920E-02 0. -1.
    10030    2    1    2    0    0  0.00000000000E+00  0.00000000000E+00 -0.36894821431E+03  0.87606524774E+03  0.79458639143E+03 0.  0.
        3    1    3    3  502    0  0.17388624637E+03  0.14404497927E+03  0.17593502203E+03  0.28624906097E+03  0.10100000352E+00 0.  1.
       -3    1    3    3    0  502 -0.17388624637E+03 -0.14404497927E+03 -0.54488323634E+03  0.58981618677E+03  0.10100000352E+00 0. -1.
</event>
<event>
 5   0  0.3627496E-03  0.8009827E+03  0.7818609E-02  0.9558596E-01
       -1   -1    0    0    0  501  0.00000000000E+00  0.00000000000E+00  0.19845869613E+03  0.19845869620E+03  0.50400001928E-02 0. -1.
        1   -1    0    0  501    0  0.00000000000E+00  0.00000000000E+00 -0.80819498314E+03  0.80819498315E+03  0.50400001928E-02 0.  1.
    10030    2    1    2    0    0  0.00000000000E+00  0.00000000000E+00 -0.60973628700E+03  0.10066536794E+04  0.80098270297E+03 0.  0.
        3    1    3    3  502    0 -0.31790146485E+02  0.39074057545E+03 -0.40777402571E+03  0.56565756157E+03  0.10100000352E+00 0.  1.
       -3    1    3    3    0  502  0.31790146485E+02 -0.39074057545E+03 -0.20196226130E+03  0.44099611779E+03  0.10100000352E+00 0. -1.
</event>
<event>
 5   0  0.6536209E-03  0.8017055E+03  0.7818609E-02  0.9557552E-01
        2   -1    0    0  501    0  0.00000000000E+00  0.00000000000E+00  0.98963003237E+03  0.98963003238E+03  0.25500000920E-02 0.  1.
       -2   -1    0    0    0  501  0.00000000000E+00  0.00000000000E+00 -0.16236668230E+03  0.16236668232E+03  0.25500000920E-02 0. -1.
    10030    2    1    2    0    0  0.00000000000E+00  0.00000000000E+00  0.82726335007E+03  0.11519967147E+04  0.80170554464E+03 0.  0.
        3    1    3    3  502    0 -0.23683472519E+03  0.12038489577E+03  0.84495017416E+03  0.88573360397E+03  0.10100000352E+00 0.  1.
       -3    1    3    3    0  502  0.23683472519E+03 -0.12038489577E+03 -0.17686824087E+02  0.26626311073E+03  0.10100000352E+00 0. -1.
</event>
<event>
 5   0  0.3671128E-03  0.7999246E+03  0.7818609E-02  0.9560126E-01
        1   -1    0    0  501    0  0.00000000000E+00  0.00000000000E+00  0.13138100537E+04  0.13138100537E+04  0.50400001928E-02 0. -1.
       -1   -1    0    0    0  501  0.00000000000E+00  0.00000000000E+00 -0.12176025536E+03  0.12176025546E+03  0.50400001928E-02 0.  1.
    10030    2    1    2    0    0  0.00000000000E+00  0.00000000000E+00  0.11920497983E+04  0.14355703091E+04  0.79992461572E+03 0.  0.
        2    1    3    3  502    0 -0.64204966630E+02 -0.36769931861E+02 -0.10937173400E+03  0.13204727121E+03  0.25500000920E-02 0.  1.
       -2    1    3    3    0  502  0.64204966630E+02  0.36769931861E+02  0.13014215323E+04  0.13035230379E+04  0.25500000920E-02 0. -1.
</event>
<event>
 5   0  0.3714448E-03  0.7996554E+03  0.7818609E-02  0.9560516E-01
       -1   -1    0    0    0  501  0.00000000000E+00  0.00000000000E+00  0.35216515707E+03  0.35216515710E+03  0.50400001928E-02 0.  1.
        1   -1    0    0  501    0  0.00000000000E+00  0.00000000000E+00 -0.45394092003E+03  0.45394092005E+03  0.50400001928E-02 0. -1.
    10030    2    1    2    0    0  0.00000000000E+00  0.00000000000E+00 -0.10177576296E+03  0.80610607716E+03  0.79965536433E+03 0.  0.
        1    1    3    3  502    0 -0.16022563863E+03  0.36332067311E+03 -0.98041372821E+02  0.40900645177E+03  0.50400001928E-02 0. -1.
       -1    1    3    3    0  502  0.16022563863E+03 -0.36332067311E+03 -0.37343901389E+01  0.39709962538E+03  0.50400001928E-02 0.  1.
</event>
<event>
 5   0  0.6337108E-03  0.8144344E+03  0.7818609E-02  0.9539356E-01
        2   -1    0    0  501    0  0.00000000000E+00  0.00000000000E+00  0.53490623338E+03  0.53490623338E+03  0.25500000920E-02 0.  1.
       -2   -1    0    0    0  501  0.00000000000E+00  0.00000000000E+00 -0.31000916596E+03  0.31000916597E+03  0.25500000920E-02 0. -1.
    10030    2    1    2    0    0  0.00000000000E+00  0.00000000000E+00  0.22489706742E+03  0.84491539935E+03  0.81443436883E+03 0.  0.
        4    1    3    3  502    0 -0.56830548014E+02  0.34698246059E+03  0.32555735991E+03  0.47918237305E+03  0.12699999809E+01 0.  1.
       -4    1    3    3    0  502  0.56830548014E+02 -0.34698246059E+03 -0.10066029249E+03  0.36573302631E+03  0.12699999809E+01 0. -1.
</event>
<event>
 5   0  0.6337108E-03  0.7997512E+03  0.7818609E-02  0.9560377E-01
        2   -1    0    0  501    0  0.00000000000E+00  0.00000000000E+00  0.61321931312E+03  0.61321931312E+03  0.25500000920E-02 0. -1.
       -2   -1    0    0    0  501  0.00000000000E+00  0.00000000000E+00 -0.26075582010E+03  0.26075582011E+03  0.25500000920E-02 0.  1.
    10030    2    1    2    0    0  0.00000000000E+00  0.00000000000E+00  0.35246349302E+03  0.87397513324E+03  0.79975122357E+03 0.  0.
        4    1    3    3  502    0  0.14736115116E+03 -0.34550840450E+03  0.26363373325E+02  0.37654748280E+03  0.12699999809E+01 0.  1.
       -4    1    3    3    0  502 -0.14736115116E+03  0.34550840450E+03  0.32610011969E+03  0.49742765043E+03  0.12699999809E+01 0. -1.
</event>
<event>
 5   0  0.6337108E-03  0.7992822E+03  0.7818609E-02  0.9561057E-01
       -2   -1    0    0    0  501  0.00000000000E+00  0.00000000000E+00  0.32722954872E+03  0.32722954873E+03  0.25500000920E-02 0. -1.
        2   -1    0    0  501    0  0.00000000000E+00  0.00000000000E+00 -0.48807635602E+03  0.48807635602E+03  0.25500000920E-02 0.  1.
    10030    2    1    2    0    0  0.00000000000E+00  0.00000000000E+00 -0.16084680730E+03  0.81530590475E+03  0.79928219228E+03 0.  0.
        4    1    3    3  502    0 -0.35243914552E+03 -0.17651066130E+03 -0.14763848975E+03  0.42091341319E+03  0.12699999809E+01 0.  1.
       -4    1    3    3    0  502  0.35243914552E+03  0.17651066130E+03 -0.13208317549E+02  0.39439249156E+03  0.12699999809E+01 0. -1.
</event>
<event>
 5   0  0.2478000E-03  0.7988879E+03  0.7818609E-02  0.9561628E-01
       -3   -1    0    0    0  501  0.00000000000E+00  0.00000000000E+00  0.81264939546E+03  0.81264940174E+03  0.10100000352E+00 0.  1.
        3   -1    0    0  501    0  0.00000000000E+00  0.00000000000E+00 -0.19633985247E+03  0.19633987845E+03  0.10100000352E+00 0. -1.
    10030    2    1    2    0    0  0.00000000000E+00  0.00000000000E+00  0.61630954299E+03  0.10089892802E+04  0.79888792378E+03 0.  0.
        2    1    3    3  502    0  0.23458398854E+03  0.21213329667E+03  0.61629718208E+03  0.69271379363E+03  0.25500000920E-02 0.  1.
       -2    1    3    3    0  502 -0.23458398854E+03 -0.21213329667E+03  0.12360908402E-01  0.31627548656E+03  0.25500000920E-02 0. -1.
</event>
<event>
 5   0  0.3714448E-03  0.8051449E+03  0.7818609E-02  0.9552600E-01
        1   -1    0    0  501    0  0.00000000000E+00  0.00000000000E+00  0.63712312458E+03  0.63712312460E+03  0.50400001928E-02 0.  1.
       -1   -1    0    0    0  501  0.00000000000E+00  0.00000000000E+00 -0.25436929175E+03  0.25436929180E+03  0.50400001928E-02 0. -1.
    10030    2    1    2    0    0  0.00000000000E+00  0.00000000000E+00  0.38275383283E+03  0.89149241640E+03  0.80514485154E+03 0.  0.
        1    1    3    3  502    0 -0.58471879847E+02  0.39097814567E+03  0.27556893367E+03  0.48189325410E+03  0.50400001928E-02 0. -1.
       -1    1    3    3    0  502  0.58471879847E+02 -0.39097814567E+03  0.10718489916E+03  0.40959916230E+03  0.50400001928E-02 0.  1.
</event>
<event>
 5   0  0.2478000E-03  0.7979468E+03  0.7818609E-02  0.9562994E-01
        3   -1    0    0  501    0  0.00000000000E+00  0.00000000000E+00  0.14219489483E+04  0.14219489519E+04  0.10100000352E+00 0. -1.
       -3   -1    0    0    0  501  0.00000000000E+00  0.00000000000E+00 -0.11194475173E+03  0.11194479729E+03  0.10100000352E+00 0.  1.
    10030    2    1    2    0    0  0.00000000000E+00  0.00000000000E+00  0.13100041966E+04  0.15338937492E+04  0.79794676436E+03 0.  0.
        2    1    3    3  502    0  0.34599873002E+03 -0.15684670131E+03  0.88936321962E+03  0.96710027676E+03  0.25500000920E-02 0. -1.
       -2    1    3    3    0  502 -0.34599873002E+03  0.15684670131E+03  0.42064097697E+03  0.56679347245E+03  0.25500000920E-02 0.  1.
</event>
<event>
 5   0  0.6536209E-03  0.8006311E+03  0.7818609E-02  0.9559104E-01
        2   -1    0    0  501    0  0.00000000000E+00  0.00000000000E+00  0.15203893625E+04  0.15203893625E+04  0.25500000920E-02 0. -1.
       -2   -1    0    0    0  501  0.00000000000E+00  0.00000000000E+00 -0.10540230213E+03  0.10540230216E+03  0.25500000920E-02 0.  1.
    10030    2    1    2    0    0  0.00000000000E+00  0.00000000000E+00  0.14149870604E+04  0.16257916646E+04  0.80063109848E+03 0.  0.
        3    1    3    3  502    0  0.84421348534E+01 -0.39775651224E+03  0.79764597789E+03  0.89135886651E+03  0.10100000352E+00 0. -1.
       -3    1    3    3    0  502 -0.84421348534E+01  0.39775651224E+03  0.61734108247E+03  0.73443279813E+03  0.10100000352E+00 0.  1.
</event>
<event>
 5   0  0.2478000E-03  0.8013384E+03  0.7818609E-02  0.9558082E-01
       -3   -1    0    0    0  501  0.00000000000E+00  0.00000000000E+00  0.29834465664E+03  0.29834467374E+03  0.10100000352E+00 0. -1.
        3   -1    0    0  501    0  0.00000000000E+00  0.00000000000E+00 -0.53808845285E+03  0.53808846233E+03  0.10100000352E+00 0.  1.
    10030    2    1    2    0    0  0.00000000000E+00  0.00000000000E+00 -0.23974379621E+03  0.83643313607E+03  0.80133844491E+03 0.  0.
        1    1    3    3  502    0  0.35883568358E+02 -0.26430300334E+03  0.19220733034E+03  0.32876643064E+03  0.50400001928E-02 0. -1.
       -1    1    3    3    0  502 -0.35883568358E+02  0.26430300334E+03 -0.43195112655E+03  0.50766670543E+03  0.50400001928E-02 0.  1.
</event>
<event>
 5   0  0.6256781E-03  0.8051828E+03  0.7818609E-02  0.9552545E-01
       -2   -1    0    0    0  501  0.00000000000E+00  0.00000000000E+00  0.23391528623E+03  0.23391528624E+03  0.25500000920E-02 0.  1.
        2   -1    0    0  501    0  0.00000000000E+00  0.00000000000E+00 -0.69289964421E+03  0.69289964422E+03  0.25500000920E-02 0. -1.
    10030    2    1    2    0    0  0.00000000000E+00  0.00000000000E+00 -0.45898435799E+03  0.92681493046E+03  0.80518275841E+03 0.  0.
        1    1    3    3  502    0 -0.15071593175E+03 -0.21528523486E+03 -0.58055047335E+03  0.63726123102E+03  0.50400001928E-02 0. -1.
       -1    1    3    3    0  502  0.15071593175E+03  0.21528523486E+03  0.12156611536E+03  0.28955369944E+03  0.50400001928E-02 0.  1.
</event>
<event>
 5   0  0.2478000E-03  0.7997353E+03  0.7818609E-02  0.9560400E-01
        4   -1    0    0  501    0  0.00000000000E+00  0.00000000000E+00  0.50306318743E+03  0.50306479051E+03  0.12699999809E+01 0.  1.
       -4   -1    0    0    0  501  0.00000000000E+00  0.00000000000E+00 -0.31783766765E+03  0.31784020494E+03  0.12699999809E+01 0. -1.
    10030    2    1    2    0    0  0.00000000000E+00  0.00000000000E+00  0.18522551978E+03  0.82090499545E+03  0.79973528019E+03 0.  0.
        4    1    3    3  502    0  0.17967567608E+03 -0.85230683966E+02 -0.26347782086E+03  0.33010573011E+03  0.12699999809E+01 0. -1.
       -4    1    3    3    0  502 -0.17967567608E+03  0.85230683966E+02  0.44870334064E+03  0.49079926535E+03  0.12699999809E+01 0.  1.
</event>
<event>
 5   0  0.3714448E-03  0.7999903E+03  0.7818609E-02  0.9560031E-01
        1   -1    0    0  501    0  0.00000000000E+00  0.00000000000E+00  0.16848691390E+04  0.16848691390E+04  0.50400001928E-02 0.  1.
       -1   -1    0    0    0  501  0.00000000000E+00  0.00000000000E+00 -0.94960558187E+02  0.94960558321E+02  0.50400001928E-02 0. -1.
    10030    2    1    2    0    0  0.00000000000E+00  0.00000000000E+00  0.15899085808E+04  0.17798296973E+04  0.79999028503E+03 0.  0.
        1    1    3    3  502    0 -0.13709089704E+03 -0.36480474829E+03  0.99543085412E+03  0.10689990663E+04  0.50400001928E-02 0.  1.
       -1    1    3    3    0  502  0.13709089704E+03  0.36480474829E+03  0.59447772667E+03  0.71083063099E+03  0.50400001928E-02 0. -1.
</event>
<event>
 5   0  0.2478000E-03  0.7980559E+03  0.7818609E-02  0.9562835E-01
        4   -1    0    0  501    0  0.00000000000E+00  0.00000000000E+00  0.92792305988E+03  0.92792392897E+03  0.12699999809E+01 0.  1.
       -4   -1    0    0    0  501  0.00000000000E+00  0.00000000000E+00 -0.17158776100E+03  0.17159246086E+03  0.12699999809E+01 0. -1.
    10030    2    1    2    0    0  0.00000000000E+00  0.00000000000E+00  0.75633529888E+03  0.10995163898E+04  0.79805589227E+03 0.  0.
        5    1    3    3  502    0  0.77772733606E+02  0.12801978442E+03 -0.13134336790E+03  0.19927577270E+03  0.46999998093E+01 0. -1.
       -5    1    3    3    0  502 -0.77772733606E+02 -0.12801978442E+03  0.88767866677E+03  0.90024061713E+03  0.46999998093E+01 0.  1.
</event>
<event>
 5   0  0.6536209E-03  0.7980017E+03  0.7818609E-02  0.9562914E-01
       -2   -1    0    0    0  501  0.00000000000E+00  0.00000000000E+00  0.10481741444E+03  0.10481741448E+03  0.25500000920E-02 0. -1.
        2   -1    0    0  501    0  0.00000000000E+00  0.00000000000E+00 -0.15188475115E+04  0.15188475115E+04  0.25500000920E-02 0.  1.
    10030    2    1    2    0    0  0.00000000000E+00  0.00000000000E+00 -0.14140300971E+04  0.16236649260E+04  0.79800167699E+03 0.  0.
        3    1    3    3  502    0 -0.32565886160E+03  0.21932344816E+03 -0.85153618320E+03  0.93769416685E+03  0.10100000352E+00 0. -1.
       -3    1    3    3    0  502  0.32565886160E+03 -0.21932344816E+03 -0.56249391387E+03  0.68597075914E+03  0.10100000352E+00 0.  1.
</event>
<event>
 5   0  0.3671128E-03  0.7767956E+03  0.7818609E-02  0.9594225E-01
       -1   -1    0    0    0  501  0.00000000000E+00  0.00000000000E+00  0.19502347749E+03  0.19502347756E+03  0.50400001928E-02 0. -1.
        1   -1    0    0  501    0  0.00000000000E+00  0.00000000000E+00 -0.77351131137E+03  0.77351131138E+03  0.50400001928E-02 0.  1.
    10030    2    1    2    0    0  0.00000000000E+00  0.00000000000E+00 -0.57848783387E+03  0.96853478894E+03  0.77679563815E+03 0.  0.
        2    1    3    3  502    0  0.14457670916E+03 -0.14333056828E+03  0.12316740837E+03  0.23794177255E+03  0.25500000920E-02 0. -1.
       -2    1    3    3    0  502 -0.14457670916E+03  0.14333056828E+03 -0.70165524224E+03  0.73059301639E+03  0.25500000920E-02 0.  1.
</event>
<event>
 5   0  0.6153659E-03  0.8064331E+03  0.7818609E-02  0.9550752E-01
        2   -1    0    0  501    0  0.00000000000E+00  0.00000000000E+00  0.17294501716E+04  0.17294501716E+04  0.25500000920E-02 0. -1.
       -2   -1    0    0    0  501  0.00000000000E+00  0.00000000000E+00 -0.94008836972E+02  0.94008837007E+02  0.25500000920E-02 0.  1.
    10030    2    1    2    0    0  0.00000000000E+00  0.00000000000E+00  0.16354413347E+04  0.18234590086E+04  0.80643313243E+03 0.  0.
        2    1    3    3  502    0  0.26664507858E+03  0.20349655546E+03  0.31174443969E+03  0.45792471183E+03  0.25500000920E-02 0.  1.
       -2    1    3    3    0  502 -0.26664507858E+03 -0.20349655546E+03  0.13236968950E+04  0.13655342968E+04  0.25500000920E-02 0. -1.
</event>
<event>
 5   0  0.3627496E-03  0.8048782E+03  0.7818609E-02  0.9552983E-01
       -1   -1    0    0    0  501  0.00000000000E+00  0.00000000000E+00  0.24131707088E+03  0.24131707093E+03  0.50400001928E-02 0.  1.
        1   -1    0    0  501    0  0.00000000000E+00  0.00000000000E+00 -0.67113872368E+03  0.67113872370E+03  0.50400001928E-02 0. -1.
    10030    2    1    2    0    0  0.00000000000E+00  0.00000000000E+00 -0.42982165280E+03  0.91245579463E+03  0.80487820441E+03 0.  0.
        3    1    3    3  502    0  0.38187738231E+03  0.30474113824E+02 -0.35466923436E+03  0.52206252761E+03  0.10100000352E+00 0.  1.
       -3    1    3    3    0  502 -0.38187738231E+03 -0.30474113824E+02 -0.75152418433E+02  0.39039326702E+03  0.10100000352E+00 0. -1.
</event>
<event>
 5   0  0.3714448E-03  0.7973069E+03  0.7818609E-02  0.9563923E-01
       -1   -1    0    0    0  501  0.00000000000E+00  0.00000000000E+00  0.20323812319E+03  0.20323812325E+03  0.50400001928E-02 0. -1.
        1   -1    0    0  501    0  0.00000000000E+00  0.00000000000E+00 -0.78196239553E+03  0.78196239554E+03  0.50400001928E-02 0.  1.
    10030    2    1    2    0    0  0.00000000000E+00  0.00000000000E+00 -0.57872427234E+03  0.98520051880E+03  0.79730689126E+03 0.  0.
        1    1    3    3  502    0  0.56241662119E+02  0.12832010900E+02 -0.77677773419E+03  0.77891683345E+03  0.50400001928E-02 0.  1.
       -1    1    3    3    0  502 -0.56241662119E+02 -0.12832010900E+02  0.19805346186E+03  0.20628368535E+03  0.50400001928E-02 0. -1.
</event>
<event>
 5   0  0.6337108E-03  0.7984789E+03  0.7818609E-02  0.9562221E-01
       -2   -1    0    0    0  501  0.00000000000E+00  0.00000000000E+00  0.96875916372E+02  0.96875916405E+02  0.25500000920E-02 0. -1.
        2   -1    0    0  501    0  0.00000000000E+00  0.00000000000E+00 -0.16453225247E+04  0.16453225247E+04  0.25500000920E-02 0.  1.
    10030    2    1    2    0    0  0.00000000000E+00  0.00000000000E+00 -0.15484466084E+04  0.17421984411E+04  0.79847887221E+03 0.  0.
        4    1    3    3  502    0  0.57705473858E+02  0.13482314744E+03  0.35972602059E+02  0.15100610517E+03  0.12699999809E+01 0. -1.
       -4    1    3    3    0  502 -0.57705473858E+02 -0.13482314744E+03 -0.15844192104E+04  0.15911923360E+04  0.12699999809E+01 0.  1.
</event>
<event>
 5   0  0.5813850E-03  0.8007474E+03  0.7818609E-02  0.9558936E-01
        2   -1    0    0  501    0  0.00000000000E+00  0.00000000000E+00  0.14651890763E+04  0.14651890763E+04  0.25500000920E-02 0. -1.
       -2   -1    0    0    0  501  0.00000000000E+00  0.00000000000E+00 -0.10940505638E+03  0.10940505641E+03  0.25500000920E-02 0.  1.
    10030    2    1    2    0    0  0.00000000000E+00  0.00000000000E+00  0.13557840200E+04  0.15745941327E+04  0.80074738472E+03 0.  0.
        5    1    3    3  502    0 -0.33804737314E+03  0.87632071269E+02  0.10628336572E+04  0.11187461192E+04  0.46999998093E+01 0. -1.
       -5    1    3    3    0  502  0.33804737314E+03 -0.87632071269E+02  0.29295036274E+03  0.45584801352E+03  0.46999998093E+01 0.  1.
</event>
<event>
 5   0  0.2478000E-03  0.7986748E+03  0.7818609E-02  0.9561937E-01
        4   -1    0    0  501    0  0.00000000000E+00  0.00000000000E+00  0.58721523438E+03  0.58721660773E+03  0.12699999809E+01 0. -1.
       -4   -1    0    0    0  501  0.00000000000E+00  0.00000000000E+00 -0.27156737771E+03  0.27157034731E+03  0.12699999809E+01 0.  1.
    10030    2    1    2    0    0  0.00000000000E+00  0.00000000000E+00  0.31564785667E+03  0.85878695504E+03  0.79867481788E+03 0.  0.
        5    1    3    3  502    0 -0.16842607453E+03 -0.28604729679E+03  0.39646945338E+03  0.51710783792E+03  0.46999998093E+01 0. -1.
       -5    1    3    3    0  502  0.16842607453E+03  0.28604729679E+03 -0.80821596707E+02  0.34167911712E+03  0.46999998093E+01 0.  1.
</event>
<event>
 5   0  0.3671128E-03  0.8012760E+03  0.7818609E-02  0.9558172E-01
        1   -1    0    0  501    0  0.00000000000E+00  0.00000000000E+00  0.90004151237E+03  0.90004151239E+03  0.50400001928E-02 0. -1.
       -1   -1    0    0    0  501  0.00000000000E+00  0.00000000000E+00 -0.17833713129E+03  0.17833713136E+03  0.50400001928E-02 0.  1.
    10030    2    1    2    0    0  0.00000000000E+00  0.00000000000E+00  0.72170438108E+03  0.10783786437E+04  0.80127603584E+03 0.  0.
        2    1    3    3  502    0 -0.21607187698E+03 -0.16924484497E+03 -0.31935445715E+02  0.27631638799E+03  0.25500000920E-02 0.  1.
       -2    1    3    3    0  502  0.21607187698E+03  0.16924484497E+03  0.75363982680E+03  0.80206225576E+03  0.25500000920E-02 0. -1.
</event>
<event>
 5   0  0.3714448E-03  0.8218809E+03  0.7818609E-02  0.9528874E-01
        1   -1    0    0  501    0  0.00000000000E+00  0.00000000000E+00  0.99866609423E+03  0.99866609424E+03  0.50400001928E-02 0.  1.
       -1   -1    0    0    0  501  0.00000000000E+00  0.00000000000E+00 -0.16909762294E+03  0.16909762302E+03  0.50400001928E-02 0. -1.
    10030    2    1    2    0    0  0.00000000000E+00  0.00000000000E+00  0.82956847128E+03  0.11677637173E+04  0.82188092252E+03 0.  0.
        1    1    3    3  502    0 -0.10528277798E+03  0.38128986187E+02 -0.14700380774E+03  0.18479286362E+03  0.50400001928E-02 0. -1.
       -1    1    3    3    0  502  0.10528277798E+03 -0.38128986187E+02  0.97657227903E+03  0.98297085364E+03  0.50400001928E-02 0.  1.
</event>
<event>
 5   0  0.3753450E-03  0.8011402E+03  0.7818609E-02  0.9558368E-01
       -1   -1    0    0    0  501  0.00000000000E+00  0.00000000000E+00  0.13050777969E+03  0.13050777979E+03  0.50400001928E-02 0.  1.
        1   -1    0    0  501    0  0.00000000000E+00  0.00000000000E+00 -0.12294777083E+04  0.12294777083E+04  0.50400001928E-02 0. -1.
    10030    2    1    2    0    0  0.00000000000E+00  0.00000000000E+00 -0.10989699286E+04  0.13599854881E+04  0.80114020236E+03 0.  0.
        5    1    3    3  502    0 -0.14800818546E+03  0.34422633396E+01 -0.11812793873E+04  0.11905298623E+04  0.46999998093E+01 0. -1.
       -5    1    3    3    0  502  0.14800818546E+03 -0.34422633396E+01  0.82309458671E+02  0.16945562583E+03  0.46999998093E+01 0.  1.
</event>
<event>
 5   0  0.3627496E-03  0.7991631E+03  0.7818609E-02  0.9561229E-01
        1   -1    0    0  501    0  0.00000000000E+00  0.00000000000E+00  0.96729488165E+03  0.96729488166E+03  0.50400001928E-02 0.  1.
       -1   -1    0    0    0  501  0.00000000000E+00  0.00000000000E+00 -0.16506383435E+03  0.16506383443E+03  0.50400001928E-02 0. -1.
    10030    2    1    2    0    0  0.00000000000E+00  0.00000000000E+00  0.80223104730E+03  0.11323587161E+04  0.79916306763E+03 0.  0.
        3    1    3    3  502    0 -0.13285561360E+03 -0.13382705866E+03  0.90027972331E+03  0.91981731127E+03  0.10100000352E+00 0.  1.
       -3    1    3    3    0  502  0.13285561360E+03  0.13382705866E+03 -0.98048676016E+02  0.21254140483E+03  0.10100000352E+00 0. -1.
</event>
<event>
 5   0  0.6256781E-03  0.7996712E+03  0.7818609E-02  0.9560493E-01
        2   -1    0    0  501    0  0.00000000000E+00  0.00000000000E+00  0.76897252178E+03  0.76897252178E+03  0.25500000920E-02 0.  1.
       -2   -1    0    0    0  501  0.00000000000E+00  0.00000000000E+00 -0.20789885354E+03  0.20789885355E+03  0.25500000920E-02 0. -1.
    10030    2    1    2    0    0  0.00000000000E+00  0.00000000000E+00  0.56107366824E+03  0.97687137534E+03  0.79967119665E+03 0.  0.
        1    1    3    3  502    0 -0.50445357644E+02  0.36314458390E+03  0.47541714783E+03  0.60036671077E+03  0.50400001928E-02 0. -1.
       -1    1    3    3    0  502  0.50445357644E+02 -0.36314458390E+03  0.85656520416E+02  0.37650466457E+03  0.50400001928E-02 0.  1.
</event>
<event>
 5   0  0.3627496E-03  0.8008871E+03  0.7818609E-02  0.9558734E-01
       -1   -1    0    0    0  501  0.00000000000E+00  0.00000000000E+00  0.22913629066E+03  0.22913629071E+03  0.50400001928E-02 0. -1.
        1   -1    0    0  501    0  0.00000000000E+00  0.00000000000E+00 -0.69982383703E+03  0.69982383704E+03  0.50400001928E-02 0.  1.
    10030    2    1    2    0    0  0.00000000000E+00  0.00000000000E+00 -0.47068754637E+03  0.92896012776E+03  0.80088710356E+03 0.  0.
        3    1    3    3  502    0 -0.33054613458E+03 -0.21780445679E+03 -0.30547301388E+03  0.50001330072E+03  0.10100000352E+00 0.  1.
       -3    1    3    3    0  502  0.33054613458E+03  0.21780445679E+03 -0.16521453248E+03  0.42894682704E+03  0.10100000352E+00 0. -1.
</event>
<event>
 5   0  0.3714448E-03  0.7977099E+03  0.7818609E-02  0.9563338E-01
        1   -1    0    0  501    0  0.00000000000E+00  0.00000000000E+00  0.65484610968E+03  0.65484610969E+03  0.50400001928E-02 0. -1.
       -1   -1    0    0    0  501  0.00000000000E+00  0.00000000000E+00 -0.24293534294E+03  0.24293534299E+03  0.50400001928E-02 0.  1.
    10030    2    1    2    0    0  0.00000000000E+00  0.00000000000E+00  0.41191076674E+03  0.89778145268E+03  0.79770988274E+03 0.  0.
        1    1    3    3  502    0 -0.38879401052E+03 -0.88668662045E+02  0.21484215106E+03  0.45296806085E+03  0.50400001928E-02 0.  1.
       -1    1    3    3    0  502  0.38879401052E+03  0.88668662045E+02  0.19706861568E+03  0.44481339184E+03  0.50400001928E-02 0. -1.
</event>
<event>
 5   0  0.3714448E-03  0.7990361E+03  0.7818609E-02  0.9561413E-01
       -1   -1    0    0    0  501  0.00000000000E+00  0.00000000000E+00  0.15726339956E+03  0.15726339964E+03  0.50400001928E-02 0.  1.
        1   -1    0    0  501    0  0.00000000000E+00  0.00000000000E+00 -0.10149512972E+04  0.10149512972E+04  0.50400001928E-02 0. -1.
    10030    2    1    2    0    0  0.00000000000E+00  0.00000000000E+00 -0.85768789766E+03  0.11722146969E+04  0.79903614797E+03 0.  0.
        1    1    3    3  502    0  0.33664925336E+03  0.13318023741E+03 -0.67670353959E+03  0.76746164461E+03  0.50400001928E-02 0. -1.
       -1    1    3    3    0  502 -0.33664925336E+03 -0.13318023741E+03 -0.18098435807E+03  0.40475305226E+03  0.50400001928E-02 0.  1.
</event>
<event>
 5   0  0.3671128E-03  0.8016438E+03  0.7818609E-02  0.9557641E-01
        1   -1    0    0  501    0  0.00000000000E+00  0.00000000000E+00  0.12622543361E+03  0.12622543371E+03  0.50400001928E-02 0. -1.
       -1   -1    0    0    0  501  0.00000000000E+00  0.00000000000E+00 -0.12727879181E+04  0.12727879181E+04  0.50400001928E-02 0.  1.
    10030    2    1    2    0    0  0.00000000000E+00  0.00000000000E+00 -0.11465624845E+04  0.13990133518E+04  0.80164382848E+03 0.  0.
        2    1    3    3  502    0 -0.38905404343E+03  0.86845509137E+02 -0.50021221670E+03  0.63962289899E+03  0.25500000920E-02 0. -1.
       -2    1    3    3    0  502  0.38905404343E+03 -0.86845509137E+02 -0.64635026782E+03  0.75939045286E+03  0.25500000920E-02 0.  1.
</event>
<event>
 5   0  0.3627496E-03  0.7968017E+03  0.7818609E-02  0.9564658E-01
        1   -1    0    0  501    0  0.00000000000E+00  0.00000000000E+00  0.45285071542E+03  0.45285071545E+03  0.50400001928E-02 0.  1.
       -1   -1    0    0    0  501  0.00000000000E+00  0.00000000000E+00 -0.35049797079E+03  0.35049797083E+03  0.50400001928E-02 0. -1.
    10030    2    1    2    0    0  0.00000000000E+00  0.00000000000E+00  0.10235274463E+03  0.80334868628E+03  0.79680174913E+03 0.  0.
        3    1    3    3  502    0  0.61137420180E+02 -0.17253309985E+03  0.40794514118E+03  0.44712940308E+03  0.10100000352E+00 0.  1.
       -3    1    3    3    0  502 -0.61137420180E+02  0.17253309985E+03 -0.30559239655E+03  0.35621928319E+03  0.10100000352E+00 0. -1.
</event>
<event>
 5   0  0.6256781E-03  0.7993255E+03  0.7818609E-02  0.9560994E-01
       -2   -1    0    0    0  501  0.00000000000E+00  0.00000000000E+00  0.22624384858E+03  0.22624384860E+03  0.25500000920E-02 0.  1.
        2   -1    0    0  501    0  0.00000000000E+00  0.00000000000E+00 -0.70600944479E+03  0.70600944479E+03  0.25500000920E-02 0. -1.
    10030    2    1    2    0    0  0.00000000000E+00  0.00000000000E+00 -0.47976559621E+03  0.93225329339E+03  0.79932545045E+03 0.  0.
        1    1    3    3  502    0 -0.12279747013E+03  0.10997610294E+03 -0.66451265200E+03  0.68465394659E+03  0.50400001928E-02 0. -1.
       -1    1    3    3    0  502  0.12279747013E+03 -0.10997610294E+03  0.18474705579E+03  0.24759934680E+03  0.50400001928E-02 0.  1.
</event>
<event>
 5   0  0.6536209E-03  0.7976892E+03  0.7818609E-02  0.9563368E-01
       -2   -1    0    0    0  501  0.00000000000E+00  0.00000000000E+00  0.25202185726E+03  0.25202185728E+03  0.25500000920E-02 0.  1.
        2   -1    0    0  501    0  0.00000000000E+00  0.00000000000E+00 -0.63120331846E+03  0.63120331847E+03  0.25500000920E-02 0. -1.
    10030    2    1    2    0    0  0.00000000000E+00  0.00000000000E+00 -0.37918146120E+03  0.88322517575E+03  0.79768924435E+03 0.  0.
        3    1    3    3  502    0 -0.21732536919E+03  0.22921763259E+03  0.80050908749E+02  0.32585149589E+03  0.10100000352E+00 0.  1.
       -3    1    3    3    0  502  0.21732536919E+03 -0.22921763259E+03 -0.45923236995E+03  0.55737367985E+03  0.10100000352E+00 0. -1.
</event>
<event>
 5   0  0.3627496E-03  0.7986593E+03  0.7818609E-02  0.9561960E-01
        1   -1    0    0  501    0  0.00000000000E+00  0.00000000000E+00  0.73527181388E+03  0.73527181390E+03  0.50400001928E-02 0.  1.
       -1   -1    0    0    0  501  0.00000000000E+00  0.00000000000E+00 -0.21687787032E+03  0.21687787037E+03  0.50400001928E-02 0. -1.
    10030    2    1    2    0    0  0.00000000000E+00  0.00000000000E+00  0.51839394357E+03  0.95214968427E+03  0.79865933948E+03 0.  0.
        3    1    3    3  502    0 -0.37430661994E+03 -0.11126945454E+03  0.15960964274E+03  0.42185493419E+03  0.10100000352E+00 0. -1.
       -3    1    3    3    0  502  0.37430661994E+03  0.11126945454E+03  0.35878430083E+03  0.53029475008E+03  0.10100000352E+00 0.  1.
</event>
<event>
 5   0  0.5813850E-03  0.8008718E+03  0.7818609E-02  0.9558756E-01
       -2   -1    0    0    0  501  0.00000000000E+00  0.00000000000E+00  0.67210191422E+02  0.67210191470E+02  0.25500000920E-02 0.  1.
        2   -1    0    0  501    0  0.00000000000E+00  0.00000000000E+00 -0.23857827893E+04  0.23857827893E+04  0.25500000920E-02 0. -1.
    10030    2    1    2    0    0  0.00000000000E+00  0.00000000000E+00 -0.23185725979E+04  0.24529929808E+04  0.80087182001E+03 0.  0.
        5    1    3    3  502    0 -0.20548669428E+03  0.17463499480E+03 -0.25272555394E+03  0.36961393175E+03  0.46999998093E+01 0.  1.
       -5    1    3    3    0  502  0.20548669428E+03 -0.17463499480E+03 -0.20658470440E+04  0.20833790490E+04  0.46999998093E+01 0. -1.
</event>
<event>
 5   0  0.3671128E-03  0.7996092E+03  0.7818609E-02  0.9560583E-01
        1   -1    0    0  501    0  0.00000000000E+00  0.00000000000E+00  0.55157349236E+03  0.55157349239E+03  0.50400001928E-02 0.  1.
       -1   -1    0    0    0  501  0.00000000000E+00  0.00000000000E+00 -0.28979585240E+03  0.28979585245E+03  0.50400001928E-02 0. -1.
    10030    2    1    2    0    0  0.00000000000E+00  0.00000000000E+00  0.26177763996E+03  0.84136934484E+03  0.79960918057E+03 0.  0.
        2    1    3    3  502    0 -0.30412164647E+03 -0.24462984706E+03  0.39702836687E+02  0.39231371779E+03  0.25500000920E-02 0.  1.
       -2    1    3    3    0  502  0.30412164647E+03  0.24462984706E+03  0.22207480327E+03  0.44905562704E+03  0.25500000920E-02 0. -1.
</event>
<event>
 5   0  0.3671128E-03  0.8060441E+03  0.7818609E-02  0.9551310E-01
       -1   -1    0    0    0  501  0.00000000000E+00  0.00000000000E+00  0.49379022984E+03  0.49379022986E+03  0.50400001928E-02 0.  1.
        1   -1    0    0  501    0  0.00000000000E+00  0.00000000000E+00 -0.32893880191E+03  0.32893880195E+03  0.50400001928E-02 0. -1.
    10030    2    1    2    0    0  0.00000000000E+00  0.00000000000E+00  0.16485142792E+03  0.82272903181E+03  0.80604408471E+03 0.  0.
        2    1    3    3  502    0  0.28903837100E+03  0.27544671956E+03  0.13844987358E+03  0.42259015929E+03  0.25500000920E-02 0. -1.
       -2    1    3    3    0  502 -0.28903837100E+03 -0.27544671956E+03  0.26401554344E+02  0.40013887253E+03  0.25500000920E-02 0.  1.
</event>
<event>
 5   0  0.3714448E-03  0.7978992E+03  0.7818609E-02  0.9563063E-01
        1   -1    0    0  501    0  0.00000000000E+00  0.00000000000E+00  0.72815873450E+03  0.72815873452E+03  0.50400001928E-02 0. -1.
       -1   -1    0    0    0  501  0.00000000000E+00  0.00000000000E+00 -0.21857976706E+03  0.21857976712E+03  0.50400001928E-02 0.  1.
    10030    2    1    2    0    0  0.00000000000E+00  0.00000000000E+00  0.50957896743E+03  0.94673850164E+03  0.79789915806E+03 0.  0.
        1    1    3    3  502    0 -0.17574324916E+03  0.12432742853E+03 -0.14374947619E+03  0.25885693161E+03  0.50400001928E-02 0.  1.
       -1    1    3    3    0  502  0.17574324916E+03 -0.12432742853E+03  0.65332844363E+03  0.68788157003E+03  0.50400001928E-02 0. -1.
</event>
<event>
 5   0  0.3627496E-03  0.8002063E+03  0.7818609E-02  0.9559719E-01
        1   -1    0    0  501    0  0.00000000000E+00  0.00000000000E+00  0.46688265245E+03  0.46688265247E+03  0.50400001928E-02 0. -1.
       -1   -1    0    0    0  501  0.00000000000E+00  0.00000000000E+00 -0.34287531712E+03  0.34287531716E+03  0.50400001928E-02 0.  1.
    10030    2    1    2    0    0  0.00000000000E+00  0.00000000000E+00  0.12400733533E+03  0.80975796963E+03  0.80020631725E+03 0.  0.
        3    1    3    3  502    0 -0.24640710682E+03 -0.30874278225E+03 -0.23475326352E+01  0.39502416254E+03  0.10100000352E+00 0.  1.
       -3    1    3    3    0  502  0.24640710682E+03  0.30874278225E+03  0.12635486796E+03  0.41473380709E+03  0.10100000352E+00 0. -1.
</event>
<event>
 5   0  0.5813850E-03  0.8047039E+03  0.7818609E-02  0.9553233E-01
        2   -1    0    0  501    0  0.00000000000E+00  0.00000000000E+00  0.51954024087E+03  0.51954024088E+03  0.25500000920E-02 0. -1.
       -2   -1    0    0    0  501  0.00000000000E+00  0.00000000000E+00 -0.31159684131E+03  0.31159684133E+03  0.25500000920E-02 0.  1.
    10030    2    1    2    0    0  0.00000000000E+00  0.00000000000E+00  0.20794339955E+03  0.83113708220E+03  0.80470391573E+03 0.  0.
        5    1    3    3  502    0  0.54216616080E+01 -0.37695479591E+03  0.24908852503E+03  0.45187553139E+03  0.46999998093E+01 0. -1.
       -5    1    3    3    0  502 -0.54216616080E+01  0.37695479591E+03 -0.41145125475E+02  0.37926155081E+03  0.46999998093E+01 0.  1.
</event>
<event>
 5   0  0.6337108E-03  0.7995882E+03  0.7818609E-02  0.9560613E-01
       -2   -1    0    0    0  501  0.00000000000E+00  0.00000000000E+00  0.32077072017E+03  0.32077072018E+03  0.25500000920E-02 0.  1.
        2   -1    0    0  501    0  0.00000000000E+00  0.00000000000E+00 -0.49828531274E+03  0.49828531275E+03  0.25500000920E-02 0. -1.
    10030    2    1    2    0    0  0.00000000000E+00  0.00000000000E+00 -0.17751459257E+03  0.81905603293E+03  0.79958824060E+03 0.  0.
        4    1    3    3  502    0  0.36497868487E+03 -0.59680291842E+02 -0.24431834404E+03  0.44324287223E+03  0.12699999809E+01 0. -1.
       -4    1    3    3    0  502 -0.36497868487E+03  0.59680291842E+02  0.66803751468E+02  0.37581316070E+03  0.12699999809E+01 0.  1.
</event>
<event>
 5   0  0.3753450E-03  0.7979306E+03  0.7818609E-02  0.9563017E-01
        1   -1    0    0  501    0  0.00000000000E+00  0.00000000000E+00  0.40117053402E+03  0.40117053405E+03  0.50400001928E-02 0. -1.
       -1   -1    0    0    0  501  0.00000000000E+00  0.00000000000E+00 -0.39677220696E+03  0.39677220699E+03  0.50400001928E-02 0.  1.
    10030    2    1    2    0    0  0.00000000000E+00  0.00000000000E+00  0.43983270616E+01  0.79794274104E+03  0.79793061898E+03 0.  0.
        5    1    3    3  502    0  0.13342139834E+03 -0.16175055305E+03 -0.33719767951E+03  0.39710058677E+03  0.46999998093E+01 0.  1.
       -5    1    3    3    0  502 -0.13342139834E+03  0.16175055305E+03  0.34159600657E+03  0.40084215428E+03  0.46999998093E+01 0. -1.
</event>
<event>
 5   0  0.3753450E-03  0.8001896E+03  0.7818609E-02  0.9559743E-01
       -1   -1    0    0    0  501  0.00000000000E+00  0.00000000000E+00  0.12157623774E+03  0.12157623785E+03  0.50400001928E-02 0.  1.
        1   -1    0    0  501    0  0.00000000000E+00  0.00000000000E+00 -0.13166704552E+04  0.13166704552E+04  0.50400001928E-02 0. -1.
    10030    2    1    2    0    0  0.00000000000E+00  0.00000000000E+00 -0.11950942175E+04  0.14382466931E+04  0.80018957847E+03 0.  0.
        5    1    3    3  502    0  0.10681754138E+01 -0.28402277152E+03 -0.11039615623E+04  0.11399224960E+04  0.46999998093E+01 0. -1.
       -5    1    3    3    0  502 -0.10681754138E+01  0.28402277152E+03 -0.91132655149E+02  0.29832419710E+03  0.46999998093E+01 0.  1.
</event>
<event>
 5   0  0.6256781E-03  0.7991470E+03  0.7818609E-02  0.9561253E-01
        2   -1    0    0  501    0  0.00000000000E+00  0.00000000000E+00  0.76658712116E+03  0.76658712117E+03  0.25500000920E-02 0.  1.
       -2   -1    0    0    0  501  0.00000000000E+00  0.00000000000E+00 -0.20827247570E+03  0.20827247571E+03  0.25500000920E-02 0. -1.
    10030    2    1    2    0    0  0.00000000000E+00  0.00000000000E+00  0.55831464547E+03  0.97485959688E+03  0.79914703921E+03 0.  0.
        1    1    3    3  502    0 -0.17836391445E+03  0.93219653275E+02  0.70024473136E+03  0.72859198016E+03  0.50400001928E-02 0.  1.
       -1    1    3    3    0  502  0.17836391445E+03 -0.93219653275E+02 -0.14193008589E+03  0.24626761672E+03  0.50400001928E-02 0. -1.
</event>
<event>
 5   0  0.6337108E-03  0.7988025E+03  0.7818609E-02  0.9561752E-01
       -2   -1    0    0    0  501  0.00000000000E+00  0.00000000000E+00  0.10808268501E+04  0.10808268501E+04  0.25500000920E-02 0.  1.
        2   -1    0    0  501    0  0.00000000000E+00  0.00000000000E+00 -0.14759197065E+03  0.14759197067E+03  0.25500000920E-02 0. -1.
    10030    2    1    2    0    0  0.00000000000E+00  0.00000000000E+00  0.93323487943E+03  0.12284188208E+04  0.79880251564E+03 0.  0.
        4    1    3    3  502    0 -0.18637002305E+03  0.24933375988E+03  0.81796352612E+02  0.32185923244E+03  0.12699999809E+01 0. -1.
       -4    1    3    3    0  502  0.18637002305E+03 -0.24933375988E+03  0.85143852682E+03  0.90655958831E+03  0.12699999809E+01 0.  1.
</event>
<event>
 5   0  0.6337108E-03  0.7999446E+03  0.7818609E-02  0.9560097E-01
        2   -1    0    0  501    0  0.00000000000E+00  0.00000000000E+00  0.79444401867E+03  0.79444401868E+03  0.25500000920E-02 0. -1.
       -2   -1    0    0    0  501  0.00000000000E+00  0.00000000000E+00 -0.20137079245E+03  0.20137079246E+03  0.25500000920E-02 0.  1.
    10030    2    1    2    0    0  0.00000000000E+00  0.00000000000E+00  0.59307322623E+03  0.99581481114E+03  0.79994455209E+03 0.  0.
        4    1    3    3  502    0 -0.38333434245E+03  0.67940539481E+02  0.18234146335E+03  0.42989668196E+03  0.12699999809E+01 0.  1.
       -4    1    3    3    0  502  0.38333434245E+03 -0.67940539481E+02  0.41073176287E+03  0.56591812918E+03  0.12699999809E+01 0. -1.
</event>
<event>
 5   0  0.3860515E-03  0.8006079E+03  0.7818609E-02  0.9559138E-01
       -1   -1    0    0    0  501  0.00000000000E+00  0.00000000000E+00  0.14412632008E+03  0.14412632016E+03  0.50400001928E-02 0. -1.
        1   -1    0    0  501    0  0.00000000000E+00  0.00000000000E+00 -0.11118251371E+04  0.11118251371E+04  0.50400001928E-02 0.  1.
    10030    2    1    2    0    0  0.00000000000E+00  0.00000000000E+00 -0.96769881702E+03  0.12559514573E+04  0.80060793311E+03 0.  0.
        4    1    3    3  502    0 -0.11471078279E+03  0.29853907252E+03 -0.10618346023E+03  0.33698765799E+03  0.12699999809E+01 0.  1.
       -4    1    3    3    0  502  0.11471078279E+03 -0.29853907252E+03 -0.86151535679E+03  0.91896379928E+03  0.12699999809E+01 0. -1.
</event>
<event>
 5   0  0.3627496E-03  0.7946620E+03  0.7818609E-02  0.9567776E-01
       -1   -1    0    0    0  501  0.00000000000E+00  0.00000000000E+00  0.12001601162E+03  0.12001601173E+03  0.50400001928E-02 0. -1.
        1   -1    0    0  501    0  0.00000000000E+00  0.00000000000E+00 -0.13154239622E+04  0.13154239622E+04  0.50400001928E-02 0.  1.
    10030    2    1    2    0    0  0.00000000000E+00  0.00000000000E+00 -0.11954079506E+04  0.14354399739E+04  0.79466203538E+03 0.  0.
        3    1    3    3  502    0  0.90057743272E+02  0.13807032061E+03 -0.12507401447E+04  0.12615564713E+04  0.10100000352E+00 0.  1.
       -3    1    3    3    0  502 -0.90057743272E+02 -0.13807032061E+03  0.55332194169E+02  0.17388350258E+03  0.10100000352E+00 0. -1.
</event>
<event>
 5   0  0.3714448E-03  0.8004501E+03  0.7818609E-02  0.9559366E-01
        1   -1    0    0  501    0  0.00000000000E+00  0.00000000000E+00  0.65704118658E+03  0.65704118660E+03  0.50400001928E-02 0.  1.
       -1   -1    0    0    0  501  0.00000000000E+00  0.00000000000E+00 -0.24379000715E+03  0.24379000720E+03  0.50400001928E-02 0. -1.
    10030    2    1    2    0    0  0.00000000000E+00  0.00000000000E+00  0.41325117943E+03  0.90083119380E+03  0.80045006242E+03 0.  0.
        1    1    3    3  502    0 -0.69096000197E+02  0.18068834261E+03  0.60093147939E+03  0.63130117800E+03  0.50400001928E-02 0.  1.
       -1    1    3    3    0  502  0.69096000197E+02 -0.18068834261E+03 -0.18768029996E+03  0.26953001580E+03  0.50400001928E-02 0. -1.
</event>
<event>
 5   0  0.6337108E-03  0.8002263E+03  0.7818609E-02  0.9559690E-01
       -2   -1    0    0    0  501  0.00000000000E+00  0.00000000000E+00  0.34918316347E+03  0.34918316348E+03  0.25500000920E-02 0.  1.
        2   -1    0    0  501    0  0.00000000000E+00  0.00000000000E+00 -0.45847149606E+03  0.45847149607E+03  0.25500000920E-02 0. -1.
    10030    2    1    2    0    0  0.00000000000E+00  0.00000000000E+00 -0.10928833259E+03  0.80765465954E+03  0.80022628640E+03 0.  0.
        4    1    3    3  502    0  0.26384496759E+03  0.17593848782E+03  0.19158857257E+03  0.37050818137E+03  0.12699999809E+01 0.  1.
       -4    1    3    3    0  502 -0.26384496759E+03 -0.17593848782E+03 -0.30087690516E+03  0.43714647818E+03  0.12699999809E+01 0. -1.
</event>
<event>
 5   0  0.3860515E-03  0.7925070E+03  0.7818609E-02  0.9570927E-01
       -1   -1    0    0    0  501  0.00000000000E+00  0.00000000000E+00  0.97215921582E+02  0.97215921713E+02  0.50400001928E-02 0.  1.
        1   -1    0    0  501    0  0.00000000000E+00  0.00000000000E+00 -0.16151349340E+04  0.16151349340E+04  0.50400001928E-02 0. -1.
    10030    2    1    2    0    0  0.00000000000E+00  0.00000000000E+00 -0.15179190124E+04  0.17123508557E+04  0.79250698724E+03 0.  0.
        4    1    3    3  502    0 -0.14470938445E+00  0.24865912458E+03 -0.14255686391E+04  0.14470932724E+04  0.12699999809E+01 0. -1.
       -4    1    3    3    0  502  0.14470938445E+00 -0.24865912458E+03 -0.92350373288E+02  0.26525758335E+03  0.12699999809E+01 0.  1.
</event>
<event>
 5   0  0.2478000E-03  0.7998750E+03  0.7818609E-02  0.9560198E-01
        3   -1    0    0  501    0  0.00000000000E+00  0.00000000000E+00  0.88386093249E+03  0.88386093826E+03  0.10100000352E+00 0.  1.
       -3   -1    0    0    0  501  0.00000000000E+00  0.00000000000E+00 -0.18096737261E+03  0.18096740080E+03  0.10100000352E+00 0. -1.
    10030    2    1    2    0    0  0.00000000000E+00  0.00000000000E+00  0.70289355988E+03  0.10648283391E+04  0.79987501220E+03 0.  0.
        5    1    3    3  502    0  0.15185714267E+03  0.72720997649E+02 -0.13144602503E+03  0.21365645970E+03  0.46999998093E+01 0. -1.
       -5    1    3    3    0  502 -0.15185714267E+03 -0.72720997649E+02  0.83433958490E+03  0.85117187936E+03  0.46999998093E+01 0.  1.
</event>
<event>
 5   0  0.6256781E-03  0.7894777E+03  0.7818609E-02  0.9575374E-01
        2   -1    0    0  501    0  0.00000000000E+00  0.00000000000E+00  0.51060396318E+03  0.51060396319E+03  0.25500000920E-02 0.  1.
       -2   -1    0    0    0  501  0.00000000000E+00  0.00000000000E+00 -0.30516557177E+03  0.30516557178E+03  0.25500000920E-02 0. -1.
    10030    2    1    2    0    0  0.00000000000E+00  0.00000000000E+00  0.20543839141E+03  0.81576953497E+03  0.78947767639E+03 0.  0.
        1    1    3    3  502    0  0.37745151082E+03  0.88409053603E+02  0.25858224685E+02  0.38852857242E+03  0.50400001928E-02 0.  1.
       -1    1    3    3    0  502 -0.37745151082E+03 -0.88409053603E+02  0.17958016673E+03  0.42724096255E+03  0.50400001928E-02 0. -1.
</event>
<event>
 5   0  0.3627496E-03  0.8102008E+03  0.7818609E-02  0.9545368E-01
       -1   -1    0    0    0  501  0.00000000000E+00  0.00000000000E+00  0.25881388474E+03  0.25881388479E+03  0.50400001928E-02 0. -1.
        1   -1    0    0  501    0  0.00000000000E+00  0.00000000000E+00 -0.63407086746E+03  0.63407086748E+03  0.50400001928E-02 0.  1.
    10030    2    1    2    0    0  0.00000000000E+00  0.00000000000E+00 -0.37525698272E+03  0.89288475227E+03  0.81020082557E+03 0.  0.
        3    1    3    3  502    0  0.20784174937E+03  0.17338308688E+03 -0.51979565474E+03  0.58604387249E+03  0.10100000352E+00 0.  1.
       -3    1    3    3    0  502 -0.20784174937E+03 -0.17338308688E+03  0.14453867202E+03  0.30684087978E+03  0.10100000352E+00 0. -1.
</event>
<event>
 5   0  0.6536209E-03  0.7998595E+03  0.7818609E-02  0.9560221E-01
       -2   -1    0    0    0  501  0.00000000000E+00  0.00000000000E+00  0.16639809976E+03  0.16639809978E+03  0.25500000920E-02 0.  1.
        2   -1    0    0  501    0  0.00000000000E+00  0.00000000000E+00 -0.96121162348E+03  0.96121162349E+03  0.25500000920E-02 0. -1.
    10030    2    1    2    0    0  0.00000000000E+00  0.00000000000E+00 -0.79481352373E+03  0.11276097233E+04  0.79985945672E+03 0.  0.
        3    1    3    3  502    0  0.70483220982E+02  0.21189673987E+03  0.70318456514E+02  0.23412135387E+03  0.10100000352E+00 0.  1.
       -3    1    3    3    0  502 -0.70483220982E+02 -0.21189673987E+03 -0.86513198024E+03  0.89348836940E+03  0.10100000352E+00 0. -1.
</event>
<event>
 5   0  0.6256781E-03  0.8031432E+03  0.7818609E-02  0.9555479E-01
        2   -1    0    0  501    0  0.00000000000E+00  0.00000000000E+00  0.56584073003E+03  0.56584073004E+03  0.25500000920E-02 0.  1.
       -2   -1    0    0    0  501  0.00000000000E+00  0.00000000000E+00 -0.28499139173E+03  0.28499139175E+03  0.25500000920E-02 0. -1.
    10030    2    1    2    0    0  0.00000000000E+00  0.00000000000E+00  0.28084933830E+03  0.85083212178E+03  0.80314316820E+03 0.  0.
        1    1    3    3  502    0 -0.22423553531E+03 -0.16130238017E+03 -0.16836118990E+03  0.32348960329E+03  0.50400001928E-02 0. -1.
       -1    1    3    3    0  502  0.22423553531E+03  0.16130238017E+03  0.44921052819E+03  0.52734251849E+03  0.50400001928E-02 0.  1.
</event>
<event>
 5   0  0.3753450E-03  0.8002504E+03  0.7818609E-02  0.9559655E-01
       -1   -1    0    0    0  501  0.00000000000E+00  0.00000000000E+00  0.46137740690E+03  0.46137740693E+03  0.50400001928E-02 0. -1.
        1   -1    0    0  501    0  0.00000000000E+00  0.00000000000E+00 -0.34700478935E+03  0.34700478938E+03  0.50400001928E-02 0.  1.
    10030    2    1    2    0    0  0.00000000000E+00  0.00000000000E+00  0.11437261755E+03  0.80838219631E+03  0.80025038561E+03 0.  0.
        5    1    3    3  502    0  0.70948751825E+02 -0.39193804586E+03  0.19001095422E+02  0.39878852642E+03  0.46999998093E+01 0. -1.
       -5    1    3    3    0  502 -0.70948751825E+02  0.39193804586E+03  0.95371522132E+02  0.40959366989E+03  0.46999998093E+01 0.  1.
</event>
<event>
 5   0  0.3671128E-03  0.7984772E+03  0.7818609E-02  0.9562224E-01
        1   -1    0    0  501    0  0.00000000000E+00  0.00000000000E+00  0.15395405843E+04  0.15395405843E+04  0.50400001928E-02 0.  1.
       -1   -1    0    0    0  501  0.00000000000E+00  0.00000000000E+00 -0.10353182974E+03  0.10353182986E+03  0.50400001928E-02 0. -1.
    10030    2    1    2    0    0  0.00000000000E+00  0.00000000000E+00  0.14360087546E+04  0.16430724142E+04  0.79847718505E+03 0.  0.
        2    1    3    3  502    0  0.96649607246E+02  0.30004659414E+03  0.12221438292E+04  0.12621428780E+04  0.25500000920E-02 0.  1.
       -2    1    3    3    0  502 -0.96649607246E+02 -0.30004659414E+03  0.21386492540E+03  0.38092953621E+03  0.25500000920E-02 0. -1.
</event>
<event>
 5   0  0.6153659E-03  0.7990203E+03  0.7818609E-02  0.9561436E-01
        2   -1    0    0  501    0  0.00000000000E+00  0.00000000000E+00  0.28812849653E+03  0.28812849654E+03  0.25500000920E-02 0. -1.
       -2   -1    0    0    0  501  0.00000000000E+00  0.00000000000E+00 -0.55394850486E+03  0.55394850487E+03  0.25500000920E-02 0.  1.
    10030    2    1    2    0    0  0.00000000000E+00  0.00000000000E+00 -0.26582000834E+03  0.84207700141E+03  0.79902027475E+03 0.  0.
        2    1    3    3  502    0  0.41409747204E+02  0.10854153891E+03  0.26993447910E+03  0.29387183575E+03  0.25500000920E-02 0. -1.
       -2    1    3    3    0  502 -0.41409747204E+02 -0.10854153891E+03 -0.53575448744E+03  0.54820516566E+03  0.25500000920E-02 0.  1.
</event>
<event>
 5   0  0.6153659E-03  0.7918676E+03  0.7818609E-02  0.9571864E-01
        2   -1    0    0  501    0  0.00000000000E+00  0.00000000000E+00  0.30987419200E+03  0.30987419201E+03  0.25500000920E-02 0. -1.
       -2   -1    0    0    0  501  0.00000000000E+00  0.00000000000E+00 -0.50589431655E+03  0.50589431656E+03  0.25500000920E-02 0.  1.
    10030    2    1    2    0    0  0.00000000000E+00  0.00000000000E+00 -0.19602012455E+03  0.81576850857E+03  0.79186764699E+03 0.  0.
        2    1    3    3  502    0 -0.71930551290E+02  0.32156188105E+03 -0.32415232699E+03  0.46222373225E+03  0.25500000920E-02 0.  1.
       -2    1    3    3    0  502  0.71930551290E+02 -0.32156188105E+03  0.12813220244E+03  0.35354477632E+03  0.25500000920E-02 0. -1.
</event>
<event>
 5   0  0.3714448E-03  0.8004693E+03  0.7818609E-02  0.9559338E-01
       -1   -1    0    0    0  501  0.00000000000E+00  0.00000000000E+00  0.68957523167E+03  0.68957523168E+03  0.50400001928E-02 0. -1.
        1   -1    0    0  501    0  0.00000000000E+00  0.00000000000E+00 -0.23229921284E+03  0.23229921289E+03  0.50400001928E-02 0.  1.
    10030    2    1    2    0    0  0.00000000000E+00  0.00000000000E+00  0.45727601883E+03  0.92187444458E+03  0.80046932119E+03 0.  0.
        1    1    3    3  502    0  0.30647831709E+02  0.31395521443E+03 -0.55057250274E+02  0.32021628174E+03  0.50400001928E-02 0.  1.
       -1    1    3    3    0  502 -0.30647831709E+02 -0.31395521443E+03  0.51233326910E+03  0.60165816284E+03  0.50400001928E-02 0. -1.
</event>
<event>
 5   0  0.3671128E-03  0.7997806E+03  0.7818609E-02  0.9560335E-01
       -1   -1    0    0    0  501  0.00000000000E+00  0.00000000000E+00  0.49046011460E+03  0.49046011463E+03  0.50400001928E-02 0. -1.
        1   -1    0    0  501    0  0.00000000000E+00  0.00000000000E+00 -0.32604537145E+03  0.32604537149E+03  0.50400001928E-02 0.  1.
    10030    2    1    2    0    0  0.00000000000E+00  0.00000000000E+00  0.16441474315E+03  0.81650548612E+03  0.79978059560E+03 0.  0.
        2    1    3    3  502    0  0.18291716990E+03 -0.22411842455E+03  0.36406871050E+03  0.46500944639E+03  0.25500000920E-02 0. -1.
       -2    1    3    3    0  502 -0.18291716990E+03  0.22411842455E+03 -0.19965396734E+03  0.35149603973E+03  0.25500000920E-02 0.  1.
</event>
<event>
 5   0  0.6256781E-03  0.8018823E+03  0.7818609E-02  0.9557297E-01
        2   -1    0    0  501    0  0.00000000000E+00  0.00000000000E+00  0.12011179361E+04  0.12011179361E+04  0.25500000920E-02 0.  1.
       -2   -1    0    0    0  501  0.00000000000E+00  0.00000000000E+00 -0.13383681025E+03  0.13383681027E+03  0.25500000920E-02 0. -1.
    10030    2    1    2    0    0  0.00000000000E+00  0.00000000000E+00  0.10672811258E+04  0.13349547464E+04  0.80188226895E+03 0.  0.
        1    1    3    3  502    0 -0.19338808302E+03  0.12736616419E+03  0.10785407590E+04  0.11031188781E+04  0.50400001928E-02 0.  1.
       -1    1    3    3    0  502  0.19338808302E+03 -0.12736616419E+03 -0.11259633154E+02  0.23183586824E+03  0.50400001928E-02 0. -1.
</event>
<event>
 5   0  0.3860515E-03  0.8009988E+03  0.7818609E-02  0.9558573E-01
       -1   -1    0    0    0  501  0.00000000000E+00  0.00000000000E+00  0.13128323939E+03  0.13128323949E+03  0.50400001928E-02 0. -1.
        1   -1    0    0  501    0  0.00000000000E+00  0.00000000000E+00 -0.12217840288E+04  0.12217840289E+04  0.50400001928E-02 0.  1.
    10030    2    1    2    0    0  0.00000000000E+00  0.00000000000E+00 -0.10905007895E+04  0.13530672683E+04  0.80099878955E+03 0.  0.
        4    1    3    3  502    0 -0.26372716073E+03  0.29925960937E+03 -0.48458338037E+03  0.62763922323E+03  0.12699999809E+01 0.  1.
       -4    1    3    3    0  502  0.26372716073E+03 -0.29925960937E+03 -0.60591740908E+03  0.72542804511E+03  0.12699999809E+01 0. -1.
</event>
<event>
 5   0  0.6256781E-03  0.8002035E+03  0.7818609E-02  0.9559723E-01
       -2   -1    0    0    0  501  0.00000000000E+00  0.00000000000E+00  0.13399411154E+03  0.13399411156E+03  0.25500000920E-02 0. -1.
        2   -1    0    0  501    0  0.00000000000E+00  0.00000000000E+00 -0.11946898808E+04  0.11946898808E+04  0.25500000920E-02 0.  1.
    10030    2    1    2    0    0  0.00000000000E+00  0.00000000000E+00 -0.10606957693E+04  0.13286839924E+04  0.80020349702E+03 0.  0.
        1    1    3    3  502    0 -0.52489936326E+02  0.30231019682E+00 -0.11889478141E+04  0.11901059572E+04  0.50400001928E-02 0.  1.
       -1    1    3    3    0  502  0.52489936326E+02 -0.30231019682E+00  0.12825204480E+03  0.13857803515E+03  0.50400001928E-02 0. -1.
</event>
<event>
 5   0  0.3714448E-03  0.8013003E+03  0.7818609E-02  0.9558137E-01
        1   -1    0    0  501    0  0.00000000000E+00  0.00000000000E+00  0.74367689358E+03  0.74367689359E+03  0.50400001928E-02 0. -1.
       -1   -1    0    0    0  501  0.00000000000E+00  0.00000000000E+00 -0.21584718161E+03  0.21584718166E+03  0.50400001928E-02 0.  1.
    10030    2    1    2    0    0  0.00000000000E+00  0.00000000000E+00  0.52782971197E+03  0.95952407526E+03  0.80130034704E+03 0.  0.
        1    1    3    3  502    0 -0.81181844349E+02  0.49388168584E+02 -0.20215797506E+03  0.22337755025E+03  0.50400001928E-02 0.  1.
       -1    1    3    3    0  502  0.81181844349E+02 -0.49388168584E+02  0.72998768703E+03  0.73614652501E+03  0.50400001928E-02 0. -1.
</event>
<event>
 5   0  0.6337108E-03  0.7986793E+03  0.7818609E-02  0.9561931E-01
        2   -1    0    0  501    0  0.00000000000E+00  0.00000000000E+00  0.27271729493E+03  0.27271729494E+03  0.25500000920E-02 0.  1.
       -2   -1    0    0    0  501  0.00000000000E+00  0.00000000000E+00 -0.58475265842E+03  0.58475265843E+03  0.25500000920E-02 0. -1.
    10030    2    1    2    0    0  0.00000000000E+00  0.00000000000E+00 -0.31203536349E+03  0.85746995337E+03  0.79867931791E+03 0.  0.
        4    1    3    3  502    0 -0.21647286530E+03 -0.23333989549E+03 -0.41493921037E+03  0.52295713920E+03  0.12699999809E+01 0. -1.
       -4    1    3    3    0  502  0.21647286530E+03  0.23333989549E+03  0.10290384688E+03  0.33451281417E+03  0.12699999809E+01 0.  1.
</event>
<event>
 5   0  0.3753450E-03  0.7991813E+03  0.7818609E-02  0.9561203E-01
        1   -1    0    0  501    0  0.00000000000E+00  0.00000000000E+00  0.30334128271E+03  0.30334128275E+03  0.50400001928E-02 0.  1.
       -1   -1    0    0    0  501  0.00000000000E+00  0.00000000000E+00 -0.52637964315E+03  0.52637964317E+03  0.50400001928E-02 0. -1.
    10030    2    1    2    0    0  0.00000000000E+00  0.00000000000E+00 -0.22303836043E+03  0.82972092592E+03  0.79918127148E+03 0.  0.
        5    1    3    3  502    0 -0.17904047687E+03 -0.48853738573E+02 -0.47888901161E+03  0.51361362479E+03  0.46999998093E+01 0. -1.
       -5    1    3    3    0  502  0.17904047687E+03  0.48853738573E+02  0.25585065117E+03  0.31610730114E+03  0.46999998093E+01 0.  1.
</event>
<event>
 5   0  0.6536209E-03  0.7973473E+03  0.7818609E-02  0.9563865E-01
        2   -1    0    0  501    0  0.00000000000E+00  0.00000000000E+00  0.28870018501E+03  0.28870018502E+03  0.25500000920E-02 0.  1.
       -2   -1    0    0    0  501  0.00000000000E+00  0.00000000000E+00 -0.55053895416E+03  0.55053895416E+03  0.25500000920E-02 0. -1.
    10030    2    1    2    0    0  0.00000000000E+00  0.00000000000E+00 -0.26183876915E+03  0.83923913918E+03  0.79734734696E+03 0.  0.
        3    1    3    3  502    0 -0.65886285114E+01 -0.23406507159E+03 -0.47053379480E+03  0.52557771073E+03  0.10100000352E+00 0. -1.
       -3    1    3    3    0  502  0.65886285114E+01  0.23406507159E+03  0.20869502566E+03  0.31366142845E+03  0.10100000352E+00 0.  1.
</event>
<event>
 5   0  0.6153659E-03  0.8014091E+03  0.7818609E-02  0.9557980E-01
        2   -1    0    0  501    0  0.00000000000E+00  0.00000000000E+00  0.14864905302E+04  0.14864905302E+04  0.25500000920E-02 0.  1.
       -2   -1    0    0    0  501  0.00000000000E+00  0.00000000000E+00 -0.10801557947E+03  0.10801557950E+03  0.25500000920E-02 0. -1.
    10030    2    1    2    0    0  0.00000000000E+00  0.00000000000E+00  0.13784749507E+04  0.15945061097E+04  0.80140909905E+03 0.  0.
        2    1    3    3  502    0  0.61997280132E+02  0.29789937372E+03  0.17049582985E+03  0.34879295808E+03  0.25500000920E-02 0. -1.
       -2    1    3    3    0  502 -0.61997280132E+02 -0.29789937372E+03  0.12079791208E+04  0.12457131516E+04  0.25500000920E-02 0.  1.
</event>
<event>
 5   0  0.6256781E-03  0.7997337E+03  0.7818609E-02  0.9560403E-01
       -2   -1    0    0    0  501  0.00000000000E+00  0.00000000000E+00  0.55778857330E+03  0.55778857331E+03  0.25500000920E-02 0.  1.
        2   -1    0    0  501    0  0.00000000000E+00  0.00000000000E+00 -0.28665607457E+03  0.28665607458E+03  0.25500000920E-02 0. -1.
    10030    2    1    2    0    0  0.00000000000E+00  0.00000000000E+00  0.27113249873E+03  0.84444464788E+03  0.79973366283E+03 0.  0.
        1    1    3    3  502    0 -0.81710660583E+02  0.39122197197E+03  0.12211764395E+03  0.41790427420E+03  0.50400001928E-02 0. -1.
       -1    1    3    3    0  502  0.81710660583E+02 -0.39122197197E+03  0.14901485478E+03  0.42654037368E+03  0.50400001928E-02 0.  1.
</event>
<event>
 5   0  0.3671128E-03  0.7972489E+03  0.7818609E-02  0.9564008E-01
       -1   -1    0    0    0  501  0.00000000000E+00  0.00000000000E+00  0.88836780990E+03  0.88836780991E+03  0.50400001928E-02 0. -1.
        1   -1    0    0  501    0  0.00000000000E+00  0.00000000000E+00 -0.17886897429E+03  0.17886897436E+03  0.50400001928E-02 0.  1.
    10030    2    1    2    0    0  0.00000000000E+00  0.00000000000E+00  0.70949883560E+03  0.10672367843E+04  0.79724886703E+03 0.  0.
        2    1    3    3  502    0 -0.27385502162E+03  0.12852554779E+03  0.70224706926E+03  0.76463477268E+03  0.25500000920E-02 0. -1.
       -2    1    3    3    0  502  0.27385502162E+03 -0.12852554779E+03  0.72517663390E+01  0.30260201159E+03  0.25500000920E-02 0.  1.
</event>
<event>
 5   0  0.6153659E-03  0.8036754E+03  0.7818609E-02  0.9554712E-01
        2   -1    0    0  501    0  0.00000000000E+00  0.00000000000E+00  0.15846334875E+03  0.15846334877E+03  0.25500000920E-02 0.  1.
       -2   -1    0    0    0  501  0.00000000000E+00  0.00000000000E+00 -0.10189961210E+04  0.10189961210E+04  0.25500000920E-02 0. -1.
    10030    2    1    2    0    0  0.00000000000E+00  0.00000000000E+00 -0.86053277224E+03  0.11774594698E+04  0.80367540142E+03 0.  0.
        2    1    3    3  502    0  0.33594160453E+03  0.11275324628E+03 -0.70787540598E+03  0.79161710858E+03  0.25500000920E-02 0. -1.
       -2    1    3    3    0  502 -0.33594160453E+03 -0.11275324628E+03 -0.15265736625E+03  0.38584236118E+03  0.25500000920E-02 0.  1.
</event>
<event>
 5   0  0.3627496E-03  0.8019674E+03  0.7818609E-02  0.9557174E-01
        1   -1    0    0  501    0  0.00000000000E+00  0.00000000000E+00  0.56206226682E+03  0.56206226684E+03  0.50400001928E-02 0. -1.
       -1   -1    0    0    0  501  0.00000000000E+00  0.00000000000E+00 -0.28606783857E+03  0.28606783862E+03  0.50400001928E-02 0.  1.
    10030    2    1    2    0    0  0.00000000000E+00  0.00000000000E+00  0.27599442825E+03  0.84813010546E+03  0.80196742538E+03 0.  0.
        3    1    3    3  502    0  0.18720977548E+03 -0.14695612189E+03 -0.20329278127E+03  0.31300410048E+03  0.10100000352E+00 0.  1.
       -3    1    3    3    0  502 -0.18720977548E+03  0.14695612189E+03  0.47928720952E+03  0.53512600498E+03  0.10100000352E+00 0. -1.
</event>
<event>
 5   0  0.3671128E-03  0.8050593E+03  0.7818609E-02  0.9552723E-01
        1   -1    0    0  501    0  0.00000000000E+00  0.00000000000E+00  0.21877884719E+03  0.21877884725E+03  0.50400001928E-02 0.  1.
       -1   -1    0    0    0  501  0.00000000000E+00  0.00000000000E+00 -0.74061143101E+03  0.74061143103E+03  0.50400001928E-02 0. -1.
    10030    2    1    2    0    0  0.00000000000E+00  0.00000000000E+00 -0.52183258382E+03  0.95939027828E+03  0.80505929007E+03 0.  0.
        2    1    3    3  502    0  0.61913043505E+02 -0.33091571021E+03  0.20468256821E+01  0.33666395964E+03  0.25500000920E-02 0. -1.
       -2    1    3    3    0  502 -0.61913043505E+02  0.33091571021E+03 -0.52387940950E+03  0.62272631864E+03  0.25500000920E-02 0.  1.
</event>
<event>
 5   0  0.3671128E-03  0.7807417E+03  0.7818609E-02  0.9588319E-01
       -1   -1    0    0    0  501  0.00000000000E+00  0.00000000000E+00  0.30984688828E+03  0.30984688832E+03  0.50400001928E-02 0.  1.
        1   -1    0    0  501    0  0.00000000000E+00  0.00000000000E+00 -0.49182167734E+03  0.49182167736E+03  0.50400001928E-02 0. -1.
    10030    2    1    2    0    0  0.00000000000E+00  0.00000000000E+00 -0.18197478906E+03  0.80166856568E+03  0.78074174049E+03 0.  0.
        2    1    3    3  502    0 -0.38028111374E+03  0.87320551007E+02 -0.78377665789E+02  0.39797193694E+03  0.25500000920E-02 0. -1.
       -2    1    3    3    0  502  0.38028111374E+03 -0.87320551007E+02 -0.10359712327E+03  0.40369662873E+03  0.25500000920E-02 0.  1.
</event>
<event>
 5   0  0.3753450E-03  0.8016476E+03  0.7818609E-02  0.9557635E-01
        1   -1    0    0  501    0  0.00000000000E+00  0.00000000000E+00  0.79954926831E+03  0.79954926832E+03  0.50400001928E-02 0. -1.
       -1   -1    0    0    0  501  0.00000000000E+00  0.00000000000E+00 -0.20093787452E+03  0.20093787459E+03  0.50400001928E-02 0.  1.
    10030    2    1    2    0    0  0.00000000000E+00  0.00000000000E+00  0.59861139379E+03  0.10004871429E+04  0.80164762980E+03 0.  0.
        5    1    3    3  502    0 -0.27860843902E+03  0.14017188164E+03  0.61347153742E+03  0.68821525406E+03  0.46999998093E+01 0. -1.
       -5    1    3    3    0  502  0.27860843902E+03 -0.14017188164E+03 -0.14860143635E+02  0.31227188885E+03  0.46999998093E+01 0.  1.
</event>
<event>
 5   0  0.6256781E-03  0.7995161E+03  0.7818609E-02  0.9560718E-01
        2   -1    0    0  501    0  0.00000000000E+00  0.00000000000E+00  0.77871851806E+03  0.77871851806E+03  0.25500000920E-02 0. -1.
       -2   -1    0    0    0  501  0.00000000000E+00  0.00000000000E+00 -0.20521727210E+03  0.20521727212E+03  0.25500000920E-02 0.  1.
    10030    2    1    2    0    0  0.00000000000E+00  0.00000000000E+00  0.57350124595E+03  0.98393579018E+03  0.79951607869E+03 0.  0.
        1    1    3    3  502    0 -0.18465258832E+03 -0.47523624600E+02 -0.14565127859E+03  0.23993617536E+03  0.50400001928E-02 0.  1.
       -1    1    3    3    0  502  0.18465258832E+03  0.47523624600E+02  0.71915252454E+03  0.74399961481E+03  0.50400001928E-02 0. -1.
</event>
<event>
 5   0  0.6337108E-03  0.7942992E+03  0.7818609E-02  0.9568306E-01
       -2   -1    0    0    0  501  0.00000000000E+00  0.00000000000E+00  0.47385935244E+03  0.47385935244E+03  0.25500000920E-02 0. -1.
        2   -1    0    0  501    0  0.00000000000E+00  0.00000000000E+00 -0.33285780719E+03  0.33285780720E+03  0.25500000920E-02 0.  1.
    10030    2    1    2    0    0  0.00000000000E+00  0.00000000000E+00  0.14100154525E+03  0.80671715964E+03  0.79429915013E+03 0.  0.
        4    1    3    3  502    0 -0.16056850652E+03  0.14776242865E+03 -0.26651556590E+03  0.34445339361E+03  0.12699999809E+01 0.  1.
       -4    1    3    3    0  502  0.16056850652E+03 -0.14776242865E+03  0.40751711114E+03  0.46226376603E+03  0.12699999809E+01 0. -1.
</event>
<event>
 5   0  0.5813850E-03  0.8022511E+03  0.7818609E-02  0.9556764E-01
       -2   -1    0    0    0  501  0.00000000000E+00  0.00000000000E+00  0.52159255658E+03  0.52159255659E+03  0.25500000920E-02 0.  1.
        2   -1    0    0  501    0  0.00000000000E+00  0.00000000000E+00 -0.30848158627E+03  0.30848158628E+03  0.25500000920E-02 0. -1.
    10030    2    1    2    0    0  0.00000000000E+00  0.00000000000E+00  0.21311097031E+03  0.83007414287E+03  0.80225108102E+03 0.  0.
        5    1    3    3  502    0  0.29655990850E+03 -0.19150172108E+03 -0.90466191772E+02  0.36445426374E+03  0.46999998093E+01 0. -1.
       -5    1    3    3    0  502 -0.29655990850E+03  0.19150172108E+03  0.30357716208E+03  0.46561987913E+03  0.46999998093E+01 0.  1.
</event>
<event>
 5   0  0.3671128E-03  0.7985342E+03  0.7818609E-02  0.9562141E-01
        1   -1    0    0  501    0  0.00000000000E+00  0.00000000000E+00  0.55107941250E+03  0.55107941252E+03  0.50400001928E-02 0.  1.
       -1   -1    0    0    0  501  0.00000000000E+00  0.00000000000E+00 -0.28927632167E+03  0.28927632171E+03  0.50400001928E-02 0. -1.
    10030    2    1    2    0    0  0.00000000000E+00  0.00000000000E+00  0.26180309083E+03  0.84035573423E+03  0.79853422074E+03 0.  0.
        2    1    3    3  502    0 -0.22381759514E+03  0.20574125205E+03 -0.14147899204E+03  0.33532086706E+03  0.25500000920E-02 0. -1.
       -2    1    3    3    0  502  0.22381759514E+03 -0.20574125205E+03  0.40328208287E+03  0.50503486718E+03  0.25500000920E-02 0.  1.
</event>
<event>
 5   0  0.2478000E-03  0.8033756E+03  0.7818609E-02  0.9555144E-01
       -4   -1    0    0    0  501  0.00000000000E+00  0.00000000000E+00  0.23050037745E+03  0.23050387612E+03  0.12699999809E+01 0. -1.
        4   -1    0    0  501    0  0.00000000000E+00  0.00000000000E+00 -0.70000290059E+03  0.70000405265E+03  0.12699999809E+01 0.  1.
    10030    2    1    2    0    0  0.00000000000E+00  0.00000000000E+00 -0.46950252313E+03  0.93050792877E+03  0.80337561967E+03 0.  0.
        2    1    3    3  502    0 -0.20414413554E+03 -0.28082154543E+03 -0.46875606937E+03  0.58332479892E+03  0.25500000920E-02 0.  1.
       -2    1    3    3    0  502  0.20414413554E+03  0.28082154543E+03 -0.74645376022E+00  0.34718312985E+03  0.25500000920E-02 0. -1.
</event>
<event>
 5   0  0.3753450E-03  0.8006251E+03  0.7818609E-02  0.9559113E-01
       -1   -1    0    0    0  501  0.00000000000E+00  0.00000000000E+00  0.11959190006E+04  0.11959190006E+04  0.50400001928E-02 0.  1.
        1   -1    0    0  501    0  0.00000000000E+00  0.00000000000E+00 -0.13399749420E+03  0.13399749429E+03  0.50400001928E-02 0. -1.
    10030    2    1    2    0    0  0.00000000000E+00  0.00000000000E+00  0.10619215064E+04  0.13299164949E+04  0.80062512930E+03 0.  0.
        5    1    3    3  502    0  0.31019654782E+03  0.25203307335E+03  0.49436035749E+03  0.63573329423E+03  0.46999998093E+01 0. -1.
       -5    1    3    3    0  502 -0.31019654782E+03 -0.25203307335E+03  0.56756114891E+03  0.69418320067E+03  0.46999998093E+01 0.  1.
</event>
<event>
 5   0  0.3753450E-03  0.8005954E+03  0.7818609E-02  0.9559156E-01
        1   -1    0    0  501    0  0.00000000000E+00  0.00000000000E+00  0.31634310599E+03  0.31634310603E+03  0.50400001928E-02 0. -1.
       -1   -1    0    0    0  501  0.00000000000E+00  0.00000000000E+00 -0.50653312355E+03  0.50653312358E+03  0.50400001928E-02 0.  1.
    10030    2    1    2    0    0  0.00000000000E+00  0.00000000000E+00 -0.19019001756E+03  0.82287622961E+03  0.80059543246E+03 0.  0.
        5    1    3    3  502    0 -0.37698225479E+03 -0.11591639191E+03 -0.24901339414E+02  0.39521436847E+03  0.46999998093E+01 0. -1.
       -5    1    3    3    0  502  0.37698225479E+03  0.11591639191E+03 -0.16528867815E+03  0.42766186113E+03  0.46999998093E+01 0.  1.
</event>
<event>
 5   0  0.3860515E-03  0.8021221E+03  0.7818609E-02  0.9556950E-01
        1   -1    0    0  501    0  0.00000000000E+00  0.00000000000E+00  0.39550157410E+03  0.39550157413E+03  0.50400001928E-02 0. -1.
       -1   -1    0    0    0  501  0.00000000000E+00  0.00000000000E+00 -0.40669871757E+03  0.40669871760E+03  0.50400001928E-02 0.  1.
    10030    2    1    2    0    0  0.00000000000E+00  0.00000000000E+00 -0.11197143467E+02  0.80220029173E+03  0.80212214284E+03 0.  0.
        4    1    3    3  502    0 -0.19669162341E+03  0.34637409605E+03  0.41158105856E+02  0.40044751430E+03  0.12699999809E+01 0. -1.
       -4    1    3    3    0  502  0.19669162341E+03 -0.34637409605E+03 -0.52355249323E+02  0.40175277742E+03  0.12699999809E+01 0.  1.
</event>
<event>
 5   0  0.3714448E-03  0.7994524E+03  0.7818609E-02  0.9560810E-01
        1   -1    0    0  501    0  0.00000000000E+00  0.00000000000E+00  0.86344340696E+03  0.86344340697E+03  0.50400001928E-02 0. -1.
       -1   -1    0    0    0  501  0.00000000000E+00  0.00000000000E+00 -0.18505095871E+03  0.18505095878E+03  0.50400001928E-02 0.  1.
    10030    2    1    2    0    0  0.00000000000E+00  0.00000000000E+00  0.67839244824E+03  0.10484943658E+04  0.79945238831E+03 0.  0.
        1    1    3    3  502    0  0.81086700106E+02  0.91857585843E+02 -0.15981466879E+03  0.20137923775E+03  0.50400001928E-02 0.  1.
       -1    1    3    3    0  502 -0.81086700106E+02 -0.91857585843E+02  0.83820711704E+03  0.84711512800E+03  0.50400001928E-02 0. -1.
</event>
<event>
 5   0  0.6337108E-03  0.8008149E+03  0.7818609E-02  0.9558838E-01
       -2   -1    0    0    0  501  0.00000000000E+00  0.00000000000E+00  0.10587578911E+03  0.10587578914E+03  0.25500000920E-02 0.  1.
        2   -1    0    0  501    0  0.00000000000E+00  0.00000000000E+00 -0.15142848848E+04  0.15142848848E+04  0.25500000920E-02 0. -1.
    10030    2    1    2    0    0  0.00000000000E+00  0.00000000000E+00 -0.14084090957E+04  0.16201606739E+04  0.80081485286E+03 0.  0.
        4    1    3    3  502    0 -0.28002676600E+03 -0.95252108516E+02 -0.15819451666E+03  0.33543266367E+03  0.12699999809E+01 0.  1.
       -4    1    3    3    0  502  0.28002676600E+03  0.95252108516E+02 -0.12502145790E+04  0.12847280103E+04  0.12699999809E+01 0. -1.
</event>
<event>
 5   0  0.5813850E-03  0.8016346E+03  0.7818609E-02  0.9557654E-01
       -2   -1    0    0    0  501  0.00000000000E+00  0.00000000000E+00  0.30098947666E+03  0.30098947667E+03  0.25500000920E-02 0.  1.
        2   -1    0    0  501    0  0.00000000000E+00  0.00000000000E+00 -0.53375458081E+03  0.53375458081E+03  0.25500000920E-02 0. -1.
    10030    2    1    2    0    0  0.00000000000E+00  0.00000000000E+00 -0.23276510414E+03  0.83474405749E+03  0.80163460991E+03 0.  0.
        5    1    3    3  502    0  0.29032174482E+03  0.17598231843E+03 -0.33819690600E+03  0.47922409074E+03  0.46999998093E+01 0. -1.
       -5    1    3    3    0  502 -0.29032174482E+03 -0.17598231843E+03  0.10543180186E+03  0.35551996675E+03  0.46999998093E+01 0.  1.
</event>
<event>
 5   0  0.3753450E-03  0.7982177E+03  0.7818609E-02  0.9562600E-01
        1   -1    0    0  501    0  0.00000000000E+00  0.00000000000E+00  0.53743271131E+03  0.53743271133E+03  0.50400001928E-02 0. -1.
       -1   -1    0    0    0  501  0.00000000000E+00  0.00000000000E+00 -0.29638664314E+03  0.29638664319E+03  0.50400001928E-02 0.  1.
    10030    2    1    2    0    0  0.00000000000E+00  0.00000000000E+00  0.24104606817E+03  0.83381935452E+03  0.79821770777E+03 0.  0.
        5    1    3    3  502    0  0.16952067769E+03  0.18251998229E+03  0.44622262742E+03  0.51106509108E+03  0.46999998093E+01 0. -1.
       -5    1    3    3    0  502 -0.16952067769E+03 -0.18251998229E+03 -0.20517655926E+03  0.32275426344E+03  0.46999998093E+01 0.  1.
</event>
<event>
 5   0  0.6256781E-03  0.8003389E+03  0.7818609E-02  0.9559527E-01
       -2   -1    0    0    0  501  0.00000000000E+00  0.00000000000E+00  0.46475413056E+03  0.46475413057E+03  0.25500000920E-02 0.  1.
        2   -1    0    0  501    0  0.00000000000E+00  0.00000000000E+00 -0.34455981987E+03  0.34455981987E+03  0.25500000920E-02 0. -1.
    10030    2    1    2    0    0  0.00000000000E+00  0.00000000000E+00  0.12019431070E+03  0.80931395045E+03  0.80033892699E+03 0.  0.
        1    1    3    3  502    0 -0.13576345478E+02  0.15191459210E+03  0.43420977507E+03  0.46021787149E+03  0.50400001928E-02 0.  1.
       -1    1    3    3    0  502  0.13576345478E+02 -0.15191459210E+03 -0.31401546437E+03  0.34909607895E+03  0.50400001928E-02 0. -1.
</event>
<event>
 5   0  0.6153659E-03  0.8020924E+03  0.7818609E-02  0.9556993E-01
        2   -1    0    0  501    0  0.00000000000E+00  0.00000000000E+00  0.38032806871E+03  0.38032806872E+03  0.25500000920E-02 0.  1.
       -2   -1    0    0    0  501  0.00000000000E+00  0.00000000000E+00 -0.42289293389E+03  0.42289293389E+03  0.25500000920E-02 0. -1.
    10030    2    1    2    0    0  0.00000000000E+00  0.00000000000E+00 -0.42564865172E+02  0.80322100262E+03  0.80209239574E+03 0.  0.
        2    1    3    3  502    0  0.10941512228E+03  0.38513291605E+03 -0.44531922123E+02  0.40284255498E+03  0.25500000920E-02 0. -1.
       -2    1    3    3    0  502 -0.10941512228E+03 -0.38513291605E+03  0.19670569514E+01  0.40037844763E+03  0.25500000920E-02 0.  1.
</event>
<event>
 5   0  0.6153659E-03  0.8079601E+03  0.7818609E-02  0.9548566E-01
       -2   -1    0    0    0  501  0.00000000000E+00  0.00000000000E+00  0.22759427700E+03  0.22759427701E+03  0.25500000920E-02 0.  1.
        2   -1    0    0  501    0  0.00000000000E+00  0.00000000000E+00 -0.71706495640E+03  0.71706495640E+03  0.25500000920E-02 0. -1.
    10030    2    1    2    0    0  0.00000000000E+00  0.00000000000E+00 -0.48947067940E+03  0.94465923341E+03  0.80796009882E+03 0.  0.
        2    1    3    3  502    0  0.26943350775E+03 -0.30072995911E+03 -0.22962801861E+03  0.46450183028E+03  0.25500000920E-02 0.  1.
       -2    1    3    3    0  502 -0.26943350775E+03  0.30072995911E+03 -0.25984266079E+03  0.48015740313E+03  0.25500000920E-02 0. -1.
</event>
<event>
 5   0  0.3860515E-03  0.7993691E+03  0.7818609E-02  0.9560931E-01
        1   -1    0    0  501    0  0.00000000000E+00  0.00000000000E+00  0.38434176534E+03  0.38434176538E+03  0.50400001928E-02 0. -1.
       -1   -1    0    0    0  501  0.00000000000E+00  0.00000000000E+00 -0.41563979548E+03  0.41563979551E+03  0.50400001928E-02 0.  1.
    10030    2    1    2    0    0  0.00000000000E+00  0.00000000000E+00 -0.31298030140E+02  0.79998156089E+03  0.79936908313E+03 0.  0.
        4    1    3    3  502    0 -0.29582582691E+03 -0.20737331017E+03  0.15544838052E+03  0.39329686185E+03  0.12699999809E+01 0. -1.
       -4    1    3    3    0  502  0.29582582691E+03  0.20737331017E+03 -0.18674641066E+03  0.40668469904E+03  0.12699999809E+01 0.  1.
</event>
<event>
 5   0  0.3714448E-03  0.7959147E+03  0.7818609E-02  0.9565949E-01
        1   -1    0    0  501    0  0.00000000000E+00  0.00000000000E+00  0.46024814951E+03  0.46024814954E+03  0.50400001928E-02 0.  1.
       -1   -1    0    0    0  501  0.00000000000E+00  0.00000000000E+00 -0.34409706935E+03  0.34409706939E+03  0.50400001928E-02 0. -1.
    10030    2    1    2    0    0  0.00000000000E+00  0.00000000000E+00  0.11615108016E+03  0.80434521893E+03  0.79591466740E+03 0.  0.
        1    1    3    3  502    0  0.25755115079E+03  0.10958262831E+03 -0.22781508918E+03  0.36088871218E+03  0.50400001928E-02 0. -1.
       -1    1    3    3    0  502 -0.25755115079E+03 -0.10958262831E+03  0.34396616934E+03  0.44345650674E+03  0.50400001928E-02 0.  1.
</event>
<event>
 5   0  0.5813850E-03  0.8019708E+03  0.7818609E-02  0.9557169E-01
        2   -1    0    0  501    0  0.00000000000E+00  0.00000000000E+00  0.65469484380E+03  0.65469484381E+03  0.25500000920E-02 0. -1.
       -2   -1    0    0    0  501  0.00000000000E+00  0.00000000000E+00 -0.24559428284E+03  0.24559428286E+03  0.25500000920E-02 0.  1.
    10030    2    1    2    0    0  0.00000000000E+00  0.00000000000E+00  0.40910056096E+03  0.90028912667E+03  0.80197084898E+03 0.  0.
        5    1    3    3  502    0  0.12596192714E+03 -0.22384553535E+03 -0.14108162384E+03  0.29308590101E+03  0.46999998093E+01 0.  1.
       -5    1    3    3    0  502 -0.12596192714E+03  0.22384553535E+03  0.55018218480E+03  0.60720322566E+03  0.46999998093E+01 0. -1.
</event>
<event>
 5   0  0.3753450E-03  0.7979440E+03  0.7818609E-02  0.9562998E-01
        1   -1    0    0  501    0  0.00000000000E+00  0.00000000000E+00  0.27997799637E+03  0.27997799642E+03  0.50400001928E-02 0. -1.
       -1   -1    0    0    0  501  0.00000000000E+00  0.00000000000E+00 -0.56853983684E+03  0.56853983686E+03  0.50400001928E-02 0.  1.
    10030    2    1    2    0    0  0.00000000000E+00  0.00000000000E+00 -0.28856184047E+03  0.84851783328E+03  0.79794396897E+03 0.  0.
        5    1    3    3  502    0 -0.36588384765E+03 -0.18522052712E+02 -0.31222262243E+03  0.48137211424E+03  0.46999998093E+01 0. -1.
       -5    1    3    3    0  502  0.36588384765E+03  0.18522052712E+02  0.23660781959E+02  0.36714571904E+03  0.46999998093E+01 0.  1.
</event>
<event>
 5   0  0.6153659E-03  0.7941456E+03  0.7818609E-02  0.9568530E-01
       -2   -1    0    0    0  501  0.00000000000E+00  0.00000000000E+00  0.34936623322E+03  0.34936623323E+03  0.25500000920E-02 0. -1.
        2   -1    0    0  501    0  0.00000000000E+00  0.00000000000E+00 -0.45129373906E+03  0.45129373907E+03  0.25500000920E-02 0.  1.
    10030    2    1    2    0    0  0.00000000000E+00  0.00000000000E+00 -0.10192750584E+03  0.80065997230E+03  0.79414556273E+03 0.  0.
        2    1    3    3  502    0 -0.14908690841E+03 -0.54778286582E+00  0.32007631822E+03  0.35309496713E+03  0.25500000920E-02 0. -1.
       -2    1    3    3    0  502  0.14908690841E+03  0.54778286582E+00 -0.42200382406E+03  0.44756500517E+03  0.25500000920E-02 0.  1.
</event>
<event>
 5   0  0.6337108E-03  0.8000582E+03  0.7818609E-02  0.9559933E-01
        2   -1    0    0  501    0  0.00000000000E+00  0.00000000000E+00  0.84264954021E+03  0.84264954022E+03  0.25500000920E-02 0. -1.
       -2   -1    0    0    0  501  0.00000000000E+00  0.00000000000E+00 -0.18990491516E+03  0.18990491518E+03  0.25500000920E-02 0.  1.
    10030    2    1    2    0    0  0.00000000000E+00  0.00000000000E+00  0.65274462505E+03  0.10325544554E+04  0.80005822152E+03 0.  0.
        4    1    3    3  502    0 -0.26755977071E+03  0.23634965984E+03  0.55929697700E+03  0.66352401162E+03  0.12699999809E+01 0. -1.
       -4    1    3    3    0  502  0.26755977071E+03 -0.23634965984E+03  0.93447648050E+02  0.36903044378E+03  0.12699999809E+01 0.  1.
</event>
<event>
 5   0  0.3860515E-03  0.7969842E+03  0.7818609E-02  0.9564393E-01
        1   -1    0    0  501    0  0.00000000000E+00  0.00000000000E+00  0.22652639618E+04  0.22652639618E+04  0.50400001928E-02 0. -1.
       -1   -1    0    0    0  501  0.00000000000E+00  0.00000000000E+00 -0.70100417775E+02  0.70100417957E+02  0.50400001928E-02 0.  1.
    10030    2    1    2    0    0  0.00000000000E+00  0.00000000000E+00  0.21951635440E+04  0.23353643798E+04  0.79698419134E+03 0.  0.
        4    1    3    3  502    0 -0.15164537000E+03  0.32913159280E+03  0.15832475982E+04  0.16241916432E+04  0.12699999809E+01 0. -1.
       -4    1    3    3    0  502  0.15164537000E+03 -0.32913159280E+03  0.61191594582E+03  0.71117273660E+03  0.12699999809E+01 0.  1.
</event>
<event>
 5   0  0.5813850E-03  0.8032111E+03  0.7818609E-02  0.9555381E-01
        2   -1    0    0  501    0  0.00000000000E+00  0.00000000000E+00  0.11039374240E+04  0.11039374240E+04  0.25500000920E-02 0. -1.
       -2   -1    0    0    0  501  0.00000000000E+00  0.00000000000E+00 -0.14610159563E+03  0.14610159566E+03  0.25500000920E-02 0.  1.
    10030    2    1    2    0    0  0.00000000000E+00  0.00000000000E+00  0.95783582839E+03  0.12500390197E+04  0.80321110337E+03 0.  0.
        5    1    3    3  502    0 -0.93071322055E+02  0.19049302989E+03 -0.51858782994E+02  0.21831465548E+03  0.46999998093E+01 0.  1.
       -5    1    3    3    0  502  0.93071322055E+02 -0.19049302989E+03  0.10096946114E+04  0.10317243642E+04  0.46999998093E+01 0. -1.
</event>
<event>
 5   0  0.6536209E-03  0.8018010E+03  0.7818609E-02  0.9557414E-01
        2   -1    0    0  501    0  0.00000000000E+00  0.00000000000E+00  0.22445003926E+03  0.22445003928E+03  0.25500000920E-02 0.  1.
       -2   -1    0    0    0  501  0.00000000000E+00  0.00000000000E+00 -0.71606670512E+03  0.71606670513E+03  0.25500000920E-02 0. -1.
    10030    2    1    2    0    0  0.00000000000E+00  0.00000000000E+00 -0.49161666586E+03  0.94051674440E+03  0.80180097303E+03 0.  0.
        3    1    3    3  502    0  0.15307635406E+03  0.34202135270E+03 -0.41297789424E+03  0.55763942400E+03  0.10100000352E+00 0. -1.
       -3    1    3    3    0  502 -0.15307635406E+03 -0.34202135270E+03 -0.78638771621E+02  0.38287732040E+03  0.10100000352E+00 0.  1.
</event>
<event>
 5   0  0.6337108E-03  0.8016508E+03  0.7818609E-02  0.9557631E-01
        2   -1    0    0  501    0  0.00000000000E+00  0.00000000000E+00  0.32799700145E+03  0.32799700146E+03  0.25500000920E-02 0.  1.
       -2   -1    0    0    0  501  0.00000000000E+00  0.00000000000E+00 -0.48982455163E+03  0.48982455164E+03  0.25500000920E-02 0. -1.
    10030    2    1    2    0    0  0.00000000000E+00  0.00000000000E+00 -0.16182755017E+03  0.81782155310E+03  0.80165075733E+03 0.  0.
        4    1    3    3  502    0 -0.17714256185E+03 -0.12499950774E+03  0.26301430194E+03  0.34085554136E+03  0.12699999809E+01 0.  1.
       -4    1    3    3    0  502  0.17714256185E+03  0.12499950774E+03 -0.42484185211E+03  0.47696601174E+03  0.12699999809E+01 0. -1.
</event>
<event>
 5   0  0.3671128E-03  0.7984994E+03  0.7818609E-02  0.9562192E-01
        1   -1    0    0  501    0  0.00000000000E+00  0.00000000000E+00  0.93920415834E+03  0.93920415835E+03  0.50400001928E-02 0. -1.
       -1   -1    0    0    0  501  0.00000000000E+00  0.00000000000E+00 -0.16971851754E+03  0.16971851761E+03  0.50400001928E-02 0.  1.
    10030    2    1    2    0    0  0.00000000000E+00  0.00000000000E+00  0.76948564080E+03  0.11089226760E+04  0.79849943637E+03 0.  0.
        2    1    3    3  502    0  0.70626731541E+02  0.19521948632E+03 -0.88865594341E+02  0.22582266695E+03  0.25500000920E-02 0.  1.
       -2    1    3    3    0  502 -0.70626731541E+02 -0.19521948632E+03  0.85835123514E+03  0.88310000901E+03  0.25500000920E-02 0. -1.
</event>
<event>
 5   0  0.5813850E-03  0.8002568E+03  0.7818609E-02  0.9559646E-01
       -2   -1    0    0    0  501  0.00000000000E+00  0.00000000000E+00  0.33715490989E+03  0.33715490990E+03  0.25500000920E-02 0.  1.
        2   -1    0    0  501    0  0.00000000000E+00  0.00000000000E+00 -0.47486398767E+03  0.47486398768E+03  0.25500000920E-02 0. -1.
    10030    2    1    2    0    0  0.00000000000E+00  0.00000000000E+00 -0.13770907778E+03  0.81201889758E+03  0.80025677124E+03 0.  0.
        5    1    3    3  502    0  0.14947575770E+02  0.28479488530E+03 -0.35360177576E+03  0.45429930942E+03  0.46999998093E+01 0. -1.
       -5    1    3    3    0  502 -0.14947575770E+02 -0.28479488530E+03  0.21589269798E+03  0.35771958816E+03  0.46999998093E+01 0.  1.
</event>
<event>
 5   0  0.3627496E-03  0.8006397E+03  0.7818609E-02  0.9559092E-01
       -1   -1    0    0    0  501  0.00000000000E+00  0.00000000000E+00  0.71805571448E+03  0.71805571449E+03  0.50400001928E-02 0. -1.
        1   -1    0    0  501    0  0.00000000000E+00  0.00000000000E+00 -0.22318043410E+03  0.22318043416E+03  0.50400001928E-02 0.  1.
    10030    2    1    2    0    0  0.00000000000E+00  0.00000000000E+00  0.49487528038E+03  0.94123614865E+03  0.80063970948E+03 0.  0.
        3    1    3    3  502    0 -0.26302966070E+03 -0.10390972270E+03 -0.85642938841E+02  0.29549374960E+03  0.10100000352E+00 0.  1.
       -3    1    3    3    0  502  0.26302966070E+03  0.10390972270E+03  0.58051821922E+03  0.64574239905E+03  0.10100000352E+00 0. -1.
</event>
<event>
 5   0  0.6337108E-03  0.7997226E+03  0.7818609E-02  0.9560419E-01
       -2   -1    0    0    0  501  0.00000000000E+00  0.00000000000E+00  0.29656791836E+03  0.29656791837E+03  0.25500000920E-02 0.  1.
        2   -1    0    0  501    0  0.00000000000E+00  0.00000000000E+00 -0.53913137331E+03  0.53913137332E+03  0.25500000920E-02 0. -1.
    10030    2    1    2    0    0  0.00000000000E+00  0.00000000000E+00 -0.24256345496E+03  0.83569929169E+03  0.79972262469E+03 0.  0.
        4    1    3    3  502    0  0.34451723845E+03 -0.97421886995E+02  0.64785448853E+02  0.36384326150E+03  0.12699999809E+01 0.  1.
       -4    1    3    3    0  502 -0.34451723845E+03  0.97421886995E+02 -0.30734890381E+03  0.47185603019E+03  0.12699999809E+01 0. -1.
</event>
<event>
 5   0  0.3714448E-03  0.8004249E+03  0.7818609E-02  0.9559402E-01
       -1   -1    0    0    0  501  0.00000000000E+00  0.00000000000E+00  0.48933827651E+03  0.48933827654E+03  0.50400001928E-02 0. -1.
        1   -1    0    0  501    0  0.00000000000E+00  0.00000000000E+00 -0.32731961802E+03  0.32731961806E+03  0.50400001928E-02 0.  1.
    10030    2    1    2    0    0  0.00000000000E+00  0.00000000000E+00  0.16201865850E+03  0.81665789460E+03  0.80042493159E+03 0.  0.
        1    1    3    3  502    0  0.26704981283E+03  0.74016289449E+02 -0.21359565884E+03  0.34988157873E+03  0.50400001928E-02 0.  1.
       -1    1    3    3    0  502 -0.26704981283E+03 -0.74016289449E+02  0.37561431733E+03  0.46677631586E+03  0.50400001928E-02 0. -1.
</event>
<event>
 5   0  0.5813850E-03  0.7945803E+03  0.7818609E-02  0.9567895E-01
        2   -1    0    0  501    0  0.00000000000E+00  0.00000000000E+00  0.35079813936E+03  0.35079813937E+03  0.25500000920E-02 0.  1.
       -2   -1    0    0    0  501  0.00000000000E+00  0.00000000000E+00 -0.44994384125E+03  0.44994384126E+03  0.25500000920E-02 0. -1.
    10030    2    1    2    0    0  0.00000000000E+00  0.00000000000E+00 -0.99145701894E+02  0.80074198063E+03  0.79458029760E+03 0.  0.
        5    1    3    3  502    0 -0.23294153126E+03  0.29441011115E+03  0.81351123278E+02  0.38416033865E+03  0.46999998093E+01 0.  1.
       -5    1    3    3    0  502  0.23294153126E+03 -0.29441011115E+03 -0.18049682517E+03  0.41658164198E+03  0.46999998093E+01 0. -1.
</event>
<event>
 5   0  0.3753450E-03  0.8024653E+03  0.7818609E-02  0.9556455E-01
        1   -1    0    0  501    0  0.00000000000E+00  0.00000000000E+00  0.52888865125E+03  0.52888865127E+03  0.50400001928E-02 0. -1.
       -1   -1    0    0    0  501  0.00000000000E+00  0.00000000000E+00 -0.30438856173E+03  0.30438856178E+03  0.50400001928E-02 0.  1.
    10030    2    1    2    0    0  0.00000000000E+00  0.00000000000E+00  0.22450008951E+03  0.83327721305E+03  0.80246534105E+03 0.  0.
        5    1    3    3  502    0 -0.25105279471E+01 -0.51598738391E+02 -0.30089194345E+03  0.30533061456E+03  0.46999998093E+01 0.  1.
       -5    1    3    3    0  502  0.25105279471E+01  0.51598738391E+02  0.52539203297E+03  0.52794659849E+03  0.46999998093E+01 0. -1.
</event>
<event>
 5   0  0.3753450E-03  0.7961526E+03  0.7818609E-02  0.9565603E-01
        1   -1    0    0  501    0  0.00000000000E+00  0.00000000000E+00  0.55173870085E+03  0.55173870087E+03  0.50400001928E-02 0. -1.
       -1   -1    0    0    0  501  0.00000000000E+00  0.00000000000E+00 -0.28720974355E+03  0.28720974360E+03  0.50400001928E-02 0.  1.
    10030    2    1    2    0    0  0.00000000000E+00  0.00000000000E+00  0.26452895730E+03  0.83894844447E+03  0.79615257535E+03 0.  0.
        5    1    3    3  502    0  0.15910211710E+03  0.33123325670E+03 -0.28975922963E+02  0.36863348751E+03  0.46999998093E+01 0.  1.
       -5    1    3    3    0  502 -0.15910211710E+03 -0.33123325670E+03  0.29350488026E+03  0.47031495696E+03  0.46999998093E+01 0. -1.
</event>
<event>
 5   0  0.5813850E-03  0.8005478E+03  0.7818609E-02  0.9559224E-01
        2   -1    0    0  501    0  0.00000000000E+00  0.00000000000E+00  0.11716985507E+04  0.11716985507E+04  0.25500000920E-02 0.  1.
       -2   -1    0    0    0  501  0.00000000000E+00  0.00000000000E+00 -0.13674098313E+03  0.13674098316E+03  0.25500000920E-02 0. -1.
    10030    2    1    2    0    0  0.00000000000E+00  0.00000000000E+00  0.10349575676E+04  0.13084395339E+04  0.80054784187E+03 0.  0.
        5    1    3    3  502    0 -0.36259732050E+03  0.16575709840E+03  0.57514636426E+03  0.69983402519E+03  0.46999998093E+01 0. -1.
       -5    1    3    3    0  502  0.36259732050E+03 -0.16575709840E+03  0.45981120336E+03  0.60860550871E+03  0.46999998093E+01 0.  1.
</event>
<event>
 5   0  0.3860515E-03  0.7997701E+03  0.7818609E-02  0.9560350E-01
        1   -1    0    0  501    0  0.00000000000E+00  0.00000000000E+00  0.13742255025E+04  0.13742255025E+04  0.50400001928E-02 0. -1.
       -1   -1    0    0    0  501  0.00000000000E+00  0.00000000000E+00 -0.11636231719E+03  0.11636231730E+03  0.50400001928E-02 0.  1.
    10030    2    1    2    0    0  0.00000000000E+00  0.00000000000E+00  0.12578631853E+04  0.14905878198E+04  0.79977012673E+03 0.  0.
        4    1    3    3  502    0  0.16352003667E+03 -0.42241679919E+02 -0.46626117381E+02  0.17521064362E+03  0.12699999809E+01 0.  1.
       -4    1    3    3    0  502 -0.16352003667E+03  0.42241679919E+02  0.13044893027E+04  0.13153771762E+04  0.12699999809E+01 0. -1.
</event>
<event>
 5   0  0.3860515E-03  0.7992094E+03  0.7818609E-02  0.9561162E-01
       -1   -1    0    0    0  501  0.00000000000E+00  0.00000000000E+00  0.39067764124E+03  0.39067764127E+03  0.50400001928E-02 0.  1.
        1   -1    0    0  501    0  0.00000000000E+00  0.00000000000E+00 -0.40873574570E+03  0.40873574573E+03  0.50400001928E-02 0. -1.
    10030    2    1    2    0    0  0.00000000000E+00  0.00000000000E+00 -0.18058104459E+02  0.79941338700E+03  0.79920940196E+03 0.  0.
        4    1    3    3  502    0 -0.93858777993E+02 -0.11766524814E+03 -0.37929609152E+03  0.40807072766E+03  0.12699999809E+01 0. -1.
       -4    1    3    3    0  502  0.93858777993E+02  0.11766524814E+03  0.36123798706E+03  0.39134265935E+03  0.12699999809E+01 0.  1.
</event>
<event>
 5   0  0.3753450E-03  0.8066142E+03  0.7818609E-02  0.9550492E-01
        1   -1    0    0  501    0  0.00000000000E+00  0.00000000000E+00  0.40689988988E+03  0.40689988991E+03  0.50400001928E-02 0. -1.
       -1   -1    0    0    0  501  0.00000000000E+00  0.00000000000E+00 -0.39974602710E+03  0.39974602713E+03  0.50400001928E-02 0.  1.
    10030    2    1    2    0    0  0.00000000000E+00  0.00000000000E+00  0.71538627866E+01  0.80664591704E+03  0.80661419385E+03 0.  0.
        5    1    3    3  502    0  0.14802324221E+03  0.27744986106E+03 -0.24891115337E+03  0.40108372929E+03  0.46999998093E+01 0.  1.
       -5    1    3    3    0  502 -0.14802324221E+03 -0.27744986106E+03  0.25606501615E+03  0.40556218775E+03  0.46999998093E+01 0. -1.
</event>
<event>
 5   0  0.3671128E-03  0.7984584E+03  0.7818609E-02  0.9562251E-01
        1   -1    0    0  501    0  0.00000000000E+00  0.00000000000E+00  0.43043967456E+03  0.43043967459E+03  0.50400001928E-02 0. -1.
       -1   -1    0    0    0  501  0.00000000000E+00  0.00000000000E+00 -0.37028175288E+03  0.37028175291E+03  0.50400001928E-02 0.  1.
    10030    2    1    2    0    0  0.00000000000E+00  0.00000000000E+00  0.60157921681E+02  0.80072142750E+03  0.79845840776E+03 0.  0.
        2    1    3    3  502    0 -0.22046965361E+03 -0.32193990997E+03  0.11476819886E+03  0.40672338668E+03  0.25500000920E-02 0.  1.
       -2    1    3    3    0  502  0.22046965361E+03  0.32193990997E+03 -0.54610277175E+02  0.39399804083E+03  0.25500000920E-02 0. -1.
</event>
<event>
 5   0  0.3860515E-03  0.8023787E+03  0.7818609E-02  0.9556580E-01
        1   -1    0    0  501    0  0.00000000000E+00  0.00000000000E+00  0.68334852807E+03  0.68334852809E+03  0.50400001928E-02 0.  1.
       -1   -1    0    0    0  501  0.00000000000E+00  0.00000000000E+00 -0.23553555788E+03  0.23553555793E+03  0.50400001928E-02 0. -1.
    10030    2    1    2    0    0  0.00000000000E+00  0.00000000000E+00  0.44781297019E+03  0.91888408602E+03  0.80237865579E+03 0.  0.
        4    1    3    3  502    0  0.32325392499E+03  0.15256445665E+03  0.15296889449E+02  0.35777733463E+03  0.12699999809E+01 0. -1.
       -4    1    3    3    0  502 -0.32325392499E+03 -0.15256445665E+03  0.43251608074E+03  0.56110675139E+03  0.12699999809E+01 0.  1.
</event>
<event>
 5   0  0.3860515E-03  0.8067984E+03  0.7818609E-02  0.9550229E-01
       -1   -1    0    0    0  501  0.00000000000E+00  0.00000000000E+00  0.56414056613E+03  0.56414056615E+03  0.50400001928E-02 0. -1.
        1   -1    0    0  501    0  0.00000000000E+00  0.00000000000E+00 -0.28845808332E+03  0.28845808336E+03  0.50400001928E-02 0.  1.
    10030    2    1    2    0    0  0.00000000000E+00  0.00000000000E+00  0.27568248281E+03  0.85259864951E+03  0.80679837991E+03 0.  0.
        4    1    3    3  502    0  0.17196132559E+03  0.34897948271E+03  0.25053411622E+03  0.46273786655E+03  0.12699999809E+01 0. -1.
       -4    1    3    3    0  502 -0.17196132559E+03 -0.34897948271E+03  0.25148366589E+02  0.38986078296E+03  0.12699999809E+01 0.  1.
</event>
<event>
 5   0  0.3714448E-03  0.7986053E+03  0.7818609E-02  0.9562038E-01
       -1   -1    0    0    0  501  0.00000000000E+00  0.00000000000E+00  0.33933028371E+03  0.33933028374E+03  0.50400001928E-02 0. -1.
        1   -1    0    0  501    0  0.00000000000E+00  0.00000000000E+00 -0.46987442552E+03  0.46987442555E+03  0.50400001928E-02 0.  1.
    10030    2    1    2    0    0  0.00000000000E+00  0.00000000000E+00 -0.13054414182E+03  0.80920470929E+03  0.79860533969E+03 0.  0.
        1    1    3    3  502    0 -0.27194427531E+03 -0.15429920985E+03  0.18638016493E+03  0.36400480895E+03  0.50400001928E-02 0. -1.
       -1    1    3    3    0  502  0.27194427531E+03  0.15429920985E+03 -0.31692430674E+03  0.44519990034E+03  0.50400001928E-02 0.  1.
</event>
<event>
 5   0  0.6153659E-03  0.7991435E+03  0.7818609E-02  0.9561258E-01
        2   -1    0    0  501    0  0.00000000000E+00  0.00000000000E+00  0.96423602758E+03  0.96423602758E+03  0.25500000920E-02 0.  1.
       -2   -1    0    0    0  501  0.00000000000E+00  0.00000000000E+00 -0.16557935375E+03  0.16557935377E+03  0.25500000920E-02 0. -1.
    10030    2    1    2    0    0  0.00000000000E+00  0.00000000000E+00  0.79865667383E+03  0.11298153814E+04  0.79914348730E+03 0.  0.
        2    1    3    3  502    0 -0.60992575591E+02 -0.38883432273E+03  0.30193774533E+03  0.49606312791E+03  0.25500000920E-02 0. -1.
       -2    1    3    3    0  502  0.60992575591E+02  0.38883432273E+03  0.49671892850E+03  0.63375225345E+03  0.25500000920E-02 0.  1.
</event>
<event>
 5   0  0.3714448E-03  0.7995382E+03  0.7818609E-02  0.9560686E-01
        1   -1    0    0  501    0  0.00000000000E+00  0.00000000000E+00  0.56210800348E+03  0.56210800351E+03  0.50400001928E-02 0.  1.
       -1   -1    0    0    0  501  0.00000000000E+00  0.00000000000E+00 -0.28431427213E+03  0.28431427218E+03  0.50400001928E-02 0. -1.
    10030    2    1    2    0    0  0.00000000000E+00  0.00000000000E+00  0.27779373135E+03  0.84642227568E+03  0.79953818645E+03 0.  0.
        1    1    3    3  502    0 -0.27661995028E+03  0.15985632115E+03  0.39328471900E+03  0.50670061232E+03  0.50400001928E-02 0.  1.
       -1    1    3    3    0  502  0.27661995028E+03 -0.15985632115E+03 -0.11549098764E+03  0.33972166336E+03  0.50400001928E-02 0. -1.
</event>
<event>
 5   0  0.3860515E-03  0.8009315E+03  0.7818609E-02  0.9558670E-01
        1   -1    0    0  501    0  0.00000000000E+00  0.00000000000E+00  0.59916986212E+03  0.59916986214E+03  0.50400001928E-02 0.  1.
       -1   -1    0    0    0  501  0.00000000000E+00  0.00000000000E+00 -0.26765837577E+03  0.26765837581E+03  0.50400001928E-02 0. -1.
    10030    2    1    2    0    0  0.00000000000E+00  0.00000000000E+00  0.33151148635E+03  0.86682823795E+03  0.80093153798E+03 0.  0.
        4    1    3    3  502    0 -0.36001767860E+03  0.17486837978E+03  0.18025742459E+03  0.43896017038E+03  0.12699999809E+01 0.  1.
       -4    1    3    3    0  502  0.36001767860E+03 -0.17486837978E+03  0.15125406176E+03  0.42786806758E+03  0.12699999809E+01 0. -1.
</event>
<event>
 5   0  0.5813850E-03  0.8082195E+03  0.7818609E-02  0.9548195E-01
        2   -1    0    0  501    0  0.00000000000E+00  0.00000000000E+00  0.75190667877E+03  0.75190667877E+03  0.25500000920E-02 0.  1.
       -2   -1    0    0    0  501  0.00000000000E+00  0.00000000000E+00 -0.21718745671E+03  0.21718745672E+03  0.25500000920E-02 0. -1.
    10030    2    1    2    0    0  0.00000000000E+00  0.00000000000E+00  0.53471922206E+03  0.96909413550E+03  0.80821952278E+03 0.  0.
        5    1    3    3  502    0  0.17449547133E+03 -0.27736987309E+03 -0.16133244151E+02  0.32812358583E+03  0.46999998093E+01 0. -1.
       -5    1    3    3    0  502 -0.17449547133E+03  0.27736987309E+03  0.55085246622E+03  0.64097054967E+03  0.46999998093E+01 0.  1.
</event>
<event>
 5   0  0.5813850E-03  0.7902792E+03  0.7818609E-02  0.9574195E-01
        2   -1    0    0  501    0  0.00000000000E+00  0.00000000000E+00  0.74534413878E+03  0.74534413879E+03  0.25500000920E-02 0.  1.
       -2   -1    0    0    0  501  0.00000000000E+00  0.00000000000E+00 -0.20948080046E+03  0.20948080047E+03  0.25500000920E-02 0. -1.
    10030    2    1    2    0    0  0.00000000000E+00  0.00000000000E+00  0.53586333833E+03  0.95482493926E+03  0.79027915781E+03 0.  0.
        5    1    3    3  502    0 -0.95733822084E+02 -0.38154142338E+03  0.31272318401E+03  0.50255019875E+03  0.46999998093E+01 0.  1.
       -5    1    3    3    0  502  0.95733822084E+02  0.38154142338E+03  0.22314015431E+03  0.45227474051E+03  0.46999998093E+01 0. -1.
</event>
<event>
 5   0  0.3627496E-03  0.8081807E+03  0.7818609E-02  0.9548251E-01
        1   -1    0    0  501    0  0.00000000000E+00  0.00000000000E+00  0.63690683983E+03  0.63690683985E+03  0.50400001928E-02 0. -1.
       -1   -1    0    0    0  501  0.00000000000E+00  0.00000000000E+00 -0.25637819420E+03  0.25637819425E+03  0.50400001928E-02 0.  1.
    10030    2    1    2    0    0  0.00000000000E+00  0.00000000000E+00  0.38052864563E+03  0.89328503411E+03  0.80818073598E+03 0.  0.
        3    1    3    3  502    0  0.79639846730E+02  0.25670708634E+03 -0.14325171737E+03  0.30456870833E+03  0.10100000352E+00 0.  1.
       -3    1    3    3    0  502 -0.79639846730E+02 -0.25670708634E+03  0.52378036300E+03  0.58871632577E+03  0.10100000352E+00 0. -1.
</event>
<event>
 5   0  0.3860515E-03  0.7953359E+03  0.7818609E-02  0.9566793E-01
       -1   -1    0    0    0  501  0.00000000000E+00  0.00000000000E+00  0.12456328199E+04  0.12456328199E+04  0.50400001928E-02 0. -1.
        1   -1    0    0  501    0  0.00000000000E+00  0.00000000000E+00 -0.12695538038E+03  0.12695538048E+03  0.50400001928E-02 0.  1.
    10030    2    1    2    0    0  0.00000000000E+00  0.00000000000E+00  0.11186774396E+04  0.13725882004E+04  0.79533587506E+03 0.  0.
        4    1    3    3  502    0 -0.13438665848E+02  0.18718972322E+02 -0.12579869563E+03  0.12789809376E+03  0.12699999809E+01 0.  1.
       -4    1    3    3    0  502  0.13438665848E+02 -0.18718972322E+02  0.12444761352E+04  0.12446901067E+04  0.12699999809E+01 0. -1.
</event>
<event>
 5   0  0.3671128E-03  0.8050486E+03  0.7818609E-02  0.9552738E-01
       -1   -1    0    0    0  501  0.00000000000E+00  0.00000000000E+00  0.52943824744E+03  0.52943824746E+03  0.50400001928E-02 0.  1.
        1   -1    0    0  501    0  0.00000000000E+00  0.00000000000E+00 -0.30603347095E+03  0.30603347100E+03  0.50400001928E-02 0. -1.
    10030    2    1    2    0    0  0.00000000000E+00  0.00000000000E+00  0.22340477649E+03  0.83547171846E+03  0.80504863095E+03 0.  0.
        2    1    3    3  502    0  0.19242092881E+03  0.27603875673E+03 -0.11755914170E+03  0.35643142519E+03  0.25500000920E-02 0. -1.
       -2    1    3    3    0  502 -0.19242092881E+03 -0.27603875673E+03  0.34096391819E+03  0.47904029327E+03  0.25500000920E-02 0.  1.
</event>
<event>
 5   0  0.6337108E-03  0.8005171E+03  0.7818609E-02  0.9559269E-01
        2   -1    0    0  501    0  0.00000000000E+00  0.00000000000E+00  0.66378467401E+03  0.66378467402E+03  0.25500000920E-02 0.  1.
       -2   -1    0    0    0  501  0.00000000000E+00  0.00000000000E+00 -0.24135373758E+03  0.24135373760E+03  0.25500000920E-02 0. -1.
    10030    2    1    2    0    0  0.00000000000E+00  0.00000000000E+00  0.42243093643E+03  0.90513841162E+03  0.80051711295E+03 0.  0.
        4    1    3    3  502    0 -0.20744296923E+03  0.15797347201E+03  0.55457578071E+03  0.61281654089E+03  0.12699999809E+01 0.  1.
       -4    1    3    3    0  502  0.20744296923E+03 -0.15797347201E+03 -0.13214484428E+03  0.29232187073E+03  0.12699999809E+01 0. -1.
</event>
<event>
 5   0  0.3753450E-03  0.8046794E+03  0.7818609E-02  0.9553269E-01
       -1   -1    0    0    0  501  0.00000000000E+00  0.00000000000E+00  0.43394754455E+03  0.43394754458E+03  0.50400001928E-02 0.  1.
        1   -1    0    0  501    0  0.00000000000E+00  0.00000000000E+00 -0.37303407565E+03  0.37303407568E+03  0.50400001928E-02 0. -1.
    10030    2    1    2    0    0  0.00000000000E+00  0.00000000000E+00  0.60913468901E+02  0.80698162026E+03  0.80467936767E+03 0.  0.
        5    1    3    3  502    0 -0.19296833557E+03 -0.27166839395E+03 -0.19560923356E+03  0.38642665159E+03  0.46999998093E+01 0. -1.
       -5    1    3    3    0  502  0.19296833557E+03  0.27166839395E+03  0.25652270246E+03  0.42055496868E+03  0.46999998093E+01 0.  1.
</event>
<event>
 5   0  0.3627496E-03  0.7964934E+03  0.7818609E-02  0.9565107E-01
        1   -1    0    0  501    0  0.00000000000E+00  0.00000000000E+00  0.17304825330E+03  0.17304825337E+03  0.50400001928E-02 0.  1.
       -1   -1    0    0    0  501  0.00000000000E+00  0.00000000000E+00 -0.91650982391E+03  0.91650982393E+03  0.50400001928E-02 0. -1.
    10030    2    1    2    0    0  0.00000000000E+00  0.00000000000E+00 -0.74346157061E+03  0.10895580773E+04  0.79649337526E+03 0.  0.
        3    1    3    3  502    0  0.36195340010E+03  0.16042891022E+03 -0.31285014595E+03  0.50460174702E+03  0.10100000352E+00 0. -1.
       -3    1    3    3    0  502 -0.36195340010E+03 -0.16042891022E+03 -0.43061142467E+03  0.58495633028E+03  0.10100000352E+00 0.  1.
</event>
<event>
 5   0  0.6153659E-03  0.8010545E+03  0.7818609E-02  0.9558492E-01
        2   -1    0    0  501    0  0.00000000000E+00  0.00000000000E+00  0.61481834142E+03  0.61481834143E+03  0.25500000920E-02 0.  1.
       -2   -1    0    0    0  501  0.00000000000E+00  0.00000000000E+00 -0.26092600428E+03  0.26092600429E+03  0.25500000920E-02 0. -1.
    10030    2    1    2    0    0  0.00000000000E+00  0.00000000000E+00  0.35389233714E+03  0.87574434572E+03  0.80105453796E+03 0.  0.
        2    1    3    3  502    0 -0.94775872728E+02 -0.14821183290E+02  0.60207427256E+03  0.60966840431E+03  0.25500000920E-02 0.  1.
       -2    1    3    3    0  502  0.94775872728E+02  0.14821183290E+02 -0.24818193542E+03  0.26607594142E+03  0.25500000920E-02 0. -1.
</event>
<event>
 5   0  0.5813850E-03  0.8006478E+03  0.7818609E-02  0.9559080E-01
        2   -1    0    0  501    0  0.00000000000E+00  0.00000000000E+00  0.13577544542E+04  0.13577544542E+04  0.25500000920E-02 0.  1.
       -2   -1    0    0    0  501  0.00000000000E+00  0.00000000000E+00 -0.11803256222E+03  0.11803256225E+03  0.25500000920E-02 0. -1.
    10030    2    1    2    0    0  0.00000000000E+00  0.00000000000E+00  0.12397218920E+04  0.14757870165E+04  0.80064783049E+03 0.  0.
        5    1    3    3  502    0  0.96010862801E+02 -0.37847852231E+03  0.78237032448E+03  0.87440808108E+03  0.46999998093E+01 0. -1.
       -5    1    3    3    0  502 -0.96010862801E+02  0.37847852231E+03  0.45735156751E+03  0.60137893538E+03  0.46999998093E+01 0.  1.
</event>
<event>
 5   0  0.6536209E-03  0.8010317E+03  0.7818609E-02  0.9558525E-01
       -2   -1    0    0    0  501  0.00000000000E+00  0.00000000000E+00  0.13490267780E+03  0.13490267782E+03  0.25500000920E-02 0. -1.
        2   -1    0    0  501    0  0.00000000000E+00  0.00000000000E+00 -0.11891011731E+04  0.11891011732E+04  0.25500000920E-02 0.  1.
    10030    2    1    2    0    0  0.00000000000E+00  0.00000000000E+00 -0.10541984954E+04  0.13240038510E+04  0.80103166591E+03 0.  0.
        3    1    3    3  502    0  0.38439808488E+03 -0.47931696395E+02 -0.69528336627E+03  0.79591350334E+03  0.10100000352E+00 0.  1.
       -3    1    3    3    0  502 -0.38439808488E+03  0.47931696395E+02 -0.35891512908E+03  0.52809034764E+03  0.10100000352E+00 0. -1.
</event>
<event>
 5   0  0.2478000E-03  0.8024389E+03  0.7818609E-02  0.9556494E-01
       -4   -1    0    0    0  501  0.00000000000E+00  0.00000000000E+00  0.30967090882E+03  0.30967351302E+03  0.12699999809E+01 0. -1.
        4   -1    0    0  501    0  0.00000000000E+00  0.00000000000E+00 -0.51982713230E+03  0.51982868368E+03  0.12699999809E+01 0.  1.
    10030    2    1    2    0    0  0.00000000000E+00  0.00000000000E+00 -0.21015622349E+03  0.82950219671E+03  0.80243894227E+03 0.  0.
        3    1    3    3  502    0  0.20052930431E+02  0.26387635161E+03  0.20666226705E+03  0.33577098115E+03  0.10100000352E+00 0. -1.
       -3    1    3    3    0  502 -0.20052930431E+02 -0.26387635161E+03 -0.41681849053E+03  0.49373121555E+03  0.10100000352E+00 0.  1.
</event>
<event>
 5   0  0.6536209E-03  0.7992028E+03  0.7818609E-02  0.9561172E-01
       -2   -1    0    0    0  501  0.00000000000E+00  0.00000000000E+00  0.14512060080E+03  0.14512060083E+03  0.25500000920E-02 0. -1.
        2   -1    0    0  501    0  0.00000000000E+00  0.00000000000E+00 -0.11003351001E+04  0.11003351001E+04  0.25500000920E-02 0.  1.
    10030    2    1    2    0    0  0.00000000000E+00  0.00000000000E+00 -0.95521449932E+03  0.12454557010E+04  0.79920282990E+03 0.  0.
        3    1    3    3  502    0  0.16936277993E+03  0.35134072353E+03 -0.34213433971E+03  0.51882556977E+03  0.10100000352E+00 0. -1.
       -3    1    3    3    0  502 -0.16936277993E+03 -0.35134072353E+03 -0.61308015961E+03  0.72663013119E+03  0.10100000352E+00 0.  1.
</event>
<event>
 5   0  0.3753450E-03  0.7992716E+03  0.7818609E-02  0.9561072E-01
        1   -1    0    0  501    0  0.00000000000E+00  0.00000000000E+00  0.27630489015E+03  0.27630489019E+03  0.50400001928E-02 0. -1.
       -1   -1    0    0    0  501  0.00000000000E+00  0.00000000000E+00 -0.57801650168E+03  0.57801650170E+03  0.50400001928E-02 0.  1.
    10030    2    1    2    0    0  0.00000000000E+00  0.00000000000E+00 -0.30171161153E+03  0.85432139190E+03  0.79927163350E+03 0.  0.
        5    1    3    3  502    0 -0.19333278511E+03  0.26576754809E+03 -0.39383799352E+03  0.51297213429E+03  0.46999998093E+01 0. -1.
       -5    1    3    3    0  502  0.19333278511E+03 -0.26576754809E+03  0.92126381989E+02  0.34134925761E+03  0.46999998093E+01 0.  1.
</event>
<event>
 5   0  0.3627496E-03  0.7977317E+03  0.7818609E-02  0.9563306E-01
       -1   -1    0    0    0  501  0.00000000000E+00  0.00000000000E+00  0.61115901638E+03  0.61115901640E+03  0.50400001928E-02 0.  1.
        1   -1    0    0  501    0  0.00000000000E+00  0.00000000000E+00 -0.26031515241E+03  0.26031515246E+03  0.50400001928E-02 0. -1.
    10030    2    1    2    0    0  0.00000000000E+00  0.00000000000E+00  0.35084386397E+03  0.87147416885E+03  0.79773166547E+03 0.  0.
        3    1    3    3  502    0 -0.23851384043E+03 -0.49231359521E+02 -0.16966014591E+03  0.29681164760E+03  0.10100000352E+00 0. -1.
       -3    1    3    3    0  502  0.23851384043E+03  0.49231359521E+02  0.52050400988E+03  0.57466252126E+03  0.10100000352E+00 0.  1.
</event>
<event>
 5   0  0.2478000E-03  0.7986861E+03  0.7818609E-02  0.9561921E-01
        3   -1    0    0  501    0  0.00000000000E+00  0.00000000000E+00  0.32111480225E+03  0.32111481814E+03  0.10100000352E+00 0. -1.
       -3   -1    0    0    0  501  0.00000000000E+00  0.00000000000E+00 -0.49662878881E+03  0.49662879908E+03  0.10100000352E+00 0.  1.
    10030    2    1    2    0    0  0.00000000000E+00  0.00000000000E+00 -0.17551398655E+03  0.81774361721E+03  0.79868608603E+03 0.  0.
        4    1    3    3  502    0  0.30239531558E+02 -0.37964298624E+03 -0.21074835609E+03  0.43526969658E+03  0.12699999809E+01 0.  1.
       -4    1    3    3    0  502 -0.30239531558E+02  0.37964298624E+03  0.35234369535E+02  0.38247392063E+03  0.12699999809E+01 0. -1.
</event>
<event>
 5   0  0.3860515E-03  0.7989885E+03  0.7818609E-02  0.9561482E-01
       -1   -1    0    0    0  501  0.00000000000E+00  0.00000000000E+00  0.13743420033E+03  0.13743420042E+03  0.50400001928E-02 0.  1.
        1   -1    0    0  501    0  0.00000000000E+00  0.00000000000E+00 -0.11612514329E+04  0.11612514329E+04  0.50400001928E-02 0. -1.
    10030    2    1    2    0    0  0.00000000000E+00  0.00000000000E+00 -0.10238172326E+04  0.12986856333E+04  0.79898851588E+03 0.  0.
        4    1    3    3  502    0  0.13846404151E+03  0.27684825321E+03 -0.92239132938E+03  0.97294636210E+03  0.12699999809E+01 0. -1.
       -4    1    3    3    0  502 -0.13846404151E+03 -0.27684825321E+03 -0.10142590321E+03  0.32573927125E+03  0.12699999809E+01 0.  1.
</event>
<event>
 5   0  0.6337108E-03  0.7959357E+03  0.7818609E-02  0.9565919E-01
       -2   -1    0    0    0  501  0.00000000000E+00  0.00000000000E+00  0.17545064474E+03  0.17545064475E+03  0.25500000920E-02 0. -1.
        2   -1    0    0  501    0  0.00000000000E+00  0.00000000000E+00 -0.90269500605E+03  0.90269500606E+03  0.25500000920E-02 0.  1.
    10030    2    1    2    0    0  0.00000000000E+00  0.00000000000E+00 -0.72724436132E+03  0.10781456508E+04  0.79593572812E+03 0.  0.
        4    1    3    3  502    0  0.59674908207E+02 -0.10194278609E+03  0.15115370004E+03  0.19183972540E+03  0.12699999809E+01 0. -1.
       -4    1    3    3    0  502 -0.59674908207E+02  0.10194278609E+03 -0.87839806136E+03  0.88630592541E+03  0.12699999809E+01 0.  1.
</event>
<event>
 5   0  0.3860515E-03  0.7991049E+03  0.7818609E-02  0.9561314E-01
        1   -1    0    0  501    0  0.00000000000E+00  0.00000000000E+00  0.15457162840E+04  0.15457162840E+04  0.50400001928E-02 0. -1.
       -1   -1    0    0    0  501  0.00000000000E+00  0.00000000000E+00 -0.10328038226E+03  0.10328038238E+03  0.50400001928E-02 0.  1.
    10030    2    1    2    0    0  0.00000000000E+00  0.00000000000E+00  0.14424359017E+04  0.16489966664E+04  0.79910492123E+03 0.  0.
        4    1    3    3  502    0  0.17250911365E+03  0.30810585929E+03  0.33542736820E+03  0.48703362005E+03  0.12699999809E+01 0.  1.
       -4    1    3    3    0  502 -0.17250911365E+03 -0.30810585929E+03  0.11070085335E+04  0.11619630463E+04  0.12699999809E+01 0. -1.
</event>
<event>
 5   0  0.5813850E-03  0.7987896E+03  0.7818609E-02  0.9561771E-01
        2   -1    0    0  501    0  0.00000000000E+00  0.00000000000E+00  0.26964318691E+03  0.26964318692E+03  0.25500000920E-02 0. -1.
       -2   -1    0    0    0  501  0.00000000000E+00  0.00000000000E+00 -0.59158251530E+03  0.59158251530E+03  0.25500000920E-02 0.  1.
    10030    2    1    2    0    0  0.00000000000E+00  0.00000000000E+00 -0.32193932839E+03  0.86122570223E+03  0.79878957117E+03 0.  0.
        5    1    3    3  502    0 -0.23064144830E+03 -0.26713993031E+03 -0.36248785401E+03  0.50594342998E+03  0.46999998093E+01 0.  1.
       -5    1    3    3    0  502  0.23064144830E+03  0.26713993031E+03  0.40548525621E+02  0.35528227224E+03  0.46999998093E+01 0. -1.
</event>
<event>
 5   0  0.3627496E-03  0.8005495E+03  0.7818609E-02  0.9559222E-01
       -1   -1    0    0    0  501  0.00000000000E+00  0.00000000000E+00  0.59862371424E+03  0.59862371426E+03  0.50400001928E-02 0. -1.
        1   -1    0    0  501    0  0.00000000000E+00  0.00000000000E+00 -0.26764706838E+03  0.26764706843E+03  0.50400001928E-02 0.  1.
    10030    2    1    2    0    0  0.00000000000E+00  0.00000000000E+00  0.33097664586E+03  0.86627078269E+03  0.80054951679E+03 0.  0.
        3    1    3    3  502    0  0.37424479669E+03  0.14176187018E+03  0.15681289346E+03  0.42982076432E+03  0.10100000352E+00 0. -1.
       -3    1    3    3    0  502 -0.37424479669E+03 -0.14176187018E+03  0.17416375240E+03  0.43645001837E+03  0.10100000352E+00 0.  1.
</event>
<event>
 5   0  0.6153659E-03  0.7996846E+03  0.7818609E-02  0.9560474E-01
        2   -1    0    0  501    0  0.00000000000E+00  0.00000000000E+00  0.42658981720E+03  0.42658981721E+03  0.25500000920E-02 0. -1.
       -2   -1    0    0    0  501  0.00000000000E+00  0.00000000000E+00 -0.37477185467E+03  0.37477185467E+03  0.25500000920E-02 0.  1.
    10030    2    1    2    0    0  0.00000000000E+00  0.00000000000E+00  0.51817962534E+02  0.80136167188E+03  0.79968458027E+03 0.  0.
        2    1    3    3  502    0 -0.38413867161E+03 -0.18020929517E+02  0.13562184783E+03  0.40777513232E+03  0.25500000920E-02 0.  1.
       -2    1    3    3    0  502  0.38413867161E+03  0.18020929517E+02 -0.83803885294E+02  0.39358653956E+03  0.25500000920E-02 0. -1.
</event>
<event>
 5   0  0.6337108E-03  0.7937057E+03  0.7818609E-02  0.9569173E-01
        2   -1    0    0  501    0  0.00000000000E+00  0.00000000000E+00  0.14915777607E+04  0.14915777607E+04  0.25500000920E-02 0.  1.
       -2   -1    0    0    0  501  0.00000000000E+00  0.00000000000E+00 -0.10558763553E+03  0.10558763556E+03  0.25500000920E-02 0. -1.
    10030    2    1    2    0    0  0.00000000000E+00  0.00000000000E+00  0.13859901252E+04  0.15971653963E+04  0.79370566079E+03 0.  0.
        4    1    3    3  502    0  0.32647541373E+02  0.27297248948E+02  0.14869689226E+04  0.14875782976E+04  0.12699999809E+01 0.  1.
       -4    1    3    3    0  502 -0.32647541373E+02 -0.27297248948E+02 -0.10097879745E+03  0.10958709866E+03  0.12699999809E+01 0. -1.
</event>
<event>
 5   0  0.6153659E-03  0.8002145E+03  0.7818609E-02  0.9559707E-01
       -2   -1    0    0    0  501  0.00000000000E+00  0.00000000000E+00  0.27072843025E+03  0.27072843026E+03  0.25500000920E-02 0. -1.
        2   -1    0    0  501    0  0.00000000000E+00  0.00000000000E+00 -0.59131509372E+03  0.59131509373E+03  0.25500000920E-02 0.  1.
    10030    2    1    2    0    0  0.00000000000E+00  0.00000000000E+00 -0.32058666347E+03  0.86204352399E+03  0.80021448903E+03 0.  0.
        2    1    3    3  502    0 -0.39776700603E+03 -0.43210549129E+02 -0.16001981599E+03  0.43092004381E+03  0.25500000920E-02 0. -1.
       -2    1    3    3    0  502  0.39776700603E+03  0.43210549129E+02 -0.16056684749E+03  0.43112348018E+03  0.25500000920E-02 0.  1.
</event>
<event>
 5   0  0.3860515E-03  0.7994913E+03  0.7818609E-02  0.9560754E-01
       -1   -1    0    0    0  501  0.00000000000E+00  0.00000000000E+00  0.47128878030E+03  0.47128878032E+03  0.50400001928E-02 0. -1.
        1   -1    0    0  501    0  0.00000000000E+00  0.00000000000E+00 -0.33906296741E+03  0.33906296745E+03  0.50400001928E-02 0.  1.
    10030    2    1    2    0    0  0.00000000000E+00  0.00000000000E+00  0.13222581289E+03  0.81035174777E+03  0.79949126919E+03 0.  0.
        4    1    3    3  502    0  0.12648064904E+02  0.39817995597E+03  0.32684465071E+02  0.39972132548E+03  0.12699999809E+01 0. -1.
       -4    1    3    3    0  502 -0.12648064904E+02 -0.39817995597E+03  0.99541347816E+02  0.41063042229E+03  0.12699999809E+01 0.  1.
</event>
<event>
 5   0  0.5813850E-03  0.8007356E+03  0.7818609E-02  0.9558953E-01
        2   -1    0    0  501    0  0.00000000000E+00  0.00000000000E+00  0.94438526120E+03  0.94438526120E+03  0.25500000920E-02 0.  1.
       -2   -1    0    0    0  501  0.00000000000E+00  0.00000000000E+00 -0.16973410976E+03  0.16973410978E+03  0.25500000920E-02 0. -1.
    10030    2    1    2    0    0  0.00000000000E+00  0.00000000000E+00  0.77465115144E+03  0.11141193710E+04  0.80073564076E+03 0.  0.
        5    1    3    3  502    0 -0.31072840789E+03 -0.18254640998E+03  0.14474407018E+03  0.38839190404E+03  0.46999998093E+01 0. -1.
       -5    1    3    3    0  502  0.31072840789E+03  0.18254640998E+03  0.62990708125E+03  0.72572746695E+03  0.46999998093E+01 0.  1.
</event>
<event>
 5   0  0.3671128E-03  0.7992701E+03  0.7818609E-02  0.9561074E-01
        1   -1    0    0  501    0  0.00000000000E+00  0.00000000000E+00  0.41476697755E+03  0.41476697758E+03  0.50400001928E-02 0. -1.
       -1   -1    0    0    0  501  0.00000000000E+00  0.00000000000E+00 -0.38505519326E+03  0.38505519330E+03  0.50400001928E-02 0.  1.
    10030    2    1    2    0    0  0.00000000000E+00  0.00000000000E+00  0.29711784289E+02  0.79982217088E+03  0.79927011386E+03 0.  0.
        2    1    3    3  502    0 -0.17442427586E+03 -0.16654401906E+03 -0.30402930162E+03  0.38806514213E+03  0.25500000920E-02 0.  1.
       -2    1    3    3    0  502  0.17442427586E+03  0.16654401906E+03  0.33374108591E+03  0.41175702874E+03  0.25500000920E-02 0. -1.
</event>
<event>
 5   0  0.3860515E-03  0.7991294E+03  0.7818609E-02  0.9561278E-01
        1   -1    0    0  501    0  0.00000000000E+00  0.00000000000E+00  0.18121528642E+04  0.18121528643E+04  0.50400001928E-02 0.  1.
       -1   -1    0    0    0  501  0.00000000000E+00  0.00000000000E+00 -0.88100697553E+02  0.88100697698E+02  0.50400001928E-02 0. -1.
    10030    2    1    2    0    0  0.00000000000E+00  0.00000000000E+00  0.17240521667E+04  0.19002535619E+04  0.79912935513E+03 0.  0.
        4    1    3    3  502    0  0.58521421689E+02  0.13865832045E+03  0.17421703298E+04  0.17486594745E+04  0.12699999809E+01 0.  1.
       -4    1    3    3    0  502 -0.58521421689E+02 -0.13865832045E+03 -0.18118163129E+02  0.15159408749E+03  0.12699999809E+01 0. -1.
</event>
<event>
 5   0  0.3753450E-03  0.8015813E+03  0.7818609E-02  0.9557731E-01
        1   -1    0    0  501    0  0.00000000000E+00  0.00000000000E+00  0.12722935405E+04  0.12722935405E+04  0.50400001928E-02 0.  1.
       -1   -1    0    0    0  501  0.00000000000E+00  0.00000000000E+00 -0.12625476962E+03  0.12625476973E+03  0.50400001928E-02 0. -1.
    10030    2    1    2    0    0  0.00000000000E+00  0.00000000000E+00  0.11460387709E+04  0.13985483103E+04  0.80158125710E+03 0.  0.
        5    1    3    3  502    0  0.22691113333E+03  0.29822319839E+03  0.32513594383E+03  0.49614635991E+03  0.46999998093E+01 0. -1.
       -5    1    3    3    0  502 -0.22691113333E+03 -0.29822319839E+03  0.82090282708E+03  0.90240195035E+03  0.46999998093E+01 0.  1.
</event>
<event>
 5   0  0.3671128E-03  0.7987750E+03  0.7818609E-02  0.9561792E-01
        1   -1    0    0  501    0  0.00000000000E+00  0.00000000000E+00  0.82160083311E+03  0.82160083313E+03  0.50400001928E-02 0. -1.
       -1   -1    0    0    0  501  0.00000000000E+00  0.00000000000E+00 -0.19414584613E+03  0.19414584619E+03  0.50400001928E-02 0.  1.
    10030    2    1    2    0    0  0.00000000000E+00  0.00000000000E+00  0.62745498699E+03  0.10157466793E+04  0.79877503457E+03 0.  0.
        2    1    3    3  502    0 -0.21124102729E+03 -0.21472937761E+03  0.64722191865E+03  0.71388212557E+03  0.25500000920E-02 0. -1.
       -2    1    3    3    0  502  0.21124102729E+03  0.21472937761E+03 -0.19766931665E+02  0.30186455375E+03  0.25500000920E-02 0.  1.
</event>
<event>
 5   0  0.6256781E-03  0.8020598E+03  0.7818609E-02  0.9557040E-01
        2   -1    0    0  501    0  0.00000000000E+00  0.00000000000E+00  0.58669223366E+03  0.58669223366E+03  0.25500000920E-02 0. -1.
       -2   -1    0    0    0  501  0.00000000000E+00  0.00000000000E+00 -0.27412153693E+03  0.27412153694E+03  0.25500000920E-02 0.  1.
    10030    2    1    2    0    0  0.00000000000E+00  0.00000000000E+00  0.31257069673E+03  0.86081377060E+03  0.80205979029E+03 0.  0.
        1    1    3    3  502    0  0.21946809889E+03 -0.18063779666E+03 -0.14733116459E+03  0.32016047866E+03  0.50400001928E-02 0.  1.
       -1    1    3    3    0  502 -0.21946809889E+03  0.18063779666E+03  0.45990186132E+03  0.54065329194E+03  0.50400001928E-02 0. -1.
</event>
<event>
 5   0  0.3860515E-03  0.7983000E+03  0.7818609E-02  0.9562481E-01
       -1   -1    0    0    0  501  0.00000000000E+00  0.00000000000E+00  0.14738786670E+03  0.14738786678E+03  0.50400001928E-02 0. -1.
        1   -1    0    0  501    0  0.00000000000E+00  0.00000000000E+00 -0.10809621989E+04  0.10809621989E+04  0.50400001928E-02 0.  1.
    10030    2    1    2    0    0  0.00000000000E+00  0.00000000000E+00 -0.93357433215E+03  0.12283500656E+04  0.79829997502E+03 0.  0.
        4    1    3    3  502    0  0.72701063644E+02  0.10150758911E+03 -0.10501376272E+04  0.10575348147E+04  0.12699999809E+01 0.  1.
       -4    1    3    3    0  502 -0.72701063644E+02 -0.10150758911E+03  0.11656329506E+03  0.17081525095E+03  0.12699999809E+01 0. -1.
</event>
<event>
 5   0  0.6536209E-03  0.8037303E+03  0.7818609E-02  0.9554633E-01
        2   -1    0    0  501    0  0.00000000000E+00  0.00000000000E+00  0.65425398724E+03  0.65425398724E+03  0.25500000920E-02 0.  1.
       -2   -1    0    0    0  501  0.00000000000E+00  0.00000000000E+00 -0.24683929614E+03  0.24683929615E+03  0.25500000920E-02 0. -1.
    10030    2    1    2    0    0  0.00000000000E+00  0.00000000000E+00  0.40741469110E+03  0.90109328340E+03  0.80373028739E+03 0.  0.
        3    1    3    3  502    0 -0.15803968213E+02 -0.98058330147E+02  0.64027598237E+03  0.64793405940E+03  0.10100000352E+00 0.  1.
       -3    1    3    3    0  502  0.15803968213E+02  0.98058330147E+02 -0.23286129127E+03  0.25315922400E+03  0.10100000352E+00 0. -1.
</event>
<event>
 5   0  0.6256781E-03  0.7994941E+03  0.7818609E-02  0.9560750E-01
       -2   -1    0    0    0  501  0.00000000000E+00  0.00000000000E+00  0.13966271924E+03  0.13966271927E+03  0.25500000920E-02 0. -1.
        2   -1    0    0  501    0  0.00000000000E+00  0.00000000000E+00 -0.11441686563E+04  0.11441686563E+04  0.25500000920E-02 0.  1.
    10030    2    1    2    0    0  0.00000000000E+00  0.00000000000E+00 -0.10045059370E+04  0.12838313756E+04  0.79949410461E+03 0.  0.
        1    1    3    3  502    0 -0.80054580609E+02 -0.20882873072E+03  0.29798204935E+02  0.22562381898E+03  0.50400001928E-02 0. -1.
       -1    1    3    3    0  502  0.80054580609E+02  0.20882873072E+03 -0.10343041420E+04  0.10582075566E+04  0.50400001928E-02 0.  1.
</event>
<event>
 5   0  0.6256781E-03  0.8114988E+03  0.7818609E-02  0.9543521E-01
       -2   -1    0    0    0  501  0.00000000000E+00  0.00000000000E+00  0.17284376811E+03  0.17284376813E+03  0.25500000920E-02 0.  1.
        2   -1    0    0  501    0  0.00000000000E+00  0.00000000000E+00 -0.95249348189E+03  0.95249348189E+03  0.25500000920E-02 0. -1.
    10030    2    1    2    0    0  0.00000000000E+00  0.00000000000E+00 -0.77964971378E+03  0.11253372500E+04  0.81149876777E+03 0.  0.
        1    1    3    3  502    0  0.12514053677E+03 -0.38063762186E+03 -0.30116665913E+03  0.50124495979E+03  0.50400001928E-02 0. -1.
       -1    1    3    3    0  502 -0.12514053677E+03  0.38063762186E+03 -0.47848305465E+03  0.62409229023E+03  0.50400001928E-02 0.  1.
</event>
<event>
 5   0  0.5813850E-03  0.7986430E+03  0.7818609E-02  0.9561983E-01
       -2   -1    0    0    0  501  0.00000000000E+00  0.00000000000E+00  0.19801223450E+03  0.19801223451E+03  0.25500000920E-02 0.  1.
        2   -1    0    0  501    0  0.00000000000E+00  0.00000000000E+00 -0.80529191969E+03  0.80529191970E+03  0.25500000920E-02 0. -1.
    10030    2    1    2    0    0  0.00000000000E+00  0.00000000000E+00 -0.60727968520E+03  0.10033041542E+04  0.79864298018E+03 0.  0.
        5    1    3    3  502    0 -0.48707129441E+02 -0.32199575210E+03 -0.59389303218E+03  0.67733645442E+03  0.46999998093E+01 0. -1.
       -5    1    3    3    0  502  0.48707129441E+02  0.32199575210E+03 -0.13386653021E+02  0.32596769978E+03  0.46999998093E+01 0.  1.
</event>
<event>
 5   0  0.3753450E-03  0.7982609E+03  0.7818609E-02  0.9562538E-01
       -1   -1    0    0    0  501  0.00000000000E+00  0.00000000000E+00  0.29213107125E+03  0.29213107129E+03  0.50400001928E-02 0.  1.
        1   -1    0    0  501    0  0.00000000000E+00  0.00000000000E+00 -0.54532074813E+03  0.54532074815E+03  0.50400001928E-02 0. -1.
    10030    2    1    2    0    0  0.00000000000E+00  0.00000000000E+00 -0.25318967688E+03  0.83745181945E+03  0.79826094569E+03 0.  0.
        5    1    3    3  502    0  0.12770162312E+03  0.72551249946E+02 -0.51590908671E+03  0.53642861982E+03  0.46999998093E+01 0. -1.
       -5    1    3    3    0  502 -0.12770162312E+03 -0.72551249946E+02  0.26271940983E+03  0.30102319963E+03  0.46999998093E+01 0.  1.
</event>
<event>
 5   0  0.6536209E-03  0.8007886E+03  0.7818609E-02  0.9558876E-01
       -2   -1    0    0    0  501  0.00000000000E+00  0.00000000000E+00  0.20177902689E+03  0.20177902691E+03  0.25500000920E-02 0.  1.
        2   -1    0    0  501    0  0.00000000000E+00  0.00000000000E+00 -0.79451066196E+03  0.79451066196E+03  0.25500000920E-02 0. -1.
    10030    2    1    2    0    0  0.00000000000E+00  0.00000000000E+00 -0.59273163506E+03  0.99628968887E+03  0.80078858193E+03 0.  0.
        3    1    3    3  502    0 -0.11517746425E+03  0.35205978541E+03 -0.10725867075E+03  0.38563761931E+03  0.10100000352E+00 0.  1.
       -3    1    3    3    0  502  0.11517746425E+03 -0.35205978541E+03 -0.48547296432E+03  0.61065206956E+03  0.10100000352E+00 0. -1.
</event>
<event>
 5   0  0.3671128E-03  0.8043373E+03  0.7818609E-02  0.9553760E-01
        1   -1    0    0  501    0  0.00000000000E+00  0.00000000000E+00  0.12670316880E+04  0.12670316880E+04  0.50400001928E-02 0.  1.
       -1   -1    0    0    0  501  0.00000000000E+00  0.00000000000E+00 -0.12765240082E+03  0.12765240092E+03  0.50400001928E-02 0. -1.
    10030    2    1    2    0    0  0.00000000000E+00  0.00000000000E+00  0.11393792872E+04  0.13946840890E+04  0.80433733464E+03 0.  0.
        2    1    3    3  502    0 -0.20615060877E+03 -0.33274141428E+03  0.72978456131E+03  0.82813068304E+03  0.25500000920E-02 0.  1.
       -2    1    3    3    0  502  0.20615060877E+03  0.33274141428E+03  0.40959472590E+03  0.56655340592E+03  0.25500000920E-02 0. -1.
</event>
<event>
 5   0  0.3714448E-03  0.8065308E+03  0.7818609E-02  0.9550612E-01
        1   -1    0    0  501    0  0.00000000000E+00  0.00000000000E+00  0.12013551631E+04  0.12013551631E+04  0.50400001928E-02 0.  1.
       -1   -1    0    0    0  501  0.00000000000E+00  0.00000000000E+00 -0.13536627682E+03  0.13536627691E+03  0.50400001928E-02 0. -1.
    10030    2    1    2    0    0  0.00000000000E+00  0.00000000000E+00  0.10659888863E+04  0.13367214400E+04  0.80653078214E+03 0.  0.
        1    1    3    3  502    0 -0.25142492055E+03 -0.27782845261E+03  0.78004758974E+03  0.86537701728E+03  0.50400001928E-02 0.  1.
       -1    1    3    3    0  502  0.25142492055E+03  0.27782845261E+03  0.28594129656E+03  0.47134442275E+03  0.50400001928E-02 0. -1.
</event>
<event>
 5   0  0.3627496E-03  0.7931941E+03  0.7818609E-02  0.9569921E-01
        1   -1    0    0  501    0  0.00000000000E+00  0.00000000000E+00  0.84735083375E+03  0.84735083376E+03  0.50400001928E-02 0.  1.
       -1   -1    0    0    0  501  0.00000000000E+00  0.00000000000E+00 -0.18562465408E+03  0.18562465415E+03  0.50400001928E-02 0. -1.
    10030    2    1    2    0    0  0.00000000000E+00  0.00000000000E+00  0.66172617967E+03  0.10329754879E+04  0.79319406312E+03 0.  0.
        3    1    3    3  502    0  0.31320636103E+03 -0.34742841299E+02  0.64445459777E+03  0.71737509603E+03  0.10100000352E+00 0.  1.
       -3    1    3    3    0  502 -0.31320636103E+03  0.34742841299E+02  0.17271581899E+02  0.31560039188E+03  0.10100000352E+00 0. -1.
</event>
<event>
 5   0  0.3627496E-03  0.8002984E+03  0.7818609E-02  0.9559585E-01
       -1   -1    0    0    0  501  0.00000000000E+00  0.00000000000E+00  0.55978607927E+03  0.55978607930E+03  0.50400001928E-02 0. -1.
        1   -1    0    0  501    0  0.00000000000E+00  0.00000000000E+00 -0.28603672015E+03  0.28603672020E+03  0.50400001928E-02 0.  1.
    10030    2    1    2    0    0  0.00000000000E+00  0.00000000000E+00  0.27374935912E+03  0.84582279949E+03  0.80029837968E+03 0.  0.
        3    1    3    3  502    0  0.22727351920E+03 -0.32812157949E+03  0.16681157774E+03  0.43260043473E+03  0.10100000352E+00 0. -1.
       -3    1    3    3    0  502 -0.22727351920E+03  0.32812157949E+03  0.10693778138E+03  0.41322236477E+03  0.10100000352E+00 0.  1.
</event>
<event>
 5   0  0.6153659E-03  0.8021846E+03  0.7818609E-02  0.9556860E-01
       -2   -1    0    0    0  501  0.00000000000E+00  0.00000000000E+00  0.13795631758E+03  0.13795631760E+03  0.25500000920E-02 0. -1.
        2   -1    0    0  501    0  0.00000000000E+00  0.00000000000E+00 -0.11661303735E+04  0.11661303735E+04  0.25500000920E-02 0.  1.
    10030    2    1    2    0    0  0.00000000000E+00  0.00000000000E+00 -0.10281740559E+04  0.13040866911E+04  0.80218464747E+03 0.  0.
        2    1    3    3  502    0 -0.19919031210E+03  0.32648658921E+03 -0.71054950179E+03  0.80693919713E+03  0.25500000920E-02 0.  1.
       -2    1    3    3    0  502  0.19919031210E+03 -0.32648658921E+03 -0.31762455415E+03  0.49714749398E+03  0.25500000920E-02 0. -1.
</event>
<event>
 5   0  0.3753450E-03  0.7976029E+03  0.7818609E-02  0.9563493E-01
       -1   -1    0    0    0  501  0.00000000000E+00  0.00000000000E+00  0.21646211197E+03  0.21646211203E+03  0.50400001928E-02 0.  1.
        1   -1    0    0  501    0  0.00000000000E+00  0.00000000000E+00 -0.73473642265E+03  0.73473642267E+03  0.50400001928E-02 0. -1.
    10030    2    1    2    0    0  0.00000000000E+00  0.00000000000E+00 -0.51827431067E+03  0.95119853470E+03  0.79760290327E+03 0.  0.
        5    1    3    3  502    0 -0.39373401441E+03  0.63166728408E+02 -0.26152174577E+03  0.47689854602E+03  0.46999998093E+01 0.  1.
       -5    1    3    3    0  502  0.39373401441E+03 -0.63166728408E+02 -0.25675256490E+03  0.47429998868E+03  0.46999998093E+01 0. -1.
</event>
<event>
 5   0  0.5813850E-03  0.7546788E+03  0.7818609E-02  0.9628039E-01
       -2   -1    0    0    0  501  0.00000000000E+00  0.00000000000E+00  0.21206502759E+03  0.21206502760E+03  0.25500000920E-02 0. -1.
        2   -1    0    0  501    0  0.00000000000E+00  0.00000000000E+00 -0.67142149627E+03  0.67142149628E+03  0.25500000920E-02 0.  1.
    10030    2    1    2    0    0  0.00000000000E+00  0.00000000000E+00 -0.45935646869E+03  0.88348652388E+03  0.75467878766E+03 0.  0.
        5    1    3    3  502    0 -0.20694054137E+03  0.20490445506E+02  0.13888800034E+03  0.25011240005E+03  0.46999998093E+01 0. -1.
       -5    1    3    3    0  502  0.20694054137E+03 -0.20490445506E+02 -0.59824446903E+03  0.63337412383E+03  0.46999998093E+01 0.  1.
</event>
<event>
 5   0  0.2478000E-03  0.7979320E+03  0.7818609E-02  0.9563015E-01
       -4   -1    0    0    0  501  0.00000000000E+00  0.00000000000E+00  0.22077735671E+03  0.22078100946E+03  0.12699999809E+01 0.  1.
        4   -1    0    0  501    0  0.00000000000E+00  0.00000000000E+00 -0.72095992760E+03  0.72096104617E+03  0.12699999809E+01 0. -1.
    10030    2    1    2    0    0  0.00000000000E+00  0.00000000000E+00 -0.50018257088E+03  0.94174205563E+03  0.79793201160E+03 0.  0.
        1    1    3    3  502    0 -0.11860996686E+03 -0.26004020094E+02 -0.69862365519E+03  0.70909769772E+03  0.50400001928E-02 0. -1.
       -1    1    3    3    0  502  0.11860996686E+03  0.26004020094E+02  0.19844108431E+03  0.23264435791E+03  0.50400001928E-02 0.  1.
</event>
<event>
 5   0  0.2478000E-03  0.8001449E+03  0.7818609E-02  0.9559807E-01
        4   -1    0    0  501    0  0.00000000000E+00  0.00000000000E+00  0.98881979250E+03  0.98882060807E+03  0.12699999809E+01 0. -1.
       -4   -1    0    0    0  501  0.00000000000E+00  0.00000000000E+00 -0.16186431473E+03  0.16186929691E+03  0.12699999809E+01 0.  1.
    10030    2    1    2    0    0  0.00000000000E+00  0.00000000000E+00  0.82695547777E+03  0.11506899050E+04  0.80014492138E+03 0.  0.
        2    1    3    3  502    0  0.21780447012E+03  0.16776017482E+03  0.83145781060E+03  0.87573075444E+03  0.25500000920E-02 0. -1.
       -2    1    3    3    0  502 -0.21780447012E+03 -0.16776017482E+03 -0.45023328273E+01  0.27495915054E+03  0.25500000920E-02 0.  1.
</event>
<event>
 5   0  0.3714448E-03  0.7994307E+03  0.7818609E-02  0.9560842E-01
        1   -1    0    0  501    0  0.00000000000E+00  0.00000000000E+00  0.54809250622E+03  0.54809250624E+03  0.50400001928E-02 0. -1.
       -1   -1    0    0    0  501  0.00000000000E+00  0.00000000000E+00 -0.29150617801E+03  0.29150617805E+03  0.50400001928E-02 0.  1.
    10030    2    1    2    0    0  0.00000000000E+00  0.00000000000E+00  0.25658632821E+03  0.83959868429E+03  0.79943067669E+03 0.  0.
        1    1    3    3  502    0 -0.12700668119E+03 -0.33245254663E+03 -0.62831248675E+02  0.36139059017E+03  0.50400001928E-02 0. -1.
       -1    1    3    3    0  502  0.12700668119E+03  0.33245254663E+03  0.31941757689E+03  0.47820809412E+03  0.50400001928E-02 0.  1.
</event>
<event>
 5   0  0.3671128E-03  0.7994993E+03  0.7818609E-02  0.9560742E-01
       -1   -1    0    0    0  501  0.00000000000E+00  0.00000000000E+00  0.55212636704E+03  0.55212636706E+03  0.50400001928E-02 0. -1.
        1   -1    0    0  501    0  0.00000000000E+00  0.00000000000E+00 -0.28942607487E+03  0.28942607492E+03  0.50400001928E-02 0.  1.
    10030    2    1    2    0    0  0.00000000000E+00  0.00000000000E+00  0.26270029217E+03  0.84155244198E+03  0.79949926148E+03 0.  0.
        2    1    3    3  502    0  0.66636475584E+02 -0.39220716843E+03  0.17256158929E+03  0.43364084788E+03  0.25500000920E-02 0. -1.
       -2    1    3    3    0  502 -0.66636475584E+02  0.39220716843E+03  0.90138702878E+02  0.40791159411E+03  0.25500000920E-02 0.  1.
</event>
<event>
 5   0  0.6256781E-03  0.7989203E+03  0.7818609E-02  0.9561581E-01
       -2   -1    0    0    0  501  0.00000000000E+00  0.00000000000E+00  0.26702211988E+03  0.26702211989E+03  0.25500000920E-02 0.  1.
        2   -1    0    0  501    0  0.00000000000E+00  0.00000000000E+00 -0.59758500279E+03  0.59758500280E+03  0.25500000920E-02 0. -1.
    10030    2    1    2    0    0  0.00000000000E+00  0.00000000000E+00 -0.33056288291E+03  0.86460712269E+03  0.79892030707E+03 0.  0.
        1    1    3    3  502    0  0.12905632004E+03  0.17969951243E+03  0.19466183988E+03  0.29468742838E+03  0.50400001928E-02 0.  1.
       -1    1    3    3    0  502 -0.12905632004E+03 -0.17969951243E+03 -0.52522472279E+03  0.56991969431E+03  0.50400001928E-02 0. -1.
</event>
<event>
 5   0  0.6256781E-03  0.8026314E+03  0.7818609E-02  0.9556216E-01
       -2   -1    0    0    0  501  0.00000000000E+00  0.00000000000E+00  0.28354917589E+03  0.28354917590E+03  0.25500000920E-02 0. -1.
        2   -1    0    0  501    0  0.00000000000E+00  0.00000000000E+00 -0.56799423848E+03  0.56799423849E+03  0.25500000920E-02 0.  1.
    10030    2    1    2    0    0  0.00000000000E+00  0.00000000000E+00 -0.28444506259E+03  0.85154341439E+03  0.80263141787E+03 0.  0.
        1    1    3    3  502    0 -0.12802211167E+03 -0.14502750895E+03 -0.51526260404E+03  0.55038004195E+03  0.50400001928E-02 0.  1.
       -1    1    3    3    0  502  0.12802211167E+03  0.14502750895E+03  0.23081754145E+03  0.30116337243E+03  0.50400001928E-02 0. -1.
</event>
<event>
 5   0  0.3753450E-03  0.7622382E+03  0.7818609E-02  0.9616344E-01
        1   -1    0    0  501    0  0.00000000000E+00  0.00000000000E+00  0.91164983396E+03  0.91164983397E+03  0.50400001928E-02 0.  1.
       -1   -1    0    0    0  501  0.00000000000E+00  0.00000000000E+00 -0.15932847999E+03  0.15932848007E+03  0.50400001928E-02 0. -1.
    10030    2    1    2    0    0  0.00000000000E+00  0.00000000000E+00  0.75232135397E+03  0.10709783140E+04  0.76223823672E+03 0.  0.
        5    1    3    3  502    0  0.18084623329E+03 -0.30763997478E+03  0.18827324666E+03  0.40350541457E+03  0.46999998093E+01 0. -1.
       -5    1    3    3    0  502 -0.18084623329E+03  0.30763997478E+03  0.56404810731E+03  0.66747289948E+03  0.46999998093E+01 0.  1.
</event>
<event>
 5   0  0.3671128E-03  0.8019744E+03  0.7818609E-02  0.9557164E-01
       -1   -1    0    0    0  501  0.00000000000E+00  0.00000000000E+00  0.36796679519E+03  0.36796679523E+03  0.50400001928E-02 0. -1.
        1   -1    0    0  501    0  0.00000000000E+00  0.00000000000E+00 -0.43697071805E+03  0.43697071808E+03  0.50400001928E-02 0.  1.
    10030    2    1    2    0    0  0.00000000000E+00  0.00000000000E+00 -0.69003922853E+02  0.80493751330E+03  0.80197435056E+03 0.  0.
        2    1    3    3  502    0  0.33501753044E+03 -0.91796510107E+01 -0.25547376919E+03  0.42141174455E+03  0.25500000920E-02 0.  1.
       -2    1    3    3    0  502 -0.33501753044E+03  0.91796510107E+01  0.18646984633E+03  0.38352576875E+03  0.25500000920E-02 0. -1.
</event>
<event>
 5   0  0.5813850E-03  0.7999809E+03  0.7818609E-02  0.9560045E-01
       -2   -1    0    0    0  501  0.00000000000E+00  0.00000000000E+00  0.65373615361E+02  0.65373615410E+02  0.25500000920E-02 0.  1.
        2   -1    0    0  501    0  0.00000000000E+00  0.00000000000E+00 -0.24473537318E+04  0.24473537318E+04  0.25500000920E-02 0. -1.
    10030    2    1    2    0    0  0.00000000000E+00  0.00000000000E+00 -0.23819801164E+04  0.25127273472E+04  0.79998090372E+03 0.  0.
        5    1    3    3  502    0 -0.35122054405E+03 -0.14007315647E+03 -0.16004509490E+04  0.16445186803E+04  0.46999998093E+01 0. -1.
       -5    1    3    3    0  502  0.35122054405E+03  0.14007315647E+03 -0.78152916740E+03  0.86820866687E+03  0.46999998093E+01 0.  1.
</event>
<event>
 5   0  0.3753450E-03  0.7896440E+03  0.7818609E-02  0.9575129E-01
       -1   -1    0    0    0  501  0.00000000000E+00  0.00000000000E+00  0.60836273691E+03  0.60836273693E+03  0.50400001928E-02 0.  1.
        1   -1    0    0  501    0  0.00000000000E+00  0.00000000000E+00 -0.25623598514E+03  0.25623598519E+03  0.50400001928E-02 0. -1.
    10030    2    1    2    0    0  0.00000000000E+00  0.00000000000E+00  0.35212675176E+03  0.86459872212E+03  0.78964403435E+03 0.  0.
        5    1    3    3  502    0 -0.37867007059E+02 -0.38815511471E+03  0.10888803470E+03  0.40494073320E+03  0.46999998093E+01 0. -1.
       -5    1    3    3    0  502  0.37867007059E+02  0.38815511471E+03  0.24323871707E+03  0.45965798892E+03  0.46999998093E+01 0.  1.
</event>
<event>
 5   0  0.3671128E-03  0.7977504E+03  0.7818609E-02  0.9563279E-01
       -1   -1    0    0    0  501  0.00000000000E+00  0.00000000000E+00  0.19688572387E+03  0.19688572393E+03  0.50400001928E-02 0.  1.
        1   -1    0    0  501    0  0.00000000000E+00  0.00000000000E+00 -0.80809029603E+03  0.80809029605E+03  0.50400001928E-02 0. -1.
    10030    2    1    2    0    0  0.00000000000E+00  0.00000000000E+00 -0.61120457216E+03  0.10049760200E+04  0.79775044451E+03 0.  0.
        2    1    3    3  502    0  0.51023615507E+02  0.15841365785E+03  0.15105619385E+03  0.22475824799E+03  0.25500000920E-02 0.  1.
       -2    1    3    3    0  502 -0.51023615507E+02 -0.15841365785E+03 -0.76226076601E+03  0.78021777200E+03  0.25500000920E-02 0. -1.
</event>
<event>
 5   0  0.5813850E-03  0.7994476E+03  0.7818609E-02  0.9560817E-01
       -2   -1    0    0    0  501  0.00000000000E+00  0.00000000000E+00  0.18813608119E+03  0.18813608121E+03  0.25500000920E-02 0. -1.
        2   -1    0    0  501    0  0.00000000000E+00  0.00000000000E+00 -0.84927411940E+03  0.84927411941E+03  0.25500000920E-02 0.  1.
    10030    2    1    2    0    0  0.00000000000E+00  0.00000000000E+00 -0.66113803821E+03  0.10374102006E+04  0.79944757099E+03 0.  0.
        5    1    3    3  502    0  0.22953680897E+03  0.31060319757E+03 -0.19699509064E+03  0.43357888411E+03  0.46999998093E+01 0. -1.
       -5    1    3    3    0  502 -0.22953680897E+03 -0.31060319757E+03 -0.46414294758E+03  0.60383131651E+03  0.46999998093E+01 0.  1.
</event>
<event>
 5   0  0.6256781E-03  0.8069851E+03  0.7818609E-02  0.9549961E-01
        2   -1    0    0  501    0  0.00000000000E+00  0.00000000000E+00  0.13499534742E+04  0.13499534742E+04  0.25500000920E-02 0. -1.
       -2   -1    0    0    0  501  0.00000000000E+00  0.00000000000E+00 -0.12060137273E+03  0.12060137275E+03  0.25500000920E-02 0.  1.
    10030    2    1    2    0    0  0.00000000000E+00  0.00000000000E+00  0.12293521015E+04  0.14705548470E+04  0.80698511047E+03 0.  0.
        1    1    3    3  502    0 -0.29294695082E+03 -0.14879711430E+03  0.10414472401E+04  0.10920489234E+04  0.50400001928E-02 0. -1.
       -1    1    3    3    0  502  0.29294695082E+03  0.14879711430E+03  0.18790486144E+03  0.37850592359E+03  0.50400001928E-02 0.  1.
</event>
<event>
 5   0  0.3671128E-03  0.8022094E+03  0.7818609E-02  0.9556825E-01
        1   -1    0    0  501    0  0.00000000000E+00  0.00000000000E+00  0.93821075122E+03  0.93821075124E+03  0.50400001928E-02 0. -1.
       -1   -1    0    0    0  501  0.00000000000E+00  0.00000000000E+00 -0.17148064980E+03  0.17148064987E+03  0.50400001928E-02 0.  1.
    10030    2    1    2    0    0  0.00000000000E+00  0.00000000000E+00  0.76673010143E+03  0.11096914011E+04  0.80220942233E+03 0.  0.
        2    1    3    3  502    0 -0.30299974318E+02 -0.11463116978E+03  0.91341503614E+03  0.92107840154E+03  0.25500000920E-02 0. -1.
       -2    1    3    3    0  502  0.30299974318E+02  0.11463116978E+03 -0.14668493471E+03  0.18861299957E+03  0.25500000920E-02 0.  1.
</event>
<event>
 5   0  0.3753450E-03  0.8007675E+03  0.7818609E-02  0.9558907E-01
       -1   -1    0    0    0  501  0.00000000000E+00  0.00000000000E+00  0.94180228097E+02  0.94180228232E+02  0.50400001928E-02 0.  1.
        1   -1    0    0  501    0  0.00000000000E+00  0.00000000000E+00 -0.17021315027E+04  0.17021315027E+04  0.50400001928E-02 0. -1.
    10030    2    1    2    0    0  0.00000000000E+00  0.00000000000E+00 -0.16079512746E+04  0.17963117309E+04  0.80076746513E+03 0.  0.
        5    1    3    3  502    0  0.29346060057E+03 -0.23777537937E+03 -0.50613324174E+03  0.63154509223E+03  0.46999998093E+01 0.  1.
       -5    1    3    3    0  502 -0.29346060057E+03  0.23777537937E+03 -0.11018180329E+04  0.11647666387E+04  0.46999998093E+01 0. -1.
</event>
<event>
 5   0  0.3627496E-03  0.8065653E+03  0.7818609E-02  0.9550562E-01
       -1   -1    0    0    0  501  0.00000000000E+00  0.00000000000E+00  0.37345584652E+03  0.37345584656E+03  0.50400001928E-02 0.  1.
        1   -1    0    0  501    0  0.00000000000E+00  0.00000000000E+00 -0.43549158338E+03  0.43549158341E+03  0.50400001928E-02 0. -1.
    10030    2    1    2    0    0  0.00000000000E+00  0.00000000000E+00 -0.62035736858E+02  0.80894742997E+03  0.80656525576E+03 0.  0.
        3    1    3    3  502    0 -0.35648249756E+03 -0.20096031628E+02  0.15702787507E+03  0.39005305447E+03  0.10100000352E+00 0.  1.
       -3    1    3    3    0  502  0.35648249756E+03  0.20096031628E+02 -0.21906361193E+03  0.41889437550E+03  0.10100000352E+00 0. -1.
</event>
<event>
 5   0  0.3627496E-03  0.8016059E+03  0.7818609E-02  0.9557696E-01
        1   -1    0    0  501    0  0.00000000000E+00  0.00000000000E+00  0.79886255083E+03  0.79886255084E+03  0.50400001928E-02 0.  1.
       -1   -1    0    0    0  501  0.00000000000E+00  0.00000000000E+00 -0.20108967505E+03  0.20108967511E+03  0.50400001928E-02 0. -1.
    10030    2    1    2    0    0  0.00000000000E+00  0.00000000000E+00  0.59777287578E+03  0.99995222595E+03  0.80160591513E+03 0.  0.
        3    1    3    3  502    0 -0.32789559530E+03 -0.17464150382E+03  0.11124025372E+03  0.38780095477E+03  0.10100000352E+00 0.  1.
       -3    1    3    3    0  502  0.32789559530E+03  0.17464150382E+03  0.48653262206E+03  0.61215127118E+03  0.10100000352E+00 0. -1.
</event>
<event>
 5   0  0.3753450E-03  0.7997716E+03  0.7818609E-02  0.9560348E-01
       -1   -1    0    0    0  501  0.00000000000E+00  0.00000000000E+00  0.46172949810E+03  0.46172949813E+03  0.50400001928E-02 0. -1.
        1   -1    0    0  501    0  0.00000000000E+00  0.00000000000E+00 -0.34632536869E+03  0.34632536873E+03  0.50400001928E-02 0.  1.
    10030    2    1    2    0    0  0.00000000000E+00  0.00000000000E+00  0.11540412941E+03  0.80805486686E+03  0.79977156411E+03 0.  0.
        5    1    3    3  502    0  0.46338943824E+01 -0.29782846099E+03  0.32722943928E+03  0.44252057701E+03  0.46999998093E+01 0. -1.
       -5    1    3    3    0  502 -0.46338943824E+01  0.29782846099E+03 -0.21182530987E+03  0.36553428984E+03  0.46999998093E+01 0.  1.
</event>
<event>
 5   0  0.3860515E-03  0.7913810E+03  0.7818609E-02  0.9572577E-01
        1   -1    0    0  501    0  0.00000000000E+00  0.00000000000E+00  0.17965849644E+03  0.17965849651E+03  0.50400001928E-02 0.  1.
       -1   -1    0    0    0  501  0.00000000000E+00  0.00000000000E+00 -0.87149218639E+03  0.87149218641E+03  0.50400001928E-02 0. -1.
    10030    2    1    2    0    0  0.00000000000E+00  0.00000000000E+00 -0.69183368995E+03  0.10511506829E+04  0.79138101042E+03 0.  0.
        4    1    3    3  502    0 -0.34974889124E+03  0.17053302883E+03 -0.44136203722E+03  0.58839430796E+03  0.12699999809E+01 0. -1.
       -4    1    3    3    0  502  0.34974889124E+03 -0.17053302883E+03 -0.25047165274E+03  0.46275637496E+03  0.12699999809E+01 0.  1.
</event>
<event>
 5   0  0.3627496E-03  0.8012759E+03  0.7818609E-02  0.9558172E-01
       -1   -1    0    0    0  501  0.00000000000E+00  0.00000000000E+00  0.52202416479E+03  0.52202416481E+03  0.50400001928E-02 0.  1.
        1   -1    0    0  501    0  0.00000000000E+00  0.00000000000E+00 -0.30747765919E+03  0.30747765923E+03  0.50400001928E-02 0. -1.
    10030    2    1    2    0    0  0.00000000000E+00  0.00000000000E+00  0.21454650559E+03  0.82950182404E+03  0.80127590319E+03 0.  0.
        3    1    3    3  502    0  0.55908131012E+02 -0.28298439841E+03 -0.18055849034E+03  0.34030466863E+03  0.10100000352E+00 0. -1.
       -3    1    3    3    0  502 -0.55908131012E+02  0.28298439841E+03  0.39510499593E+03  0.48919715542E+03  0.10100000352E+00 0.  1.
</event>
<event>
 5   0  0.6337108E-03  0.7840715E+03  0.7818609E-02  0.9583363E-01
        2   -1    0    0  501    0  0.00000000000E+00  0.00000000000E+00  0.11347798159E+04  0.11347798159E+04  0.25500000920E-02 0.  1.
       -2   -1    0    0    0  501  0.00000000000E+00  0.00000000000E+00 -0.13543776278E+03  0.13543776281E+03  0.25500000920E-02 0. -1.
    10030    2    1    2    0    0  0.00000000000E+00  0.00000000000E+00  0.99934205311E+03  0.12702175787E+04  0.78407152615E+03 0.  0.
        4    1    3    3  502    0 -0.88467043348E+02  0.28494640266E+03  0.87694589453E+02  0.31098685513E+03  0.12699999809E+01 0. -1.
       -4    1    3    3    0  502  0.88467043348E+02 -0.28494640266E+03  0.91164746366E+03  0.95923072357E+03  0.12699999809E+01 0.  1.
</event>
<event>
 5   0  0.3627496E-03  0.8056027E+03  0.7818609E-02  0.9551943E-01
       -1   -1    0    0    0  501  0.00000000000E+00  0.00000000000E+00  0.46734878453E+03  0.46734878455E+03  0.50400001928E-02 0.  1.
        1   -1    0    0  501    0  0.00000000000E+00  0.00000000000E+00 -0.34716880006E+03  0.34716880010E+03  0.50400001928E-02 0. -1.
    10030    2    1    2    0    0  0.00000000000E+00  0.00000000000E+00  0.12017998447E+03  0.81451758465E+03  0.80560267318E+03 0.  0.
        3    1    3    3  502    0 -0.13226656911E+03 -0.31899561468E+03 -0.14956002459E+03  0.37632546904E+03  0.10100000352E+00 0. -1.
       -3    1    3    3    0  502  0.13226656911E+03  0.31899561468E+03  0.26974000906E+03  0.43819211561E+03  0.10100000352E+00 0.  1.
</event>
<event>
 5   0  0.6536209E-03  0.7977500E+03  0.7818609E-02  0.9563280E-01
        2   -1    0    0  501    0  0.00000000000E+00  0.00000000000E+00  0.81599321229E+03  0.81599321229E+03  0.25500000920E-02 0. -1.
       -2   -1    0    0    0  501  0.00000000000E+00  0.00000000000E+00 -0.19497865632E+03  0.19497865633E+03  0.25500000920E-02 0.  1.
    10030    2    1    2    0    0  0.00000000000E+00  0.00000000000E+00  0.62101455597E+03  0.10109718686E+04  0.79774998616E+03 0.  0.
        3    1    3    3  502    0 -0.10481813359E+03 -0.30149059481E+03  0.61364358627E+03  0.69169493352E+03  0.10100000352E+00 0. -1.
       -3    1    3    3    0  502  0.10481813359E+03  0.30149059481E+03  0.73709697042E+01  0.31927693510E+03  0.10100000352E+00 0.  1.
</event>
<event>
 5   0  0.6536209E-03  0.7995907E+03  0.7818609E-02  0.9560610E-01
        2   -1    0    0  501    0  0.00000000000E+00  0.00000000000E+00  0.70765508998E+03  0.70765508998E+03  0.25500000920E-02 0.  1.
       -2   -1    0    0    0  501  0.00000000000E+00  0.00000000000E+00 -0.22586755368E+03  0.22586755370E+03  0.25500000920E-02 0. -1.
    10030    2    1    2    0    0  0.00000000000E+00  0.00000000000E+00  0.48178753629E+03  0.93352264368E+03  0.79959070538E+03 0.  0.
        3    1    3    3  502    0 -0.38522459681E+03 -0.53723811036E+02  0.34886123071E+03  0.52248292446E+03  0.10100000352E+00 0.  1.
       -3    1    3    3    0  502  0.38522459681E+03  0.53723811036E+02  0.13292630558E+03  0.41103971922E+03  0.10100000352E+00 0. -1.
</event>
<event>
 5   0  0.2478000E-03  0.8012239E+03  0.7818609E-02  0.9558247E-01
       -4   -1    0    0    0  501  0.00000000000E+00  0.00000000000E+00  0.51570086002E+03  0.51570242381E+03  0.12699999809E+01 0. -1.
        4   -1    0    0  501    0  0.00000000000E+00  0.00000000000E+00 -0.31120406390E+03  0.31120665527E+03  0.12699999809E+01 0.  1.
    10030    2    1    2    0    0  0.00000000000E+00  0.00000000000E+00  0.20449679612E+03  0.82690907908E+03  0.80122386725E+03 0.  0.
        2    1    3    3  502    0 -0.79005798978E+02  0.26262158012E+03  0.40363376230E+03  0.48798793498E+03  0.25500000920E-02 0. -1.
       -2    1    3    3    0  502  0.79005798978E+02 -0.26262158012E+03 -0.19913696618E+03  0.33892114410E+03  0.25500000920E-02 0.  1.
</event>
<event>
 5   0  0.5813850E-03  0.7993618E+03  0.7818609E-02  0.9560941E-01
        2   -1    0    0  501    0  0.00000000000E+00  0.00000000000E+00  0.18808607619E+04  0.18808607619E+04  0.25500000920E-02 0. -1.
       -2   -1    0    0    0  501  0.00000000000E+00  0.00000000000E+00 -0.84931772138E+02  0.84931772176E+02  0.25500000920E-02 0.  1.
    10030    2    1    2    0    0  0.00000000000E+00  0.00000000000E+00  0.17959289897E+04  0.19657925341E+04  0.79936183969E+03 0.  0.
        5    1    3    3  502    0  0.28514379171E+03  0.27829476179E+03  0.97446866797E+03  0.10527897374E+04  0.46999998093E+01 0.  1.
       -5    1    3    3    0  502 -0.28514379171E+03 -0.27829476179E+03  0.82146032177E+03  0.91300279662E+03  0.46999998093E+01 0. -1.
</event>
<event>
 5   0  0.3753450E-03  0.7991460E+03  0.7818609E-02  0.9561254E-01
       -1   -1    0    0    0  501  0.00000000000E+00  0.00000000000E+00  0.16545604226E+03  0.16545604234E+03  0.50400001928E-02 0.  1.
        1   -1    0    0  501    0  0.00000000000E+00  0.00000000000E+00 -0.96496068809E+03  0.96496068811E+03  0.50400001928E-02 0. -1.
    10030    2    1    2    0    0  0.00000000000E+00  0.00000000000E+00 -0.79950464583E+03  0.11304167304E+04  0.79914598527E+03 0.  0.
        5    1    3    3  502    0  0.11619740722E+03  0.12469610529E+03 -0.91091599708E+03  0.92673674787E+03  0.46999998093E+01 0. -1.
       -5    1    3    3    0  502 -0.11619740722E+03 -0.12469610529E+03  0.11141135125E+03  0.20367998258E+03  0.46999998093E+01 0.  1.
</event>
<event>
 5   0  0.3671128E-03  0.8014015E+03  0.7818609E-02  0.9557991E-01
        1   -1    0    0  501    0  0.00000000000E+00  0.00000000000E+00  0.19139103505E+03  0.19139103512E+03  0.50400001928E-02 0.  1.
       -1   -1    0    0    0  501  0.00000000000E+00  0.00000000000E+00 -0.83891639507E+03  0.83891639509E+03  0.50400001928E-02 0. -1.
    10030    2    1    2    0    0  0.00000000000E+00  0.00000000000E+00 -0.64752536002E+03  0.10303074302E+04  0.80140146547E+03 0.  0.
        2    1    3    3  502    0 -0.34980703536E+03  0.97158525524E+01 -0.57471370594E+03  0.67287086694E+03  0.25500000920E-02 0. -1.
       -2    1    3    3    0  502  0.34980703536E+03 -0.97158525524E+01 -0.72811654083E+02  0.35743656326E+03  0.25500000920E-02 0.  1.
</event>
<event>
 5   0  0.5813850E-03  0.7968429E+03  0.7818609E-02  0.9564598E-01
       -2   -1    0    0    0  501  0.00000000000E+00  0.00000000000E+00  0.21847014792E+03  0.21847014793E+03  0.25500000920E-02 0. -1.
        2   -1    0    0  501    0  0.00000000000E+00  0.00000000000E+00 -0.72659646237E+03  0.72659646238E+03  0.25500000920E-02 0.  1.
    10030    2    1    2    0    0  0.00000000000E+00  0.00000000000E+00 -0.50812631446E+03  0.94506661031E+03  0.79684286185E+03 0.  0.
        5    1    3    3  502    0  0.13080384773E+03  0.34383371526E+03 -0.43543516938E+03  0.57005012680E+03  0.46999998093E+01 0. -1.
       -5    1    3    3    0  502 -0.13080384773E+03 -0.34383371526E+03 -0.72691145080E+02  0.37501648351E+03  0.46999998093E+01 0.  1.
</event>
<event>
 5   0  0.6256781E-03  0.8006726E+03  0.7818609E-02  0.9559044E-01
       -2   -1    0    0    0  501  0.00000000000E+00  0.00000000000E+00  0.15631967448E+03  0.15631967450E+03  0.25500000920E-02 0.  1.
        2   -1    0    0  501    0  0.00000000000E+00  0.00000000000E+00 -0.10252654054E+04  0.10252654054E+04  0.25500000920E-02 0. -1.
    10030    2    1    2    0    0  0.00000000000E+00  0.00000000000E+00 -0.86894573095E+03  0.11815850799E+04  0.80067260338E+03 0.  0.
        1    1    3    3  502    0  0.22418273033E+03  0.70315036670E+02 -0.91282014283E+03  0.94257239199E+03  0.50400001928E-02 0. -1.
       -1    1    3    3    0  502 -0.22418273033E+03 -0.70315036670E+02  0.43874411881E+02  0.23901268795E+03  0.50400001928E-02 0.  1.
</event>
<event>
 5   0  0.3671128E-03  0.8001717E+03  0.7818609E-02  0.9559769E-01
        1   -1    0    0  501    0  0.00000000000E+00  0.00000000000E+00  0.92622788335E+03  0.92622788336E+03  0.50400001928E-02 0. -1.
       -1   -1    0    0    0  501  0.00000000000E+00  0.00000000000E+00 -0.17281780996E+03  0.17281781004E+03  0.50400001928E-02 0.  1.
    10030    2    1    2    0    0  0.00000000000E+00  0.00000000000E+00  0.75341007338E+03  0.10990456934E+04  0.80017166752E+03 0.  0.
        2    1    3    3  502    0  0.61418843182E+01 -0.12552057180E+03 -0.14500468522E+03  0.19188406768E+03  0.25500000920E-02 0.  1.
       -2    1    3    3    0  502 -0.61418843182E+01  0.12552057180E+03  0.89841475860E+03  0.90716162571E+03  0.25500000920E-02 0. -1.
</event>
<event>
 5   0  0.6256781E-03  0.8009938E+03  0.7818609E-02  0.9558580E-01
        2   -1    0    0  501    0  0.00000000000E+00  0.00000000000E+00  0.73390889952E+03  0.73390889952E+03  0.25500000920E-02 0. -1.
       -2   -1    0    0    0  501  0.00000000000E+00  0.00000000000E+00 -0.21855268478E+03  0.21855268479E+03  0.25500000920E-02 0.  1.
    10030    2    1    2    0    0  0.00000000000E+00  0.00000000000E+00  0.51535621474E+03  0.95246158431E+03  0.80099378370E+03 0.  0.
        1    1    3    3  502    0  0.70019460972E+02 -0.27435635577E+03 -0.79119862518E+02  0.29399674750E+03  0.50400001928E-02 0.  1.
       -1    1    3    3    0  502 -0.70019460972E+02  0.27435635577E+03  0.59447607726E+03  0.65846483682E+03  0.50400001928E-02 0. -1.
</event>
<event>
 5   0  0.3860515E-03  0.7965118E+03  0.7818609E-02  0.9565080E-01
        1   -1    0    0  501    0  0.00000000000E+00  0.00000000000E+00  0.11066451004E+04  0.11066451004E+04  0.50400001928E-02 0. -1.
       -1   -1    0    0    0  501  0.00000000000E+00  0.00000000000E+00 -0.14332306739E+03  0.14332306748E+03  0.50400001928E-02 0.  1.
    10030    2    1    2    0    0  0.00000000000E+00  0.00000000000E+00  0.96332203301E+03  0.12499681679E+04  0.79651182128E+03 0.  0.
        4    1    3    3  502    0  0.23577424815E+03 -0.28514241478E+02  0.98335607462E+03  0.10116290528E+04  0.12699999809E+01 0. -1.
       -4    1    3    3    0  502 -0.23577424815E+03  0.28514241478E+02 -0.20034041613E+02  0.23833911509E+03  0.12699999809E+01 0.  1.
</event>
<event>
 5   0  0.2478000E-03  0.7968839E+03  0.7818609E-02  0.9564538E-01
       -3   -1    0    0    0  501  0.00000000000E+00  0.00000000000E+00  0.71234704788E+03  0.71234705504E+03  0.10100000352E+00 0.  1.
        3   -1    0    0  501    0  0.00000000000E+00  0.00000000000E+00 -0.22286324923E+03  0.22286327211E+03  0.10100000352E+00 0. -1.
    10030    2    1    2    0    0  0.00000000000E+00  0.00000000000E+00  0.48948379866E+03  0.93521032716E+03  0.79688391054E+03 0.  0.
        1    1    3    3  502    0 -0.11138391620E+02  0.81476125752E+02  0.70227955421E+03  0.70707778576E+03  0.50400001928E-02 0.  1.
       -1    1    3    3    0  502  0.11138391620E+02 -0.81476125752E+02 -0.21279575555E+03  0.22813254139E+03  0.50400001928E-02 0. -1.
</event>
<event>
 5   0  0.6536209E-03  0.7985174E+03  0.7818609E-02  0.9562166E-01
        2   -1    0    0  501    0  0.00000000000E+00  0.00000000000E+00  0.41988938699E+03  0.41988938699E+03  0.25500000920E-02 0. -1.
       -2   -1    0    0    0  501  0.00000000000E+00  0.00000000000E+00 -0.37964164339E+03  0.37964164340E+03  0.25500000920E-02 0.  1.
    10030    2    1    2    0    0  0.00000000000E+00  0.00000000000E+00  0.40247743592E+02  0.79953103039E+03  0.79851736844E+03 0.  0.
        3    1    3    3  502    0 -0.19542213550E+03  0.16526490168E+03 -0.28670466569E+03  0.38432001548E+03  0.10100000352E+00 0.  1.
       -3    1    3    3    0  502  0.19542213550E+03 -0.16526490168E+03  0.32695240928E+03  0.41521101491E+03  0.10100000352E+00 0. -1.
</event>
<event>
 5   0  0.3860515E-03  0.8219365E+03  0.7818609E-02  0.9528797E-01
        1   -1    0    0  501    0  0.00000000000E+00  0.00000000000E+00  0.28500223703E+03  0.28500223707E+03  0.50400001928E-02 0. -1.
       -1   -1    0    0    0  501  0.00000000000E+00  0.00000000000E+00 -0.59260898853E+03  0.59260898855E+03  0.50400001928E-02 0.  1.
    10030    2    1    2    0    0  0.00000000000E+00  0.00000000000E+00 -0.30760675150E+03  0.87761122562E+03  0.82193646334E+03 0.  0.
        4    1    3    3  502    0  0.55484210086E+02 -0.13280718737E+03 -0.56481524362E+03  0.58286715375E+03  0.12699999809E+01 0.  1.
       -4    1    3    3    0  502 -0.55484210086E+02  0.13280718737E+03  0.25720849212E+03  0.29474407188E+03  0.12699999809E+01 0. -1.
</event>
<event>
 5   0  0.6536209E-03  0.7956384E+03  0.7818609E-02  0.9566352E-01
        2   -1    0    0  501    0  0.00000000000E+00  0.00000000000E+00  0.93339119994E+03  0.93339119994E+03  0.25500000920E-02 0. -1.
       -2   -1    0    0    0  501  0.00000000000E+00  0.00000000000E+00 -0.16955390795E+03  0.16955390797E+03  0.25500000920E-02 0.  1.
    10030    2    1    2    0    0  0.00000000000E+00  0.00000000000E+00  0.76383729198E+03  0.11029451079E+04  0.79563842444E+03 0.  0.
        3    1    3    3  502    0  0.24275105335E+03 -0.12739693612E+03 -0.17698441719E+02  0.27472040018E+03  0.10100000352E+00 0.  1.
       -3    1    3    3    0  502 -0.24275105335E+03  0.12739693612E+03  0.78153573370E+03  0.82822470773E+03  0.10100000352E+00 0. -1.
</event>
<event>
 5   0  0.6337108E-03  0.8010347E+03  0.7818609E-02  0.9558521E-01
       -2   -1    0    0    0  501  0.00000000000E+00  0.00000000000E+00  0.35280640275E+03  0.35280640276E+03  0.25500000920E-02 0. -1.
        2   -1    0    0  501    0  0.00000000000E+00  0.00000000000E+00 -0.45468038067E+03  0.45468038068E+03  0.25500000920E-02 0.  1.
    10030    2    1    2    0    0  0.00000000000E+00  0.00000000000E+00 -0.10187397792E+03  0.80748678344E+03  0.80103470465E+03 0.  0.
        4    1    3    3  502    0  0.34391782070E+03 -0.14204661148E+03  0.98431509143E+02  0.38489879464E+03  0.12699999809E+01 0. -1.
       -4    1    3    3    0  502 -0.34391782070E+03  0.14204661148E+03 -0.20030548706E+03  0.42258798879E+03  0.12699999809E+01 0.  1.
</event>
<event>
 5   0  0.6153659E-03  0.7996639E+03  0.7818609E-02  0.9560504E-01
       -2   -1    0    0    0  501  0.00000000000E+00  0.00000000000E+00  0.13467494739E+03  0.13467494742E+03  0.25500000920E-02 0.  1.
        2   -1    0    0  501    0  0.00000000000E+00  0.00000000000E+00 -0.11870475651E+04  0.11870475651E+04  0.25500000920E-02 0. -1.
    10030    2    1    2    0    0  0.00000000000E+00  0.00000000000E+00 -0.10523726177E+04  0.13217225125E+04  0.79966385037E+03 0.  0.
        2    1    3    3  502    0  0.11112147878E+03  0.11239507530E+03  0.80849824436E+02  0.17753120885E+03  0.25500000920E-02 0.  1.
       -2    1    3    3    0  502 -0.11112147878E+03 -0.11239507530E+03 -0.11332224421E+04  0.11441913036E+04  0.25500000920E-02 0. -1.
</event>
<event>
 5   0  0.6153659E-03  0.7999986E+03  0.7818609E-02  0.9560019E-01
        2   -1    0    0  501    0  0.00000000000E+00  0.00000000000E+00  0.13002423318E+04  0.13002423318E+04  0.25500000920E-02 0. -1.
       -2   -1    0    0    0  501  0.00000000000E+00  0.00000000000E+00 -0.12305354030E+03  0.12305354032E+03  0.25500000920E-02 0.  1.
    10030    2    1    2    0    0  0.00000000000E+00  0.00000000000E+00  0.11771887915E+04  0.14232958721E+04  0.79999855549E+03 0.  0.
        2    1    3    3  502    0 -0.10404699275E+03  0.33001336687E+03  0.23159384583E+03  0.41637760320E+03  0.25500000920E-02 0.  1.
       -2    1    3    3    0  502  0.10404699275E+03 -0.33001336687E+03  0.94559494569E+03  0.10069182689E+04  0.25500000920E-02 0. -1.
</event>
<event>
 5   0  0.3671128E-03  0.7992492E+03  0.7818609E-02  0.9561104E-01
       -1   -1    0    0    0  501  0.00000000000E+00  0.00000000000E+00  0.12533507884E+03  0.12533507894E+03  0.50400001928E-02 0. -1.
        1   -1    0    0  501    0  0.00000000000E+00  0.00000000000E+00 -0.12741830854E+04  0.12741830854E+04  0.50400001928E-02 0.  1.
    10030    2    1    2    0    0  0.00000000000E+00  0.00000000000E+00 -0.11488480065E+04  0.13995181643E+04  0.79924924158E+03 0.  0.
        2    1    3    3  502    0  0.35947652766E+03  0.23720011389E+02 -0.87727728114E+03  0.94836777723E+03  0.25500000920E-02 0. -1.
       -2    1    3    3    0  502 -0.35947652766E+03 -0.23720011389E+02 -0.27157072540E+03  0.45115038710E+03  0.25500000920E-02 0.  1.
</event>
<event>
 5   0  0.6153659E-03  0.8006984E+03  0.7818609E-02  0.9559007E-01
        2   -1    0    0  501    0  0.00000000000E+00  0.00000000000E+00  0.10550472451E+04  0.10550472451E+04  0.25500000920E-02 0.  1.
       -2   -1    0    0    0  501  0.00000000000E+00  0.00000000000E+00 -0.15191689305E+03  0.15191689307E+03  0.25500000920E-02 0. -1.
    10030    2    1    2    0    0  0.00000000000E+00  0.00000000000E+00  0.90313035209E+03  0.12069641382E+04  0.80069844390E+03 0.  0.
        2    1    3    3  502    0  0.63964557046E+02  0.36938756457E+03  0.23977371851E+03  0.44500570054E+03  0.25500000920E-02 0. -1.
       -2    1    3    3    0  502 -0.63964557046E+02 -0.36938756457E+03  0.66335663358E+03  0.76195843767E+03  0.25500000920E-02 0.  1.
</event>
<event>
 5   0  0.5813850E-03  0.7971881E+03  0.7818609E-02  0.9564096E-01
        2   -1    0    0  501    0  0.00000000000E+00  0.00000000000E+00  0.80656047818E+03  0.80656047819E+03  0.25500000920E-02 0.  1.
       -2   -1    0    0    0  501  0.00000000000E+00  0.00000000000E+00 -0.19698117070E+03  0.19698117072E+03  0.25500000920E-02 0. -1.
    10030    2    1    2    0    0  0.00000000000E+00  0.00000000000E+00  0.60957930748E+03  0.10035416489E+04  0.79718812646E+03 0.  0.
        5    1    3    3  502    0  0.36860243176E+03 -0.89593668624E+02  0.45876301429E+03  0.59529855655E+03  0.46999998093E+01 0.  1.
       -5    1    3    3    0  502 -0.36860243176E+03  0.89593668624E+02  0.15081629320E+03  0.40824309235E+03  0.46999998093E+01 0. -1.
</event>
<event>
 5   0  0.5813850E-03  0.7719893E+03  0.7818609E-02  0.9601471E-01
        2   -1    0    0  501    0  0.00000000000E+00  0.00000000000E+00  0.12852589871E+04  0.12852589871E+04  0.25500000920E-02 0.  1.
       -2   -1    0    0    0  501  0.00000000000E+00  0.00000000000E+00 -0.11592361118E+03  0.11592361121E+03  0.25500000920E-02 0. -1.
    10030    2    1    2    0    0  0.00000000000E+00  0.00000000000E+00  0.11693353759E+04  0.14011825983E+04  0.77198928260E+03 0.  0.
        5    1    3    3  502    0  0.18824688558E+03  0.32430310997E+03  0.41871038430E+03  0.56209418515E+03  0.46999998093E+01 0. -1.
       -5    1    3    3    0  502 -0.18824688558E+03 -0.32430310997E+03  0.75062499159E+03  0.83908841314E+03  0.46999998093E+01 0.  1.
</event>
<event>
 5   0  0.6536209E-03  0.7979853E+03  0.7818609E-02  0.9562938E-01
       -2   -1    0    0    0  501  0.00000000000E+00  0.00000000000E+00  0.20807233622E+03  0.20807233623E+03  0.25500000920E-02 0. -1.
        2   -1    0    0  501    0  0.00000000000E+00  0.00000000000E+00 -0.76509518368E+03  0.76509518368E+03  0.25500000920E-02 0.  1.
    10030    2    1    2    0    0  0.00000000000E+00  0.00000000000E+00 -0.55702284746E+03  0.97316751992E+03  0.79798531893E+03 0.  0.
        3    1    3    3  502    0  0.21048298566E+03 -0.11805017729E+03  0.10897741982E+03  0.26479240896E+03  0.10100000352E+00 0. -1.
       -3    1    3    3    0  502 -0.21048298566E+03  0.11805017729E+03 -0.66600026728E+03  0.70837511096E+03  0.10100000352E+00 0.  1.
</event>
<event>
 5   0  0.3753450E-03  0.8011870E+03  0.7818609E-02  0.9558301E-01
       -1   -1    0    0    0  501  0.00000000000E+00  0.00000000000E+00  0.99305017743E+02  0.99305017871E+02  0.50400001928E-02 0.  1.
        1   -1    0    0  501    0  0.00000000000E+00  0.00000000000E+00 -0.16159822348E+04  0.16159822348E+04  0.50400001928E-02 0. -1.
    10030    2    1    2    0    0  0.00000000000E+00  0.00000000000E+00 -0.15166772171E+04  0.17152872527E+04  0.80118698097E+03 0.  0.
        5    1    3    3  502    0 -0.38317754656E+03  0.96317016706E+02 -0.89955992297E+03  0.98251317798E+03  0.46999998093E+01 0. -1.
       -5    1    3    3    0  502  0.38317754656E+03 -0.96317016706E+02 -0.61711729410E+03  0.73277407471E+03  0.46999998093E+01 0.  1.
</event>
<event>
 5   0  0.3714448E-03  0.7991288E+03  0.7818609E-02  0.9561279E-01
       -1   -1    0    0    0  501  0.00000000000E+00  0.00000000000E+00  0.76476441502E+03  0.76476441504E+03  0.50400001928E-02 0. -1.
        1   -1    0    0  501    0  0.00000000000E+00  0.00000000000E+00 -0.20875935213E+03  0.20875935219E+03  0.50400001928E-02 0.  1.
    10030    2    1    2    0    0  0.00000000000E+00  0.00000000000E+00  0.55600506289E+03  0.97352376723E+03  0.79912883530E+03 0.  0.
        1    1    3    3  502    0 -0.91461694477E+02  0.35633067761E+03  0.46796433001E+03  0.59525406975E+03  0.50400001928E-02 0. -1.
       -1    1    3    3    0  502  0.91461694477E+02 -0.35633067761E+03  0.88040732880E+02  0.37826969748E+03  0.50400001928E-02 0.  1.
</event>
<event>
 5   0  0.6536209E-03  0.8030509E+03  0.7818609E-02  0.9555612E-01
       -2   -1    0    0    0  501  0.00000000000E+00  0.00000000000E+00  0.18277980946E+03  0.18277980947E+03  0.25500000920E-02 0.  1.
        2   -1    0    0  501    0  0.00000000000E+00  0.00000000000E+00 -0.88205957753E+03  0.88205957754E+03  0.25500000920E-02 0. -1.
    10030    2    1    2    0    0  0.00000000000E+00  0.00000000000E+00 -0.69927976808E+03  0.10648393870E+04  0.80305088636E+03 0.  0.
        3    1    3    3  502    0  0.68760716468E+02 -0.35708544287E+03 -0.57538837663E+03  0.68066867403E+03  0.10100000352E+00 0. -1.
       -3    1    3    3    0  502 -0.68760716468E+02  0.35708544287E+03 -0.12389139144E+03  0.38417071298E+03  0.10100000352E+00 0.  1.
</event>
<event>
 5   0  0.2478000E-03  0.8001194E+03  0.7818609E-02  0.9559844E-01
       -4   -1    0    0    0  501  0.00000000000E+00  0.00000000000E+00  0.28928476981E+03  0.28928755753E+03  0.12699999809E+01 0. -1.
        4   -1    0    0  501    0  0.00000000000E+00  0.00000000000E+00 -0.55324717957E+03  0.55324863724E+03  0.12699999809E+01 0.  1.
    10030    2    1    2    0    0  0.00000000000E+00  0.00000000000E+00 -0.26396240977E+03  0.84253619477E+03  0.80011941966E+03 0.  0.
        4    1    3    3  502    0  0.21973587736E+03 -0.22907512594E+03 -0.38837829269E+03  0.50159603294E+03  0.12699999809E+01 0. -1.
       -4    1    3    3    0  502 -0.21973587736E+03  0.22907512594E+03  0.12441588293E+03  0.34094016183E+03  0.12699999809E+01 0.  1.
</event>
<event>
 5   0  0.6337108E-03  0.8015651E+03  0.7818609E-02  0.9557754E-01
       -2   -1    0    0    0  501  0.00000000000E+00  0.00000000000E+00  0.77292601052E+02  0.77292601094E+02  0.25500000920E-02 0. -1.
        2   -1    0    0  501    0  0.00000000000E+00  0.00000000000E+00 -0.20781632339E+04  0.20781632339E+04  0.25500000920E-02 0.  1.
    10030    2    1    2    0    0  0.00000000000E+00  0.00000000000E+00 -0.20008706328E+04  0.21554558350E+04  0.80156507360E+03 0.  0.
        4    1    3    3  502    0 -0.81051020998E+02  0.12001973970E+03  0.44636598762E+01  0.14489838881E+03  0.12699999809E+01 0. -1.
       -4    1    3    3    0  502  0.81051020998E+02 -0.12001973970E+03 -0.20053342927E+04  0.20105574462E+04  0.12699999809E+01 0.  1.
</event>
<event>
 5   0  0.2478000E-03  0.8004120E+03  0.7818609E-02  0.9559421E-01
        3   -1    0    0  501    0  0.00000000000E+00  0.00000000000E+00  0.68029541773E+03  0.68029542523E+03  0.10100000352E+00 0.  1.
       -3   -1    0    0    0  501  0.00000000000E+00  0.00000000000E+00 -0.23543425435E+03  0.23543427601E+03  0.10100000352E+00 0. -1.
    10030    2    1    2    0    0  0.00000000000E+00  0.00000000000E+00  0.44486116339E+03  0.91572970124E+03  0.80041203829E+03 0.  0.
        4    1    3    3  502    0  0.19444804835E+03  0.78253728837E+02  0.61247312240E+03  0.64734737826E+03  0.12699999809E+01 0.  1.
       -4    1    3    3    0  502 -0.19444804835E+03 -0.78253728837E+02 -0.16761195901E+03  0.26838232298E+03  0.12699999809E+01 0. -1.
</event>
<event>
 5   0  0.3860515E-03  0.8021129E+03  0.7818609E-02  0.9556964E-01
        1   -1    0    0  501    0  0.00000000000E+00  0.00000000000E+00  0.46747036711E+03  0.46747036714E+03  0.50400001928E-02 0.  1.
       -1   -1    0    0    0  501  0.00000000000E+00  0.00000000000E+00 -0.34407799659E+03  0.34407799662E+03  0.50400001928E-02 0. -1.
    10030    2    1    2    0    0  0.00000000000E+00  0.00000000000E+00  0.12339237052E+03  0.81154836376E+03  0.80211287836E+03 0.  0.
        4    1    3    3  502    0 -0.18260290002E+03  0.15488431338E+03 -0.26382076358E+03  0.35628075702E+03  0.12699999809E+01 0. -1.
       -4    1    3    3    0  502  0.18260290002E+03 -0.15488431338E+03  0.38721313411E+03  0.45526760674E+03  0.12699999809E+01 0.  1.
</event>
<event>
 5   0  0.6337108E-03  0.7981248E+03  0.7818609E-02  0.9562735E-01
       -2   -1    0    0    0  501  0.00000000000E+00  0.00000000000E+00  0.89949917129E+02  0.89949917165E+02  0.25500000920E-02 0.  1.
        2   -1    0    0  501    0  0.00000000000E+00  0.00000000000E+00 -0.17704386169E+04  0.17704386169E+04  0.25500000920E-02 0. -1.
    10030    2    1    2    0    0  0.00000000000E+00  0.00000000000E+00 -0.16804886998E+04  0.18603885341E+04  0.79812481958E+03 0.  0.
        4    1    3    3  502    0 -0.96828569273E+02  0.20444608301E+03 -0.16065391959E+04  0.16223882931E+04  0.12699999809E+01 0. -1.
       -4    1    3    3    0  502  0.96828569273E+02 -0.20444608301E+03 -0.73949503874E+02  0.23800024098E+03  0.12699999809E+01 0.  1.
</event>
<event>
 5   0  0.6256781E-03  0.7946917E+03  0.7818609E-02  0.9567733E-01
        2   -1    0    0  501    0  0.00000000000E+00  0.00000000000E+00  0.12620241010E+04  0.12620241010E+04  0.25500000920E-02 0.  1.
       -2   -1    0    0    0  501  0.00000000000E+00  0.00000000000E+00 -0.12510356457E+03  0.12510356460E+03  0.25500000920E-02 0. -1.
    10030    2    1    2    0    0  0.00000000000E+00  0.00000000000E+00  0.11369205364E+04  0.13871276656E+04  0.79469167262E+03 0.  0.
        1    1    3    3  502    0 -0.17213446011E+03 -0.14130618589E+03 -0.59258474305E+01  0.22278425936E+03  0.50400001928E-02 0. -1.
       -1    1    3    3    0  502  0.17213446011E+03  0.14130618589E+03  0.11428463839E+04  0.11643434063E+04  0.50400001928E-02 0.  1.
</event>
<event>
 5   0  0.6153659E-03  0.8067338E+03  0.7818609E-02  0.9550321E-01
        2   -1    0    0  501    0  0.00000000000E+00  0.00000000000E+00  0.78600166984E+03  0.78600166984E+03  0.25500000920E-02 0. -1.
       -2   -1    0    0    0  501  0.00000000000E+00  0.00000000000E+00 -0.20700320251E+03  0.20700320253E+03  0.25500000920E-02 0.  1.
    10030    2    1    2    0    0  0.00000000000E+00  0.00000000000E+00  0.57899846732E+03  0.99300487237E+03  0.80673381693E+03 0.  0.
        2    1    3    3  502    0  0.18804035682E+03 -0.10868582567E+03 -0.12888401692E+03  0.25255271591E+03  0.25500000920E-02 0.  1.
       -2    1    3    3    0  502 -0.18804035682E+03  0.10868582567E+03  0.70788248424E+03  0.74045215645E+03  0.25500000920E-02 0. -1.
</event>
<event>
 5   0  0.3627496E-03  0.8003701E+03  0.7818609E-02  0.9559482E-01
       -1   -1    0    0    0  501  0.00000000000E+00  0.00000000000E+00  0.21252188959E+03  0.21252188965E+03  0.50400001928E-02 0. -1.
        1   -1    0    0  501    0  0.00000000000E+00  0.00000000000E+00 -0.75356038715E+03  0.75356038716E+03  0.50400001928E-02 0.  1.
    10030    2    1    2    0    0  0.00000000000E+00  0.00000000000E+00 -0.54103849755E+03  0.96608227682E+03  0.80037010798E+03 0.  0.
        3    1    3    3  502    0  0.26128593339E+03 -0.14365825099E+03 -0.59268941200E+03  0.66346724211E+03  0.10100000352E+00 0.  1.
       -3    1    3    3    0  502 -0.26128593339E+03  0.14365825099E+03  0.51650914444E+02  0.30261503470E+03  0.10100000352E+00 0. -1.
</event>
<event>
 5   0  0.2478000E-03  0.7986247E+03  0.7818609E-02  0.9562010E-01
        3   -1    0    0  501    0  0.00000000000E+00  0.00000000000E+00  0.13258044299E+04  0.13258044337E+04  0.10100000352E+00 0. -1.
       -3   -1    0    0    0  501  0.00000000000E+00  0.00000000000E+00 -0.12026685103E+03  0.12026689344E+03  0.10100000352E+00 0.  1.
    10030    2    1    2    0    0  0.00000000000E+00  0.00000000000E+00  0.12055375788E+04  0.14460713271E+04  0.79862471114E+03 0.  0.
        2    1    3    3  502    0 -0.18394098965E+03 -0.28554623363E+03  0.22261012149E+03  0.40611107521E+03  0.25500000920E-02 0.  1.
       -2    1    3    3    0  502  0.18394098965E+03  0.28554623363E+03  0.98292745734E+03  0.10399602519E+04  0.25500000920E-02 0. -1.
</event>
<event>
 5   0  0.3860515E-03  0.8023582E+03  0.7818609E-02  0.9556610E-01
        1   -1    0    0  501    0  0.00000000000E+00  0.00000000000E+00  0.22972335814E+03  0.22972335820E+03  0.50400001928E-02 0.  1.
       -1   -1    0    0    0  501  0.00000000000E+00  0.00000000000E+00 -0.70060215893E+03  0.70060215895E+03  0.50400001928E-02 0. -1.
    10030    2    1    2    0    0  0.00000000000E+00  0.00000000000E+00 -0.47087880078E+03  0.93032551715E+03  0.80235822600E+03 0.  0.
        4    1    3    3  502    0  0.22113684767E+03  0.32583813207E+03 -0.32428284826E+03  0.51013034832E+03  0.12699999809E+01 0. -1.
       -4    1    3    3    0  502 -0.22113684767E+03 -0.32583813207E+03 -0.14659595252E+03  0.42019516882E+03  0.12699999809E+01 0.  1.
</event>
<event>
 5   0  0.3671128E-03  0.7998963E+03  0.7818609E-02  0.9560167E-01
        1   -1    0    0  501    0  0.00000000000E+00  0.00000000000E+00  0.50461722888E+03  0.50461722891E+03  0.50400001928E-02 0.  1.
       -1   -1    0    0    0  501  0.00000000000E+00  0.00000000000E+00 -0.31698980755E+03  0.31698980759E+03  0.50400001928E-02 0. -1.
    10030    2    1    2    0    0  0.00000000000E+00  0.00000000000E+00  0.18762742133E+03  0.82160703649E+03  0.79989628901E+03 0.  0.
        2    1    3    3  502    0  0.13945538147E+03 -0.27498944271E+03 -0.16783852256E+03  0.35105094600E+03  0.25500000920E-02 0. -1.
       -2    1    3    3    0  502 -0.13945538147E+03  0.27498944271E+03  0.35546594390E+03  0.47055609049E+03  0.25500000920E-02 0.  1.
</event>
<event>
 5   0  0.6153659E-03  0.7960428E+03  0.7818609E-02  0.9565763E-01
        2   -1    0    0  501    0  0.00000000000E+00  0.00000000000E+00  0.47247267995E+03  0.47247267996E+03  0.25500000920E-02 0.  1.
       -2   -1    0    0    0  501  0.00000000000E+00  0.00000000000E+00 -0.33530203608E+03  0.33530203609E+03  0.25500000920E-02 0. -1.
    10030    2    1    2    0    0  0.00000000000E+00  0.00000000000E+00  0.13717064388E+03  0.80777471604E+03  0.79604284202E+03 0.  0.
        2    1    3    3  502    0  0.26873640927E+03  0.24580694050E+03 -0.94344851326E+02  0.37621969731E+03  0.25500000920E-02 0. -1.
       -2    1    3    3    0  502 -0.26873640927E+03 -0.24580694050E+03  0.23151549520E+03  0.43155501873E+03  0.25500000920E-02 0.  1.
</event>
<event>
 5   0  0.5813850E-03  0.7973867E+03  0.7818609E-02  0.9563808E-01
        2   -1    0    0  501    0  0.00000000000E+00  0.00000000000E+00  0.87930990769E+03  0.87930990769E+03  0.25500000920E-02 0. -1.
       -2   -1    0    0    0  501  0.00000000000E+00  0.00000000000E+00 -0.18077400694E+03  0.18077400695E+03  0.25500000920E-02 0.  1.
    10030    2    1    2    0    0  0.00000000000E+00  0.00000000000E+00  0.69853590075E+03  0.10600839146E+04  0.79738666997E+03 0.  0.
        5    1    3    3  502    0  0.30634117440E+03 -0.25299114921E+03  0.39305602518E+03  0.55889584507E+03  0.46999998093E+01 0. -1.
       -5    1    3    3    0  502 -0.30634117440E+03  0.25299114921E+03  0.30547987557E+03  0.50118806957E+03  0.46999998093E+01 0.  1.
</event>
<event>
 5   0  0.3714448E-03  0.7987914E+03  0.7818609E-02  0.9561768E-01
       -1   -1    0    0    0  501  0.00000000000E+00  0.00000000000E+00  0.29749412063E+03  0.29749412068E+03  0.50400001928E-02 0.  1.
        1   -1    0    0  501    0  0.00000000000E+00  0.00000000000E+00 -0.53620196519E+03  0.53620196521E+03  0.50400001928E-02 0. -1.
    10030    2    1    2    0    0  0.00000000000E+00  0.00000000000E+00 -0.23870784456E+03  0.83369608589E+03  0.79879141744E+03 0.  0.
        1    1    3    3  502    0 -0.16350865181E+02 -0.23001918683E+03 -0.45970273685E+03  0.51429834084E+03  0.50400001928E-02 0. -1.
       -1    1    3    3    0  502  0.16350865181E+02  0.23001918683E+03  0.22099489229E+03  0.31939774505E+03  0.50400001928E-02 0.  1.
</event>
<event>
 5   0  0.6256781E-03  0.8012917E+03  0.7818609E-02  0.9558149E-01
        2   -1    0    0  501    0  0.00000000000E+00  0.00000000000E+00  0.81204884965E+03  0.81204884965E+03  0.25500000920E-02 0.  1.
       -2   -1    0    0    0  501  0.00000000000E+00  0.00000000000E+00 -0.19766928537E+03  0.19766928539E+03  0.25500000920E-02 0. -1.
    10030    2    1    2    0    0  0.00000000000E+00  0.00000000000E+00  0.61437956427E+03  0.10097181350E+04  0.80129174663E+03 0.  0.
        1    1    3    3  502    0  0.34806409361E+03  0.19776840919E+03  0.28702172016E+03  0.49258747934E+03  0.50400001928E-02 0. -1.
       -1    1    3    3    0  502 -0.34806409361E+03 -0.19776840919E+03  0.32735784412E+03  0.51713065570E+03  0.50400001928E-02 0.  1.
</event>
<event>
 5   0  0.3860515E-03  0.7985749E+03  0.7818609E-02  0.9562082E-01
        1   -1    0    0  501    0  0.00000000000E+00  0.00000000000E+00  0.73384888702E+03  0.73384888704E+03  0.50400001928E-02 0. -1.
       -1   -1    0    0    0  501  0.00000000000E+00  0.00000000000E+00 -0.21725242238E+03  0.21725242244E+03  0.50400001928E-02 0.  1.
    10030    2    1    2    0    0  0.00000000000E+00  0.00000000000E+00  0.51659646464E+03  0.95110130948E+03  0.79857485161E+03 0.  0.
        4    1    3    3  502    0 -0.28024379913E+03 -0.21948050946E+03  0.47373582010E+03  0.59256689170E+03  0.12699999809E+01 0.  1.
       -4    1    3    3    0  502  0.28024379913E+03  0.21948050946E+03  0.42860644536E+02  0.35853441778E+03  0.12699999809E+01 0. -1.
</event>
<event>
 5   0  0.5813850E-03  0.8039895E+03  0.7818609E-02  0.9554260E-01
       -2   -1    0    0    0  501  0.00000000000E+00  0.00000000000E+00  0.32172256790E+03  0.32172256791E+03  0.25500000920E-02 0. -1.
        2   -1    0    0  501    0  0.00000000000E+00  0.00000000000E+00 -0.50229540413E+03  0.50229540413E+03  0.25500000920E-02 0.  1.
    10030    2    1    2    0    0  0.00000000000E+00  0.00000000000E+00 -0.18057283623E+03  0.82401797204E+03  0.80398947074E+03 0.  0.
        5    1    3    3  502    0 -0.12590846905E+02 -0.54179037238E+02 -0.49830386399E+03  0.50142070996E+03  0.46999998093E+01 0.  1.
       -5    1    3    3    0  502  0.12590846905E+02  0.54179037238E+02  0.31773102776E+03  0.32259726208E+03  0.46999998093E+01 0. -1.
</event>
<event>
 5   0  0.6337108E-03  0.7875223E+03  0.7818609E-02  0.9578256E-01
       -2   -1    0    0    0  501  0.00000000000E+00  0.00000000000E+00  0.69879033578E+03  0.69879033579E+03  0.25500000920E-02 0. -1.
        2   -1    0    0  501    0  0.00000000000E+00  0.00000000000E+00 -0.22188035310E+03  0.22188035312E+03  0.25500000920E-02 0.  1.
    10030    2    1    2    0    0  0.00000000000E+00  0.00000000000E+00  0.47690998268E+03  0.92067068890E+03  0.78752230814E+03 0.  0.
        4    1    3    3  502    0 -0.26258009322E+03 -0.25449641212E+03  0.40919363789E+03  0.54877843920E+03  0.12699999809E+01 0. -1.
       -4    1    3    3    0  502  0.26258009322E+03  0.25449641212E+03  0.67716344790E+02  0.37189224970E+03  0.12699999809E+01 0.  1.
</event>
<event>
 5   0  0.5813850E-03  0.8010940E+03  0.7818609E-02  0.9558435E-01
        2   -1    0    0  501    0  0.00000000000E+00  0.00000000000E+00  0.64492981516E+03  0.64492981517E+03  0.25500000920E-02 0.  1.
       -2   -1    0    0    0  501  0.00000000000E+00  0.00000000000E+00 -0.24876802411E+03  0.24876802412E+03  0.25500000920E-02 0. -1.
    10030    2    1    2    0    0  0.00000000000E+00  0.00000000000E+00  0.39616179105E+03  0.89369783929E+03  0.80109404146E+03 0.  0.
        5    1    3    3  502    0  0.34708471564E+03 -0.16290128519E+03  0.32727449010E+03  0.50411834961E+03  0.46999998093E+01 0. -1.
       -5    1    3    3    0  502 -0.34708471564E+03  0.16290128519E+03  0.68887300956E+02  0.38957948968E+03  0.46999998093E+01 0.  1.
</event>
<event>
 5   0  0.5813850E-03  0.8037026E+03  0.7818609E-02  0.9554673E-01
        2   -1    0    0  501    0  0.00000000000E+00  0.00000000000E+00  0.15412574492E+04  0.15412574492E+04  0.25500000920E-02 0.  1.
       -2   -1    0    0    0  501  0.00000000000E+00  0.00000000000E+00 -0.10477448758E+03  0.10477448761E+03  0.25500000920E-02 0. -1.
    10030    2    1    2    0    0  0.00000000000E+00  0.00000000000E+00  0.14364829617E+04  0.16460319368E+04  0.80370258056E+03 0.  0.
        5    1    3    3  502    0 -0.23811153682E+03  0.22541780753E+02  0.13795373119E+04  0.14001251804E+04  0.46999998093E+01 0.  1.
       -5    1    3    3    0  502  0.23811153682E+03 -0.22541780753E+02  0.56945649746E+02  0.24590675645E+03  0.46999998093E+01 0. -1.
</event>
<event>
 5   0  0.2478000E-03  0.7984696E+03  0.7818609E-02  0.9562235E-01
        4   -1    0    0  501    0  0.00000000000E+00  0.00000000000E+00  0.68691782974E+03  0.68691900375E+03  0.12699999809E+01 0.  1.
       -4   -1    0    0    0  501  0.00000000000E+00  0.00000000000E+00 -0.23203107223E+03  0.23203454782E+03  0.12699999809E+01 0. -1.
    10030    2    1    2    0    0  0.00000000000E+00  0.00000000000E+00  0.45488675751E+03  0.91895355157E+03  0.79846957850E+03 0.  0.
        2    1    3    3  502    0 -0.15955603395E+03  0.14862082902E+03 -0.15744776381E+03  0.26895367096E+03  0.25500000920E-02 0. -1.
       -2    1    3    3    0  502  0.15955603395E+03 -0.14862082902E+03  0.61233452132E+03  0.64999988061E+03  0.25500000920E-02 0.  1.
</event>
<event>
 5   0  0.6256781E-03  0.8004849E+03  0.7818609E-02  0.9559315E-01
        2   -1    0    0  501    0  0.00000000000E+00  0.00000000000E+00  0.34184476126E+03  0.34184476127E+03  0.25500000920E-02 0.  1.
       -2   -1    0    0    0  501  0.00000000000E+00  0.00000000000E+00 -0.46861630834E+03  0.46861630835E+03  0.25500000920E-02 0. -1.
    10030    2    1    2    0    0  0.00000000000E+00  0.00000000000E+00 -0.12677154708E+03  0.81046106961E+03  0.80048492816E+03 0.  0.
        1    1    3    3  502    0  0.13534728391E+03  0.29010732714E+03  0.17984323995E+03  0.36718488463E+03  0.50400001928E-02 0.  1.
       -1    1    3    3    0  502 -0.13534728391E+03 -0.29010732714E+03 -0.30661478703E+03  0.44327618498E+03  0.50400001928E-02 0. -1.
</event>
<event>
 5   0  0.3671128E-03  0.7995393E+03  0.7818609E-02  0.9560684E-01
       -1   -1    0    0    0  501  0.00000000000E+00  0.00000000000E+00  0.58444362874E+03  0.58444362876E+03  0.50400001928E-02 0.  1.
        1   -1    0    0  501    0  0.00000000000E+00  0.00000000000E+00 -0.27344944895E+03  0.27344944900E+03  0.50400001928E-02 0. -1.
    10030    2    1    2    0    0  0.00000000000E+00  0.00000000000E+00  0.31099417979E+03  0.85789307776E+03  0.79953933800E+03 0.  0.
        2    1    3    3  502    0 -0.53829375246E+02  0.37079421007E+03  0.59327895396E+01  0.37472809590E+03  0.25500000920E-02 0.  1.
       -2    1    3    3    0  502  0.53829375246E+02 -0.37079421007E+03  0.30506139025E+03  0.48316498186E+03  0.25500000920E-02 0. -1.
</event>
<event>
 5   0  0.6337108E-03  0.7882086E+03  0.7818609E-02  0.9577243E-01
       -2   -1    0    0    0  501  0.00000000000E+00  0.00000000000E+00  0.91554331678E+02  0.91554331714E+02  0.25500000920E-02 0.  1.
        2   -1    0    0  501    0  0.00000000000E+00  0.00000000000E+00 -0.16964594013E+04  0.16964594013E+04  0.25500000920E-02 0. -1.
    10030    2    1    2    0    0  0.00000000000E+00  0.00000000000E+00 -0.16049050696E+04  0.17880137330E+04  0.78820861894E+03 0.  0.
        4    1    3    3  502    0  0.31739586739E+03 -0.23353556883E+03 -0.81636155138E+03  0.90649147487E+03  0.12699999809E+01 0.  1.
       -4    1    3    3    0  502 -0.31739586739E+03  0.23353556883E+03 -0.78854351827E+03  0.88152225817E+03  0.12699999809E+01 0. -1.
</event>
<event>
 5   0  0.3627496E-03  0.7986595E+03  0.7818609E-02  0.9561959E-01
        1   -1    0    0  501    0  0.00000000000E+00  0.00000000000E+00  0.51542614839E+03  0.51542614842E+03  0.50400001928E-02 0. -1.
       -1   -1    0    0    0  501  0.00000000000E+00  0.00000000000E+00 -0.30938334806E+03  0.30938334810E+03  0.50400001928E-02 0.  1.
    10030    2    1    2    0    0  0.00000000000E+00  0.00000000000E+00  0.20604280033E+03  0.82480949652E+03  0.79865954573E+03 0.  0.
        3    1    3    3  502    0  0.26010718919E+03 -0.11805229475E+03  0.39121417271E+03  0.48439718547E+03  0.10100000352E+00 0. -1.
       -3    1    3    3    0  502 -0.26010718919E+03  0.11805229475E+03 -0.18517137237E+03  0.34041231105E+03  0.10100000352E+00 0.  1.
</event>
<event>
 5   0  0.6536209E-03  0.7997297E+03  0.7818609E-02  0.9560408E-01
        2   -1    0    0  501    0  0.00000000000E+00  0.00000000000E+00  0.90101064414E+03  0.90101064414E+03  0.25500000920E-02 0.  1.
       -2   -1    0    0    0  501  0.00000000000E+00  0.00000000000E+00 -0.17745839369E+03  0.17745839371E+03  0.25500000920E-02 0. -1.
    10030    2    1    2    0    0  0.00000000000E+00  0.00000000000E+00  0.72355225045E+03  0.10784690378E+04  0.79972970838E+03 0.  0.
        3    1    3    3  502    0 -0.35701261432E+03 -0.62609511809E+02  0.13406040168E+03  0.38645848322E+03  0.10100000352E+00 0. -1.
       -3    1    3    3    0  502  0.35701261432E+03  0.62609511809E+02  0.58949184877E+03  0.69201055463E+03  0.10100000352E+00 0.  1.
</event>
<event>
 5   0  0.3860515E-03  0.7895939E+03  0.7818609E-02  0.9575203E-01
        1   -1    0    0  501    0  0.00000000000E+00  0.00000000000E+00  0.83467267754E+03  0.83467267755E+03  0.50400001928E-02 0. -1.
       -1   -1    0    0    0  501  0.00000000000E+00  0.00000000000E+00 -0.18673745217E+03  0.18673745223E+03  0.50400001928E-02 0.  1.
    10030    2    1    2    0    0  0.00000000000E+00  0.00000000000E+00  0.64793522537E+03  0.10214101298E+04  0.78959394435E+03 0.  0.
        4    1    3    3  502    0  0.12564157761E+03  0.32950743264E+03  0.55356449240E+03  0.65635067938E+03  0.12699999809E+01 0. -1.
       -4    1    3    3    0  502 -0.12564157761E+03 -0.32950743264E+03  0.94370732974E+02  0.36505945040E+03  0.12699999809E+01 0.  1.
</event>
<event>
 5   0  0.6256781E-03  0.7985337E+03  0.7818609E-02  0.9562142E-01
        2   -1    0    0  501    0  0.00000000000E+00  0.00000000000E+00  0.53627818108E+03  0.53627818109E+03  0.25500000920E-02 0. -1.
       -2   -1    0    0    0  501  0.00000000000E+00  0.00000000000E+00 -0.29725995313E+03  0.29725995314E+03  0.25500000920E-02 0.  1.
    10030    2    1    2    0    0  0.00000000000E+00  0.00000000000E+00  0.23901822795E+03  0.83353813423E+03  0.79853372372E+03 0.  0.
        1    1    3    3  502    0  0.12274536720E+03  0.26054396483E+03  0.40815274523E+03  0.49953803283E+03  0.50400001928E-02 0. -1.
       -1    1    3    3    0  502 -0.12274536720E+03 -0.26054396483E+03 -0.16913451728E+03  0.33400010141E+03  0.50400001928E-02 0.  1.
</event>
<event>
 5   0  0.3753450E-03  0.8020434E+03  0.7818609E-02  0.9557064E-01
        1   -1    0    0  501    0  0.00000000000E+00  0.00000000000E+00  0.23533241463E+04  0.23533241463E+04  0.50400001928E-02 0.  1.
       -1   -1    0    0    0  501  0.00000000000E+00  0.00000000000E+00 -0.68336696217E+02  0.68336696403E+02  0.50400001928E-02 0. -1.
    10030    2    1    2    0    0  0.00000000000E+00  0.00000000000E+00  0.22849874501E+04  0.24216608427E+04  0.80204338416E+03 0.  0.
        5    1    3    3  502    0  0.31953786344E+03  0.13963911974E+02  0.41222655821E+03  0.52177798181E+03  0.46999998093E+01 0. -1.
       -5    1    3    3    0  502 -0.31953786344E+03 -0.13963911974E+02  0.18727608919E+04  0.18998828609E+04  0.46999998093E+01 0.  1.
</event>
<event>
 5   0  0.3860515E-03  0.8008159E+03  0.7818609E-02  0.9558837E-01
        1   -1    0    0  501    0  0.00000000000E+00  0.00000000000E+00  0.62378234692E+03  0.62378234694E+03  0.50400001928E-02 0. -1.
       -1   -1    0    0    0  501  0.00000000000E+00  0.00000000000E+00 -0.25702318278E+03  0.25702318283E+03  0.50400001928E-02 0.  1.
    10030    2    1    2    0    0  0.00000000000E+00  0.00000000000E+00  0.36675916413E+03  0.88080552977E+03  0.80081589444E+03 0.  0.
        4    1    3    3  502    0 -0.12432616624E+03  0.26209091380E+03 -0.12018926126E+03  0.31399954479E+03  0.12699999809E+01 0.  1.
       -4    1    3    3    0  502  0.12432616624E+03 -0.26209091380E+03  0.48694842540E+03  0.56680598497E+03  0.12699999809E+01 0. -1.
</event>
<event>
 5   0  0.6536209E-03  0.8019066E+03  0.7818609E-02  0.9557261E-01
        2   -1    0    0  501    0  0.00000000000E+00  0.00000000000E+00  0.12812166939E+04  0.12812166939E+04  0.25500000920E-02 0.  1.
       -2   -1    0    0    0  501  0.00000000000E+00  0.00000000000E+00 -0.12547725635E+03  0.12547725638E+03  0.25500000920E-02 0. -1.
    10030    2    1    2    0    0  0.00000000000E+00  0.00000000000E+00  0.11557394375E+04  0.14066939503E+04  0.80190661692E+03 0.  0.
        3    1    3    3  502    0 -0.23951282150E+03 -0.23560620317E+03  0.96173961179E+03  0.10187343941E+04  0.10100000352E+00 0.  1.
       -3    1    3    3    0  502  0.23951282150E+03  0.23560620317E+03  0.19399982575E+03  0.38795955618E+03  0.10100000352E+00 0. -1.
</event>
<event>
 5   0  0.3753450E-03  0.8005890E+03  0.7818609E-02  0.9559165E-01
        1   -1    0    0  501    0  0.00000000000E+00  0.00000000000E+00  0.96728607407E+03  0.96728607409E+03  0.50400001928E-02 0.  1.
       -1   -1    0    0    0  501  0.00000000000E+00  0.00000000000E+00 -0.16565490278E+03  0.16565490286E+03  0.50400001928E-02 0. -1.
    10030    2    1    2    0    0  0.00000000000E+00  0.00000000000E+00  0.80163117129E+03  0.11329409769E+04  0.80058898472E+03 0.  0.
        5    1    3    3  502    0 -0.24207394626E+03 -0.31537220899E+03  0.46649619184E+03  0.61294389031E+03  0.46999998093E+01 0. -1.
       -5    1    3    3    0  502  0.24207394626E+03  0.31537220899E+03  0.33513497945E+03  0.51999708664E+03  0.46999998093E+01 0.  1.
</event>
<event>
 5   0  0.3627496E-03  0.8003542E+03  0.7818609E-02  0.9559505E-01
       -1   -1    0    0    0  501  0.00000000000E+00  0.00000000000E+00  0.32304543373E+03  0.32304543377E+03  0.50400001928E-02 0.  1.
        1   -1    0    0  501    0  0.00000000000E+00  0.00000000000E+00 -0.49572502199E+03  0.49572502202E+03  0.50400001928E-02 0. -1.
    10030    2    1    2    0    0  0.00000000000E+00  0.00000000000E+00 -0.17267958826E+03  0.81877045579E+03  0.80035418352E+03 0.  0.
        3    1    3    3  502    0 -0.25141124815E+03 -0.16945068165E+03 -0.35354046082E+03  0.46573814193E+03  0.10100000352E+00 0. -1.
       -3    1    3    3    0  502  0.25141124815E+03  0.16945068165E+03  0.18086087256E+03  0.35303231387E+03  0.10100000352E+00 0.  1.
</event>
<event>
 5   0  0.3671128E-03  0.7999624E+03  0.7818609E-02  0.9560072E-01
        1   -1    0    0  501    0  0.00000000000E+00  0.00000000000E+00  0.14216736913E+04  0.14216736913E+04  0.50400001928E-02 0. -1.
       -1   -1    0    0    0  501  0.00000000000E+00  0.00000000000E+00 -0.11253282481E+03  0.11253282492E+03  0.50400001928E-02 0.  1.
    10030    2    1    2    0    0  0.00000000000E+00  0.00000000000E+00  0.13091408665E+04  0.15342065162E+04  0.79996239046E+03 0.  0.
        2    1    3    3  502    0 -0.23024617317E+02  0.13540829747E+03 -0.65885860388E+02  0.15233675404E+03  0.25500000920E-02 0.  1.
       -2    1    3    3    0  502  0.23024617317E+02 -0.13540829747E+03  0.13750267269E+04  0.13818697622E+04  0.25500000920E-02 0. -1.
</event>
<event>
 5   0  0.6153659E-03  0.8011555E+03  0.7818609E-02  0.9558346E-01
        2   -1    0    0  501    0  0.00000000000E+00  0.00000000000E+00  0.78998879563E+03  0.78998879563E+03  0.25500000920E-02 0. -1.
       -2   -1    0    0    0  501  0.00000000000E+00  0.00000000000E+00 -0.20312001670E+03  0.20312001671E+03  0.25500000920E-02 0.  1.
    10030    2    1    2    0    0  0.00000000000E+00  0.00000000000E+00  0.58686877893E+03  0.99310881235E+03  0.80115550892E+03 0.  0.
        2    1    3    3  502    0 -0.25921048808E+03 -0.10779762037E+03  0.64764680544E+03  0.70587306840E+03  0.25500000920E-02 0. -1.
       -2    1    3    3    0  502  0.25921048808E+03  0.10779762037E+03 -0.60778026510E+02  0.28723574395E+03  0.25500000920E-02 0.  1.
</event>
<event>
 5   0  0.3671128E-03  0.8045289E+03  0.7818609E-02  0.9553485E-01
        1   -1    0    0  501    0  0.00000000000E+00  0.00000000000E+00  0.14780452278E+04  0.14780452278E+04  0.50400001928E-02 0.  1.
       -1   -1    0    0    0  501  0.00000000000E+00  0.00000000000E+00 -0.10948021282E+03  0.10948021293E+03  0.50400001928E-02 0. -1.
    10030    2    1    2    0    0  0.00000000000E+00  0.00000000000E+00  0.13685650150E+04  0.15875254407E+04  0.80452894588E+03 0.  0.
        2    1    3    3  502    0 -0.17965902289E+03 -0.12623976755E+03  0.13493621544E+04  0.13671108467E+04  0.25500000920E-02 0.  1.
       -2    1    3    3    0  502  0.17965902289E+03  0.12623976755E+03  0.19202860600E+02  0.22041459406E+03  0.25500000920E-02 0. -1.
</event>
<event>
 5   0  0.3671128E-03  0.7997959E+03  0.7818609E-02  0.9560313E-01
       -1   -1    0    0    0  501  0.00000000000E+00  0.00000000000E+00  0.16730860906E+03  0.16730860914E+03  0.50400001928E-02 0. -1.
        1   -1    0    0  501    0  0.00000000000E+00  0.00000000000E+00 -0.95582881041E+03  0.95582881043E+03  0.50400001928E-02 0.  1.
    10030    2    1    2    0    0  0.00000000000E+00  0.00000000000E+00 -0.78852020135E+03  0.11231374196E+04  0.79979594603E+03 0.  0.
        2    1    3    3  502    0  0.21456864524E+03 -0.52163544419E+02  0.73931239553E+02  0.23286598522E+03  0.25500000920E-02 0. -1.
       -2    1    3    3    0  502 -0.21456864524E+03  0.52163544419E+02 -0.86245144090E+03  0.89027143434E+03  0.25500000920E-02 0.  1.
</event>
<event>
 5   0  0.3627496E-03  0.7987130E+03  0.7818609E-02  0.9561882E-01
        1   -1    0    0  501    0  0.00000000000E+00  0.00000000000E+00  0.13362951490E+04  0.13362951490E+04  0.50400001928E-02 0.  1.
       -1   -1    0    0    0  501  0.00000000000E+00  0.00000000000E+00 -0.11934910631E+03  0.11934910641E+03  0.50400001928E-02 0. -1.
    10030    2    1    2    0    0  0.00000000000E+00  0.00000000000E+00  0.12169460427E+04  0.14556442555E+04  0.79871304455E+03 0.  0.
        3    1    3    3  502    0 -0.34682033520E+03  0.18855128958E+03  0.49837174806E+03  0.63577538736E+03  0.10100000352E+00 0.  1.
       -3    1    3    3    0  502  0.34682033520E+03 -0.18855128958E+03  0.71857429466E+03  0.81986886809E+03  0.10100000352E+00 0. -1.
</event>
<event>
 5   0  0.6256781E-03  0.8011683E+03  0.7818609E-02  0.9558328E-01
       -2   -1    0    0    0  501  0.00000000000E+00  0.00000000000E+00  0.13760784118E+03  0.13760784120E+03  0.25500000920E-02 0.  1.
        2   -1    0    0  501    0  0.00000000000E+00  0.00000000000E+00 -0.11661228583E+04  0.11661228583E+04  0.25500000920E-02 0. -1.
    10030    2    1    2    0    0  0.00000000000E+00  0.00000000000E+00 -0.10285150172E+04  0.13037306995E+04  0.80116826971E+03 0.  0.
        1    1    3    3  502    0 -0.52615587728E+02  0.15487774218E+03  0.80787150477E+02  0.18243376552E+03  0.50400001928E-02 0.  1.
       -1    1    3    3    0  502  0.52615587728E+02 -0.15487774218E+03 -0.11093021676E+04  0.11212969340E+04  0.50400001928E-02 0. -1.
</event>
<event>
 5   0  0.2478000E-03  0.7997051E+03  0.7818609E-02  0.9560444E-01
        3   -1    0    0  501    0  0.00000000000E+00  0.00000000000E+00  0.68439233420E+03  0.68439234165E+03  0.10100000352E+00 0.  1.
       -3   -1    0    0    0  501  0.00000000000E+00  0.00000000000E+00 -0.23361167664E+03  0.23361169848E+03  0.10100000352E+00 0. -1.
    10030    2    1    2    0    0  0.00000000000E+00  0.00000000000E+00  0.45078065756E+03  0.91800404013E+03  0.79970508093E+03 0.  0.
        1    1    3    3  502    0  0.32503185029E+03  0.20948499496E+03  0.34218821747E+03  0.51635495836E+03  0.50400001928E-02 0.  1.
       -1    1    3    3    0  502 -0.32503185029E+03 -0.20948499496E+03  0.10859244009E+03  0.40164908177E+03  0.50400001928E-02 0. -1.
</event>
<event>
 5   0  0.6337108E-03  0.8009425E+03  0.7818609E-02  0.9558654E-01
        2   -1    0    0  501    0  0.00000000000E+00  0.00000000000E+00  0.20865050620E+04  0.20865050620E+04  0.25500000920E-02 0.  1.
       -2   -1    0    0    0  501  0.00000000000E+00  0.00000000000E+00 -0.76864048124E+02  0.76864048166E+02  0.25500000920E-02 0. -1.
    10030    2    1    2    0    0  0.00000000000E+00  0.00000000000E+00  0.20096410138E+04  0.21633691101E+04  0.80094250865E+03 0.  0.
        4    1    3    3  502    0  0.27091945815E+03  0.72821897620E+02  0.17767443694E+04  0.17987558335E+04  0.12699999809E+01 0.  1.
       -4    1    3    3    0  502 -0.27091945815E+03 -0.72821897620E+02  0.23289664442E+03  0.36461327658E+03  0.12699999809E+01 0. -1.
</event>
<event>
 5   0  0.3714448E-03  0.7916003E+03  0.7818609E-02  0.9572256E-01
       -1   -1    0    0    0  501  0.00000000000E+00  0.00000000000E+00  0.25225283793E+03  0.25225283798E+03  0.50400001928E-02 0. -1.
        1   -1    0    0  501    0  0.00000000000E+00  0.00000000000E+00 -0.62103465529E+03  0.62103465531E+03  0.50400001928E-02 0.  1.
    10030    2    1    2    0    0  0.00000000000E+00  0.00000000000E+00 -0.36878181736E+03  0.87328749329E+03  0.79160028874E+03 0.  0.
        1    1    3    3  502    0  0.93307387066E+02  0.26673206073E+03 -0.49012751366E+03  0.56575369232E+03  0.50400001928E-02 0.  1.
       -1    1    3    3    0  502 -0.93307387066E+02 -0.26673206073E+03  0.12134569630E+03  0.30753380097E+03  0.50400001928E-02 0. -1.
</event>
<event>
 5   0  0.6256781E-03  0.8005671E+03  0.7818609E-02  0.9559197E-01
       -2   -1    0    0    0  501  0.00000000000E+00  0.00000000000E+00  0.11025111428E+03  0.11025111431E+03  0.25500000920E-02 0.  1.
        2   -1    0    0  501    0  0.00000000000E+00  0.00000000000E+00 -0.14532906807E+04  0.14532906807E+04  0.25500000920E-02 0. -1.
    10030    2    1    2    0    0  0.00000000000E+00  0.00000000000E+00 -0.13430395664E+04  0.15635417950E+04  0.80056709137E+03 0.  0.
        1    1    3    3  502    0  0.13059326581E+03  0.35858829434E+03 -0.90739974347E+03  0.98438532110E+03  0.50400001928E-02 0.  1.
       -1    1    3    3    0  502 -0.13059326581E+03 -0.35858829434E+03 -0.43563982295E+03  0.57915647392E+03  0.50400001928E-02 0. -1.
</event>
<event>
 5   0  0.2478000E-03  0.7986823E+03  0.7818609E-02  0.9561926E-01
       -3   -1    0    0    0  501  0.00000000000E+00  0.00000000000E+00  0.78613050030E+03  0.78613050678E+03  0.10100000352E+00 0. -1.
        3   -1    0    0  501    0  0.00000000000E+00  0.00000000000E+00 -0.20285859728E+03  0.20285862242E+03  0.10100000352E+00 0.  1.
    10030    2    1    2    0    0  0.00000000000E+00  0.00000000000E+00  0.58327190302E+03  0.98898912921E+03  0.79868228029E+03 0.  0.
        5    1    3    3  502    0  0.32125760840E+03  0.22109526954E+03  0.39788037499E+03  0.55715388536E+03  0.46999998093E+01 0. -1.
       -5    1    3    3    0  502 -0.32125760840E+03 -0.22109526954E+03  0.18539152803E+03  0.43183524385E+03  0.46999998093E+01 0.  1.
</event>
<event>
 5   0  0.6337108E-03  0.7999846E+03  0.7818609E-02  0.9560039E-01
        2   -1    0    0  501    0  0.00000000000E+00  0.00000000000E+00  0.23811927001E+04  0.23811927001E+04  0.25500000920E-02 0.  1.
       -2   -1    0    0    0  501  0.00000000000E+00  0.00000000000E+00 -0.67190629635E+02  0.67190629683E+02  0.25500000920E-02 0. -1.
    10030    2    1    2    0    0  0.00000000000E+00  0.00000000000E+00  0.23140020705E+04  0.24483833298E+04  0.79998459201E+03 0.  0.
        4    1    3    3  502    0 -0.22735379850E+03 -0.25964647297E+03  0.17758520072E+04  0.18090765614E+04  0.12699999809E+01 0.  1.
       -4    1    3    3    0  502  0.22735379850E+03  0.25964647297E+03  0.53815006328E+03  0.63930676841E+03  0.12699999809E+01 0. -1.
</event>
<event>
 5   0  0.5813850E-03  0.7983467E+03  0.7818609E-02  0.9562413E-01
       -2   -1    0    0    0  501  0.00000000000E+00  0.00000000000E+00  0.28738229513E+03  0.28738229514E+03  0.25500000920E-02 0.  1.
        2   -1    0    0  501    0  0.00000000000E+00  0.00000000000E+00 -0.55445082705E+03  0.55445082706E+03  0.25500000920E-02 0. -1.
    10030    2    1    2    0    0  0.00000000000E+00  0.00000000000E+00 -0.26706853192E+03  0.84183312220E+03  0.79834666962E+03 0.  0.
        5    1    3    3  502    0  0.13240392555E+03  0.69006973209E+01 -0.53052368491E+03  0.54686002722E+03  0.46999998093E+01 0. -1.
       -5    1    3    3    0  502 -0.13240392555E+03 -0.69006973209E+01  0.26345515299E+03  0.29497309498E+03  0.46999998093E+01 0.  1.
</event>
<event>
 5   0  0.6256781E-03  0.8022091E+03  0.7818609E-02  0.9556825E-01
        2   -1    0    0  501    0  0.00000000000E+00  0.00000000000E+00  0.65549484624E+03  0.65549484624E+03  0.25500000920E-02 0. -1.
       -2   -1    0    0    0  501  0.00000000000E+00  0.00000000000E+00 -0.24544030700E+03  0.24544030702E+03  0.25500000920E-02 0.  1.
    10030    2    1    2    0    0  0.00000000000E+00  0.00000000000E+00  0.41005453923E+03  0.90093515326E+03  0.80220909072E+03 0.  0.
        1    1    3    3  502    0 -0.38236470960E+03 -0.12016993746E+03  0.22247177874E+03  0.45840732693E+03  0.50400001928E-02 0.  1.
       -1    1    3    3    0  502  0.38236470960E+03  0.12016993746E+03  0.18758276049E+03  0.44252782633E+03  0.50400001928E-02 0. -1.
</event>
<event>
 5   0  0.5813850E-03  0.8012201E+03  0.7818609E-02  0.9558253E-01
        2   -1    0    0  501    0  0.00000000000E+00  0.00000000000E+00  0.81638861679E+03  0.81638861679E+03  0.25500000920E-02 0.  1.
       -2   -1    0    0    0  501  0.00000000000E+00  0.00000000000E+00 -0.19658337195E+03  0.19658337196E+03  0.25500000920E-02 0. -1.
    10030    2    1    2    0    0  0.00000000000E+00  0.00000000000E+00  0.61980524484E+03  0.10129719888E+04  0.80122013734E+03 0.  0.
        5    1    3    3  502    0 -0.39057237654E+03  0.51299863233E+02  0.40183878427E+03  0.56273879893E+03  0.46999998093E+01 0. -1.
       -5    1    3    3    0  502  0.39057237654E+03 -0.51299863233E+02  0.21796646057E+03  0.45023318982E+03  0.46999998093E+01 0.  1.
</event>
<event>
 5   0  0.6256781E-03  0.7987377E+03  0.7818609E-02  0.9561846E-01
       -2   -1    0    0    0  501  0.00000000000E+00  0.00000000000E+00  0.20071400356E+03  0.20071400358E+03  0.25500000920E-02 0. -1.
        2   -1    0    0  501    0  0.00000000000E+00  0.00000000000E+00 -0.79464059160E+03  0.79464059161E+03  0.25500000920E-02 0.  1.
    10030    2    1    2    0    0  0.00000000000E+00  0.00000000000E+00 -0.59392658804E+03  0.99535459519E+03  0.79873774055E+03 0.  0.
        1    1    3    3  502    0 -0.38342118530E+02 -0.73880562143E+02 -0.78371107369E+03  0.78811896473E+03  0.50400001928E-02 0.  1.
       -1    1    3    3    0  502  0.38342118530E+02  0.73880562143E+02  0.18978448564E+03  0.20723563046E+03  0.50400001928E-02 0. -1.
</event>
<event>
 5   0  0.3860515E-03  0.7976803E+03  0.7818609E-02  0.9563381E-01
       -1   -1    0    0    0  501  0.00000000000E+00  0.00000000000E+00  0.32875955694E+03  0.32875955698E+03  0.50400001928E-02 0.  1.
        1   -1    0    0  501    0  0.00000000000E+00  0.00000000000E+00 -0.48385958594E+03  0.48385958597E+03  0.50400001928E-02 0. -1.
    10030    2    1    2    0    0  0.00000000000E+00  0.00000000000E+00 -0.15510002900E+03  0.81261914294E+03  0.79768029466E+03 0.  0.
        4    1    3    3  502    0  0.39516025014E+03 -0.44031561319E+02 -0.10946480163E+03  0.41240096675E+03  0.12699999809E+01 0.  1.
       -4    1    3    3    0  502 -0.39516025014E+03  0.44031561319E+02 -0.45635227376E+02  0.40021817620E+03  0.12699999809E+01 0. -1.
</event>
<event>
 5   0  0.3627496E-03  0.8014392E+03  0.7818609E-02  0.9557936E-01
       -1   -1    0    0    0  501  0.00000000000E+00  0.00000000000E+00  0.21477257709E+03  0.21477257715E+03  0.50400001928E-02 0. -1.
        1   -1    0    0  501    0  0.00000000000E+00  0.00000000000E+00 -0.74765691224E+03  0.74765691226E+03  0.50400001928E-02 0.  1.
    10030    2    1    2    0    0  0.00000000000E+00  0.00000000000E+00 -0.53288433515E+03  0.96242948941E+03  0.80143921007E+03 0.  0.
        3    1    3    3  502    0  0.16619175824E+02  0.18334875102E+03  0.16098084353E+03  0.24455634052E+03  0.10100000352E+00 0. -1.
       -3    1    3    3    0  502 -0.16619175824E+02 -0.18334875102E+03 -0.69386517868E+03  0.71787314889E+03  0.10100000352E+00 0.  1.
</event>
<event>
 5   0  0.6256781E-03  0.8107757E+03  0.7818609E-02  0.9544549E-01
        2   -1    0    0  501    0  0.00000000000E+00  0.00000000000E+00  0.13279433781E+04  0.13279433781E+04  0.25500000920E-02 0. -1.
       -2   -1    0    0    0  501  0.00000000000E+00  0.00000000000E+00 -0.12375475956E+03  0.12375475959E+03  0.25500000920E-02 0.  1.
    10030    2    1    2    0    0  0.00000000000E+00  0.00000000000E+00  0.12041886185E+04  0.14516981377E+04  0.81077571125E+03 0.  0.
        1    1    3    3  502    0 -0.53679689302E+02  0.25315875493E+03  0.43386532583E+02  0.26239903863E+03  0.50400001928E-02 0.  1.
       -1    1    3    3    0  502  0.53679689302E+02 -0.25315875493E+03  0.11608020859E+04  0.11892990990E+04  0.50400001928E-02 0. -1.
</event>
<event>
 5   0  0.3671128E-03  0.8044369E+03  0.7818609E-02  0.9553617E-01
        1   -1    0    0  501    0  0.00000000000E+00  0.00000000000E+00  0.12746341982E+04  0.12746341982E+04  0.50400001928E-02 0.  1.
       -1   -1    0    0    0  501  0.00000000000E+00  0.00000000000E+00 -0.12692245115E+03  0.12692245125E+03  0.50400001928E-02 0. -1.
    10030    2    1    2    0    0  0.00000000000E+00  0.00000000000E+00  0.11477117470E+04  0.14015566494E+04  0.80443693804E+03 0.  0.
        2    1    3    3  502    0 -0.48374106823E+02 -0.39607434234E+03  0.66209106722E+03  0.77303267730E+03  0.25500000920E-02 0. -1.
       -2    1    3    3    0  502  0.48374106823E+02  0.39607434234E+03  0.48562067980E+03  0.62852397212E+03  0.25500000920E-02 0.  1.
</event>
<event>
 5   0  0.6153659E-03  0.8019283E+03  0.7818609E-02  0.9557230E-01
       -2   -1    0    0    0  501  0.00000000000E+00  0.00000000000E+00  0.98489997695E+02  0.98489997728E+02  0.25500000920E-02 0.  1.
        2   -1    0    0  501    0  0.00000000000E+00  0.00000000000E+00 -0.16323712889E+04  0.16323712889E+04  0.25500000920E-02 0. -1.
    10030    2    1    2    0    0  0.00000000000E+00  0.00000000000E+00 -0.15338812912E+04  0.17308612867E+04  0.80192828735E+03 0.  0.
        2    1    3    3  502    0  0.85242062253E+02  0.17357979588E+03 -0.15250681139E+04  0.15372797100E+04  0.25500000920E-02 0. -1.
       -2    1    3    3    0  502 -0.85242062253E+02 -0.17357979588E+03 -0.88131773142E+01  0.19358157665E+03  0.25500000920E-02 0.  1.
</event>
<event>
 5   0  0.3860515E-03  0.8043421E+03  0.7818609E-02  0.9553753E-01
       -1   -1    0    0    0  501  0.00000000000E+00  0.00000000000E+00  0.40615953768E+03  0.40615953772E+03  0.50400001928E-02 0.  1.
        1   -1    0    0  501    0  0.00000000000E+00  0.00000000000E+00 -0.39822170705E+03  0.39822170708E+03  0.50400001928E-02 0. -1.
    10030    2    1    2    0    0  0.00000000000E+00  0.00000000000E+00  0.79378306374E+01  0.80438124479E+03  0.80434207762E+03 0.  0.
        4    1    3    3  502    0  0.19041800477E+03  0.34684121074E+03 -0.68021321796E+02  0.40148020515E+03  0.12699999809E+01 0.  1.
       -4    1    3    3    0  502 -0.19041800477E+03 -0.34684121074E+03  0.75959152433E+02  0.40290103964E+03  0.12699999809E+01 0. -1.
</event>
<event>
 5   0  0.5813850E-03  0.8044904E+03  0.7818609E-02  0.9553540E-01
       -2   -1    0    0    0  501  0.00000000000E+00  0.00000000000E+00  0.75858576375E+03  0.75858576375E+03  0.25500000920E-02 0. -1.
        2   -1    0    0  501    0  0.00000000000E+00  0.00000000000E+00 -0.21329322903E+03  0.21329322905E+03  0.25500000920E-02 0.  1.
    10030    2    1    2    0    0  0.00000000000E+00  0.00000000000E+00  0.54529253471E+03  0.97187899280E+03  0.80449041525E+03 0.  0.
        5    1    3    3  502    0  0.69994684312E+02  0.15310059748E+03  0.71394679675E+03  0.73354016071E+03  0.46999998093E+01 0. -1.
       -5    1    3    3    0  502 -0.69994684312E+02 -0.15310059748E+03 -0.16865426204E+03  0.23833883209E+03  0.46999998093E+01 0.  1.
</event>
<event>
 5   0  0.3860515E-03  0.8005763E+03  0.7818609E-02  0.9559183E-01
       -1   -1    0    0    0  501  0.00000000000E+00  0.00000000000E+00  0.49547353114E+03  0.49547353117E+03  0.50400001928E-02 0.  1.
        1   -1    0    0  501    0  0.00000000000E+00  0.00000000000E+00 -0.32338884229E+03  0.32338884233E+03  0.50400001928E-02 0. -1.
    10030    2    1    2    0    0  0.00000000000E+00  0.00000000000E+00  0.17208468885E+03  0.81886237350E+03  0.80057632153E+03 0.  0.
        4    1    3    3  502    0  0.32647847363E+03 -0.90695807600E+02 -0.13193341285E+03  0.36362337877E+03  0.12699999809E+01 0. -1.
       -4    1    3    3    0  502 -0.32647847363E+03  0.90695807600E+02  0.30401810171E+03  0.45523899473E+03  0.12699999809E+01 0.  1.
</event>
<event>
 5   0  0.6256781E-03  0.8039509E+03  0.7818609E-02  0.9554316E-01
       -2   -1    0    0    0  501  0.00000000000E+00  0.00000000000E+00  0.72143434276E+02  0.72143434321E+02  0.25500000920E-02 0.  1.
        2   -1    0    0  501    0  0.00000000000E+00  0.00000000000E+00 -0.22397641305E+04  0.22397641305E+04  0.25500000920E-02 0. -1.
    10030    2    1    2    0    0  0.00000000000E+00  0.00000000000E+00 -0.21676206963E+04  0.23119075649E+04  0.80395093482E+03 0.  0.
        1    1    3    3  502    0 -0.87640721191E+02  0.21308644280E+03 -0.13659029494E+03  0.26785002671E+03  0.50400001928E-02 0.  1.
       -1    1    3    3    0  502  0.87640721191E+02 -0.21308644280E+03 -0.20310304013E+04  0.20440575381E+04  0.50400001928E-02 0. -1.
</event>
<event>
 5   0  0.3671128E-03  0.8018958E+03  0.7818609E-02  0.9557277E-01
       -1   -1    0    0    0  501  0.00000000000E+00  0.00000000000E+00  0.15046822257E+03  0.15046822266E+03  0.50400001928E-02 0. -1.
        1   -1    0    0  501    0  0.00000000000E+00  0.00000000000E+00 -0.10683931143E+04  0.10683931143E+04  0.50400001928E-02 0.  1.
    10030    2    1    2    0    0  0.00000000000E+00  0.00000000000E+00 -0.91792489173E+03  0.12188613370E+04  0.80189578620E+03 0.  0.
        2    1    3    3  502    0 -0.19451108010E+03  0.28969670811E+03 -0.75913521401E+03  0.83549088333E+03  0.25500000920E-02 0.  1.
       -2    1    3    3    0  502  0.19451108010E+03 -0.28969670811E+03 -0.15878967772E+03  0.38337045365E+03  0.25500000920E-02 0. -1.
</event>
<event>
 5   0  0.2478000E-03  0.7993552E+03  0.7818609E-02  0.9560951E-01
       -4   -1    0    0    0  501  0.00000000000E+00  0.00000000000E+00  0.21105233154E+03  0.21105615259E+03  0.12699999809E+01 0. -1.
        4   -1    0    0  501    0  0.00000000000E+00  0.00000000000E+00 -0.75687302603E+03  0.75687409153E+03  0.12699999809E+01 0.  1.
    10030    2    1    2    0    0  0.00000000000E+00  0.00000000000E+00 -0.54582069449E+03  0.96793024412E+03  0.79935519449E+03 0.  0.
        5    1    3    3  502    0  0.38171403559E+03  0.39669085453E+02 -0.13784955496E+03  0.40780366736E+03  0.46999998093E+01 0. -1.
       -5    1    3    3    0  502 -0.38171403559E+03 -0.39669085453E+02 -0.40797113953E+03  0.56012657676E+03  0.46999998093E+01 0.  1.
</event>
<event>
 5   0  0.3627496E-03  0.7961221E+03  0.7818609E-02  0.9565647E-01
       -1   -1    0    0    0  501  0.00000000000E+00  0.00000000000E+00  0.15429251235E+03  0.15429251243E+03  0.50400001928E-02 0.  1.
        1   -1    0    0  501    0  0.00000000000E+00  0.00000000000E+00 -0.10269624421E+04  0.10269624421E+04  0.50400001928E-02 0. -1.
    10030    2    1    2    0    0  0.00000000000E+00  0.00000000000E+00 -0.87266992972E+03  0.11812549545E+04  0.79612213969E+03 0.  0.
        3    1    3    3  502    0  0.23221228619E+03  0.31425392761E+03 -0.54908643069E+03  0.67392432472E+03  0.10100000352E+00 0.  1.
       -3    1    3    3    0  502 -0.23221228619E+03 -0.31425392761E+03 -0.32358349904E+03  0.50733062979E+03  0.10100000352E+00 0. -1.
</event>
<event>
 5   0  0.3753450E-03  0.8005912E+03  0.7818609E-02  0.9559162E-01
       -1   -1    0    0    0  501  0.00000000000E+00  0.00000000000E+00  0.22165264075E+03  0.22165264081E+03  0.50400001928E-02 0. -1.
        1   -1    0    0  501    0  0.00000000000E+00  0.00000000000E+00 -0.72291742342E+03  0.72291742344E+03  0.50400001928E-02 0.  1.
    10030    2    1    2    0    0  0.00000000000E+00  0.00000000000E+00 -0.50126478267E+03  0.94457006425E+03  0.80059117152E+03 0.  0.
        5    1    3    3  502    0 -0.32202521760E+03 -0.17829916712E+02  0.29057851883E+02  0.32385891289E+03  0.46999998093E+01 0. -1.
       -5    1    3    3    0  502  0.32202521760E+03  0.17829916712E+02 -0.53032263455E+03  0.62071115136E+03  0.46999998093E+01 0.  1.
</event>
<event>
 5   0  0.3860515E-03  0.7988819E+03  0.7818609E-02  0.9561637E-01
       -1   -1    0    0    0  501  0.00000000000E+00  0.00000000000E+00  0.32328192273E+03  0.32328192276E+03  0.50400001928E-02 0.  1.
        1   -1    0    0  501    0  0.00000000000E+00  0.00000000000E+00 -0.49354161630E+03  0.49354161632E+03  0.50400001928E-02 0. -1.
    10030    2    1    2    0    0  0.00000000000E+00  0.00000000000E+00 -0.17025969357E+03  0.81682353909E+03  0.79888192541E+03 0.  0.
        4    1    3    3  502    0  0.29195733347E+03  0.25255630496E+03 -0.19003875304E+03  0.43027910977E+03  0.12699999809E+01 0. -1.
       -4    1    3    3    0  502 -0.29195733347E+03 -0.25255630496E+03  0.19779059464E+02  0.38654442932E+03  0.12699999809E+01 0.  1.
</event>
<event>
 5   0  0.6337108E-03  0.8014555E+03  0.7818609E-02  0.9557913E-01
       -2   -1    0    0    0  501  0.00000000000E+00  0.00000000000E+00  0.13586446505E+03  0.13586446508E+03  0.25500000920E-02 0. -1.
        2   -1    0    0  501    0  0.00000000000E+00  0.00000000000E+00 -0.11819333635E+04  0.11819333635E+04  0.25500000920E-02 0.  1.
    10030    2    1    2    0    0  0.00000000000E+00  0.00000000000E+00 -0.10460688985E+04  0.13177978286E+04  0.80145553633E+03 0.  0.
        4    1    3    3  502    0 -0.33682770251E+03 -0.22078665097E+02 -0.16793321982E+03  0.37701929374E+03  0.12699999809E+01 0. -1.
       -4    1    3    3    0  502  0.33682770251E+03  0.22078665097E+02 -0.87813567865E+03  0.94077853486E+03  0.12699999809E+01 0.  1.
</event>
<event>
 5   0  0.6256781E-03  0.7976075E+03  0.7818609E-02  0.9563487E-01
       -2   -1    0    0    0  501  0.00000000000E+00  0.00000000000E+00  0.38422460976E+03  0.38422460977E+03  0.25500000920E-02 0. -1.
        2   -1    0    0  501    0  0.00000000000E+00  0.00000000000E+00 -0.41393603436E+03  0.41393603437E+03  0.25500000920E-02 0.  1.
    10030    2    1    2    0    0  0.00000000000E+00  0.00000000000E+00 -0.29711424601E+02  0.79816064413E+03  0.79760745050E+03 0.  0.
        1    1    3    3  502    0  0.10560380681E+02  0.60607153396E+02  0.37944760113E+03  0.38440243328E+03  0.50400001928E-02 0. -1.
       -1    1    3    3    0  502 -0.10560380681E+02 -0.60607153396E+02 -0.40915902573E+03  0.41375821085E+03  0.50400001928E-02 0.  1.
</event>
<event>
 5   0  0.5813850E-03  0.7997207E+03  0.7818609E-02  0.9560421E-01
        2   -1    0    0  501    0  0.00000000000E+00  0.00000000000E+00  0.77498070013E+03  0.77498070014E+03  0.25500000920E-02 0.  1.
       -2   -1    0    0    0  501  0.00000000000E+00  0.00000000000E+00 -0.20631262264E+03  0.20631262265E+03  0.25500000920E-02 0. -1.
    10030    2    1    2    0    0  0.00000000000E+00  0.00000000000E+00  0.56866807749E+03  0.98129332279E+03  0.79972070311E+03 0.  0.
        5    1    3    3  502    0  0.37419433736E+03  0.78194394594E+02  0.14055260313E+03  0.40732405981E+03  0.46999998093E+01 0.  1.
       -5    1    3    3    0  502 -0.37419433736E+03 -0.78194394594E+02  0.42811547436E+03  0.57396926297E+03  0.46999998093E+01 0. -1.
</event>
<event>
 5   0  0.6153659E-03  0.7994071E+03  0.7818609E-02  0.9560876E-01
       -2   -1    0    0    0  501  0.00000000000E+00  0.00000000000E+00  0.55693413438E+03  0.55693413439E+03  0.25500000920E-02 0.  1.
        2   -1    0    0  501    0  0.00000000000E+00  0.00000000000E+00 -0.28686140666E+03  0.28686140667E+03  0.25500000920E-02 0. -1.
    10030    2    1    2    0    0  0.00000000000E+00  0.00000000000E+00  0.27007272772E+03  0.84379554106E+03  0.79940705329E+03 0.  0.
        2    1    3    3  502    0  0.32166189607E+03 -0.17865726406E+03 -0.29768231910E+02  0.36914894151E+03  0.25500000920E-02 0. -1.
       -2    1    3    3    0  502 -0.32166189607E+03  0.17865726406E+03  0.29984095963E+03  0.47464659955E+03  0.25500000920E-02 0.  1.
</event>
<event>
 5   0  0.2478000E-03  0.8067638E+03  0.7818609E-02  0.9550278E-01
       -4   -1    0    0    0  501  0.00000000000E+00  0.00000000000E+00  0.14440893551E+03  0.14441451989E+03  0.12699999809E+01 0.  1.
        4   -1    0    0  501    0  0.00000000000E+00  0.00000000000E+00 -0.11267512178E+04  0.11267519336E+04  0.12699999809E+01 0. -1.
    10030    2    1    2    0    0  0.00000000000E+00  0.00000000000E+00 -0.98234228233E+03  0.12711664534E+04  0.80676377753E+03 0.  0.
        5    1    3    3  502    0  0.38526763127E+02 -0.25004649583E+03 -0.98615000964E+03  0.10180969959E+04  0.46999998093E+01 0. -1.
       -5    1    3    3    0  502 -0.38526763127E+02  0.25004649583E+03  0.38077273165E+01  0.25306945754E+03  0.46999998093E+01 0.  1.
</event>
<event>
 5   0  0.3714448E-03  0.8025047E+03  0.7818609E-02  0.9556399E-01
        1   -1    0    0  501    0  0.00000000000E+00  0.00000000000E+00  0.16231617683E+04  0.16231617683E+04  0.50400001928E-02 0. -1.
       -1   -1    0    0    0  501  0.00000000000E+00  0.00000000000E+00 -0.99191261774E+02  0.99191261902E+02  0.50400001928E-02 0.  1.
    10030    2    1    2    0    0  0.00000000000E+00  0.00000000000E+00  0.15239705066E+04  0.17223530302E+04  0.80250473888E+03 0.  0.
        1    1    3    3  502    0  0.98833736477E+02 -0.32936923134E+03  0.12057461777E+04  0.12538245663E+04  0.50400001928E-02 0. -1.
       -1    1    3    3    0  502 -0.98833736477E+02  0.32936923134E+03  0.31822432889E+03  0.46852846397E+03  0.50400001928E-02 0.  1.
</event>
<event>
 5   0  0.5813850E-03  0.8217499E+03  0.7818609E-02  0.9529058E-01
       -2   -1    0    0    0  501  0.00000000000E+00  0.00000000000E+00  0.25184061508E+03  0.25184061509E+03  0.25500000920E-02 0. -1.
        2   -1    0    0  501    0  0.00000000000E+00  0.00000000000E+00 -0.67033749918E+03  0.67033749918E+03  0.25500000920E-02 0.  1.
    10030    2    1    2    0    0  0.00000000000E+00  0.00000000000E+00 -0.41849688410E+03  0.92217811428E+03  0.82174986003E+03 0.  0.
        5    1    3    3  502    0 -0.12188415416E+03  0.32814331216E+03 -0.45062159297E+03  0.57062745325E+03  0.46999998093E+01 0.  1.
       -5    1    3    3    0  502  0.12188415416E+03 -0.32814331216E+03  0.32124708867E+02  0.35155066103E+03  0.46999998093E+01 0. -1.
</event>
<event>
 5   0  0.6256781E-03  0.7870254E+03  0.7818609E-02  0.9578989E-01
        2   -1    0    0  501    0  0.00000000000E+00  0.00000000000E+00  0.99352221027E+03  0.99352221027E+03  0.25500000920E-02 0.  1.
       -2   -1    0    0    0  501  0.00000000000E+00  0.00000000000E+00 -0.15586188972E+03  0.15586188974E+03  0.25500000920E-02 0. -1.
    10030    2    1    2    0    0  0.00000000000E+00  0.00000000000E+00  0.83766032055E+03  0.11493841000E+04  0.78702541048E+03 0.  0.
        1    1    3    3  502    0  0.13273859525E+03 -0.35937083979E+03  0.28751197398E+03  0.47898859106E+03  0.50400001928E-02 0. -1.
       -1    1    3    3    0  502 -0.13273859525E+03  0.35937083979E+03  0.55014834657E+03  0.67039550895E+03  0.50400001928E-02 0.  1.
</event>
<event>
 5   0  0.3753450E-03  0.8002653E+03  0.7818609E-02  0.9559633E-01
       -1   -1    0    0    0  501  0.00000000000E+00  0.00000000000E+00  0.46422283530E+03  0.46422283532E+03  0.50400001928E-02 0.  1.
        1   -1    0    0  501    0  0.00000000000E+00  0.00000000000E+00 -0.34489069299E+03  0.34489069302E+03  0.50400001928E-02 0. -1.
    10030    2    1    2    0    0  0.00000000000E+00  0.00000000000E+00  0.11933214231E+03  0.80911352835E+03  0.80026529449E+03 0.  0.
        5    1    3    3  502    0 -0.35946463432E+03 -0.58007928599E+02 -0.10801181711E+03  0.37982678386E+03  0.46999998093E+01 0. -1.
       -5    1    3    3    0  502  0.35946463432E+03  0.58007928599E+02  0.22734395942E+03  0.42928674448E+03  0.46999998093E+01 0.  1.
</event>
<event>
 5   0  0.3714448E-03  0.7882562E+03  0.7818609E-02  0.9577173E-01
       -1   -1    0    0    0  501  0.00000000000E+00  0.00000000000E+00  0.11631932508E+03  0.11631932519E+03  0.50400001928E-02 0.  1.
        1   -1    0    0  501    0  0.00000000000E+00  0.00000000000E+00 -0.13354354912E+04  0.13354354912E+04  0.50400001928E-02 0. -1.
    10030    2    1    2    0    0  0.00000000000E+00  0.00000000000E+00 -0.12191161661E+04  0.14517548164E+04  0.78825618961E+03 0.  0.
        1    1    3    3  502    0 -0.12118808682E+03 -0.24098219575E+03 -0.80311547207E+02  0.28144078541E+03  0.50400001928E-02 0.  1.
       -1    1    3    3    0  502  0.12118808682E+03  0.24098219575E+03 -0.11388046189E+04  0.11703140310E+04  0.50400001928E-02 0. -1.
</event>
<event>
 5   0  0.5813850E-03  0.7986635E+03  0.7818609E-02  0.9561954E-01
        2   -1    0    0  501    0  0.00000000000E+00  0.00000000000E+00  0.10695745016E+04  0.10695745016E+04  0.25500000920E-02 0.  1.
       -2   -1    0    0    0  501  0.00000000000E+00  0.00000000000E+00 -0.14909279641E+03  0.14909279643E+03  0.25500000920E-02 0. -1.
    10030    2    1    2    0    0  0.00000000000E+00  0.00000000000E+00  0.92048170520E+03  0.12186672980E+04  0.79866351721E+03 0.  0.
        5    1    3    3  502    0 -0.62562100446E+02  0.31232928305E+03  0.82765936802E+03  0.88685157548E+03  0.46999998093E+01 0.  1.
       -5    1    3    3    0  502  0.62562100446E+02 -0.31232928305E+03  0.92822337184E+02  0.33181572257E+03  0.46999998093E+01 0. -1.
</event>
<event>
 5   0  0.3627496E-03  0.7993554E+03  0.7818609E-02  0.9560951E-01
       -1   -1    0    0    0  501  0.00000000000E+00  0.00000000000E+00  0.23382236460E+03  0.23382236465E+03  0.50400001928E-02 0. -1.
        1   -1    0    0  501    0  0.00000000000E+00  0.00000000000E+00 -0.68317790988E+03  0.68317790990E+03  0.50400001928E-02 0.  1.
    10030    2    1    2    0    0  0.00000000000E+00  0.00000000000E+00 -0.44935554528E+03  0.91700027455E+03  0.79935542623E+03 0.  0.
        3    1    3    3  502    0  0.36764129460E+03  0.15663237858E+03 -0.23266202924E+03  0.46241264426E+03  0.10100000352E+00 0.  1.
       -3    1    3    3    0  502 -0.36764129460E+03 -0.15663237858E+03 -0.21669351604E+03  0.45458763029E+03  0.10100000352E+00 0. -1.
</event>
<event>
 5   0  0.5813850E-03  0.7990006E+03  0.7818609E-02  0.9561465E-01
       -2   -1    0    0    0  501  0.00000000000E+00  0.00000000000E+00  0.12866936444E+03  0.12866936446E+03  0.25500000920E-02 0.  1.
        2   -1    0    0  501    0  0.00000000000E+00  0.00000000000E+00 -0.12403923075E+04  0.12403923075E+04  0.25500000920E-02 0. -1.
    10030    2    1    2    0    0  0.00000000000E+00  0.00000000000E+00 -0.11117229431E+04  0.13690616720E+04  0.79900060045E+03 0.  0.
        5    1    3    3  502    0 -0.21361775174E+03 -0.33513915972E+03 -0.48673415466E+03  0.62839718932E+03  0.46999998093E+01 0. -1.
       -5    1    3    3    0  502  0.21361775174E+03  0.33513915972E+03 -0.62498878842E+03  0.74066448267E+03  0.46999998093E+01 0.  1.
</event>
<event>
 5   0  0.3671128E-03  0.8144771E+03  0.7818609E-02  0.9539295E-01
        1   -1    0    0  501    0  0.00000000000E+00  0.00000000000E+00  0.46461237611E+03  0.46461237613E+03  0.50400001928E-02 0.  1.
       -1   -1    0    0    0  501  0.00000000000E+00  0.00000000000E+00 -0.35694966229E+03  0.35694966233E+03  0.50400001928E-02 0. -1.
    10030    2    1    2    0    0  0.00000000000E+00  0.00000000000E+00  0.10766271381E+03  0.82156203846E+03  0.81447708568E+03 0.  0.
        2    1    3    3  502    0 -0.24557224603E+03 -0.21043291267E+03  0.30348275907E+03  0.44349692650E+03  0.25500000920E-02 0.  1.
       -2    1    3    3    0  502  0.24557224603E+03  0.21043291267E+03 -0.19582004525E+03  0.37806511197E+03  0.25500000920E-02 0. -1.
</event>
<event>
 5   0  0.6256781E-03  0.8026388E+03  0.7818609E-02  0.9556205E-01
        2   -1    0    0  501    0  0.00000000000E+00  0.00000000000E+00  0.78435878089E+03  0.78435878089E+03  0.25500000920E-02 0.  1.
       -2   -1    0    0    0  501  0.00000000000E+00  0.00000000000E+00 -0.20533621722E+03  0.20533621724E+03  0.25500000920E-02 0. -1.
    10030    2    1    2    0    0  0.00000000000E+00  0.00000000000E+00  0.57902256367E+03  0.98969499813E+03  0.80263881048E+03 0.  0.
        1    1    3    3  502    0 -0.19053675165E+03 -0.60217535223E+02  0.71865370465E+03  0.74591792612E+03  0.50400001928E-02 0.  1.
       -1    1    3    3    0  502  0.19053675165E+03  0.60217535223E+02 -0.13963114098E+03  0.24377707201E+03  0.50400001928E-02 0. -1.
</event>
<event>
 5   0  0.3671128E-03  0.8012324E+03  0.7818609E-02  0.9558235E-01
       -1   -1    0    0    0  501  0.00000000000E+00  0.00000000000E+00  0.75400368907E+03  0.75400368909E+03  0.50400001928E-02 0.  1.
        1   -1    0    0  501    0  0.00000000000E+00  0.00000000000E+00 -0.21285486305E+03  0.21285486311E+03  0.50400001928E-02 0. -1.
    10030    2    1    2    0    0  0.00000000000E+00  0.00000000000E+00  0.54114882602E+03  0.96685855220E+03  0.80123243073E+03 0.  0.
        2    1    3    3  502    0  0.27348208408E+03 -0.21267901793E+03  0.27822212268E+02  0.34756134780E+03  0.25500000920E-02 0. -1.
       -2    1    3    3    0  502 -0.27348208408E+03  0.21267901793E+03  0.51332661375E+03  0.61929720440E+03  0.25500000920E-02 0.  1.
</event>
<event>
 5   0  0.2478000E-03  0.8061015E+03  0.7818609E-02  0.9551227E-01
       -3   -1    0    0    0  501  0.00000000000E+00  0.00000000000E+00  0.33666004918E+03  0.33666006433E+03  0.10100000352E+00 0. -1.
        3   -1    0    0  501    0  0.00000000000E+00  0.00000000000E+00 -0.48253391218E+03  0.48253392275E+03  0.10100000352E+00 0.  1.
    10030    2    1    2    0    0  0.00000000000E+00  0.00000000000E+00 -0.14587386300E+03  0.81919398709E+03  0.80610148528E+03 0.  0.
        5    1    3    3  502    0 -0.49560528955E+02 -0.39825687228E+03 -0.11045578431E+03  0.41627797519E+03  0.46999998093E+01 0.  1.
       -5    1    3    3    0  502  0.49560528955E+02  0.39825687228E+03 -0.35418078686E+02  0.40291601189E+03  0.46999998093E+01 0. -1.
</event>
<event>
 5   0  0.6337108E-03  0.8007940E+03  0.7818609E-02  0.9558869E-01
       -2   -1    0    0    0  501  0.00000000000E+00  0.00000000000E+00  0.13398921895E+03  0.13398921897E+03  0.25500000920E-02 0.  1.
        2   -1    0    0  501    0  0.00000000000E+00  0.00000000000E+00 -0.11964973932E+04  0.11964973932E+04  0.25500000920E-02 0. -1.
    10030    2    1    2    0    0  0.00000000000E+00  0.00000000000E+00 -0.10625081742E+04  0.13304866122E+04  0.80079398400E+03 0.  0.
        4    1    3    3  502    0  0.10252175455E+02  0.39943839689E+03 -0.57393769402E+03  0.69932984316E+03  0.12699999809E+01 0. -1.
       -4    1    3    3    0  502 -0.10252175455E+02 -0.39943839689E+03 -0.48857048023E+03  0.63115676901E+03  0.12699999809E+01 0.  1.
</event>
<event>
 5   0  0.3671128E-03  0.8013026E+03  0.7818609E-02  0.9558134E-01
       -1   -1    0    0    0  501  0.00000000000E+00  0.00000000000E+00  0.51268020817E+03  0.51268020819E+03  0.50400001928E-02 0. -1.
        1   -1    0    0  501    0  0.00000000000E+00  0.00000000000E+00 -0.31310253417E+03  0.31310253421E+03  0.50400001928E-02 0.  1.
    10030    2    1    2    0    0  0.00000000000E+00  0.00000000000E+00  0.19957767399E+03  0.82578274241E+03  0.80130262055E+03 0.  0.
        2    1    3    3  502    0 -0.19213767903E+02  0.32277364483E+02 -0.31128385399E+03  0.31354207835E+03  0.25500000920E-02 0.  1.
       -2    1    3    3    0  502  0.19213767903E+02 -0.32277364483E+02  0.51086152798E+03  0.51224066406E+03  0.25500000920E-02 0. -1.
</event>
<event>
 5   0  0.2478000E-03  0.8003776E+03  0.7818609E-02  0.9559471E-01
        4   -1    0    0  501    0  0.00000000000E+00  0.00000000000E+00  0.49609137581E+03  0.49609300142E+03  0.12699999809E+01 0. -1.
       -4   -1    0    0    0  501  0.00000000000E+00  0.00000000000E+00 -0.32282238967E+03  0.32282488778E+03  0.12699999809E+01 0.  1.
    10030    2    1    2    0    0  0.00000000000E+00  0.00000000000E+00  0.17326898614E+03  0.81891788919E+03  0.80037764067E+03 0.  0.
        2    1    3    3  502    0  0.25138818686E+03  0.16773578660E+03  0.35504656357E+03  0.46625033716E+03  0.25500000920E-02 0. -1.
       -2    1    3    3    0  502 -0.25138818686E+03 -0.16773578660E+03 -0.18177757742E+03  0.35266755203E+03  0.25500000920E-02 0.  1.
</event>
<event>
 5   0  0.3627496E-03  0.8027438E+03  0.7818609E-02  0.9556054E-01
        1   -1    0    0  501    0  0.00000000000E+00  0.00000000000E+00  0.87001881383E+03  0.87001881385E+03  0.50400001928E-02 0.  1.
       -1   -1    0    0    0  501  0.00000000000E+00  0.00000000000E+00 -0.18516772400E+03  0.18516772407E+03  0.50400001928E-02 0. -1.
    10030    2    1    2    0    0  0.00000000000E+00  0.00000000000E+00  0.68485108983E+03  0.10551865379E+04  0.80274380381E+03 0.  0.
        3    1    3    3  502    0  0.23855604917E+03  0.29741017694E+03  0.17752525705E+03  0.42056750829E+03  0.10100000352E+00 0.  1.
       -3    1    3    3    0  502 -0.23855604917E+03 -0.29741017694E+03  0.50732583279E+03  0.63461902962E+03  0.10100000352E+00 0. -1.
</event>
<event>
 5   0  0.3671128E-03  0.8040811E+03  0.7818609E-02  0.9554129E-01
        1   -1    0    0  501    0  0.00000000000E+00  0.00000000000E+00  0.62814042327E+03  0.62814042329E+03  0.50400001928E-02 0.  1.
       -1   -1    0    0    0  501  0.00000000000E+00  0.00000000000E+00 -0.25732561553E+03  0.25732561558E+03  0.50400001928E-02 0. -1.
    10030    2    1    2    0    0  0.00000000000E+00  0.00000000000E+00  0.37081480775E+03  0.88546603887E+03  0.80408114289E+03 0.  0.
        2    1    3    3  502    0 -0.24530700189E+03  0.26407206237E+03 -0.10741922929E+02  0.36058975056E+03  0.25500000920E-02 0. -1.
       -2    1    3    3    0  502  0.24530700189E+03 -0.26407206237E+03  0.38155673067E+03  0.52487628831E+03  0.25500000920E-02 0.  1.
</event>
<event>
 5   0  0.3714448E-03  0.7974513E+03  0.7818609E-02  0.9563714E-01
       -1   -1    0    0    0  501  0.00000000000E+00  0.00000000000E+00  0.17438897434E+03  0.17438897441E+03  0.50400001928E-02 0. -1.
        1   -1    0    0  501    0  0.00000000000E+00  0.00000000000E+00 -0.91165250645E+03  0.91165250647E+03  0.50400001928E-02 0.  1.
    10030    2    1    2    0    0  0.00000000000E+00  0.00000000000E+00 -0.73726353211E+03  0.10860414809E+04  0.79745130410E+03 0.  0.
        1    1    3    3  502    0  0.41455872163E+02 -0.19037260514E+02 -0.90808684801E+03  0.90923194521E+03  0.50400001928E-02 0.  1.
       -1    1    3    3    0  502 -0.41455872163E+02  0.19037260514E+02  0.17082331590E+03  0.17680953567E+03  0.50400001928E-02 0. -1.
</event>
<event>
 5   0  0.3627496E-03  0.7990804E+03  0.7818609E-02  0.9561349E-01
        1   -1    0    0  501    0  0.00000000000E+00  0.00000000000E+00  0.73006373033E+03  0.73006373035E+03  0.50400001928E-02 0. -1.
       -1   -1    0    0    0  501  0.00000000000E+00  0.00000000000E+00 -0.21865536824E+03  0.21865536830E+03  0.50400001928E-02 0.  1.
    10030    2    1    2    0    0  0.00000000000E+00  0.00000000000E+00  0.51140836209E+03  0.94871909865E+03  0.79908035599E+03 0.  0.
        3    1    3    3  502    0  0.17574641081E+02 -0.25236234126E+02 -0.21724810355E+03  0.21941395630E+03  0.10100000352E+00 0.  1.
       -3    1    3    3    0  502 -0.17574641081E+02  0.25236234126E+02  0.72865646564E+03  0.72930514234E+03  0.10100000352E+00 0. -1.
</event>
<event>
 5   0  0.3753450E-03  0.8026908E+03  0.7818609E-02  0.9556130E-01
        1   -1    0    0  501    0  0.00000000000E+00  0.00000000000E+00  0.10198669577E+03  0.10198669589E+03  0.50400001928E-02 0.  1.
       -1   -1    0    0    0  501  0.00000000000E+00  0.00000000000E+00 -0.15794033969E+04  0.15794033969E+04  0.50400001928E-02 0. -1.
    10030    2    1    2    0    0  0.00000000000E+00  0.00000000000E+00 -0.14774167012E+04  0.16813900928E+04  0.80269080933E+03 0.  0.
        5    1    3    3  502    0 -0.65054676694E+02 -0.56536416735E+02 -0.15597303028E+04  0.15621168922E+04  0.46999998093E+01 0. -1.
       -5    1    3    3    0  502  0.65054676694E+02  0.56536416735E+02  0.82313601642E+02  0.11927320064E+03  0.46999998093E+01 0.  1.
</event>
<event>
 5   0  0.3753450E-03  0.8006657E+03  0.7818609E-02  0.9559054E-01
        1   -1    0    0  501    0  0.00000000000E+00  0.00000000000E+00  0.31577166130E+03  0.31577166134E+03  0.50400001928E-02 0. -1.
       -1   -1    0    0    0  501  0.00000000000E+00  0.00000000000E+00 -0.50753889521E+03  0.50753889524E+03  0.50400001928E-02 0.  1.
    10030    2    1    2    0    0  0.00000000000E+00  0.00000000000E+00 -0.19176723392E+03  0.82331055658E+03  0.80066572336E+03 0.  0.
        5    1    3    3  502    0  0.26284786115E+03  0.12541554366E+03  0.18652225030E+03  0.34587670716E+03  0.46999998093E+01 0. -1.
       -5    1    3    3    0  502 -0.26284786115E+03 -0.12541554366E+03 -0.37828948422E+03  0.47743384942E+03  0.46999998093E+01 0.  1.
</event>
<event>
 5   0  0.6337108E-03  0.8018036E+03  0.7818609E-02  0.9557410E-01
        2   -1    0    0  501    0  0.00000000000E+00  0.00000000000E+00  0.37291351153E+03  0.37291351154E+03  0.25500000920E-02 0.  1.
       -2   -1    0    0    0  501  0.00000000000E+00  0.00000000000E+00 -0.43099067241E+03  0.43099067241E+03  0.25500000920E-02 0. -1.
    10030    2    1    2    0    0  0.00000000000E+00  0.00000000000E+00 -0.58077160873E+02  0.80390418396E+03  0.80180357967E+03 0.  0.
        4    1    3    3  502    0 -0.17206510983E+03 -0.78641619987E+02  0.32534140951E+03  0.37635030498E+03  0.12699999809E+01 0.  1.
       -4    1    3    3    0  502  0.17206510983E+03  0.78641619987E+02 -0.38341857038E+03  0.42755387898E+03  0.12699999809E+01 0. -1.
</event>
<event>
 5   0  0.3860515E-03  0.7998143E+03  0.7818609E-02  0.9560286E-01
       -1   -1    0    0    0  501  0.00000000000E+00  0.00000000000E+00  0.32338549528E+03  0.32338549532E+03  0.50400001928E-02 0. -1.
        1   -1    0    0  501    0  0.00000000000E+00  0.00000000000E+00 -0.49453589040E+03  0.49453589042E+03  0.50400001928E-02 0.  1.
    10030    2    1    2    0    0  0.00000000000E+00  0.00000000000E+00 -0.17115039512E+03  0.81792138574E+03  0.79981431314E+03 0.  0.
        4    1    3    3  502    0 -0.20443842356E+02 -0.23712695895E+03 -0.41421801683E+03  0.47772934149E+03  0.12699999809E+01 0.  1.
       -4    1    3    3    0  502  0.20443842356E+02  0.23712695895E+03  0.24306762170E+03  0.34019204425E+03  0.12699999809E+01 0. -1.
</event>
<event>
 5   0  0.6536209E-03  0.8016155E+03  0.7818609E-02  0.9557682E-01
       -2   -1    0    0    0  501  0.00000000000E+00  0.00000000000E+00  0.17189756229E+03  0.17189756231E+03  0.25500000920E-02 0. -1.
        2   -1    0    0  501    0  0.00000000000E+00  0.00000000000E+00 -0.93454993999E+03  0.93454993999E+03  0.25500000920E-02 0.  1.
    10030    2    1    2    0    0  0.00000000000E+00  0.00000000000E+00 -0.76265237770E+03  0.11064475023E+04  0.80161551016E+03 0.  0.
        3    1    3    3  502    0 -0.13525812424E+03  0.57009317283E+02  0.13346538011E+03  0.19838810529E+03  0.10100000352E+00 0. -1.
       -3    1    3    3    0  502  0.13525812424E+03 -0.57009317283E+02 -0.89611775781E+03  0.90805939701E+03  0.10100000352E+00 0.  1.
</event>
<event>
 5   0  0.6256781E-03  0.8010537E+03  0.7818609E-02  0.9558493E-01
       -2   -1    0    0    0  501  0.00000000000E+00  0.00000000000E+00  0.13713300856E+03  0.13713300858E+03  0.25500000920E-02 0. -1.
        2   -1    0    0  501    0  0.00000000000E+00  0.00000000000E+00 -0.11698260195E+04  0.11698260195E+04  0.25500000920E-02 0.  1.
    10030    2    1    2    0    0  0.00000000000E+00  0.00000000000E+00 -0.10326930109E+04  0.13069590281E+04  0.80105370997E+03 0.  0.
        1    1    3    3  502    0 -0.49044566940E+02  0.16791322564E+03  0.71513231959E+02  0.18898244167E+03  0.50400001928E-02 0. -1.
       -1    1    3    3    0  502  0.49044566940E+02 -0.16791322564E+03 -0.11042062429E+04  0.11179765864E+04  0.50400001928E-02 0.  1.
</event>
<event>
 5   0  0.3671128E-03  0.8007903E+03  0.7818609E-02  0.9558874E-01
        1   -1    0    0  501    0  0.00000000000E+00  0.00000000000E+00  0.70954668399E+03  0.70954668401E+03  0.50400001928E-02 0.  1.
       -1   -1    0    0    0  501  0.00000000000E+00  0.00000000000E+00 -0.22594183843E+03  0.22594183849E+03  0.50400001928E-02 0. -1.
    10030    2    1    2    0    0  0.00000000000E+00  0.00000000000E+00  0.48360484556E+03  0.93548852250E+03  0.80079031530E+03 0.  0.
        2    1    3    3  502    0  0.74248530240E+02 -0.16564105107E+03 -0.17511229331E+03  0.25221839211E+03  0.25500000920E-02 0. -1.
       -2    1    3    3    0  502 -0.74248530240E+02  0.16564105107E+03  0.65871713887E+03  0.68327013039E+03  0.25500000920E-02 0.  1.
</event>
<event>
 5   0  0.6256781E-03  0.8122218E+03  0.7818609E-02  0.9542493E-01
       -2   -1    0    0    0  501  0.00000000000E+00  0.00000000000E+00  0.99618599321E+02  0.99618599353E+02  0.25500000920E-02 0. -1.
        2   -1    0    0  501    0  0.00000000000E+00  0.00000000000E+00 -0.16555751198E+04  0.16555751198E+04  0.25500000920E-02 0.  1.
    10030    2    1    2    0    0  0.00000000000E+00  0.00000000000E+00 -0.15559565205E+04  0.17551937192E+04  0.81222182816E+03 0.  0.
        1    1    3    3  502    0 -0.19523240923E+03 -0.61906491639E+02 -0.20161764913E+02  0.20580234233E+03  0.50400001928E-02 0. -1.
       -1    1    3    3    0  502  0.19523240923E+03  0.61906491639E+02 -0.15357947556E+04  0.15493913768E+04  0.50400001928E-02 0.  1.
</event>
<event>
 5   0  0.6536209E-03  0.7958234E+03  0.7818609E-02  0.9566082E-01
       -2   -1    0    0    0  501  0.00000000000E+00  0.00000000000E+00  0.23922890242E+03  0.23922890244E+03  0.25500000920E-02 0. -1.
        2   -1    0    0  501    0  0.00000000000E+00  0.00000000000E+00 -0.66185035195E+03  0.66185035195E+03  0.25500000920E-02 0.  1.
    10030    2    1    2    0    0  0.00000000000E+00  0.00000000000E+00 -0.42262144952E+03  0.90107925439E+03  0.79582343085E+03 0.  0.
        3    1    3    3  502    0  0.36063687823E+03 -0.15230107755E+03 -0.29200480143E+03  0.48838651745E+03  0.10100000352E+00 0. -1.
       -3    1    3    3    0  502 -0.36063687823E+03  0.15230107755E+03 -0.13061664809E+03  0.41269273694E+03  0.10100000352E+00 0.  1.
</event>
<event>
 5   0  0.3671128E-03  0.7982997E+03  0.7818609E-02  0.9562481E-01
       -1   -1    0    0    0  501  0.00000000000E+00  0.00000000000E+00  0.17545711436E+03  0.17545711443E+03  0.50400001928E-02 0.  1.
        1   -1    0    0  501    0  0.00000000000E+00  0.00000000000E+00 -0.90803159348E+03  0.90803159349E+03  0.50400001928E-02 0. -1.
    10030    2    1    2    0    0  0.00000000000E+00  0.00000000000E+00 -0.73257447912E+03  0.10834887079E+04  0.79829970107E+03 0.  0.
        2    1    3    3  502    0 -0.35026887331E+03 -0.18682112878E+03 -0.42274254285E+03  0.57991523114E+03  0.25500000920E-02 0. -1.
       -2    1    3    3    0  502  0.35026887331E+03  0.18682112878E+03 -0.30983193628E+03  0.50357347678E+03  0.25500000920E-02 0.  1.
</event>
<event>
 5   0  0.6256781E-03  0.7977741E+03  0.7818609E-02  0.9563245E-01
       -2   -1    0    0    0  501  0.00000000000E+00  0.00000000000E+00  0.78033376113E+02  0.78033376154E+02  0.25500000920E-02 0. -1.
        2   -1    0    0  501    0  0.00000000000E+00  0.00000000000E+00 -0.20390103659E+04  0.20390103659E+04  0.25500000920E-02 0.  1.
    10030    2    1    2    0    0  0.00000000000E+00  0.00000000000E+00 -0.19609769898E+04  0.21170437420E+04  0.79777406030E+03 0.  0.
        1    1    3    3  502    0 -0.31453945782E+03 -0.22435507906E+03 -0.71724326749E+03  0.81468286886E+03  0.50400001928E-02 0. -1.
       -1    1    3    3    0  502  0.31453945782E+03  0.22435507906E+03 -0.12437337223E+04  0.13023608732E+04  0.50400001928E-02 0.  1.
</event>
<event>
 5   0  0.3860515E-03  0.7949020E+03  0.7818609E-02  0.9567426E-01
        1   -1    0    0  501    0  0.00000000000E+00  0.00000000000E+00  0.75464857200E+03  0.75464857202E+03  0.50400001928E-02 0. -1.
       -1   -1    0    0    0  501  0.00000000000E+00  0.00000000000E+00 -0.20932562755E+03  0.20932562761E+03  0.50400001928E-02 0.  1.
    10030    2    1    2    0    0  0.00000000000E+00  0.00000000000E+00  0.54532294445E+03  0.96397419963E+03  0.79490197119E+03 0.  0.
        4    1    3    3  502    0 -0.37208816825E+03  0.11399663418E+03  0.37058869959E+03  0.53738481065E+03  0.12699999809E+01 0. -1.
       -4    1    3    3    0  502  0.37208816825E+03 -0.11399663418E+03  0.17473424486E+03  0.42658938897E+03  0.12699999809E+01 0.  1.
</event>
<event>
 5   0  0.2478000E-03  0.7556473E+03  0.7818609E-02  0.9626532E-01
        4   -1    0    0  501    0  0.00000000000E+00  0.00000000000E+00  0.52185221145E+03  0.52185375681E+03  0.12699999809E+01 0.  1.
       -4   -1    0    0    0  501  0.00000000000E+00  0.00000000000E+00 -0.27354281075E+03  0.27354575890E+03  0.12699999809E+01 0. -1.
    10030    2    1    2    0    0  0.00000000000E+00  0.00000000000E+00  0.24830940070E+03  0.79539951572E+03  0.75564729281E+03 0.  0.
        1    1    3    3  502    0 -0.18483973959E+02 -0.62108552981E+02  0.51596146492E+03  0.52001477186E+03  0.50400001928E-02 0.  1.
       -1    1    3    3    0  502  0.18483973959E+02  0.62108552981E+02 -0.26765206422E+03  0.27538474386E+03  0.50400001928E-02 0. -1.
</event>
<event>
 5   0  0.3860515E-03  0.7998610E+03  0.7818609E-02  0.9560218E-01
       -1   -1    0    0    0  501  0.00000000000E+00  0.00000000000E+00  0.48543944194E+03  0.48543944196E+03  0.50400001928E-02 0. -1.
        1   -1    0    0  501    0  0.00000000000E+00  0.00000000000E+00 -0.32948376379E+03  0.32948376383E+03  0.50400001928E-02 0.  1.
    10030    2    1    2    0    0  0.00000000000E+00  0.00000000000E+00  0.15595567815E+03  0.81492320579E+03  0.79986102405E+03 0.  0.
        4    1    3    3  502    0  0.39912035044E+02 -0.80938928695E+02 -0.31897252635E+03  0.33149534867E+03  0.12699999809E+01 0.  1.
       -4    1    3    3    0  502 -0.39912035044E+02  0.80938928695E+02  0.47492820450E+03  0.48342785713E+03  0.12699999809E+01 0. -1.
</event>
<event>
 5   0  0.6256781E-03  0.7997393E+03  0.7818609E-02  0.9560394E-01
        2   -1    0    0  501    0  0.00000000000E+00  0.00000000000E+00  0.12877249836E+04  0.12877249836E+04  0.25500000920E-02 0. -1.
       -2   -1    0    0    0  501  0.00000000000E+00  0.00000000000E+00 -0.12416917381E+03  0.12416917384E+03  0.25500000920E-02 0.  1.
    10030    2    1    2    0    0  0.00000000000E+00  0.00000000000E+00  0.11635558098E+04  0.14118941575E+04  0.79973932586E+03 0.  0.
        1    1    3    3  502    0 -0.22404459039E+03  0.32816687570E+03  0.66085458617E+03  0.77111494660E+03  0.50400001928E-02 0. -1.
       -1    1    3    3    0  502  0.22404459039E+03 -0.32816687570E+03  0.50270122363E+03  0.64077921085E+03  0.50400001928E-02 0.  1.
</event>
<event>
 5   0  0.3714448E-03  0.7955072E+03  0.7818609E-02  0.9566543E-01
       -1   -1    0    0    0  501  0.00000000000E+00  0.00000000000E+00  0.20729812256E+03  0.20729812262E+03  0.50400001928E-02 0.  1.
        1   -1    0    0  501    0  0.00000000000E+00  0.00000000000E+00 -0.76319029454E+03  0.76319029456E+03  0.50400001928E-02 0. -1.
    10030    2    1    2    0    0  0.00000000000E+00  0.00000000000E+00 -0.55589217198E+03  0.97048841718E+03  0.79550717219E+03 0.  0.
        1    1    3    3  502    0  0.32333291085E+03 -0.21818951919E+03 -0.18299983318E+03  0.43085934653E+03  0.50400001928E-02 0.  1.
       -1    1    3    3    0  502 -0.32333291085E+03  0.21818951919E+03 -0.37289233880E+03  0.53962907064E+03  0.50400001928E-02 0. -1.
</event>
<event>
 5   0  0.3671128E-03  0.8056519E+03  0.7818609E-02  0.9551872E-01
        1   -1    0    0  501    0  0.00000000000E+00  0.00000000000E+00  0.66066735950E+03  0.66066735952E+03  0.50400001928E-02 0.  1.
       -1   -1    0    0    0  501  0.00000000000E+00  0.00000000000E+00 -0.24561337575E+03  0.24561337580E+03  0.50400001928E-02 0. -1.
    10030    2    1    2    0    0  0.00000000000E+00  0.00000000000E+00  0.41505398375E+03  0.90628073531E+03  0.80565188622E+03 0.  0.
        2    1    3    3  502    0 -0.14566504160E+03 -0.10811541408E+03  0.61211949411E+03  0.63843364744E+03  0.25500000920E-02 0.  1.
       -2    1    3    3    0  502  0.14566504160E+03  0.10811541408E+03 -0.19706551036E+03  0.26784708788E+03  0.25500000920E-02 0. -1.
</event>
<event>
 5   0  0.6153659E-03  0.7808036E+03  0.7818609E-02  0.9588226E-01
        2   -1    0    0  501    0  0.00000000000E+00  0.00000000000E+00  0.19865700868E+03  0.19865700870E+03  0.25500000920E-02 0. -1.
       -2   -1    0    0    0  501  0.00000000000E+00  0.00000000000E+00 -0.76721974009E+03  0.76721974010E+03  0.25500000920E-02 0.  1.
    10030    2    1    2    0    0  0.00000000000E+00  0.00000000000E+00 -0.56856273141E+03  0.96587674879E+03  0.78080363364E+03 0.  0.
        2    1    3    3  502    0  0.23841473062E+02  0.12747865553E+03  0.17123154501E+03  0.21480099037E+03  0.25500000920E-02 0. -1.
       -2    1    3    3    0  502 -0.23841473062E+02 -0.12747865553E+03 -0.73979427642E+03  0.75107575842E+03  0.25500000920E-02 0.  1.
</event>
<event>
 5   0  0.6153659E-03  0.8010816E+03  0.7818609E-02  0.9558453E-01
        2   -1    0    0  501    0  0.00000000000E+00  0.00000000000E+00  0.18724427307E+04  0.18724427307E+04  0.25500000920E-02 0.  1.
       -2   -1    0    0    0  501  0.00000000000E+00  0.00000000000E+00 -0.85681084565E+02  0.85681084603E+02  0.25500000920E-02 0. -1.
    10030    2    1    2    0    0  0.00000000000E+00  0.00000000000E+00  0.17867616462E+04  0.19581238153E+04  0.80108157885E+03 0.  0.
        2    1    3    3  502    0  0.13366162531E+03  0.35093056860E+03  0.12339730040E+04  0.12898476920E+04  0.25500000920E-02 0.  1.
       -2    1    3    3    0  502 -0.13366162531E+03 -0.35093056860E+03  0.55278864219E+03  0.66827612332E+03  0.25500000920E-02 0. -1.
</event>
<event>
 5   0  0.5813850E-03  0.7989409E+03  0.7818609E-02  0.9561551E-01
       -2   -1    0    0    0  501  0.00000000000E+00  0.00000000000E+00  0.15686677854E+03  0.15686677856E+03  0.25500000920E-02 0. -1.
        2   -1    0    0  501    0  0.00000000000E+00  0.00000000000E+00 -0.10172750486E+04  0.10172750486E+04  0.25500000920E-02 0.  1.
    10030    2    1    2    0    0  0.00000000000E+00  0.00000000000E+00 -0.86040827009E+03  0.11741418272E+04  0.79894094846E+03 0.  0.
        5    1    3    3  502    0 -0.19923692677E+03 -0.33294370540E+03 -0.56968446819E+03  0.68928176187E+03  0.46999998093E+01 0.  1.
       -5    1    3    3    0  502  0.19923692677E+03  0.33294370540E+03 -0.29072380190E+03  0.48486006532E+03  0.46999998093E+01 0. -1.
</event>
<event>
 5   0  0.6256781E-03  0.7971815E+03  0.7818609E-02  0.9564106E-01
        2   -1    0    0  501    0  0.00000000000E+00  0.00000000000E+00  0.32608813405E+03  0.32608813406E+03  0.25500000920E-02 0. -1.
       -2   -1    0    0    0  501  0.00000000000E+00  0.00000000000E+00 -0.48721364100E+03  0.48721364101E+03  0.25500000920E-02 0.  1.
    10030    2    1    2    0    0  0.00000000000E+00  0.00000000000E+00 -0.16112550695E+03  0.81330177507E+03  0.79718150276E+03 0.  0.
        1    1    3    3  502    0  0.13688606970E+03  0.13792426045E+03 -0.43561406725E+03  0.47699110402E+03  0.50400001928E-02 0.  1.
       -1    1    3    3    0  502 -0.13688606970E+03 -0.13792426045E+03  0.27448856030E+03  0.33631067105E+03  0.50400001928E-02 0. -1.
</event>
<event>
 5   0  0.3714448E-03  0.7991615E+03  0.7818609E-02  0.9561232E-01
        1   -1    0    0  501    0  0.00000000000E+00  0.00000000000E+00  0.83875423683E+03  0.83875423684E+03  0.50400001928E-02 0. -1.
       -1   -1    0    0    0  501  0.00000000000E+00  0.00000000000E+00 -0.19035941029E+03  0.19035941036E+03  0.50400001928E-02 0.  1.
    10030    2    1    2    0    0  0.00000000000E+00  0.00000000000E+00  0.64839482654E+03  0.10291136472E+04  0.79916146539E+03 0.  0.
        1    1    3    3  502    0 -0.37838746328E+03 -0.62358457012E+02  0.17965384292E+03  0.42348689806E+03  0.50400001928E-02 0.  1.
       -1    1    3    3    0  502  0.37838746328E+03  0.62358457012E+02  0.46874098362E+03  0.60562674914E+03  0.50400001928E-02 0. -1.
</event>
<event>
 5   0  0.6337108E-03  0.8060875E+03  0.7818609E-02  0.9551247E-01
        2   -1    0    0  501    0  0.00000000000E+00  0.00000000000E+00  0.16340828231E+04  0.16340828231E+04  0.25500000920E-02 0. -1.
       -2   -1    0    0    0  501  0.00000000000E+00  0.00000000000E+00 -0.99410059456E+02  0.99410059489E+02  0.25500000920E-02 0.  1.
    10030    2    1    2    0    0  0.00000000000E+00  0.00000000000E+00  0.15346727636E+04  0.17334928826E+04  0.80608751541E+03 0.  0.
        4    1    3    3  502    0  0.17846298036E+03 -0.34629169594E+02 -0.62301657003E+01  0.18190283838E+03  0.12699999809E+01 0.  1.
       -4    1    3    3    0  502 -0.17846298036E+03  0.34629169594E+02  0.15409029293E+04  0.15515900442E+04  0.12699999809E+01 0. -1.
</event>
<event>
 5   0  0.5813850E-03  0.7996056E+03  0.7818609E-02  0.9560588E-01
        2   -1    0    0  501    0  0.00000000000E+00  0.00000000000E+00  0.46749601813E+03  0.46749601814E+03  0.25500000920E-02 0. -1.
       -2   -1    0    0    0  501  0.00000000000E+00  0.00000000000E+00 -0.34191152485E+03  0.34191152486E+03  0.25500000920E-02 0.  1.
    10030    2    1    2    0    0  0.00000000000E+00  0.00000000000E+00  0.12558449328E+03  0.80940754300E+03  0.79960559385E+03 0.  0.
        5    1    3    3  502    0  0.59948378841E+02 -0.37126292083E+03 -0.74480685001E+02  0.38340504293E+03  0.46999998093E+01 0.  1.
       -5    1    3    3    0  502 -0.59948378841E+02  0.37126292083E+03  0.20006517828E+03  0.42600250007E+03  0.46999998093E+01 0. -1.
</event>
<event>
 5   0  0.6256781E-03  0.8004882E+03  0.7818609E-02  0.9559311E-01
       -2   -1    0    0    0  501  0.00000000000E+00  0.00000000000E+00  0.41374239741E+03  0.41374239742E+03  0.25500000920E-02 0.  1.
        2   -1    0    0  501    0  0.00000000000E+00  0.00000000000E+00 -0.38718615624E+03  0.38718615625E+03  0.25500000920E-02 0. -1.
    10030    2    1    2    0    0  0.00000000000E+00  0.00000000000E+00  0.26556241176E+02  0.80092855367E+03  0.80048817239E+03 0.  0.
        1    1    3    3  502    0  0.33807039949E+03  0.21233929773E+03 -0.15299037157E+02  0.39951674926E+03  0.50400001928E-02 0. -1.
       -1    1    3    3    0  502 -0.33807039949E+03 -0.21233929773E+03  0.41855278334E+02  0.40141180441E+03  0.50400001928E-02 0.  1.
</event>
<event>
 5   0  0.3714448E-03  0.7966274E+03  0.7818609E-02  0.9564912E-01
        1   -1    0    0  501    0  0.00000000000E+00  0.00000000000E+00  0.41553625134E+03  0.41553625137E+03  0.50400001928E-02 0. -1.
       -1   -1    0    0    0  501  0.00000000000E+00  0.00000000000E+00 -0.38180498796E+03  0.38180498799E+03  0.50400001928E-02 0.  1.
    10030    2    1    2    0    0  0.00000000000E+00  0.00000000000E+00  0.33731263384E+02  0.79734123936E+03  0.79662742474E+03 0.  0.
        1    1    3    3  502    0  0.16508126679E+03 -0.11577846690E+03 -0.32694956889E+03  0.38412562876E+03  0.50400001928E-02 0.  1.
       -1    1    3    3    0  502 -0.16508126679E+03  0.11577846690E+03  0.36068083228E+03  0.41321561060E+03  0.50400001928E-02 0. -1.
</event>
<event>
 5   0  0.2478000E-03  0.7987255E+03  0.7818609E-02  0.9561864E-01
       -4   -1    0    0    0  501  0.00000000000E+00  0.00000000000E+00  0.57243450892E+03  0.57243591772E+03  0.12699999809E+01 0.  1.
        4   -1    0    0  501    0  0.00000000000E+00  0.00000000000E+00 -0.27861486825E+03  0.27861776273E+03  0.12699999809E+01 0. -1.
    10030    2    1    2    0    0  0.00000000000E+00  0.00000000000E+00  0.29381964067E+03  0.85105368046E+03  0.79872547585E+03 0.  0.
        2    1    3    3  502    0  0.32594568086E+03 -0.15484893075E+03  0.32920881227E+03  0.48846414434E+03  0.25500000920E-02 0.  1.
       -2    1    3    3    0  502 -0.32594568086E+03  0.15484893075E+03 -0.35389171607E+02  0.36258953611E+03  0.25500000920E-02 0. -1.
</event>
<event>
 5   0  0.3671128E-03  0.8015648E+03  0.7818609E-02  0.9557755E-01
       -1   -1    0    0    0  501  0.00000000000E+00  0.00000000000E+00  0.79532693925E+03  0.79532693926E+03  0.50400001928E-02 0.  1.
        1   -1    0    0  501    0  0.00000000000E+00  0.00000000000E+00 -0.20196288574E+03  0.20196288581E+03  0.50400001928E-02 0. -1.
    10030    2    1    2    0    0  0.00000000000E+00  0.00000000000E+00  0.59336405350E+03  0.99728982507E+03  0.80156477916E+03 0.  0.
        2    1    3    3  502    0 -0.44914632407E+02 -0.38392086140E+02 -0.19651399958E+03  0.20520484526E+03  0.25500000920E-02 0. -1.
       -2    1    3    3    0  502  0.44914632407E+02  0.38392086140E+02  0.78987805308E+03  0.79208497980E+03  0.25500000920E-02 0.  1.
</event>
<event>
 5   0  0.6153659E-03  0.8124161E+03  0.7818609E-02  0.9542217E-01
       -2   -1    0    0    0  501  0.00000000000E+00  0.00000000000E+00  0.27336412264E+03  0.27336412266E+03  0.25500000920E-02 0. -1.
        2   -1    0    0  501    0  0.00000000000E+00  0.00000000000E+00 -0.60360875698E+03  0.60360875698E+03  0.25500000920E-02 0.  1.
    10030    2    1    2    0    0  0.00000000000E+00  0.00000000000E+00 -0.33024463434E+03  0.87697287964E+03  0.81241609605E+03 0.  0.
        2    1    3    3  502    0  0.11296075378E+03 -0.47505371463E+02 -0.58317982317E+03  0.59591576450E+03  0.25500000920E-02 0.  1.
       -2    1    3    3    0  502 -0.11296075378E+03  0.47505371463E+02  0.25293518884E+03  0.28105711514E+03  0.25500000920E-02 0. -1.
</event>
<event>
 5   0  0.6337108E-03  0.7982018E+03  0.7818609E-02  0.9562624E-01
        2   -1    0    0  501    0  0.00000000000E+00  0.00000000000E+00  0.48425072107E+03  0.48425072108E+03  0.25500000920E-02 0.  1.
       -2   -1    0    0    0  501  0.00000000000E+00  0.00000000000E+00 -0.32892370630E+03  0.32892370631E+03  0.25500000920E-02 0. -1.
    10030    2    1    2    0    0  0.00000000000E+00  0.00000000000E+00  0.15532701477E+03  0.81317442739E+03  0.79820183403E+03 0.  0.
        4    1    3    3  502    0 -0.22438498906E+02  0.19256601573E+03  0.43305493880E+03  0.47447165307E+03  0.12699999809E+01 0.  1.
       -4    1    3    3    0  502  0.22438498906E+02 -0.19256601573E+03 -0.27772792403E+03  0.33870277432E+03  0.12699999809E+01 0. -1.
</event>
<event>
 5   0  0.5813850E-03  0.8002253E+03  0.7818609E-02  0.9559691E-01
        2   -1    0    0  501    0  0.00000000000E+00  0.00000000000E+00  0.92021499506E+03  0.92021499506E+03  0.25500000920E-02 0. -1.
       -2   -1    0    0    0  501  0.00000000000E+00  0.00000000000E+00 -0.17397037839E+03  0.17397037841E+03  0.25500000920E-02 0.  1.
    10030    2    1    2    0    0  0.00000000000E+00  0.00000000000E+00  0.74624461667E+03  0.10941853735E+04  0.80022534552E+03 0.  0.
        5    1    3    3  502    0 -0.18742742886E+03 -0.83548277651E+02 -0.96494465406E+02  0.22680967272E+03  0.46999998093E+01 0.  1.
       -5    1    3    3    0  502  0.18742742886E+03  0.83548277651E+02  0.84273908208E+03  0.86737570075E+03  0.46999998093E+01 0. -1.
</event>
<event>
 5   0  0.3860515E-03  0.8042607E+03  0.7818609E-02  0.9553870E-01
       -1   -1    0    0    0  501  0.00000000000E+00  0.00000000000E+00  0.14795093206E+03  0.14795093215E+03  0.50400001928E-02 0. -1.
        1   -1    0    0  501    0  0.00000000000E+00  0.00000000000E+00 -0.10929895129E+04  0.10929895129E+04  0.50400001928E-02 0.  1.
    10030    2    1    2    0    0  0.00000000000E+00  0.00000000000E+00 -0.94503858083E+03  0.12409404451E+04  0.80426069711E+03 0.  0.
        4    1    3    3  502    0  0.21990635260E+03 -0.33182704140E+03 -0.56033535724E+03  0.68734657545E+03  0.12699999809E+01 0.  1.
       -4    1    3    3    0  502 -0.21990635260E+03  0.33182704140E+03 -0.38470322359E+03  0.55359386960E+03  0.12699999809E+01 0. -1.
</event>
<event>
 5   0  0.3860515E-03  0.7965105E+03  0.7818609E-02  0.9565082E-01
        1   -1    0    0  501    0  0.00000000000E+00  0.00000000000E+00  0.48427623171E+03  0.48427623174E+03  0.50400001928E-02 0. -1.
       -1   -1    0    0    0  501  0.00000000000E+00  0.00000000000E+00 -0.32751397745E+03  0.32751397749E+03  0.50400001928E-02 0.  1.
    10030    2    1    2    0    0  0.00000000000E+00  0.00000000000E+00  0.15676225426E+03  0.81179020922E+03  0.79651047666E+03 0.  0.
        4    1    3    3  502    0 -0.34317041166E+02  0.26004648126E+03  0.38380265821E+03  0.46487409594E+03  0.12699999809E+01 0. -1.
       -4    1    3    3    0  502  0.34317041166E+02 -0.26004648126E+03 -0.22704040395E+03  0.34691611328E+03  0.12699999809E+01 0.  1.
</event>
<event>
 5   0  0.6153659E-03  0.7970045E+03  0.7818609E-02  0.9564363E-01
       -2   -1    0    0    0  501  0.00000000000E+00  0.00000000000E+00  0.12562691745E+03  0.12562691747E+03  0.25500000920E-02 0.  1.
        2   -1    0    0  501    0  0.00000000000E+00  0.00000000000E+00 -0.12640924701E+04  0.12640924701E+04  0.25500000920E-02 0. -1.
    10030    2    1    2    0    0  0.00000000000E+00  0.00000000000E+00 -0.11384655526E+04  0.13897193875E+04  0.79700449283E+03 0.  0.
        2    1    3    3  502    0 -0.44388031021E+02  0.36047303179E+03 -0.28328583233E+03  0.46061042840E+03  0.25500000920E-02 0.  1.
       -2    1    3    3    0  502  0.44388031021E+02 -0.36047303179E+03 -0.85517972028E+03  0.92910895913E+03  0.25500000920E-02 0. -1.
</event>
<event>
 5   0  0.6256781E-03  0.8199455E+03  0.7818609E-02  0.9531587E-01
       -2   -1    0    0    0  501  0.00000000000E+00  0.00000000000E+00  0.18064851640E+03  0.18064851642E+03  0.25500000920E-02 0.  1.
        2   -1    0    0  501    0  0.00000000000E+00  0.00000000000E+00 -0.93041249561E+03  0.93041249561E+03  0.25500000920E-02 0. -1.
    10030    2    1    2    0    0  0.00000000000E+00  0.00000000000E+00 -0.74976397921E+03  0.11110610120E+04  0.81994545425E+03 0.  0.
        1    1    3    3  502    0 -0.26279231313E+03 -0.29487683190E+03 -0.22604000641E+03  0.45508925537E+03  0.50400001928E-02 0. -1.
       -1    1    3    3    0  502  0.26279231313E+03  0.29487683190E+03 -0.52372397280E+03  0.65597175666E+03  0.50400001928E-02 0.  1.
</event>
<event>
 5   0  0.6256781E-03  0.7999973E+03  0.7818609E-02  0.9560021E-01
       -2   -1    0    0    0  501  0.00000000000E+00  0.00000000000E+00  0.17571176367E+03  0.17571176369E+03  0.25500000920E-02 0. -1.
        2   -1    0    0  501    0  0.00000000000E+00  0.00000000000E+00 -0.91057612350E+03  0.91057612351E+03  0.25500000920E-02 0.  1.
    10030    2    1    2    0    0  0.00000000000E+00  0.00000000000E+00 -0.73486435983E+03  0.10862878872E+04  0.79999734157E+03 0.  0.
        1    1    3    3  502    0 -0.29517215545E+03  0.19240231766E+03 -0.62454473413E+03  0.71707836263E+03  0.50400001928E-02 0.  1.
       -1    1    3    3    0  502  0.29517215545E+03 -0.19240231766E+03 -0.11031962570E+03  0.36920952457E+03  0.50400001928E-02 0. -1.
</event>
<event>
 5   0  0.2478000E-03  0.7836548E+03  0.7818609E-02  0.9583982E-01
       -4   -1    0    0    0  501  0.00000000000E+00  0.00000000000E+00  0.15033423894E+03  0.15033960323E+03  0.12699999809E+01 0. -1.
        4   -1    0    0  501    0  0.00000000000E+00  0.00000000000E+00 -0.10212252332E+04  0.10212260229E+04  0.12699999809E+01 0.  1.
    10030    2    1    2    0    0  0.00000000000E+00  0.00000000000E+00 -0.87089099422E+03  0.11715656261E+04  0.78365482988E+03 0.  0.
        5    1    3    3  502    0 -0.30889307060E+03 -0.22092191035E+03 -0.57950362111E+03  0.69286936461E+03  0.46999998093E+01 0.  1.
       -5    1    3    3    0  502  0.30889307060E+03  0.22092191035E+03 -0.29138737312E+03  0.47869626147E+03  0.46999998093E+01 0. -1.
</event>
<event>
 5   0  0.5813850E-03  0.8132396E+03  0.7818609E-02  0.9541049E-01
       -2   -1    0    0    0  501  0.00000000000E+00  0.00000000000E+00  0.37008624838E+03  0.37008624839E+03  0.25500000920E-02 0.  1.
        2   -1    0    0  501    0  0.00000000000E+00  0.00000000000E+00 -0.44675976512E+03  0.44675976513E+03  0.25500000920E-02 0. -1.
    10030    2    1    2    0    0  0.00000000000E+00  0.00000000000E+00 -0.76673516739E+02  0.81684601352E+03  0.81323955981E+03 0.  0.
        5    1    3    3  502    0 -0.22538491471E+03  0.32742641534E+03 -0.12422114000E+03  0.41648457218E+03  0.46999998093E+01 0.  1.
       -5    1    3    3    0  502  0.22538491471E+03 -0.32742641534E+03  0.47547623258E+02  0.40036144134E+03  0.46999998093E+01 0. -1.
</event>
<event>
 5   0  0.3860515E-03  0.7976917E+03  0.7818609E-02  0.9563364E-01
        1   -1    0    0  501    0  0.00000000000E+00  0.00000000000E+00  0.16516264850E+04  0.16516264850E+04  0.50400001928E-02 0. -1.
       -1   -1    0    0    0  501  0.00000000000E+00  0.00000000000E+00 -0.96315966481E+02  0.96315966613E+02  0.50400001928E-02 0.  1.
    10030    2    1    2    0    0  0.00000000000E+00  0.00000000000E+00  0.15553105185E+04  0.17479424516E+04  0.79769167300E+03 0.  0.
        4    1    3    3  502    0  0.13270718715E+03 -0.34690437571E+03  0.10961228140E+04  0.11573420755E+04  0.12699999809E+01 0. -1.
       -4    1    3    3    0  502 -0.13270718715E+03  0.34690437571E+03  0.45918770450E+03  0.59060037612E+03  0.12699999809E+01 0.  1.
</event>
<event>
 5   0  0.3714448E-03  0.7995319E+03  0.7818609E-02  0.9560695E-01
        1   -1    0    0  501    0  0.00000000000E+00  0.00000000000E+00  0.60725528043E+03  0.60725528045E+03  0.50400001928E-02 0.  1.
       -1   -1    0    0    0  501  0.00000000000E+00  0.00000000000E+00 -0.26317237435E+03  0.26317237440E+03  0.50400001928E-02 0. -1.
    10030    2    1    2    0    0  0.00000000000E+00  0.00000000000E+00  0.34408290609E+03  0.87042765485E+03  0.79953189809E+03 0.  0.
        1    1    3    3  502    0 -0.85085873161E+02  0.22187035041E+03  0.52202313162E+03  0.57356273255E+03  0.50400001928E-02 0.  1.
       -1    1    3    3    0  502  0.85085873161E+02 -0.22187035041E+03 -0.17794022553E+03  0.29686492230E+03  0.50400001928E-02 0. -1.
</event>
<event>
 5   0  0.3714448E-03  0.7958280E+03  0.7818609E-02  0.9566076E-01
       -1   -1    0    0    0  501  0.00000000000E+00  0.00000000000E+00  0.12085929197E+03  0.12085929207E+03  0.50400001928E-02 0. -1.
        1   -1    0    0  501    0  0.00000000000E+00  0.00000000000E+00 -0.13100817306E+04  0.13100817306E+04  0.50400001928E-02 0.  1.
    10030    2    1    2    0    0  0.00000000000E+00  0.00000000000E+00 -0.11892224386E+04  0.14309410227E+04  0.79582799765E+03 0.  0.
        1    1    3    3  502    0  0.12781195491E+03  0.36497630772E+03 -0.42601605610E+03  0.57535491750E+03  0.50400001928E-02 0. -1.
       -1    1    3    3    0  502 -0.12781195491E+03 -0.36497630772E+03 -0.76320638250E+03  0.85558610515E+03  0.50400001928E-02 0.  1.
</event>
<event>
 5   0  0.2478000E-03  0.8010106E+03  0.7818609E-02  0.9558555E-01
       -4   -1    0    0    0  501  0.00000000000E+00  0.00000000000E+00  0.49988776080E+03  0.49988937406E+03  0.12699999809E+01 0.  1.
        4   -1    0    0  501    0  0.00000000000E+00  0.00000000000E+00 -0.32087767009E+03  0.32088018334E+03  0.12699999809E+01 0. -1.
    10030    2    1    2    0    0  0.00000000000E+00  0.00000000000E+00  0.17901009071E+03  0.82076955740E+03  0.80101064523E+03 0.  0.
        3    1    3    3  502    0  0.64104642899E+01  0.40024951932E+03  0.10261644451E+03  0.41324437885E+03  0.10100000352E+00 0. -1.
       -3    1    3    3    0  502 -0.64104642899E+01 -0.40024951932E+03  0.76393646202E+02  0.40752517855E+03  0.10100000352E+00 0.  1.
</event>
<event>
 5   0  0.2478000E-03  0.7991923E+03  0.7818609E-02  0.9561187E-01
       -3   -1    0    0    0  501  0.00000000000E+00  0.00000000000E+00  0.10797693676E+03  0.10797698400E+03  0.10100000352E+00 0. -1.
        3   -1    0    0  501    0  0.00000000000E+00  0.00000000000E+00 -0.14788069440E+04  0.14788069474E+04  0.10100000352E+00 0.  1.
    10030    2    1    2    0    0  0.00000000000E+00  0.00000000000E+00 -0.13708300072E+04  0.15867839314E+04  0.79919230248E+03 0.  0.
        1    1    3    3  502    0 -0.21663014195E+03 -0.31418203843E+03 -0.92066025147E+03  0.99662142779E+03  0.50400001928E-02 0.  1.
       -1    1    3    3    0  502  0.21663014195E+03  0.31418203843E+03 -0.45016975575E+03  0.59016250363E+03  0.50400001928E-02 0. -1.
</event>
<event>
 5   0  0.3714448E-03  0.7996433E+03  0.7818609E-02  0.9560534E-01
        1   -1    0    0  501    0  0.00000000000E+00  0.00000000000E+00  0.58392061433E+03  0.58392061435E+03  0.50400001928E-02 0. -1.
       -1   -1    0    0    0  501  0.00000000000E+00  0.00000000000E+00 -0.27376557191E+03  0.27376557196E+03  0.50400001928E-02 0.  1.
    10030    2    1    2    0    0  0.00000000000E+00  0.00000000000E+00  0.31015504242E+03  0.85768618630E+03  0.79964332289E+03 0.  0.
        1    1    3    3  502    0 -0.13427718310E+03  0.30594060187E+03 -0.80470134890E+02  0.34366474420E+03  0.50400001928E-02 0.  1.
       -1    1    3    3    0  502  0.13427718310E+03 -0.30594060187E+03  0.39062517731E+03  0.51402144210E+03  0.50400001928E-02 0. -1.
</event>
<event>
 5   0  0.6536209E-03  0.8015204E+03  0.7818609E-02  0.9557819E-01
        2   -1    0    0  501    0  0.00000000000E+00  0.00000000000E+00  0.67680839781E+03  0.67680839782E+03  0.25500000920E-02 0.  1.
       -2   -1    0    0    0  501  0.00000000000E+00  0.00000000000E+00 -0.23730311235E+03  0.23730311237E+03  0.25500000920E-02 0. -1.
    10030    2    1    2    0    0  0.00000000000E+00  0.00000000000E+00  0.43950528546E+03  0.91411151018E+03  0.80152040343E+03 0.  0.
        3    1    3    3  502    0  0.15880827472E+03 -0.36586091796E+03  0.26442726804E+03  0.47853533798E+03  0.10100000352E+00 0. -1.
       -3    1    3    3    0  502 -0.15880827472E+03  0.36586091796E+03  0.17507801742E+03  0.43557617221E+03  0.10100000352E+00 0.  1.
</event>
<event>
 5   0  0.3714448E-03  0.7980289E+03  0.7818609E-02  0.9562875E-01
        1   -1    0    0  501    0  0.00000000000E+00  0.00000000000E+00  0.68225074692E+03  0.68225074694E+03  0.50400001928E-02 0. -1.
       -1   -1    0    0    0  501  0.00000000000E+00  0.00000000000E+00 -0.23336368100E+03  0.23336368105E+03  0.50400001928E-02 0.  1.
    10030    2    1    2    0    0  0.00000000000E+00  0.00000000000E+00  0.44888706593E+03  0.91561442799E+03  0.79802893606E+03 0.  0.
        1    1    3    3  502    0  0.16962810490E+03 -0.12189206982E+03 -0.16562196809E+03  0.26657458055E+03  0.50400001928E-02 0.  1.
       -1    1    3    3    0  502 -0.16962810490E+03  0.12189206982E+03  0.61450903401E+03  0.64903984744E+03  0.50400001928E-02 0. -1.
</event>
<event>
 5   0  0.6337108E-03  0.7969460E+03  0.7818609E-02  0.9564448E-01
       -2   -1    0    0    0  501  0.00000000000E+00  0.00000000000E+00  0.39637546658E+03  0.39637546659E+03  0.25500000920E-02 0.  1.
        2   -1    0    0  501    0  0.00000000000E+00  0.00000000000E+00 -0.40058167165E+03  0.40058167165E+03  0.25500000920E-02 0. -1.
    10030    2    1    2    0    0  0.00000000000E+00  0.00000000000E+00 -0.42062050614E+01  0.79695713825E+03  0.79694603835E+03 0.  0.
        4    1    3    3  502    0 -0.35845724460E+03  0.17393484989E+03  0.37455597823E+01  0.39844770087E+03  0.12699999809E+01 0. -1.
       -4    1    3    3    0  502  0.35845724460E+03 -0.17393484989E+03 -0.79517648437E+01  0.39850943737E+03  0.12699999809E+01 0.  1.
</event>
<event>
 5   0  0.6536209E-03  0.8018717E+03  0.7818609E-02  0.9557312E-01
       -2   -1    0    0    0  501  0.00000000000E+00  0.00000000000E+00  0.66724082944E+02  0.66724082992E+02  0.25500000920E-02 0. -1.
        2   -1    0    0  501    0  0.00000000000E+00  0.00000000000E+00 -0.24091686858E+04  0.24091686858E+04  0.25500000920E-02 0.  1.
    10030    2    1    2    0    0  0.00000000000E+00  0.00000000000E+00 -0.23424446029E+04  0.24758927688E+04  0.80187173857E+03 0.  0.
        3    1    3    3  502    0 -0.37687133530E+03 -0.13664505821E+03 -0.11503525436E+04  0.12182014858E+04  0.10100000352E+00 0. -1.
       -3    1    3    3    0  502  0.37687133530E+03  0.13664505821E+03 -0.11920920593E+04  0.12576912830E+04  0.10100000352E+00 0.  1.
</event>
<event>
 5   0  0.6153659E-03  0.7961987E+03  0.7818609E-02  0.9565536E-01
       -2   -1    0    0    0  501  0.00000000000E+00  0.00000000000E+00  0.22013226232E+03  0.22013226234E+03  0.25500000920E-02 0.  1.
        2   -1    0    0  501    0  0.00000000000E+00  0.00000000000E+00 -0.71994482770E+03  0.71994482771E+03  0.25500000920E-02 0. -1.
    10030    2    1    2    0    0  0.00000000000E+00  0.00000000000E+00 -0.49981256538E+03  0.94007709004E+03  0.79619867791E+03 0.  0.
        2    1    3    3  502    0  0.22218944244E+03  0.10444113914E+03  0.12010349721E+03  0.27331474517E+03  0.25500000920E-02 0.  1.
       -2    1    3    3    0  502 -0.22218944244E+03 -0.10444113914E+03 -0.61991606259E+03  0.66676234488E+03  0.25500000920E-02 0. -1.
</event>
<event>
 5   0  0.3753450E-03  0.7999756E+03  0.7818609E-02  0.9560052E-01
        1   -1    0    0  501    0  0.00000000000E+00  0.00000000000E+00  0.81295117206E+03  0.81295117207E+03  0.50400001928E-02 0. -1.
       -1   -1    0    0    0  501  0.00000000000E+00  0.00000000000E+00 -0.19680178285E+03  0.19680178291E+03  0.50400001928E-02 0.  1.
    10030    2    1    2    0    0  0.00000000000E+00  0.00000000000E+00  0.61614938921E+03  0.10097529550E+04  0.79997559980E+03 0.  0.
        5    1    3    3  502    0 -0.32445108926E+03 -0.22492698866E+03  0.38897062554E+03  0.55423902522E+03  0.46999998093E+01 0. -1.
       -5    1    3    3    0  502  0.32445108926E+03  0.22492698866E+03  0.22717876367E+03  0.45551392976E+03  0.46999998093E+01 0.  1.
</event>
<event>
 5   0  0.3714448E-03  0.8001681E+03  0.7818609E-02  0.9559774E-01
       -1   -1    0    0    0  501  0.00000000000E+00  0.00000000000E+00  0.30585204978E+03  0.30585204982E+03  0.50400001928E-02 0.  1.
        1   -1    0    0  501    0  0.00000000000E+00  0.00000000000E+00 -0.52334857533E+03  0.52334857535E+03  0.50400001928E-02 0. -1.
    10030    2    1    2    0    0  0.00000000000E+00  0.00000000000E+00 -0.21749652555E+03  0.82920062517E+03  0.80016806870E+03 0.  0.
        1    1    3    3  502    0 -0.14250538946E+02  0.30712308421E+03 -0.37404395057E+03  0.48418647616E+03  0.50400001928E-02 0.  1.
       -1    1    3    3    0  502  0.14250538946E+02 -0.30712308421E+03  0.15654742502E+03  0.34501414901E+03  0.50400001928E-02 0. -1.
</event>
<event>
 5   0  0.6337108E-03  0.7956245E+03  0.7818609E-02  0.9566372E-01
        2   -1    0    0  501    0  0.00000000000E+00  0.00000000000E+00  0.46536697159E+03  0.46536697160E+03  0.25500000920E-02 0.  1.
       -2   -1    0    0    0  501  0.00000000000E+00  0.00000000000E+00 -0.34006409041E+03  0.34006409042E+03  0.25500000920E-02 0. -1.
    10030    2    1    2    0    0  0.00000000000E+00  0.00000000000E+00  0.12530288119E+03  0.80543106202E+03  0.79562452428E+03 0.  0.
        4    1    3    3  502    0  0.34055334622E+03  0.18215874084E+03 -0.33889579523E+02  0.38769640828E+03  0.12699999809E+01 0.  1.
       -4    1    3    3    0  502 -0.34055334622E+03 -0.18215874084E+03  0.15919246071E+03  0.41773465374E+03  0.12699999809E+01 0. -1.
</event>
<event>
 5   0  0.6337108E-03  0.8009218E+03  0.7818609E-02  0.9558684E-01
        2   -1    0    0  501    0  0.00000000000E+00  0.00000000000E+00  0.19651969140E+03  0.19651969141E+03  0.25500000920E-02 0. -1.
       -2   -1    0    0    0  501  0.00000000000E+00  0.00000000000E+00 -0.81604510043E+03  0.81604510044E+03  0.25500000920E-02 0.  1.
    10030    2    1    2    0    0  0.00000000000E+00  0.00000000000E+00 -0.61952540904E+03  0.10125647919E+04  0.80092179722E+03 0.  0.
        4    1    3    3  502    0  0.19910973267E+03 -0.25955164811E+03 -0.17735971214E+02  0.32760940349E+03  0.12699999809E+01 0. -1.
       -4    1    3    3    0  502 -0.19910973267E+03  0.25955164811E+03 -0.60178943782E+03  0.68495538837E+03  0.12699999809E+01 0.  1.
</event>
<event>
 5   0  0.5813850E-03  0.7884252E+03  0.7818609E-02  0.9576924E-01
       -2   -1    0    0    0  501  0.00000000000E+00  0.00000000000E+00  0.77732969152E+03  0.77732969153E+03  0.25500000920E-02 0. -1.
        2   -1    0    0  501    0  0.00000000000E+00  0.00000000000E+00 -0.19991975224E+03  0.19991975225E+03  0.25500000920E-02 0.  1.
    10030    2    1    2    0    0  0.00000000000E+00  0.00000000000E+00  0.57740993929E+03  0.97724944378E+03  0.78842516283E+03 0.  0.
        5    1    3    3  502    0  0.10579577033E+03  0.35930026646E+03  0.44097659039E+03  0.57859473707E+03  0.46999998093E+01 0. -1.
       -5    1    3    3    0  502 -0.10579577033E+03 -0.35930026646E+03  0.13643334890E+03  0.39865470671E+03  0.46999998093E+01 0.  1.
</event>
<event>
 5   0  0.6536209E-03  0.8065422E+03  0.7818609E-02  0.9550596E-01
        2   -1    0    0  501    0  0.00000000000E+00  0.00000000000E+00  0.11656439801E+04  0.11656439801E+04  0.25500000920E-02 0.  1.
       -2   -1    0    0    0  501  0.00000000000E+00  0.00000000000E+00 -0.13951735471E+03  0.13951735474E+03  0.25500000920E-02 0. -1.
    10030    2    1    2    0    0  0.00000000000E+00  0.00000000000E+00  0.10261266254E+04  0.13051613349E+04  0.80654216173E+03 0.  0.
        3    1    3    3  502    0  0.82934238516E+02 -0.36149844320E+03  0.76927558667E+03  0.85401648157E+03  0.10100000352E+00 0.  1.
       -3    1    3    3    0  502 -0.82934238516E+02  0.36149844320E+03  0.25685103877E+03  0.45114485331E+03  0.10100000352E+00 0. -1.
</event>
<event>
 5   0  0.2478000E-03  0.8020389E+03  0.7818609E-02  0.9557071E-01
       -3   -1    0    0    0  501  0.00000000000E+00  0.00000000000E+00  0.20837502177E+03  0.20837504625E+03  0.10100000352E+00 0. -1.
        3   -1    0    0  501    0  0.00000000000E+00  0.00000000000E+00 -0.77176516964E+03  0.77176517625E+03  0.10100000352E+00 0.  1.
    10030    2    1    2    0    0  0.00000000000E+00  0.00000000000E+00 -0.56339014787E+03  0.98014022250E+03  0.80203889996E+03 0.  0.
        3    1    3    3  502    0 -0.18466713500E+03  0.10356888952E+03  0.13450249613E+03  0.25083739213E+03  0.10100000352E+00 0. -1.
       -3    1    3    3    0  502  0.18466713500E+03 -0.10356888952E+03 -0.69789264400E+03  0.72930283036E+03  0.10100000352E+00 0.  1.
</event>
<event>
 5   0  0.6337108E-03  0.7991316E+03  0.7818609E-02  0.9561275E-01
       -2   -1    0    0    0  501  0.00000000000E+00  0.00000000000E+00  0.23718852554E+03  0.23718852555E+03  0.25500000920E-02 0. -1.
        2   -1    0    0  501    0  0.00000000000E+00  0.00000000000E+00 -0.67310519233E+03  0.67310519234E+03  0.25500000920E-02 0.  1.
    10030    2    1    2    0    0  0.00000000000E+00  0.00000000000E+00 -0.43591666679E+03  0.91029371789E+03  0.79913159895E+03 0.  0.
        4    1    3    3  502    0  0.27892461643E+03 -0.21220156437E+03 -0.43654389280E+03  0.55982196171E+03  0.12699999809E+01 0.  1.
       -4    1    3    3    0  502 -0.27892461643E+03  0.21220156437E+03  0.62722600561E+00  0.35047175618E+03  0.12699999809E+01 0. -1.
</event>
<event>
 5   0  0.2478000E-03  0.7982540E+03  0.7818609E-02  0.9562548E-01
        3   -1    0    0  501    0  0.00000000000E+00  0.00000000000E+00  0.16981811898E+03  0.16981814901E+03  0.10100000352E+00 0.  1.
       -3   -1    0    0    0  501  0.00000000000E+00  0.00000000000E+00 -0.93807632963E+03  0.93807633507E+03  0.10100000352E+00 0. -1.
    10030    2    1    2    0    0  0.00000000000E+00  0.00000000000E+00 -0.76825821065E+03  0.11078944841E+04  0.79825403827E+03 0.  0.
        1    1    3    3  502    0  0.25336182494E+03 -0.23760178156E+03 -0.11125442464E+03  0.36472505805E+03  0.50400001928E-02 0.  1.
       -1    1    3    3    0  502 -0.25336182494E+03  0.23760178156E+03 -0.65700378601E+03  0.74316942604E+03  0.50400001928E-02 0. -1.
</event>
<event>
 5   0  0.3753450E-03  0.7968728E+03  0.7818609E-02  0.9564555E-01
        1   -1    0    0  501    0  0.00000000000E+00  0.00000000000E+00  0.81157784050E+03  0.81157784052E+03  0.50400001928E-02 0.  1.
       -1   -1    0    0    0  501  0.00000000000E+00  0.00000000000E+00 -0.19560854149E+03  0.19560854156E+03  0.50400001928E-02 0. -1.
    10030    2    1    2    0    0  0.00000000000E+00  0.00000000000E+00  0.61596929901E+03  0.10071863821E+04  0.79687278214E+03 0.  0.
        5    1    3    3  502    0  0.27024096809E+03  0.23567770478E+03  0.88500721339E+02  0.36936246296E+03  0.46999998093E+01 0. -1.
       -5    1    3    3    0  502 -0.27024096809E+03 -0.23567770478E+03  0.52746857767E+03  0.63782391912E+03  0.46999998093E+01 0.  1.
</event>
<event>
 5   0  0.3671128E-03  0.7702971E+03  0.7818609E-02  0.9604035E-01
        1   -1    0    0  501    0  0.00000000000E+00  0.00000000000E+00  0.14494360233E+03  0.14494360242E+03  0.50400001928E-02 0.  1.
       -1   -1    0    0    0  501  0.00000000000E+00  0.00000000000E+00 -0.10234283762E+04  0.10234283762E+04  0.50400001928E-02 0. -1.
    10030    2    1    2    0    0  0.00000000000E+00  0.00000000000E+00 -0.87848477391E+03  0.11683719787E+04  0.77029707422E+03 0.  0.
        2    1    3    3  502    0 -0.33381960209E+03 -0.18168883340E+03 -0.53388073127E+03  0.65534341696E+03  0.25500000920E-02 0. -1.
       -2    1    3    3    0  502  0.33381960209E+03  0.18168883340E+03 -0.34460404263E+03  0.51302856171E+03  0.25500000920E-02 0.  1.
</event>
<event>
 5   0  0.2478000E-03  0.7990011E+03  0.7818609E-02  0.9561464E-01
        3   -1    0    0  501    0  0.00000000000E+00  0.00000000000E+00  0.37380766345E+03  0.37380767709E+03  0.10100000352E+00 0.  1.
       -3   -1    0    0    0  501  0.00000000000E+00  0.00000000000E+00 -0.42695930912E+03  0.42695932107E+03  0.10100000352E+00 0. -1.
    10030    2    1    2    0    0  0.00000000000E+00  0.00000000000E+00 -0.53151645672E+02  0.80076699816E+03  0.79900105626E+03 0.  0.
        4    1    3    3  502    0  0.18581562894E+03 -0.24961041693E+03  0.22450983548E+03  0.38371745768E+03  0.12699999809E+01 0.  1.
       -4    1    3    3    0  502 -0.18581562894E+03  0.24961041693E+03 -0.27766148116E+03  0.41704954048E+03  0.12699999809E+01 0. -1.
</event>
<event>
 5   0  0.6337108E-03  0.7983060E+03  0.7818609E-02  0.9562472E-01
       -2   -1    0    0    0  501  0.00000000000E+00  0.00000000000E+00  0.14666179577E+03  0.14666179579E+03  0.25500000920E-02 0.  1.
        2   -1    0    0  501    0  0.00000000000E+00  0.00000000000E+00 -0.10863301719E+04  0.10863301719E+04  0.25500000920E-02 0. -1.
    10030    2    1    2    0    0  0.00000000000E+00  0.00000000000E+00 -0.93966837615E+03  0.12329919677E+04  0.79830604114E+03 0.  0.
        4    1    3    3  502    0 -0.34913701119E+03 -0.11745419209E+03 -0.70725402648E+03  0.79743464353E+03  0.12699999809E+01 0. -1.
       -4    1    3    3    0  502  0.34913701119E+03  0.11745419209E+03 -0.23241434967E+03  0.43555732419E+03  0.12699999809E+01 0.  1.
</event>
<event>
 5   0  0.6536209E-03  0.7970307E+03  0.7818609E-02  0.9564325E-01
       -2   -1    0    0    0  501  0.00000000000E+00  0.00000000000E+00  0.50826427386E+03  0.50826427387E+03  0.25500000920E-02 0.  1.
        2   -1    0    0  501    0  0.00000000000E+00  0.00000000000E+00 -0.31246441769E+03  0.31246441770E+03  0.25500000920E-02 0. -1.
    10030    2    1    2    0    0  0.00000000000E+00  0.00000000000E+00  0.19579985617E+03  0.82072869157E+03  0.79703074062E+03 0.  0.
        3    1    3    3  502    0  0.25577752562E+03 -0.11987790367E+03 -0.19156606654E+03  0.34130693291E+03  0.10100000352E+00 0. -1.
       -3    1    3    3    0  502 -0.25577752562E+03  0.11987790367E+03  0.38736592271E+03  0.47942175866E+03  0.10100000352E+00 0.  1.
</event>
<event>
 5   0  0.3753450E-03  0.7974848E+03  0.7818609E-02  0.9563665E-01
        1   -1    0    0  501    0  0.00000000000E+00  0.00000000000E+00  0.12499459815E+04  0.12499459815E+04  0.50400001928E-02 0. -1.
       -1   -1    0    0    0  501  0.00000000000E+00  0.00000000000E+00 -0.12720190538E+03  0.12720190548E+03  0.50400001928E-02 0.  1.
    10030    2    1    2    0    0  0.00000000000E+00  0.00000000000E+00  0.11227440761E+04  0.13771478870E+04  0.79748482252E+03 0.  0.
        5    1    3    3  502    0  0.37316193255E+03 -0.40962702268E+02  0.79334876392E+03  0.87769705599E+03  0.46999998093E+01 0. -1.
       -5    1    3    3    0  502 -0.37316193255E+03  0.40962702268E+02  0.32939531220E+03  0.49945083099E+03  0.46999998093E+01 0.  1.
</event>
<event>
 5   0  0.6153659E-03  0.8032678E+03  0.7818609E-02  0.9555299E-01
        2   -1    0    0  501    0  0.00000000000E+00  0.00000000000E+00  0.50622543225E+03  0.50622543225E+03  0.25500000920E-02 0. -1.
       -2   -1    0    0    0  501  0.00000000000E+00  0.00000000000E+00 -0.31865208057E+03  0.31865208058E+03  0.25500000920E-02 0.  1.
    10030    2    1    2    0    0  0.00000000000E+00  0.00000000000E+00  0.18757335168E+03  0.82487751283E+03  0.80326779402E+03 0.  0.
        2    1    3    3  502    0  0.31251227442E+03 -0.15477999943E+03 -0.11079384628E+03  0.36591808683E+03  0.25500000920E-02 0.  1.
       -2    1    3    3    0  502 -0.31251227442E+03  0.15477999943E+03  0.29836719796E+03  0.45895942600E+03  0.25500000920E-02 0. -1.
</event>
<event>
 5   0  0.2478000E-03  0.8033617E+03  0.7818609E-02  0.9555164E-01
        3   -1    0    0  501    0  0.00000000000E+00  0.00000000000E+00  0.65168442168E+03  0.65168442950E+03  0.10100000352E+00 0.  1.
       -3   -1    0    0    0  501  0.00000000000E+00  0.00000000000E+00 -0.24758531815E+03  0.24758533875E+03  0.10100000352E+00 0. -1.
    10030    2    1    2    0    0  0.00000000000E+00  0.00000000000E+00  0.40409910353E+03  0.89926976825E+03  0.80336170597E+03 0.  0.
        3    1    3    3  502    0 -0.23261608762E+03 -0.15558474342E+03  0.52460030631E+03  0.59457745348E+03  0.10100000352E+00 0.  1.
       -3    1    3    3    0  502  0.23261608762E+03  0.15558474342E+03 -0.12050120279E+03  0.30469231477E+03  0.10100000352E+00 0. -1.
</event>
<event>
 5   0  0.6337108E-03  0.7989510E+03  0.7818609E-02  0.9561537E-01
        2   -1    0    0  501    0  0.00000000000E+00  0.00000000000E+00  0.11048186427E+04  0.11048186427E+04  0.25500000920E-02 0. -1.
       -2   -1    0    0    0  501  0.00000000000E+00  0.00000000000E+00 -0.14444060702E+03  0.14444060704E+03  0.25500000920E-02 0.  1.
    10030    2    1    2    0    0  0.00000000000E+00  0.00000000000E+00  0.96037803567E+03  0.12492592497E+04  0.79895100077E+03 0.  0.
        4    1    3    3  502    0  0.24375089804E+03 -0.26460789930E+03  0.75168041779E+03  0.83334080907E+03  0.12699999809E+01 0. -1.
       -4    1    3    3    0  502 -0.24375089804E+03  0.26460789930E+03  0.20869761788E+03  0.41591844066E+03  0.12699999809E+01 0.  1.
</event>
<event>
 5   0  0.3714448E-03  0.7579438E+03  0.7818609E-02  0.9622970E-01
        1   -1    0    0  501    0  0.00000000000E+00  0.00000000000E+00  0.46660002091E+03  0.46660002094E+03  0.50400001928E-02 0. -1.
       -1   -1    0    0    0  501  0.00000000000E+00  0.00000000000E+00 -0.30780045428E+03  0.30780045432E+03  0.50400001928E-02 0.  1.
    10030    2    1    2    0    0  0.00000000000E+00  0.00000000000E+00  0.15879956663E+03  0.77440047526E+03  0.75794379324E+03 0.  0.
        1    1    3    3  502    0  0.26270260056E+03 -0.23023837667E+03  0.22955093299E+03  0.41799042728E+03  0.50400001928E-02 0. -1.
       -1    1    3    3    0  502 -0.26270260056E+03  0.23023837667E+03 -0.70751366365E+02  0.35641004798E+03  0.50400001928E-02 0.  1.
</event>
<event>
 5   0  0.6153659E-03  0.7992960E+03  0.7818609E-02  0.9561037E-01
       -2   -1    0    0    0  501  0.00000000000E+00  0.00000000000E+00  0.14569667334E+03  0.14569667337E+03  0.25500000920E-02 0. -1.
        2   -1    0    0  501    0  0.00000000000E+00  0.00000000000E+00 -0.10962400502E+04  0.10962400502E+04  0.25500000920E-02 0.  1.
    10030    2    1    2    0    0  0.00000000000E+00  0.00000000000E+00 -0.95054337687E+03  0.12419367236E+04  0.79929601155E+03 0.  0.
        2    1    3    3  502    0 -0.23597838994E+03 -0.12850112206E+03 -0.93494146353E+03  0.97278665653E+03  0.25500000920E-02 0.  1.
       -2    1    3    3    0  502  0.23597838994E+03  0.12850112206E+03 -0.15601913339E+02  0.26915006705E+03  0.25500000920E-02 0. -1.
</event>
<event>
 5   0  0.3753450E-03  0.7988744E+03  0.7818609E-02  0.9561648E-01
        1   -1    0    0  501    0  0.00000000000E+00  0.00000000000E+00  0.33438800223E+03  0.33438800227E+03  0.50400001928E-02 0. -1.
       -1   -1    0    0    0  501  0.00000000000E+00  0.00000000000E+00 -0.47714059412E+03  0.47714059414E+03  0.50400001928E-02 0.  1.
    10030    2    1    2    0    0  0.00000000000E+00  0.00000000000E+00 -0.14275259188E+03  0.81152859642E+03  0.79887443338E+03 0.  0.
        5    1    3    3  502    0  0.33695063574E+03 -0.54322104201E+02 -0.28212668730E+03  0.44283651567E+03  0.46999998093E+01 0.  1.
       -5    1    3    3    0  502 -0.33695063574E+03  0.54322104201E+02  0.13937409542E+03  0.36869208074E+03  0.46999998093E+01 0. -1.
</event>
<event>
 5   0  0.2478000E-03  0.7947195E+03  0.7818609E-02  0.9567692E-01
       -3   -1    0    0    0  501  0.00000000000E+00  0.00000000000E+00  0.33066855350E+03  0.33066856892E+03  0.10100000352E+00 0. -1.
        3   -1    0    0  501    0  0.00000000000E+00  0.00000000000E+00 -0.47750153597E+03  0.47750154666E+03  0.10100000352E+00 0.  1.
    10030    2    1    2    0    0  0.00000000000E+00  0.00000000000E+00 -0.14683298248E+03  0.80817011558E+03  0.79471945426E+03 0.  0.
        4    1    3    3  502    0  0.10043231853E+03  0.93227901928E+02  0.30587752993E+03  0.33517274429E+03  0.12699999809E+01 0. -1.
       -4    1    3    3    0  502 -0.10043231853E+03 -0.93227901928E+02 -0.45271051240E+03  0.47299737129E+03  0.12699999809E+01 0.  1.
</event>
<event>
 5   0  0.3714448E-03  0.7988570E+03  0.7818609E-02  0.9561673E-01
       -1   -1    0    0    0  501  0.00000000000E+00  0.00000000000E+00  0.28463920694E+03  0.28463920699E+03  0.50400001928E-02 0.  1.
        1   -1    0    0  501    0  0.00000000000E+00  0.00000000000E+00 -0.56050998631E+03  0.56050998633E+03  0.50400001928E-02 0. -1.
    10030    2    1    2    0    0  0.00000000000E+00  0.00000000000E+00 -0.27587077936E+03  0.84514919332E+03  0.79885697848E+03 0.  0.
        1    1    3    3  502    0  0.25345192948E+03  0.29039708242E+02 -0.46309213037E+03  0.52871117488E+03  0.50400001928E-02 0. -1.
       -1    1    3    3    0  502 -0.25345192948E+03 -0.29039708242E+02  0.18722135101E+03  0.31643801843E+03  0.50400001928E-02 0.  1.
</event>
<event>
 5   0  0.5813850E-03  0.7808299E+03  0.7818609E-02  0.9588187E-01
        2   -1    0    0  501    0  0.00000000000E+00  0.00000000000E+00  0.23368249788E+04  0.23368249788E+04  0.25500000920E-02 0. -1.
       -2   -1    0    0    0  501  0.00000000000E+00  0.00000000000E+00 -0.65226896487E+02  0.65226896537E+02  0.25500000920E-02 0.  1.
    10030    2    1    2    0    0  0.00000000000E+00  0.00000000000E+00  0.22715980823E+04  0.24020518753E+04  0.78082992018E+03 0.  0.
        5    1    3    3  502    0 -0.24978780677E+03 -0.91454150342E+02  0.25680098222E+03  0.36976566160E+03  0.46999998093E+01 0.  1.
       -5    1    3    3    0  502  0.24978780677E+03  0.91454150342E+02  0.20147971001E+04  0.20322862137E+04  0.46999998093E+01 0. -1.
</event>
<event>
 5   0  0.3753450E-03  0.7995698E+03  0.7818609E-02  0.9560640E-01
       -1   -1    0    0    0  501  0.00000000000E+00  0.00000000000E+00  0.27979690958E+03  0.27979690963E+03  0.50400001928E-02 0. -1.
        1   -1    0    0  501    0  0.00000000000E+00  0.00000000000E+00 -0.57122853485E+03  0.57122853487E+03  0.50400001928E-02 0.  1.
    10030    2    1    2    0    0  0.00000000000E+00  0.00000000000E+00 -0.29143162527E+03  0.85102544450E+03  0.79956983121E+03 0.  0.
        5    1    3    3  502    0 -0.24197813096E+03  0.30324235684E+03 -0.24833934396E+03  0.46065590477E+03  0.46999998093E+01 0.  1.
       -5    1    3    3    0  502  0.24197813096E+03 -0.30324235684E+03 -0.43092281302E+02  0.39036953973E+03  0.46999998093E+01 0. -1.
</event>
<event>
 5   0  0.6536209E-03  0.8028370E+03  0.7818609E-02  0.9555920E-01
        2   -1    0    0  501    0  0.00000000000E+00  0.00000000000E+00  0.42636952312E+03  0.42636952312E+03  0.25500000920E-02 0. -1.
       -2   -1    0    0    0  501  0.00000000000E+00  0.00000000000E+00 -0.37792757560E+03  0.37792757561E+03  0.25500000920E-02 0.  1.
    10030    2    1    2    0    0  0.00000000000E+00  0.00000000000E+00  0.48441947518E+02  0.80429709873E+03  0.80283697022E+03 0.  0.
        3    1    3    3  502    0 -0.28728072115E+03 -0.10617861374E+03  0.28417831512E+03  0.41780549990E+03  0.10100000352E+00 0. -1.
       -3    1    3    3    0  502  0.28728072115E+03  0.10617861374E+03 -0.23573636760E+03  0.38649159884E+03  0.10100000352E+00 0.  1.
</event>
<event>
 5   0  0.3714448E-03  0.7997775E+03  0.7818609E-02  0.9560339E-01
        1   -1    0    0  501    0  0.00000000000E+00  0.00000000000E+00  0.58814139638E+03  0.58814139641E+03  0.50400001928E-02 0.  1.
       -1   -1    0    0    0  501  0.00000000000E+00  0.00000000000E+00 -0.27189209540E+03  0.27189209545E+03  0.50400001928E-02 0. -1.
    10030    2    1    2    0    0  0.00000000000E+00  0.00000000000E+00  0.31624930098E+03  0.86003349185E+03  0.79977746076E+03 0.  0.
        1    1    3    3  502    0  0.59894440727E+02 -0.20905860528E+03 -0.20274503573E+03  0.29731867417E+03  0.50400001928E-02 0. -1.
       -1    1    3    3    0  502 -0.59894440727E+02  0.20905860528E+03  0.51899433671E+03  0.56271481768E+03  0.50400001928E-02 0.  1.
</event>
<event>
 5   0  0.3627496E-03  0.8025964E+03  0.7818609E-02  0.9556267E-01
        1   -1    0    0  501    0  0.00000000000E+00  0.00000000000E+00  0.16431778716E+04  0.16431778716E+04  0.50400001928E-02 0. -1.
       -1   -1    0    0    0  501  0.00000000000E+00  0.00000000000E+00 -0.98005354231E+02  0.98005354361E+02  0.50400001928E-02 0.  1.
    10030    2    1    2    0    0  0.00000000000E+00  0.00000000000E+00  0.15451725173E+04  0.17411832259E+04  0.80259636054E+03 0.  0.
        3    1    3    3  502    0 -0.35845480916E+02  0.34940730919E+03  0.11936465161E+04  0.12442517357E+04  0.10100000352E+00 0. -1.
       -3    1    3    3    0  502  0.35845480916E+02 -0.34940730919E+03  0.35152600119E+03  0.49693149018E+03  0.10100000352E+00 0.  1.
</event>
<event>
 5   0  0.6536209E-03  0.7963815E+03  0.7818609E-02  0.9565269E-01
        2   -1    0    0  501    0  0.00000000000E+00  0.00000000000E+00  0.80021864055E+03  0.80021864055E+03  0.25500000920E-02 0.  1.
       -2   -1    0    0    0  501  0.00000000000E+00  0.00000000000E+00 -0.19814070802E+03  0.19814070804E+03  0.25500000920E-02 0. -1.
    10030    2    1    2    0    0  0.00000000000E+00  0.00000000000E+00  0.60207793252E+03  0.99835934859E+03  0.79638153675E+03 0.  0.
        3    1    3    3  502    0 -0.21791088049E+03 -0.30282229616E+00 -0.11675804813E+03  0.24721993355E+03  0.10100000352E+00 0. -1.
       -3    1    3    3    0  502  0.21791088049E+03  0.30282229616E+00  0.71883598066E+03  0.75113941504E+03  0.10100000352E+00 0.  1.
</event>
<event>
 5   0  0.5813850E-03  0.7907924E+03  0.7818609E-02  0.9573441E-01
        2   -1    0    0  501    0  0.00000000000E+00  0.00000000000E+00  0.18207544337E+04  0.18207544337E+04  0.25500000920E-02 0. -1.
       -2   -1    0    0    0  501  0.00000000000E+00  0.00000000000E+00 -0.85864495654E+02  0.85864495691E+02  0.25500000920E-02 0.  1.
    10030    2    1    2    0    0  0.00000000000E+00  0.00000000000E+00  0.17348899380E+04  0.19066189294E+04  0.79079241573E+03 0.  0.
        5    1    3    3  502    0  0.15460532414E+03 -0.62308878218E+02  0.17318257984E+04  0.17398355924E+04  0.46999998093E+01 0. -1.
       -5    1    3    3    0  502 -0.15460532414E+03  0.62308878218E+02  0.30641396646E+01  0.16678333702E+03  0.46999998093E+01 0.  1.
</event>
<event>
 5   0  0.5813850E-03  0.7988488E+03  0.7818609E-02  0.9561685E-01
       -2   -1    0    0    0  501  0.00000000000E+00  0.00000000000E+00  0.19787076419E+03  0.19787076421E+03  0.25500000920E-02 0.  1.
        2   -1    0    0  501    0  0.00000000000E+00  0.00000000000E+00 -0.80628300388E+03  0.80628300389E+03  0.25500000920E-02 0. -1.
    10030    2    1    2    0    0  0.00000000000E+00  0.00000000000E+00 -0.60841223969E+03  0.10041537681E+04  0.79884875701E+03 0.  0.
        5    1    3    3  502    0 -0.11111806431E+03  0.15313838895E+02  0.17763046753E+03  0.21013426867E+03  0.46999998093E+01 0.  1.
       -5    1    3    3    0  502  0.11111806431E+03 -0.15313838895E+02 -0.78604270723E+03  0.79401949942E+03  0.46999998093E+01 0. -1.
</event>
<event>
 5   0  0.3860515E-03  0.8012428E+03  0.7818609E-02  0.9558220E-01
       -1   -1    0    0    0  501  0.00000000000E+00  0.00000000000E+00  0.18462645806E+03  0.18462645813E+03  0.50400001928E-02 0. -1.
        1   -1    0    0  501    0  0.00000000000E+00  0.00000000000E+00 -0.86930942270E+03  0.86930942271E+03  0.50400001928E-02 0.  1.
    10030    2    1    2    0    0  0.00000000000E+00  0.00000000000E+00 -0.68468296464E+03  0.10539358808E+04  0.80124283389E+03 0.  0.
        4    1    3    3  502    0 -0.36791289930E+03  0.12548965297E+03 -0.46979291506E+03  0.60976598004E+03  0.12699999809E+01 0. -1.
       -4    1    3    3    0  502  0.36791289930E+03 -0.12548965297E+03 -0.21489004958E+03  0.44416990080E+03  0.12699999809E+01 0.  1.
</event>
<event>
 5   0  0.3753450E-03  0.7998922E+03  0.7818609E-02  0.9560173E-01
       -1   -1    0    0    0  501  0.00000000000E+00  0.00000000000E+00  0.29798683543E+03  0.29798683548E+03  0.50400001928E-02 0.  1.
        1   -1    0    0  501    0  0.00000000000E+00  0.00000000000E+00 -0.53679173806E+03  0.53679173809E+03  0.50400001928E-02 0. -1.
    10030    2    1    2    0    0  0.00000000000E+00  0.00000000000E+00 -0.23880490263E+03  0.83477857356E+03  0.79989217108E+03 0.  0.
        5    1    3    3  502    0 -0.33087634976E+03  0.20935991900E+03 -0.34464546441E+02  0.39309112108E+03  0.46999998093E+01 0.  1.
       -5    1    3    3    0  502  0.33087634976E+03 -0.20935991900E+03 -0.20434035619E+03  0.44168745248E+03  0.46999998093E+01 0. -1.
</event>
<event>
 5   0  0.3671128E-03  0.7931665E+03  0.7818609E-02  0.9569961E-01
       -1   -1    0    0    0  501  0.00000000000E+00  0.00000000000E+00  0.96762131762E+02  0.96762131893E+02  0.50400001928E-02 0.  1.
        1   -1    0    0  501    0  0.00000000000E+00  0.00000000000E+00 -0.16254114156E+04  0.16254114156E+04  0.50400001928E-02 0. -1.
    10030    2    1    2    0    0  0.00000000000E+00  0.00000000000E+00 -0.15286492838E+04  0.17221735475E+04  0.79316649875E+03 0.  0.
        2    1    3    3  502    0 -0.14871142559E+03  0.33905029684E+03 -0.45566837645E+03  0.58711486201E+03  0.25500000920E-02 0.  1.
       -2    1    3    3    0  502  0.14871142559E+03 -0.33905029684E+03 -0.10729809074E+04  0.11350586855E+04  0.25500000920E-02 0. -1.
</event>
<event>
 5   0  0.3714448E-03  0.8001674E+03  0.7818609E-02  0.9559775E-01
       -1   -1    0    0    0  501  0.00000000000E+00  0.00000000000E+00  0.19589060448E+03  0.19589060454E+03  0.50400001928E-02 0. -1.
        1   -1    0    0  501    0  0.00000000000E+00  0.00000000000E+00 -0.81712417920E+03  0.81712417922E+03  0.50400001928E-02 0.  1.
    10030    2    1    2    0    0  0.00000000000E+00  0.00000000000E+00 -0.62123357472E+03  0.10130147838E+04  0.80016735609E+03 0.  0.
        1    1    3    3  502    0  0.28733759786E+02  0.31897867645E+03 -0.61417775642E+03  0.69266683297E+03  0.50400001928E-02 0.  1.
       -1    1    3    3    0  502 -0.28733759786E+02 -0.31897867645E+03 -0.70558183025E+01  0.32034795080E+03  0.50400001928E-02 0. -1.
</event>
<event>
 5   0  0.2478000E-03  0.8020728E+03  0.7818609E-02  0.9557022E-01
       -3   -1    0    0    0  501  0.00000000000E+00  0.00000000000E+00  0.20535953767E+03  0.20535956250E+03  0.10100000352E+00 0.  1.
        3   -1    0    0  501    0  0.00000000000E+00  0.00000000000E+00 -0.78316384599E+03  0.78316385250E+03  0.10100000352E+00 0. -1.
    10030    2    1    2    0    0  0.00000000000E+00  0.00000000000E+00 -0.57780430832E+03  0.98852341500E+03  0.80207276683E+03 0.  0.
        1    1    3    3  502    0  0.11356454779E+03 -0.29797909525E+03 -0.58862525257E+03  0.66945360982E+03  0.50400001928E-02 0.  1.
       -1    1    3    3    0  502 -0.11356454779E+03  0.29797909525E+03  0.10820944244E+02  0.31906980518E+03  0.50400001928E-02 0. -1.
</event>
<event>
 5   0  0.3860515E-03  0.7989488E+03  0.7818609E-02  0.9561540E-01
       -1   -1    0    0    0  501  0.00000000000E+00  0.00000000000E+00  0.23390918957E+03  0.23390918963E+03  0.50400001928E-02 0. -1.
        1   -1    0    0  501    0  0.00000000000E+00  0.00000000000E+00 -0.68222976390E+03  0.68222976392E+03  0.50400001928E-02 0.  1.
    10030    2    1    2    0    0  0.00000000000E+00  0.00000000000E+00 -0.44832057433E+03  0.91613895355E+03  0.79894883743E+03 0.  0.
        4    1    3    3  502    0  0.28914655456E+03  0.24312760719E+03 -0.37305855499E+03  0.53093414069E+03  0.12699999809E+01 0.  1.
       -4    1    3    3    0  502 -0.28914655456E+03 -0.24312760719E+03 -0.75262019340E+02  0.38520481286E+03  0.12699999809E+01 0. -1.
</event>
<event>
 5   0  0.6536209E-03  0.7975325E+03  0.7818609E-02  0.9563596E-01
       -2   -1    0    0    0  501  0.00000000000E+00  0.00000000000E+00  0.13220004477E+03  0.13220004479E+03  0.25500000920E-02 0. -1.
        2   -1    0    0  501    0  0.00000000000E+00  0.00000000000E+00 -0.12028325429E+04  0.12028325430E+04  0.25500000920E-02 0.  1.
    10030    2    1    2    0    0  0.00000000000E+00  0.00000000000E+00 -0.10706324982E+04  0.13350325877E+04  0.79753248471E+03 0.  0.
        3    1    3    3  502    0  0.37515255558E+03  0.87731673251E+01 -0.30949932991E+03  0.48642188874E+03  0.10100000352E+00 0.  1.
       -3    1    3    3    0  502 -0.37515255558E+03 -0.87731673251E+01 -0.76113316827E+03  0.84861069901E+03  0.10100000352E+00 0. -1.
</event>
<event>
 5   0  0.5813850E-03  0.8008444E+03  0.7818609E-02  0.9558796E-01
       -2   -1    0    0    0  501  0.00000000000E+00  0.00000000000E+00  0.20472426559E+03  0.20472426561E+03  0.25500000920E-02 0. -1.
        2   -1    0    0  501    0  0.00000000000E+00  0.00000000000E+00 -0.78318963159E+03  0.78318963160E+03  0.25500000920E-02 0.  1.
    10030    2    1    2    0    0  0.00000000000E+00  0.00000000000E+00 -0.57846536600E+03  0.98791389720E+03  0.80084435980E+03 0.  0.
        5    1    3    3  502    0 -0.17283932249E+03 -0.23130948915E+03 -0.63140299500E+03  0.69431213677E+03  0.46999998093E+01 0.  1.
       -5    1    3    3    0  502  0.17283932249E+03  0.23130948915E+03  0.52937628998E+02  0.29360176043E+03  0.46999998093E+01 0. -1.
</event>
<event>
 5   0  0.5813850E-03  0.7991860E+03  0.7818609E-02  0.9561196E-01
        2   -1    0    0  501    0  0.00000000000E+00  0.00000000000E+00  0.70768460763E+03  0.70768460764E+03  0.25500000920E-02 0.  1.
       -2   -1    0    0    0  501  0.00000000000E+00  0.00000000000E+00 -0.22562953706E+03  0.22562953708E+03  0.25500000920E-02 0. -1.
    10030    2    1    2    0    0  0.00000000000E+00  0.00000000000E+00  0.48205507057E+03  0.93331414471E+03  0.79918596187E+03 0.  0.
        5    1    3    3  502    0 -0.20646364044E+03  0.74383245996E+02  0.63097181336E+03  0.66806258791E+03  0.46999998093E+01 0.  1.
       -5    1    3    3    0  502  0.20646364044E+03 -0.74383245996E+02 -0.14891674279E+03  0.26525155681E+03  0.46999998093E+01 0. -1.
</event>
<event>
 5   0  0.3714448E-03  0.7999835E+03  0.7818609E-02  0.9560041E-01
       -1   -1    0    0    0  501  0.00000000000E+00  0.00000000000E+00  0.48998431642E+03  0.48998431644E+03  0.50400001928E-02 0. -1.
        1   -1    0    0  501    0  0.00000000000E+00  0.00000000000E+00 -0.32652756863E+03  0.32652756867E+03  0.50400001928E-02 0.  1.
    10030    2    1    2    0    0  0.00000000000E+00  0.00000000000E+00  0.16345674778E+03  0.81651188511E+03  0.79998346866E+03 0.  0.
        1    1    3    3  502    0 -0.10763918648E+03 -0.18556963589E+03  0.42629949373E+03  0.47723531157E+03  0.50400001928E-02 0. -1.
       -1    1    3    3    0  502  0.10763918648E+03  0.18556963589E+03 -0.26284274595E+03  0.33927657354E+03  0.50400001928E-02 0.  1.
</event>
<event>
 5   0  0.6256781E-03  0.7974473E+03  0.7818609E-02  0.9563719E-01
       -2   -1    0    0    0  501  0.00000000000E+00  0.00000000000E+00  0.47191488516E+03  0.47191488516E+03  0.25500000920E-02 0.  1.
        2   -1    0    0  501    0  0.00000000000E+00  0.00000000000E+00 -0.33688394786E+03  0.33688394787E+03  0.25500000920E-02 0. -1.
    10030    2    1    2    0    0  0.00000000000E+00  0.00000000000E+00  0.13503093730E+03  0.80879883303E+03  0.79744730126E+03 0.  0.
        1    1    3    3  502    0  0.11657140908E+03  0.97856817786E+02 -0.30626233733E+03  0.34199630041E+03  0.50400001928E-02 0. -1.
       -1    1    3    3    0  502 -0.11657140908E+03 -0.97856817786E+02  0.44129327463E+03  0.46680253262E+03  0.50400001928E-02 0.  1.
</event>
<event>
 5   0  0.6256781E-03  0.8032855E+03  0.7818609E-02  0.9555274E-01
       -2   -1    0    0    0  501  0.00000000000E+00  0.00000000000E+00  0.50904495326E+03  0.50904495327E+03  0.25500000920E-02 0.  1.
        2   -1    0    0  501    0  0.00000000000E+00  0.00000000000E+00 -0.31690106086E+03  0.31690106087E+03  0.25500000920E-02 0. -1.
    10030    2    1    2    0    0  0.00000000000E+00  0.00000000000E+00  0.19214389240E+03  0.82594601414E+03  0.80328546787E+03 0.  0.
        1    1    3    3  502    0 -0.16655351442E+03 -0.28918195053E+03 -0.13372918295E+03  0.35951323769E+03  0.50400001928E-02 0. -1.
       -1    1    3    3    0  502  0.16655351442E+03  0.28918195053E+03  0.32587307536E+03  0.46643277645E+03  0.50400001928E-02 0.  1.
</event>
<event>
 5   0  0.3714448E-03  0.8020381E+03  0.7818609E-02  0.9557072E-01
       -1   -1    0    0    0  501  0.00000000000E+00  0.00000000000E+00  0.15521099977E+03  0.15521099985E+03  0.50400001928E-02 0. -1.
        1   -1    0    0  501    0  0.00000000000E+00  0.00000000000E+00 -0.10361138187E+04  0.10361138187E+04  0.50400001928E-02 0.  1.
    10030    2    1    2    0    0  0.00000000000E+00  0.00000000000E+00 -0.88090281893E+03  0.11913248186E+04  0.80203805828E+03 0.  0.
        1    1    3    3  502    0 -0.29723313542E+03  0.36293960902E+02 -0.83666298653E+03  0.88863363736E+03  0.50400001928E-02 0.  1.
       -1    1    3    3    0  502  0.29723313542E+03 -0.36293960902E+02 -0.44239832405E+02  0.30269118121E+03  0.50400001928E-02 0. -1.
</event>
<event>
 5   0  0.6337108E-03  0.7944216E+03  0.7818609E-02  0.9568127E-01
       -2   -1    0    0    0  501  0.00000000000E+00  0.00000000000E+00  0.10441392663E+03  0.10441392666E+03  0.25500000920E-02 0.  1.
        2   -1    0    0  501    0  0.00000000000E+00  0.00000000000E+00 -0.15110667141E+04  0.15110667141E+04  0.25500000920E-02 0. -1.
    10030    2    1    2    0    0  0.00000000000E+00  0.00000000000E+00 -0.14066527875E+04  0.16154806408E+04  0.79442157335E+03 0.  0.
        4    1    3    3  502    0 -0.28247352580E+03  0.12240379177E+03 -0.19291094241E+03  0.36330459069E+03  0.12699999809E+01 0.  1.
       -4    1    3    3    0  502  0.28247352580E+03 -0.12240379177E+03 -0.12137418451E+04  0.12521760501E+04  0.12699999809E+01 0. -1.
</event>
<event>
 5   0  0.3671128E-03  0.8040081E+03  0.7818609E-02  0.9554234E-01
       -1   -1    0    0    0  501  0.00000000000E+00  0.00000000000E+00  0.16600412067E+03  0.16600412074E+03  0.50400001928E-02 0.  1.
        1   -1    0    0  501    0  0.00000000000E+00  0.00000000000E+00 -0.97351359587E+03  0.97351359588E+03  0.50400001928E-02 0. -1.
    10030    2    1    2    0    0  0.00000000000E+00  0.00000000000E+00 -0.80750947520E+03  0.11395177166E+04  0.80400813053E+03 0.  0.
        2    1    3    3  502    0 -0.93732384835E+01  0.25356183501E+03  0.38173160680E+02  0.25659043626E+03  0.25500000920E-02 0.  1.
       -2    1    3    3    0  502  0.93732384835E+01 -0.25356183501E+03 -0.84568263588E+03  0.88292728037E+03  0.25500000920E-02 0. -1.
</event>
<event>
 5   0  0.6153659E-03  0.7976487E+03  0.7818609E-02  0.9563427E-01
        2   -1    0    0  501    0  0.00000000000E+00  0.00000000000E+00  0.12725286045E+04  0.12725286045E+04  0.25500000920E-02 0.  1.
       -2   -1    0    0    0  501  0.00000000000E+00  0.00000000000E+00 -0.12499590232E+03  0.12499590234E+03  0.25500000920E-02 0. -1.
    10030    2    1    2    0    0  0.00000000000E+00  0.00000000000E+00  0.11475327022E+04  0.13975245068E+04  0.79764869752E+03 0.  0.
        2    1    3    3  502    0  0.68206297386E+02 -0.22585765162E+03  0.10385714563E+02  0.23616020171E+03  0.25500000920E-02 0. -1.
       -2    1    3    3    0  502 -0.68206297386E+02  0.22585765162E+03  0.11371469876E+04  0.11613643051E+04  0.25500000920E-02 0.  1.
</event>
<event>
 5   0  0.3714448E-03  0.7995277E+03  0.7818609E-02  0.9560701E-01
        1   -1    0    0  501    0  0.00000000000E+00  0.00000000000E+00  0.56340400231E+03  0.56340400233E+03  0.50400001928E-02 0.  1.
       -1   -1    0    0    0  501  0.00000000000E+00  0.00000000000E+00 -0.28365283005E+03  0.28365283009E+03  0.50400001928E-02 0. -1.
    10030    2    1    2    0    0  0.00000000000E+00  0.00000000000E+00  0.27975117226E+03  0.84705683242E+03  0.79952770995E+03 0.  0.
        1    1    3    3  502    0  0.12485316392E+03  0.32419923926E+03  0.34941492873E+03  0.49273141946E+03  0.50400001928E-02 0.  1.
       -1    1    3    3    0  502 -0.12485316392E+03 -0.32419923926E+03 -0.69663756473E+02  0.35432541296E+03  0.50400001928E-02 0. -1.
</event>
<event>
 5   0  0.6153659E-03  0.8029150E+03  0.7818609E-02  0.9555807E-01
       -2   -1    0    0    0  501  0.00000000000E+00  0.00000000000E+00  0.48873204923E+03  0.48873204924E+03  0.25500000920E-02 0.  1.
        2   -1    0    0  501    0  0.00000000000E+00  0.00000000000E+00 -0.32976783607E+03  0.32976783608E+03  0.25500000920E-02 0. -1.
    10030    2    1    2    0    0  0.00000000000E+00  0.00000000000E+00  0.15896421316E+03  0.81849988532E+03  0.80291496511E+03 0.  0.
        2    1    3    3  502    0 -0.29352410198E+02  0.33050327295E+03 -0.15090043831E+03  0.36450640557E+03  0.25500000920E-02 0.  1.
       -2    1    3    3    0  502  0.29352410198E+02 -0.33050327295E+03  0.30986465146E+03  0.45399347974E+03  0.25500000920E-02 0. -1.
</event>
<event>
 5   0  0.5813850E-03  0.7943728E+03  0.7818609E-02  0.9568198E-01
        2   -1    0    0  501    0  0.00000000000E+00  0.00000000000E+00  0.58911008939E+03  0.58911008939E+03  0.25500000920E-02 0. -1.
       -2   -1    0    0    0  501  0.00000000000E+00  0.00000000000E+00 -0.26778871509E+03  0.26778871510E+03  0.25500000920E-02 0.  1.
    10030    2    1    2    0    0  0.00000000000E+00  0.00000000000E+00  0.32132137430E+03  0.85689880449E+03  0.79437279382E+03 0.  0.
        5    1    3    3  502    0 -0.30959605901E+03  0.19000863417E+03  0.33386671327E+03  0.49339849315E+03  0.46999998093E+01 0. -1.
       -5    1    3    3    0  502  0.30959605901E+03 -0.19000863417E+03 -0.12545338974E+02  0.36350031134E+03  0.46999998093E+01 0.  1.
</event>
<event>
 5   0  0.5813850E-03  0.8006630E+03  0.7818609E-02  0.9559058E-01
       -2   -1    0    0    0  501  0.00000000000E+00  0.00000000000E+00  0.13209473589E+03  0.13209473591E+03  0.25500000920E-02 0. -1.
        2   -1    0    0  501    0  0.00000000000E+00  0.00000000000E+00 -0.12132603845E+04  0.12132603845E+04  0.25500000920E-02 0.  1.
    10030    2    1    2    0    0  0.00000000000E+00  0.00000000000E+00 -0.10811656486E+04  0.13453551204E+04  0.80066300044E+03 0.  0.
        5    1    3    3  502    0  0.80396835725E+02 -0.32198688450E+03 -0.16446541068E+03  0.37041890650E+03  0.46999998093E+01 0.  1.
       -5    1    3    3    0  502 -0.80396835725E+02  0.32198688450E+03 -0.91670023788E+03  0.97493621387E+03  0.46999998093E+01 0. -1.
</event>
<event>
 5   0  0.5813850E-03  0.7988272E+03  0.7818609E-02  0.9561716E-01
       -2   -1    0    0    0  501  0.00000000000E+00  0.00000000000E+00  0.34211381854E+03  0.34211381855E+03  0.25500000920E-02 0. -1.
        2   -1    0    0  501    0  0.00000000000E+00  0.00000000000E+00 -0.46631039073E+03  0.46631039073E+03  0.25500000920E-02 0.  1.
    10030    2    1    2    0    0  0.00000000000E+00  0.00000000000E+00 -0.12419657218E+03  0.80842420929E+03  0.79882721137E+03 0.  0.
        5    1    3    3  502    0 -0.53520200806E+02 -0.14737896437E+03  0.30963489961E+03  0.34710348902E+03  0.46999998093E+01 0. -1.
       -5    1    3    3    0  502  0.53520200806E+02  0.14737896437E+03 -0.43383147180E+03  0.46132072027E+03  0.46999998093E+01 0.  1.
</event>
<event>
 5   0  0.3714448E-03  0.7813626E+03  0.7818609E-02  0.9587393E-01
       -1   -1    0    0    0  501  0.00000000000E+00  0.00000000000E+00  0.27028856471E+03  0.27028856476E+03  0.50400001928E-02 0.  1.
        1   -1    0    0  501    0  0.00000000000E+00  0.00000000000E+00 -0.56469975841E+03  0.56469975844E+03  0.50400001928E-02 0. -1.
    10030    2    1    2    0    0  0.00000000000E+00  0.00000000000E+00 -0.29441119371E+03  0.83498832319E+03  0.78136262317E+03 0.  0.
        1    1    3    3  502    0 -0.11974848095E+03 -0.74070733842E+02 -0.53664164675E+03  0.55480665943E+03  0.50400001928E-02 0. -1.
       -1    1    3    3    0  502  0.11974848095E+03  0.74070733842E+02  0.24223045304E+03  0.28018166376E+03  0.50400001928E-02 0.  1.
</event>
<event>
 5   0  0.3714448E-03  0.8007193E+03  0.7818609E-02  0.9558977E-01
       -1   -1    0    0    0  501  0.00000000000E+00  0.00000000000E+00  0.43563286835E+03  0.43563286838E+03  0.50400001928E-02 0. -1.
        1   -1    0    0  501    0  0.00000000000E+00  0.00000000000E+00 -0.36794247523E+03  0.36794247526E+03  0.50400001928E-02 0.  1.
    10030    2    1    2    0    0  0.00000000000E+00  0.00000000000E+00  0.67690393123E+02  0.80357534364E+03  0.80071926640E+03 0.  0.
        1    1    3    3  502    0 -0.26371203568E+03 -0.23037238344E+03 -0.16094081082E+03  0.38537957578E+03  0.50400001928E-02 0.  1.
       -1    1    3    3    0  502  0.26371203568E+03  0.23037238344E+03  0.22863120395E+03  0.41819576786E+03  0.50400001928E-02 0. -1.
</event>
<event>
 5   0  0.3627496E-03  0.8008371E+03  0.7818609E-02  0.9558806E-01
        1   -1    0    0  501    0  0.00000000000E+00  0.00000000000E+00  0.59145223970E+03  0.59145223972E+03  0.50400001928E-02 0. -1.
       -1   -1    0    0    0  501  0.00000000000E+00  0.00000000000E+00 -0.27108701158E+03  0.27108701163E+03  0.50400001928E-02 0.  1.
    10030    2    1    2    0    0  0.00000000000E+00  0.00000000000E+00  0.32036522811E+03  0.86253925135E+03  0.80083711249E+03 0.  0.
        3    1    3    3  502    0  0.20001412771E+03  0.16342605577E+03 -0.16936788274E+03  0.30886763653E+03  0.10100000352E+00 0.  1.
       -3    1    3    3    0  502 -0.20001412771E+03 -0.16342605577E+03  0.48973311086E+03  0.55367161482E+03  0.10100000352E+00 0. -1.
</event>
<event>
 5   0  0.6256781E-03  0.8088197E+03  0.7818609E-02  0.9547338E-01
        2   -1    0    0  501    0  0.00000000000E+00  0.00000000000E+00  0.15035894908E+04  0.15035894908E+04  0.25500000920E-02 0.  1.
       -2   -1    0    0    0  501  0.00000000000E+00  0.00000000000E+00 -0.10877126073E+03  0.10877126076E+03  0.25500000920E-02 0. -1.
    10030    2    1    2    0    0  0.00000000000E+00  0.00000000000E+00  0.13948182300E+04  0.16123607515E+04  0.80881969450E+03 0.  0.
        1    1    3    3  502    0 -0.25914571588E+03  0.23345212994E+03  0.11054188055E+04  0.11591406880E+04  0.50400001928E-02 0.  1.
       -1    1    3    3    0  502  0.25914571588E+03 -0.23345212994E+03  0.28939942457E+03  0.45322006354E+03  0.50400001928E-02 0. -1.
</event>
<event>
 5   0  0.3627496E-03  0.7977751E+03  0.7818609E-02  0.9563243E-01
        1   -1    0    0  501    0  0.00000000000E+00  0.00000000000E+00  0.42099536986E+03  0.42099536989E+03  0.50400001928E-02 0.  1.
       -1   -1    0    0    0  501  0.00000000000E+00  0.00000000000E+00 -0.37794066969E+03  0.37794066973E+03  0.50400001928E-02 0. -1.
    10030    2    1    2    0    0  0.00000000000E+00  0.00000000000E+00  0.43054700169E+02  0.79893603962E+03  0.79777508622E+03 0.  0.
        3    1    3    3  502    0 -0.13542171805E+03  0.36184046282E+03 -0.77832452207E+02  0.39411351546E+03  0.10100000352E+00 0.  1.
       -3    1    3    3    0  502  0.13542171805E+03 -0.36184046282E+03  0.12088715238E+03  0.40482252416E+03  0.10100000352E+00 0. -1.
</event>
<event>
 5   0  0.6256781E-03  0.8009045E+03  0.7818609E-02  0.9558709E-01
        2   -1    0    0  501    0  0.00000000000E+00  0.00000000000E+00  0.16337987373E+04  0.16337987373E+04  0.25500000920E-02 0.  1.
       -2   -1    0    0    0  501  0.00000000000E+00  0.00000000000E+00 -0.98152840995E+02  0.98152841028E+02  0.25500000920E-02 0. -1.
    10030    2    1    2    0    0  0.00000000000E+00  0.00000000000E+00  0.15356458963E+04  0.17319515783E+04  0.80090445800E+03 0.  0.
        1    1    3    3  502    0  0.10986671632E+03  0.30071555631E+03  0.24764770576E+03  0.40475909792E+03  0.50400001928E-02 0. -1.
       -1    1    3    3    0  502 -0.10986671632E+03 -0.30071555631E+03  0.12879981905E+04  0.13271924804E+04  0.50400001928E-02 0.  1.
</event>
<event>
 5   0  0.6536209E-03  0.8024437E+03  0.7818609E-02  0.9556487E-01
       -2   -1    0    0    0  501  0.00000000000E+00  0.00000000000E+00  0.45952303490E+03  0.45952303490E+03  0.25500000920E-02 0.  1.
        2   -1    0    0  501    0  0.00000000000E+00  0.00000000000E+00 -0.35031751794E+03  0.35031751795E+03  0.25500000920E-02 0. -1.
    10030    2    1    2    0    0  0.00000000000E+00  0.00000000000E+00  0.10920551696E+03  0.80984055285E+03  0.80244369031E+03 0.  0.
        3    1    3    3  502    0  0.49794793506E+02 -0.24462328180E+03 -0.26239271481E+03  0.36217401679E+03  0.10100000352E+00 0. -1.
       -3    1    3    3    0  502 -0.49794793506E+02  0.24462328180E+03  0.37159823176E+03  0.44766653606E+03  0.10100000352E+00 0.  1.
</event>
<event>
 5   0  0.6153659E-03  0.7973176E+03  0.7818609E-02  0.9563908E-01
       -2   -1    0    0    0  501  0.00000000000E+00  0.00000000000E+00  0.20812369482E+03  0.20812369483E+03  0.25500000920E-02 0.  1.
        2   -1    0    0  501    0  0.00000000000E+00  0.00000000000E+00 -0.76362681878E+03  0.76362681878E+03  0.25500000920E-02 0. -1.
    10030    2    1    2    0    0  0.00000000000E+00  0.00000000000E+00 -0.55550312396E+03  0.97175051361E+03  0.79731759041E+03 0.  0.
        2    1    3    3  502    0 -0.23698716011E+03 -0.15886949907E+03  0.61598748616E+02  0.29188497328E+03  0.25500000920E-02 0.  1.
       -2    1    3    3    0  502  0.23698716011E+03  0.15886949907E+03 -0.61710187258E+03  0.67986554033E+03  0.25500000920E-02 0. -1.
</event>
<event>
 5   0  0.3671128E-03  0.7945630E+03  0.7818609E-02  0.9567920E-01
       -1   -1    0    0    0  501  0.00000000000E+00  0.00000000000E+00  0.22578374429E+03  0.22578374435E+03  0.50400001928E-02 0. -1.
        1   -1    0    0  501    0  0.00000000000E+00  0.00000000000E+00 -0.69904324596E+03  0.69904324598E+03  0.50400001928E-02 0.  1.
    10030    2    1    2    0    0  0.00000000000E+00  0.00000000000E+00 -0.47325950167E+03  0.92482699033E+03  0.79456302841E+03 0.  0.
        2    1    3    3  502    0  0.48339246708E+02  0.29625290591E+03 -0.53954637738E+03  0.61742429526E+03  0.25500000920E-02 0.  1.
       -2    1    3    3    0  502 -0.48339246708E+02 -0.29625290591E+03  0.66286875708E+02  0.30740269506E+03  0.25500000920E-02 0. -1.
</event>
<event>
 5   0  0.5813850E-03  0.8164187E+03  0.7818609E-02  0.9536551E-01
       -2   -1    0    0    0  501  0.00000000000E+00  0.00000000000E+00  0.14066465642E+03  0.14066465644E+03  0.25500000920E-02 0.  1.
        2   -1    0    0  501    0  0.00000000000E+00  0.00000000000E+00 -0.11846251724E+04  0.11846251724E+04  0.25500000920E-02 0. -1.
    10030    2    1    2    0    0  0.00000000000E+00  0.00000000000E+00 -0.10439605159E+04  0.13252898288E+04  0.81641874763E+03 0.  0.
        5    1    3    3  502    0  0.24485998137E+02  0.59063012306E+02 -0.11764019934E+04  0.11781475899E+04  0.46999998093E+01 0. -1.
       -5    1    3    3    0  502 -0.24485998137E+02 -0.59063012306E+02  0.13244147744E+03  0.14714223891E+03  0.46999998093E+01 0.  1.
</event>
<event>
 5   0  0.3753450E-03  0.8005670E+03  0.7818609E-02  0.9559197E-01
        1   -1    0    0  501    0  0.00000000000E+00  0.00000000000E+00  0.35113929592E+03  0.35113929595E+03  0.50400001928E-02 0. -1.
       -1   -1    0    0    0  501  0.00000000000E+00  0.00000000000E+00 -0.45630578348E+03  0.45630578351E+03  0.50400001928E-02 0.  1.
    10030    2    1    2    0    0  0.00000000000E+00  0.00000000000E+00 -0.10516648756E+03  0.80744507946E+03  0.80056702795E+03 0.  0.
        5    1    3    3  502    0 -0.29014399328E+02  0.23379481834E+03 -0.37894160986E+03  0.44622940976E+03  0.46999998093E+01 0.  1.
       -5    1    3    3    0  502  0.29014399328E+02 -0.23379481834E+03  0.27377512230E+03  0.36121566970E+03  0.46999998093E+01 0. -1.
</event>
<event>
 5   0  0.5813850E-03  0.7973646E+03  0.7818609E-02  0.9563840E-01
       -2   -1    0    0    0  501  0.00000000000E+00  0.00000000000E+00  0.84698368707E+03  0.84698368708E+03  0.25500000920E-02 0. -1.
        2   -1    0    0  501    0  0.00000000000E+00  0.00000000000E+00 -0.18766307548E+03  0.18766307549E+03  0.25500000920E-02 0.  1.
    10030    2    1    2    0    0  0.00000000000E+00  0.00000000000E+00  0.65932061160E+03  0.10346467626E+04  0.79736456808E+03 0.  0.
        5    1    3    3  502    0 -0.36238035388E+03 -0.13324329525E+03  0.20086463282E+03  0.43524933925E+03  0.46999998093E+01 0.  1.
       -5    1    3    3    0  502  0.36238035388E+03  0.13324329525E+03  0.45845597878E+03  0.59939742332E+03  0.46999998093E+01 0. -1.
</event>
<event>
 5   0  0.6256781E-03  0.7949158E+03  0.7818609E-02  0.9567406E-01
        2   -1    0    0  501    0  0.00000000000E+00  0.00000000000E+00  0.12272216133E+04  0.12272216133E+04  0.25500000920E-02 0. -1.
       -2   -1    0    0    0  501  0.00000000000E+00  0.00000000000E+00 -0.12872393683E+03  0.12872393685E+03  0.25500000920E-02 0.  1.
    10030    2    1    2    0    0  0.00000000000E+00  0.00000000000E+00  0.10984976764E+04  0.13559455501E+04  0.79491583815E+03 0.  0.
        1    1    3    3  502    0  0.40692259367E+02  0.15613485098E+03 -0.70345499588E+02  0.17601829735E+03  0.50400001928E-02 0.  1.
       -1    1    3    3    0  502 -0.40692259367E+02 -0.15613485098E+03  0.11688431760E+04  0.11799272528E+04  0.50400001928E-02 0. -1.
</event>
<event>
 5   0  0.6337108E-03  0.8013198E+03  0.7818609E-02  0.9558109E-01
        2   -1    0    0  501    0  0.00000000000E+00  0.00000000000E+00  0.37712874564E+03  0.37712874565E+03  0.25500000920E-02 0. -1.
       -2   -1    0    0    0  501  0.00000000000E+00  0.00000000000E+00 -0.42565934490E+03  0.42565934491E+03  0.25500000920E-02 0.  1.
    10030    2    1    2    0    0  0.00000000000E+00  0.00000000000E+00 -0.48530599258E+02  0.80278809056E+03  0.80131984830E+03 0.  0.
        4    1    3    3  502    0  0.24031791411E+03  0.45773408337E+01  0.29687329960E+03  0.38198039322E+03  0.12699999809E+01 0. -1.
       -4    1    3    3    0  502 -0.24031791411E+03 -0.45773408337E+01 -0.34540389886E+03  0.42080769734E+03  0.12699999809E+01 0.  1.
</event>
<event>
 5   0  0.3671128E-03  0.8006065E+03  0.7818609E-02  0.9559140E-01
        1   -1    0    0  501    0  0.00000000000E+00  0.00000000000E+00  0.14127805418E+04  0.14127805418E+04  0.50400001928E-02 0. -1.
       -1   -1    0    0    0  501  0.00000000000E+00  0.00000000000E+00 -0.11342362119E+03  0.11342362130E+03  0.50400001928E-02 0.  1.
    10030    2    1    2    0    0  0.00000000000E+00  0.00000000000E+00  0.12993569206E+04  0.15262041631E+04  0.80060648283E+03 0.  0.
        2    1    3    3  502    0 -0.17878686107E+03 -0.15509827492E+03  0.12651021491E+04  0.12870523160E+04  0.25500000920E-02 0. -1.
       -2    1    3    3    0  502  0.17878686107E+03  0.15509827492E+03  0.34254771503E+02  0.23915184706E+03  0.25500000920E-02 0.  1.
</event>
<event>
 5   0  0.3671128E-03  0.7975379E+03  0.7818609E-02  0.9563588E-01
       -1   -1    0    0    0  501  0.00000000000E+00  0.00000000000E+00  0.31596898369E+03  0.31596898373E+03  0.50400001928E-02 0. -1.
        1   -1    0    0  501    0  0.00000000000E+00  0.00000000000E+00 -0.50326669041E+03  0.50326669043E+03  0.50400001928E-02 0.  1.
    10030    2    1    2    0    0  0.00000000000E+00  0.00000000000E+00 -0.18729770672E+03  0.81923567416E+03  0.79753787301E+03 0.  0.
        2    1    3    3  502    0  0.32690196537E+03  0.13412922377E+03 -0.28350453451E+03  0.45302358076E+03  0.25500000920E-02 0.  1.
       -2    1    3    3    0  502 -0.32690196537E+03 -0.13412922377E+03  0.96206827791E+02  0.36621209340E+03  0.25500000920E-02 0. -1.
</event>
<event>
 5   0  0.5813850E-03  0.8006926E+03  0.7818609E-02  0.9559015E-01
        2   -1    0    0  501    0  0.00000000000E+00  0.00000000000E+00  0.58974640939E+03  0.58974640939E+03  0.25500000920E-02 0.  1.
       -2   -1    0    0    0  501  0.00000000000E+00  0.00000000000E+00 -0.27177298689E+03  0.27177298690E+03  0.25500000920E-02 0. -1.
    10030    2    1    2    0    0  0.00000000000E+00  0.00000000000E+00  0.31797342250E+03  0.86151939629E+03  0.80069255821E+03 0.  0.
        5    1    3    3  502    0  0.10054890599E+02 -0.36962073472E+03 -0.60769337162E+01  0.36983727162E+03  0.46999998093E+01 0.  1.
       -5    1    3    3    0  502 -0.10054890599E+02  0.36962073472E+03  0.32405035622E+03  0.49168212467E+03  0.46999998093E+01 0. -1.
</event>
<event>
 5   0  0.6536209E-03  0.8063828E+03  0.7818609E-02  0.9550824E-01
       -2   -1    0    0    0  501  0.00000000000E+00  0.00000000000E+00  0.14020373654E+03  0.14020373656E+03  0.25500000920E-02 0. -1.
        2   -1    0    0  501    0  0.00000000000E+00  0.00000000000E+00 -0.11594791167E+04  0.11594791167E+04  0.25500000920E-02 0.  1.
    10030    2    1    2    0    0  0.00000000000E+00  0.00000000000E+00 -0.10192753802E+04  0.12996828533E+04  0.80638279897E+03 0.  0.
        3    1    3    3  502    0  0.26385814426E+03 -0.47403906519E+02 -0.24250946113E+02  0.26917720787E+03  0.10100000352E+00 0. -1.
       -3    1    3    3    0  502 -0.26385814426E+03  0.47403906519E+02 -0.99502443408E+03  0.10305056454E+04  0.10100000352E+00 0.  1.
</event>
<event>
 5   0  0.3671128E-03  0.8011108E+03  0.7818609E-02  0.9558411E-01
        1   -1    0    0  501    0  0.00000000000E+00  0.00000000000E+00  0.11740024012E+04  0.11740024012E+04  0.50400001928E-02 0. -1.
       -1   -1    0    0    0  501  0.00000000000E+00  0.00000000000E+00 -0.13666466052E+03  0.13666466061E+03  0.50400001928E-02 0.  1.
    10030    2    1    2    0    0  0.00000000000E+00  0.00000000000E+00  0.10373377406E+04  0.13106670618E+04  0.80111082797E+03 0.  0.
        2    1    3    3  502    0  0.38353815148E+03 -0.25702495365E+01  0.70760762186E+03  0.80487058981E+03  0.25500000920E-02 0. -1.
       -2    1    3    3    0  502 -0.38353815148E+03  0.25702495365E+01  0.32973011878E+03  0.50579647198E+03  0.25500000920E-02 0.  1.
</event>
<event>
 5   0  0.6337108E-03  0.7992115E+03  0.7818609E-02  0.9561159E-01
       -2   -1    0    0    0  501  0.00000000000E+00  0.00000000000E+00  0.30595453505E+03  0.30595453506E+03  0.25500000920E-02 0.  1.
        2   -1    0    0  501    0  0.00000000000E+00  0.00000000000E+00 -0.52192318269E+03  0.52192318269E+03  0.25500000920E-02 0. -1.
    10030    2    1    2    0    0  0.00000000000E+00  0.00000000000E+00 -0.21596864764E+03  0.82787771775E+03  0.79921152319E+03 0.  0.
        4    1    3    3  502    0  0.25278605478E+03  0.34687008657E+02  0.21058372428E+03  0.33083394006E+03  0.12699999809E+01 0.  1.
       -4    1    3    3    0  502 -0.25278605478E+03 -0.34687008657E+02 -0.42655237192E+03  0.49704377770E+03  0.12699999809E+01 0. -1.
</event>
<event>
 5   0  0.3671128E-03  0.7992149E+03  0.7818609E-02  0.9561154E-01
        1   -1    0    0  501    0  0.00000000000E+00  0.00000000000E+00  0.58353602108E+03  0.58353602111E+03  0.50400001928E-02 0. -1.
       -1   -1    0    0    0  501  0.00000000000E+00  0.00000000000E+00 -0.27365253903E+03  0.27365253907E+03  0.50400001928E-02 0.  1.
    10030    2    1    2    0    0  0.00000000000E+00  0.00000000000E+00  0.30988348206E+03  0.85718856018E+03  0.79921489929E+03 0.  0.
        2    1    3    3  502    0 -0.35319390053E+03 -0.19469356779E+02  0.35433328678E+03  0.50067660755E+03  0.25500000920E-02 0. -1.
       -2    1    3    3    0  502  0.35319390053E+03  0.19469356779E+02 -0.44449804720E+02  0.35651195263E+03  0.25500000920E-02 0.  1.
</event>
<event>
 5   0  0.2478000E-03  0.8014293E+03  0.7818609E-02  0.9557951E-01
        3   -1    0    0  501    0  0.00000000000E+00  0.00000000000E+00  0.13335797276E+03  0.13335801101E+03  0.10100000352E+00 0.  1.
       -3   -1    0    0    0  501  0.00000000000E+00  0.00000000000E+00 -0.12040690856E+04  0.12040690898E+04  0.10100000352E+00 0. -1.
    10030    2    1    2    0    0  0.00000000000E+00  0.00000000000E+00 -0.10707111128E+04  0.13374271009E+04  0.80142932498E+03 0.  0.
        3    1    3    3  502    0 -0.36923099092E+03 -0.16743649580E+02 -0.79367168519E+03  0.87551506471E+03  0.10100000352E+00 0. -1.
       -3    1    3    3    0  502  0.36923099092E+03  0.16743649580E+02 -0.27703942765E+03  0.46191203615E+03  0.10100000352E+00 0.  1.
</event>
<event>
 5   0  0.3627496E-03  0.8315006E+03  0.7818609E-02  0.9515508E-01
       -1   -1    0    0    0  501  0.00000000000E+00  0.00000000000E+00  0.20912969405E+03  0.20912969411E+03  0.50400001928E-02 0.  1.
        1   -1    0    0  501    0  0.00000000000E+00  0.00000000000E+00 -0.82651254119E+03  0.82651254120E+03  0.50400001928E-02 0. -1.
    10030    2    1    2    0    0  0.00000000000E+00  0.00000000000E+00 -0.61738284714E+03  0.10356422353E+04  0.83150060711E+03 0.  0.
        3    1    3    3  502    0 -0.88247270538E+02  0.25213100827E+03  0.88098158489E+02  0.28128085932E+03  0.10100000352E+00 0.  1.
       -3    1    3    3    0  502  0.88247270538E+02 -0.25213100827E+03 -0.70548100562E+03  0.75436137599E+03  0.10100000352E+00 0. -1.
</event>
<event>
 5   0  0.6256781E-03  0.7997246E+03  0.7818609E-02  0.9560416E-01
       -2   -1    0    0    0  501  0.00000000000E+00  0.00000000000E+00  0.29146759540E+03  0.29146759541E+03  0.25500000920E-02 0.  1.
        2   -1    0    0  501    0  0.00000000000E+00  0.00000000000E+00 -0.54856828362E+03  0.54856828363E+03  0.25500000920E-02 0. -1.
    10030    2    1    2    0    0  0.00000000000E+00  0.00000000000E+00 -0.25710068822E+03  0.84003587903E+03  0.79972464897E+03 0.  0.
        1    1    3    3  502    0  0.12610550846E+03 -0.33621148392E+03 -0.31334162999E+03  0.47657500805E+03  0.50400001928E-02 0. -1.
       -1    1    3    3    0  502 -0.12610550846E+03  0.33621148392E+03  0.56240941767E+02  0.36346087099E+03  0.50400001928E-02 0.  1.
</event>
<event>
 5   0  0.3671128E-03  0.8043972E+03  0.7818609E-02  0.9553674E-01
        1   -1    0    0  501    0  0.00000000000E+00  0.00000000000E+00  0.98969070715E+03  0.98969070716E+03  0.50400001928E-02 0. -1.
       -1   -1    0    0    0  501  0.00000000000E+00  0.00000000000E+00 -0.16344875264E+03  0.16344875271E+03  0.50400001928E-02 0.  1.
    10030    2    1    2    0    0  0.00000000000E+00  0.00000000000E+00  0.82624195451E+03  0.11531394599E+04  0.80439719450E+03 0.  0.
        2    1    3    3  502    0 -0.31271468277E+03  0.95604252768E+02  0.77435501974E+02  0.33604598337E+03  0.25500000920E-02 0.  1.
       -2    1    3    3    0  502  0.31271468277E+03 -0.95604252768E+02  0.74880645254E+03  0.81709347650E+03  0.25500000920E-02 0. -1.
</event>
<event>
 5   0  0.6256781E-03  0.8010312E+03  0.7818609E-02  0.9558526E-01
       -2   -1    0    0    0  501  0.00000000000E+00  0.00000000000E+00  0.97802285394E+02  0.97802285427E+02  0.25500000920E-02 0. -1.
        2   -1    0    0  501    0  0.00000000000E+00  0.00000000000E+00 -0.16401738392E+04  0.16401738392E+04  0.25500000920E-02 0.  1.
    10030    2    1    2    0    0  0.00000000000E+00  0.00000000000E+00 -0.15423715538E+04  0.17379761247E+04  0.80103121025E+03 0.  0.
        1    1    3    3  502    0 -0.69037957045E+02  0.36977340154E+03 -0.47279342321E+03  0.60417897105E+03  0.50400001928E-02 0. -1.
       -1    1    3    3    0  502  0.69037957045E+02 -0.36977340154E+03 -0.10695781306E+04  0.11337971536E+04  0.50400001928E-02 0.  1.
</event>
<event>
 5   0  0.2478000E-03  0.7973205E+03  0.7818609E-02  0.9563904E-01
        3   -1    0    0  501    0  0.00000000000E+00  0.00000000000E+00  0.67949793713E+03  0.67949794463E+03  0.10100000352E+00 0.  1.
       -3   -1    0    0    0  501  0.00000000000E+00  0.00000000000E+00 -0.23389322456E+03  0.23389324637E+03  0.10100000352E+00 0. -1.
    10030    2    1    2    0    0  0.00000000000E+00  0.00000000000E+00  0.44560471257E+03  0.91339119100E+03  0.79732045498E+03 0.  0.
        5    1    3    3  502    0  0.29931899228E+03  0.16122937837E+03 -0.15634687073E+02  0.34037230356E+03  0.46999998093E+01 0. -1.
       -5    1    3    3    0  502 -0.29931899228E+03 -0.16122937837E+03  0.46123939964E+03  0.57301888744E+03  0.46999998093E+01 0.  1.
</event>
<event>
 5   0  0.6536209E-03  0.8010454E+03  0.7818609E-02  0.9558505E-01
        2   -1    0    0  501    0  0.00000000000E+00  0.00000000000E+00  0.52131088417E+03  0.52131088418E+03  0.25500000920E-02 0.  1.
       -2   -1    0    0    0  501  0.00000000000E+00  0.00000000000E+00 -0.30772122386E+03  0.30772122388E+03  0.25500000920E-02 0. -1.
    10030    2    1    2    0    0  0.00000000000E+00  0.00000000000E+00  0.21358966031E+03  0.82903210805E+03  0.80104537524E+03 0.  0.
        3    1    3    3  502    0 -0.48352402416E+02 -0.47783353480E+02  0.51529672065E+03  0.51976141085E+03  0.10100000352E+00 0.  1.
       -3    1    3    3    0  502  0.48352402416E+02  0.47783353480E+02 -0.30170706034E+03  0.30927069721E+03  0.10100000352E+00 0. -1.
</event>
<event>
 5   0  0.3714448E-03  0.7988395E+03  0.7818609E-02  0.9561698E-01
        1   -1    0    0  501    0  0.00000000000E+00  0.00000000000E+00  0.89836724242E+03  0.89836724244E+03  0.50400001928E-02 0.  1.
       -1   -1    0    0    0  501  0.00000000000E+00  0.00000000000E+00 -0.17758453177E+03  0.17758453185E+03  0.50400001928E-02 0. -1.
    10030    2    1    2    0    0  0.00000000000E+00  0.00000000000E+00  0.72078271065E+03  0.10759517743E+04  0.79883947362E+03 0.  0.
        1    1    3    3  502    0  0.14485149014E+03 -0.70902438601E+02  0.85256444160E+03  0.86768383476E+03  0.50400001928E-02 0.  1.
       -1    1    3    3    0  502 -0.14485149014E+03  0.70902438601E+02 -0.13178173095E+03  0.20826793953E+03  0.50400001928E-02 0. -1.
</event>
<event>
 5   0  0.3714448E-03  0.7844635E+03  0.7818609E-02  0.9582782E-01
        1   -1    0    0  501    0  0.00000000000E+00  0.00000000000E+00  0.27844957022E+03  0.27844957026E+03  0.50400001928E-02 0.  1.
       -1   -1    0    0    0  501  0.00000000000E+00  0.00000000000E+00 -0.55250847279E+03  0.55250847282E+03  0.50400001928E-02 0. -1.
    10030    2    1    2    0    0  0.00000000000E+00  0.00000000000E+00 -0.27405890258E+03  0.83095804308E+03  0.78446350283E+03 0.  0.
        1    1    3    3  502    0 -0.38307516599E+03  0.80888955311E+02 -0.16200981577E+03  0.42371781450E+03  0.50400001928E-02 0. -1.
       -1    1    3    3    0  502  0.38307516599E+03 -0.80888955311E+02 -0.11204908681E+03  0.40724022858E+03  0.50400001928E-02 0.  1.
</event>
<event>
 5   0  0.6256781E-03  0.8017449E+03  0.7818609E-02  0.9557495E-01
        2   -1    0    0  501    0  0.00000000000E+00  0.00000000000E+00  0.22198004232E+04  0.22198004232E+04  0.25500000920E-02 0.  1.
       -2   -1    0    0    0  501  0.00000000000E+00  0.00000000000E+00 -0.72393325139E+02  0.72393325184E+02  0.25500000920E-02 0. -1.
    10030    2    1    2    0    0  0.00000000000E+00  0.00000000000E+00  0.21474070981E+04  0.22921937484E+04  0.80174493159E+03 0.  0.
        1    1    3    3  502    0 -0.58221115242E+02 -0.33091690485E+03  0.16987939760E+04  0.17317034011E+04  0.50400001928E-02 0.  1.
       -1    1    3    3    0  502  0.58221115242E+02  0.33091690485E+03  0.44861312203E+03  0.56049034734E+03  0.50400001928E-02 0. -1.
</event>
<event>
 5   0  0.2478000E-03  0.7990044E+03  0.7818609E-02  0.9561459E-01
       -4   -1    0    0    0  501  0.00000000000E+00  0.00000000000E+00  0.35217927383E+03  0.35218156371E+03  0.12699999809E+01 0. -1.
        4   -1    0    0  501    0  0.00000000000E+00  0.00000000000E+00 -0.45317934877E+03  0.45318112830E+03  0.12699999809E+01 0.  1.
    10030    2    1    2    0    0  0.00000000000E+00  0.00000000000E+00 -0.10100007494E+03  0.80536269201E+03  0.79900441210E+03 0.  0.
        5    1    3    3  502    0 -0.76623763363E+02 -0.30846891039E+03  0.19340835477E+03  0.37209293393E+03  0.46999998093E+01 0. -1.
       -5    1    3    3    0  502  0.76623763363E+02  0.30846891039E+03 -0.29440842971E+03  0.43326975808E+03  0.46999998093E+01 0.  1.
</event>
<event>
 5   0  0.3714448E-03  0.7995775E+03  0.7818609E-02  0.9560629E-01
       -1   -1    0    0    0  501  0.00000000000E+00  0.00000000000E+00  0.59397008821E+03  0.59397008823E+03  0.50400001928E-02 0. -1.
        1   -1    0    0  501    0  0.00000000000E+00  0.00000000000E+00 -0.26908937419E+03  0.26908937423E+03  0.50400001928E-02 0.  1.
    10030    2    1    2    0    0  0.00000000000E+00  0.00000000000E+00  0.32488071402E+03  0.86305946246E+03  0.79957748681E+03 0.  0.
        1    1    3    3  502    0 -0.25946399096E+03  0.71918585918E+01 -0.16576965904E+03  0.30798192369E+03  0.50400001928E-02 0.  1.
       -1    1    3    3    0  502  0.25946399096E+03 -0.71918585918E+01  0.49065037307E+03  0.55507753877E+03  0.50400001928E-02 0. -1.
</event>
<event>
 5   0  0.6536209E-03  0.8006476E+03  0.7818609E-02  0.9559080E-01
        2   -1    0    0  501    0  0.00000000000E+00  0.00000000000E+00  0.29430487713E+03  0.29430487715E+03  0.25500000920E-02 0. -1.
       -2   -1    0    0    0  501  0.00000000000E+00  0.00000000000E+00 -0.54453442581E+03  0.54453442582E+03  0.25500000920E-02 0.  1.
    10030    2    1    2    0    0  0.00000000000E+00  0.00000000000E+00 -0.25022954868E+03  0.83883930296E+03  0.80064758113E+03 0.  0.
        3    1    3    3  502    0 -0.39969119956E+03  0.13405529085E+02 -0.10618748522E+03  0.41377355574E+03  0.10100000352E+00 0. -1.
       -3    1    3    3    0  502  0.39969119956E+03 -0.13405529085E+02 -0.14404206346E+03  0.42506574722E+03  0.10100000352E+00 0.  1.
</event>
<event>
 5   0  0.3860515E-03  0.8022875E+03  0.7818609E-02  0.9556712E-01
        1   -1    0    0  501    0  0.00000000000E+00  0.00000000000E+00  0.76640655807E+03  0.76640655809E+03  0.50400001928E-02 0. -1.
       -1   -1    0    0    0  501  0.00000000000E+00  0.00000000000E+00 -0.20996209570E+03  0.20996209576E+03  0.50400001928E-02 0.  1.
    10030    2    1    2    0    0  0.00000000000E+00  0.00000000000E+00  0.55644446237E+03  0.97636865385E+03  0.80228754728E+03 0.  0.
        4    1    3    3  502    0  0.48883616878E+02  0.11751244801E+03  0.74118060921E+03  0.75202998066E+03  0.12699999809E+01 0. -1.
       -4    1    3    3    0  502 -0.48883616878E+02 -0.11751244801E+03 -0.18473614685E+03  0.22433867319E+03  0.12699999809E+01 0.  1.
</event>
<event>
 5   0  0.3860515E-03  0.8031134E+03  0.7818609E-02  0.9555522E-01
       -1   -1    0    0    0  501  0.00000000000E+00  0.00000000000E+00  0.15653283258E+03  0.15653283266E+03  0.50400001928E-02 0. -1.
        1   -1    0    0  501    0  0.00000000000E+00  0.00000000000E+00 -0.10301211058E+04  0.10301211058E+04  0.50400001928E-02 0.  1.
    10030    2    1    2    0    0  0.00000000000E+00  0.00000000000E+00 -0.87358827324E+03  0.11866539385E+04  0.80311337841E+03 0.  0.
        4    1    3    3  502    0 -0.30122823071E+03 -0.23849237745E+03 -0.60929084974E+03  0.72031521819E+03  0.12699999809E+01 0.  1.
       -4    1    3    3    0  502  0.30122823071E+03  0.23849237745E+03 -0.26429742350E+03  0.46633872029E+03  0.12699999809E+01 0. -1.
</event>
<event>
 5   0  0.3860515E-03  0.8094850E+03  0.7818609E-02  0.9546389E-01
       -1   -1    0    0    0  501  0.00000000000E+00  0.00000000000E+00  0.92651089271E+03  0.92651089272E+03  0.50400001928E-02 0. -1.
        1   -1    0    0  501    0  0.00000000000E+00  0.00000000000E+00 -0.17681010047E+03  0.17681010054E+03  0.50400001928E-02 0.  1.
    10030    2    1    2    0    0  0.00000000000E+00  0.00000000000E+00  0.74970079224E+03  0.11033209933E+04  0.80948498212E+03 0.  0.
        4    1    3    3  502    0 -0.27922260738E+03  0.23686211615E+03  0.60992567953E+03  0.71139291112E+03  0.12699999809E+01 0. -1.
       -4    1    3    3    0  502  0.27922260738E+03 -0.23686211615E+03  0.13977511271E+03  0.39192808214E+03  0.12699999809E+01 0.  1.
</event>
<event>
 5   0  0.6153659E-03  0.7987394E+03  0.7818609E-02  0.9561844E-01
       -2   -1    0    0    0  501  0.00000000000E+00  0.00000000000E+00  0.40597316209E+03  0.40597316210E+03  0.25500000920E-02 0. -1.
        2   -1    0    0  501    0  0.00000000000E+00  0.00000000000E+00 -0.39287366457E+03  0.39287366458E+03  0.25500000920E-02 0.  1.
    10030    2    1    2    0    0  0.00000000000E+00  0.00000000000E+00  0.13099497523E+02  0.79884682668E+03  0.79873941662E+03 0.  0.
        2    1    3    3  502    0  0.27246341696E+03 -0.34931727229E+02 -0.28338512091E+03  0.39466905871E+03  0.25500000920E-02 0.  1.
       -2    1    3    3    0  502 -0.27246341696E+03  0.34931727229E+02  0.29648461843E+03  0.40417776797E+03  0.25500000920E-02 0. -1.
</event>
<event>
 5   0  0.6337108E-03  0.7998341E+03  0.7818609E-02  0.9560257E-01
        2   -1    0    0  501    0  0.00000000000E+00  0.00000000000E+00  0.73884050729E+03  0.73884050730E+03  0.25500000920E-02 0. -1.
       -2   -1    0    0    0  501  0.00000000000E+00  0.00000000000E+00 -0.21646571847E+03  0.21646571848E+03  0.25500000920E-02 0.  1.
    10030    2    1    2    0    0  0.00000000000E+00  0.00000000000E+00  0.52237478882E+03  0.95530622578E+03  0.79983408593E+03 0.  0.
        4    1    3    3  502    0  0.89865851168E+02 -0.38091608799E+03  0.16299296553E+03  0.42395902751E+03  0.12699999809E+01 0.  1.
       -4    1    3    3    0  502 -0.89865851168E+02  0.38091608799E+03  0.35938182329E+03  0.53134719827E+03  0.12699999809E+01 0. -1.
</event>
<event>
 5   0  0.6536209E-03  0.8017337E+03  0.7818609E-02  0.9557511E-01
        2   -1    0    0  501    0  0.00000000000E+00  0.00000000000E+00  0.15959492257E+03  0.15959492259E+03  0.25500000920E-02 0. -1.
       -2   -1    0    0    0  501  0.00000000000E+00  0.00000000000E+00 -0.10068880857E+04  0.10068880857E+04  0.25500000920E-02 0.  1.
    10030    2    1    2    0    0  0.00000000000E+00  0.00000000000E+00 -0.84729316311E+03  0.11664830083E+04  0.80173368667E+03 0.  0.
        3    1    3    3  502    0 -0.45044324842E+02 -0.17643613672E+03  0.95947091448E+02  0.20582651943E+03  0.10100000352E+00 0. -1.
       -3    1    3    3    0  502  0.45044324842E+02  0.17643613672E+03 -0.94324025456E+03  0.96065648885E+03  0.10100000352E+00 0.  1.
</event>
<event>
 5   0  0.3627496E-03  0.7986041E+03  0.7818609E-02  0.9562040E-01
       -1   -1    0    0    0  501  0.00000000000E+00  0.00000000000E+00  0.35127197323E+03  0.35127197327E+03  0.50400001928E-02 0. -1.
        1   -1    0    0  501    0  0.00000000000E+00  0.00000000000E+00 -0.45389942442E+03  0.45389942444E+03  0.50400001928E-02 0.  1.
    10030    2    1    2    0    0  0.00000000000E+00  0.00000000000E+00 -0.10262745118E+03  0.80517139771E+03  0.79860414847E+03 0.  0.
        3    1    3    3  502    0 -0.20879839517E+03 -0.33844514772E+03 -0.14958240037E+02  0.39795181490E+03  0.10100000352E+00 0. -1.
       -3    1    3    3    0  502  0.20879839517E+03  0.33844514772E+03 -0.87669211145E+02  0.40721958281E+03  0.10100000352E+00 0.  1.
</event>
<event>
 5   0  0.5813850E-03  0.8134000E+03  0.7818609E-02  0.9540821E-01
       -2   -1    0    0    0  501  0.00000000000E+00  0.00000000000E+00  0.98307515882E+02  0.98307515915E+02  0.25500000920E-02 0.  1.
        2   -1    0    0  501    0  0.00000000000E+00  0.00000000000E+00 -0.16825251739E+04  0.16825251739E+04  0.25500000920E-02 0. -1.
    10030    2    1    2    0    0  0.00000000000E+00  0.00000000000E+00 -0.15842176580E+04  0.17808326898E+04  0.81339995152E+03 0.  0.
        5    1    3    3  502    0  0.77517913994E+02  0.32302132080E+03 -0.13057059716E+04  0.13473091608E+04  0.46999998093E+01 0. -1.
       -5    1    3    3    0  502 -0.77517913994E+02 -0.32302132080E+03 -0.27851168641E+03  0.43352352894E+03  0.46999998093E+01 0.  1.
</event>
<event>
 5   0  0.2478000E-03  0.7987857E+03  0.7818609E-02  0.9561776E-01
       -3   -1    0    0    0  501  0.00000000000E+00  0.00000000000E+00  0.33731416125E+03  0.33731417637E+03  0.10100000352E+00 0.  1.
        3   -1    0    0  501    0  0.00000000000E+00  0.00000000000E+00 -0.47289634216E+03  0.47289635295E+03  0.10100000352E+00 0. -1.
    10030    2    1    2    0    0  0.00000000000E+00  0.00000000000E+00 -0.13558218091E+03  0.81021052932E+03  0.79878568718E+03 0.  0.
        1    1    3    3  502    0 -0.35806548393E+03  0.15795534776E+03  0.13060107117E+02  0.39157547049E+03  0.50400001928E-02 0. -1.
       -1    1    3    3    0  502  0.35806548393E+03 -0.15795534776E+03 -0.14864228803E+03  0.41863505883E+03  0.50400001928E-02 0.  1.
</event>
<event>
 5   0  0.6153659E-03  0.8001010E+03  0.7818609E-02  0.9559871E-01
       -2   -1    0    0    0  501  0.00000000000E+00  0.00000000000E+00  0.41140748524E+03  0.41140748524E+03  0.25500000920E-02 0. -1.
        2   -1    0    0  501    0  0.00000000000E+00  0.00000000000E+00 -0.38900703118E+03  0.38900703119E+03  0.25500000920E-02 0.  1.
    10030    2    1    2    0    0  0.00000000000E+00  0.00000000000E+00  0.22400454055E+02  0.80041451643E+03  0.80010100473E+03 0.  0.
        2    1    3    3  502    0 -0.13999004176E+03 -0.21592757942E+03  0.31761826042E+03  0.40878269374E+03  0.25500000920E-02 0. -1.
       -2    1    3    3    0  502  0.13999004176E+03  0.21592757942E+03 -0.29521780636E+03  0.39163182269E+03  0.25500000920E-02 0.  1.
</event>
<event>
 5   0  0.3627496E-03  0.8039829E+03  0.7818609E-02  0.9554270E-01
        1   -1    0    0  501    0  0.00000000000E+00  0.00000000000E+00  0.71625399047E+03  0.71625399049E+03  0.50400001928E-02 0.  1.
       -1   -1    0    0    0  501  0.00000000000E+00  0.00000000000E+00 -0.22561429836E+03  0.22561429842E+03  0.50400001928E-02 0. -1.
    10030    2    1    2    0    0  0.00000000000E+00  0.00000000000E+00  0.49063969210E+03  0.94186828891E+03  0.80398293898E+03 0.  0.
        3    1    3    3  502    0  0.32424058551E+03 -0.22284186492E+03  0.14866782878E+03  0.42058600496E+03  0.10100000352E+00 0.  1.
       -3    1    3    3    0  502 -0.32424058551E+03  0.22284186492E+03  0.34197186333E+03  0.52128228395E+03  0.10100000352E+00 0. -1.
</event>
<event>
 5   0  0.5813850E-03  0.7989914E+03  0.7818609E-02  0.9561478E-01
       -2   -1    0    0    0  501  0.00000000000E+00  0.00000000000E+00  0.64383173664E+02  0.64383173714E+02  0.25500000920E-02 0.  1.
        2   -1    0    0  501    0  0.00000000000E+00  0.00000000000E+00 -0.24788589284E+04  0.24788589284E+04  0.25500000920E-02 0. -1.
    10030    2    1    2    0    0  0.00000000000E+00  0.00000000000E+00 -0.24144757547E+04  0.25432421021E+04  0.79899137652E+03 0.  0.
        5    1    3    3  502    0  0.31814629081E+01  0.10957950142E+03 -0.24299533620E+04  0.24324294892E+04  0.46999998093E+01 0. -1.
       -5    1    3    3    0  502 -0.31814629081E+01 -0.10957950142E+03  0.15477607262E+02  0.11081261283E+03  0.46999998093E+01 0.  1.
</event>
<event>
 5   0  0.3753450E-03  0.7997578E+03  0.7818609E-02  0.9560368E-01
        1   -1    0    0  501    0  0.00000000000E+00  0.00000000000E+00  0.67033215219E+03  0.67033215221E+03  0.50400001928E-02 0. -1.
       -1   -1    0    0    0  501  0.00000000000E+00  0.00000000000E+00 -0.23854311207E+03  0.23854311212E+03  0.50400001928E-02 0.  1.
    10030    2    1    2    0    0  0.00000000000E+00  0.00000000000E+00  0.43178904012E+03  0.90887526433E+03  0.79975775766E+03 0.  0.
        5    1    3    3  502    0  0.63914447796E+02  0.20806739111E+03  0.59707414015E+03  0.63552868914E+03  0.46999998093E+01 0. -1.
       -5    1    3    3    0  502 -0.63914447796E+02 -0.20806739111E+03 -0.16528510002E+03  0.27334657519E+03  0.46999998093E+01 0.  1.
</event>
<event>
 5   0  0.5813850E-03  0.8302974E+03  0.7818609E-02  0.9517169E-01
       -2   -1    0    0    0  501  0.00000000000E+00  0.00000000000E+00  0.19330393540E+03  0.19330393542E+03  0.25500000920E-02 0. -1.
        2   -1    0    0  501    0  0.00000000000E+00  0.00000000000E+00 -0.89159309207E+03  0.89159309207E+03  0.25500000920E-02 0.  1.
    10030    2    1    2    0    0  0.00000000000E+00  0.00000000000E+00 -0.69828915666E+03  0.10848970275E+04  0.83029742498E+03 0.  0.
        5    1    3    3  502    0 -0.65537136233E+02  0.73101417100E+02 -0.87617031943E+03  0.88166629292E+03  0.46999998093E+01 0.  1.
       -5    1    3    3    0  502  0.65537136233E+02 -0.73101417100E+02  0.17788116277E+03  0.20323073457E+03  0.46999998093E+01 0. -1.
</event>
<event>
 5   0  0.6256781E-03  0.8428900E+03  0.7818609E-02  0.9499930E-01
        2   -1    0    0  501    0  0.00000000000E+00  0.00000000000E+00  0.92399872466E+03  0.92399872466E+03  0.25500000920E-02 0.  1.
       -2   -1    0    0    0  501  0.00000000000E+00  0.00000000000E+00 -0.19222527178E+03  0.19222527180E+03  0.25500000920E-02 0. -1.
    10030    2    1    2    0    0  0.00000000000E+00  0.00000000000E+00  0.73177345288E+03  0.11162239965E+04  0.84289004261E+03 0.  0.
        1    1    3    3  502    0 -0.71699385455E+02 -0.99680702597E+02 -0.16801218844E+03  0.20809887034E+03  0.50400001928E-02 0. -1.
       -1    1    3    3    0  502  0.71699385455E+02  0.99680702597E+02  0.89978564132E+03  0.90812512613E+03  0.50400001928E-02 0.  1.
</event>
<event>
 5   0  0.6337108E-03  0.8001914E+03  0.7818609E-02  0.9559740E-01
       -2   -1    0    0    0  501  0.00000000000E+00  0.00000000000E+00  0.14855344624E+03  0.14855344627E+03  0.25500000920E-02 0.  1.
        2   -1    0    0  501    0  0.00000000000E+00  0.00000000000E+00 -0.10775688069E+04  0.10775688069E+04  0.25500000920E-02 0. -1.
    10030    2    1    2    0    0  0.00000000000E+00  0.00000000000E+00 -0.92901536066E+03  0.12261222532E+04  0.80019137672E+03 0.  0.
        4    1    3    3  502    0  0.31694985810E+02 -0.19274815585E+03  0.70518155929E+02  0.20767967384E+03  0.12699999809E+01 0.  1.
       -4    1    3    3    0  502 -0.31694985810E+02  0.19274815585E+03 -0.99953351659E+03  0.10184425793E+04  0.12699999809E+01 0. -1.
</event>
<event>
 5   0  0.3627496E-03  0.7938890E+03  0.7818609E-02  0.9568905E-01
        1   -1    0    0  501    0  0.00000000000E+00  0.00000000000E+00  0.74842626125E+03  0.74842626127E+03  0.50400001928E-02 0. -1.
       -1   -1    0    0    0  501  0.00000000000E+00  0.00000000000E+00 -0.21052834425E+03  0.21052834431E+03  0.50400001928E-02 0.  1.
    10030    2    1    2    0    0  0.00000000000E+00  0.00000000000E+00  0.53789791700E+03  0.95895460558E+03  0.79388901394E+03 0.  0.
        3    1    3    3  502    0 -0.31610530339E+03  0.18354207709E+03  0.45590236994E+03  0.58434342472E+03  0.10100000352E+00 0. -1.
       -3    1    3    3    0  502  0.31610530339E+03 -0.18354207709E+03  0.81995547057E+02  0.37461118087E+03  0.10100000352E+00 0.  1.
</event>
<event>
 5   0  0.3860515E-03  0.8044889E+03  0.7818609E-02  0.9553542E-01
       -1   -1    0    0    0  501  0.00000000000E+00  0.00000000000E+00  0.20719651339E+03  0.20719651345E+03  0.50400001928E-02 0. -1.
        1   -1    0    0  501    0  0.00000000000E+00  0.00000000000E+00 -0.78090412753E+03  0.78090412755E+03  0.50400001928E-02 0.  1.
    10030    2    1    2    0    0  0.00000000000E+00  0.00000000000E+00 -0.57370761414E+03  0.98810064100E+03  0.80448893729E+03 0.  0.
        4    1    3    3  502    0 -0.39282671252E+03  0.78489352048E+02 -0.24213537518E+03  0.46808605755E+03  0.12699999809E+01 0. -1.
       -4    1    3    3    0  502  0.39282671252E+03 -0.78489352048E+02 -0.33157223896E+03  0.52001458345E+03  0.12699999809E+01 0.  1.
</event>
<event>
 5   0  0.6256781E-03  0.7974393E+03  0.7818609E-02  0.9563731E-01
        2   -1    0    0  501    0  0.00000000000E+00  0.00000000000E+00  0.31634572357E+03  0.31634572358E+03  0.25500000920E-02 0. -1.
       -2   -1    0    0    0  501  0.00000000000E+00  0.00000000000E+00 -0.50254306960E+03  0.50254306961E+03  0.25500000920E-02 0.  1.
    10030    2    1    2    0    0  0.00000000000E+00  0.00000000000E+00 -0.18619734603E+03  0.81888879319E+03  0.79743927916E+03 0.  0.
        1    1    3    3  502    0 -0.28691087880E+03  0.26635752608E+03 -0.15480081223E+02  0.39179563169E+03  0.50400001928E-02 0. -1.
       -1    1    3    3    0  502  0.28691087880E+03 -0.26635752608E+03 -0.17071726480E+03  0.42709316150E+03  0.50400001928E-02 0.  1.
</event>
<event>
 5   0  0.3860515E-03  0.8003252E+03  0.7818609E-02  0.9559546E-01
        1   -1    0    0  501    0  0.00000000000E+00  0.00000000000E+00  0.31015191877E+03  0.31015191881E+03  0.50400001928E-02 0. -1.
       -1   -1    0    0    0  501  0.00000000000E+00  0.00000000000E+00 -0.51629576515E+03  0.51629576518E+03  0.50400001928E-02 0.  1.
    10030    2    1    2    0    0  0.00000000000E+00  0.00000000000E+00 -0.20614384638E+03  0.82644768399E+03  0.80032523949E+03 0.  0.
        4    1    3    3  502    0  0.40372375278E+02  0.72439615323E+02  0.30117863620E+03  0.31239015726E+03  0.12699999809E+01 0. -1.
       -4    1    3    3    0  502 -0.40372375278E+02 -0.72439615323E+02 -0.50732248258E+03  0.51405752672E+03  0.12699999809E+01 0.  1.
</event>
<event>
 5   0  0.6337108E-03  0.7989675E+03  0.7818609E-02  0.9561513E-01
       -2   -1    0    0    0  501  0.00000000000E+00  0.00000000000E+00  0.16094413540E+03  0.16094413542E+03  0.25500000920E-02 0.  1.
        2   -1    0    0  501    0  0.00000000000E+00  0.00000000000E+00 -0.99156921945E+03  0.99156921945E+03  0.25500000920E-02 0. -1.
    10030    2    1    2    0    0  0.00000000000E+00  0.00000000000E+00 -0.83062508405E+03  0.11525133549E+04  0.79896746049E+03 0.  0.
        4    1    3    3  502    0 -0.76389859502E+02 -0.76328534639E+02  0.13948747090E+03  0.17640811567E+03  0.12699999809E+01 0.  1.
       -4    1    3    3    0  502  0.76389859502E+02  0.76328534639E+02 -0.97011255495E+03  0.97610523921E+03  0.12699999809E+01 0. -1.
</event>
<event>
 5   0  0.5813850E-03  0.7979493E+03  0.7818609E-02  0.9562990E-01
        2   -1    0    0  501    0  0.00000000000E+00  0.00000000000E+00  0.13302701323E+04  0.13302701323E+04  0.25500000920E-02 0.  1.
       -2   -1    0    0    0  501  0.00000000000E+00  0.00000000000E+00 -0.11966049915E+03  0.11966049917E+03  0.25500000920E-02 0. -1.
    10030    2    1    2    0    0  0.00000000000E+00  0.00000000000E+00  0.12106096332E+04  0.14499306315E+04  0.79794934189E+03 0.  0.
        5    1    3    3  502    0 -0.64302767246E+02  0.32998902657E+03  0.21503156788E+03  0.39910934431E+03  0.46999998093E+01 0. -1.
       -5    1    3    3    0  502  0.64302767246E+02 -0.32998902657E+03  0.99557806530E+03  0.10508212872E+04  0.46999998093E+01 0.  1.
</event>
<event>
 5   0  0.5813850E-03  0.8034251E+03  0.7818609E-02  0.9555073E-01
        2   -1    0    0  501    0  0.00000000000E+00  0.00000000000E+00  0.40496529346E+03  0.40496529347E+03  0.25500000920E-02 0.  1.
       -2   -1    0    0    0  501  0.00000000000E+00  0.00000000000E+00 -0.39848589302E+03  0.39848589302E+03  0.25500000920E-02 0. -1.
    10030    2    1    2    0    0  0.00000000000E+00  0.00000000000E+00  0.64794004480E+01  0.80345118649E+03  0.80342505963E+03 0.  0.
        5    1    3    3  502    0  0.13073657579E+03  0.36701634465E+03  0.10100696857E+03  0.40251403353E+03  0.46999998093E+01 0. -1.
       -5    1    3    3    0  502 -0.13073657579E+03 -0.36701634465E+03 -0.94527568124E+02  0.40093715296E+03  0.46999998093E+01 0.  1.
</event>
<event>
 5   0  0.3671128E-03  0.7956772E+03  0.7818609E-02  0.9566295E-01
       -1   -1    0    0    0  501  0.00000000000E+00  0.00000000000E+00  0.85484764312E+03  0.85484764313E+03  0.50400001928E-02 0.  1.
        1   -1    0    0  501    0  0.00000000000E+00  0.00000000000E+00 -0.18515057993E+03  0.18515058000E+03  0.50400001928E-02 0. -1.
    10030    2    1    2    0    0  0.00000000000E+00  0.00000000000E+00  0.66969706319E+03  0.10399982231E+04  0.79567716298E+03 0.  0.
        2    1    3    3  502    0 -0.88170084716E+02 -0.97504015052E+02  0.82563982703E+03  0.83603954499E+03  0.25500000920E-02 0.  1.
       -2    1    3    3    0  502  0.88170084716E+02  0.97504015052E+02 -0.15594276385E+03  0.20395867815E+03  0.25500000920E-02 0. -1.
</event>
<event>
 5   0  0.3671128E-03  0.8005602E+03  0.7818609E-02  0.9559207E-01
        1   -1    0    0  501    0  0.00000000000E+00  0.00000000000E+00  0.35903430382E+03  0.35903430385E+03  0.50400001928E-02 0. -1.
       -1   -1    0    0    0  501  0.00000000000E+00  0.00000000000E+00 -0.44626416650E+03  0.44626416653E+03  0.50400001928E-02 0.  1.
    10030    2    1    2    0    0  0.00000000000E+00  0.00000000000E+00 -0.87229862682E+02  0.80529847038E+03  0.80056016480E+03 0.  0.
        2    1    3    3  502    0  0.28179128315E+03  0.23955361283E+03 -0.19759570572E+03  0.41932841974E+03  0.25500000920E-02 0.  1.
       -2    1    3    3    0  502 -0.28179128315E+03 -0.23955361283E+03  0.11036584304E+03  0.38597005064E+03  0.25500000920E-02 0. -1.
</event>
<event>
 5   0  0.2478000E-03  0.7838167E+03  0.7818609E-02  0.9583742E-01
        3   -1    0    0  501    0  0.00000000000E+00  0.00000000000E+00  0.21097310087E+04  0.21097310111E+04  0.10100000352E+00 0. -1.
       -3   -1    0    0    0  501  0.00000000000E+00  0.00000000000E+00 -0.72801729789E+02  0.72801799849E+02  0.10100000352E+00 0.  1.
    10030    2    1    2    0    0  0.00000000000E+00  0.00000000000E+00  0.20369292789E+04  0.21825328110E+04  0.78381667733E+03 0.  0.
        4    1    3    3  502    0  0.17284062755E+03  0.68174956294E+01  0.19976812333E+04  0.20051564237E+04  0.12699999809E+01 0. -1.
       -4    1    3    3    0  502 -0.17284062755E+03 -0.68174956294E+01  0.39248045639E+02  0.17737638728E+03  0.12699999809E+01 0.  1.
</event>
<event>
 5   0  0.3714448E-03  0.7994778E+03  0.7818609E-02  0.9560773E-01
        1   -1    0    0  501    0  0.00000000000E+00  0.00000000000E+00  0.40475327627E+03  0.40475327630E+03  0.50400001928E-02 0.  1.
       -1   -1    0    0    0  501  0.00000000000E+00  0.00000000000E+00 -0.39478660352E+03  0.39478660355E+03  0.50400001928E-02 0. -1.
    10030    2    1    2    0    0  0.00000000000E+00  0.00000000000E+00  0.99666727522E+01  0.79953987986E+03  0.79947775761E+03 0.  0.
        1    1    3    3  502    0  0.38210739340E+03  0.10217457058E+03 -0.52861180840E+02  0.39904887849E+03  0.50400001928E-02 0. -1.
       -1    1    3    3    0  502 -0.38210739340E+03 -0.10217457058E+03  0.62827853593E+02  0.40049100136E+03  0.50400001928E-02 0.  1.
</event>
<event>
 5   0  0.5813850E-03  0.7818297E+03  0.7818609E-02  0.9586697E-01
        2   -1    0    0  501    0  0.00000000000E+00  0.00000000000E+00  0.46734218440E+03  0.46734218441E+03  0.25500000920E-02 0.  1.
       -2   -1    0    0    0  501  0.00000000000E+00  0.00000000000E+00 -0.32698616151E+03  0.32698616152E+03  0.25500000920E-02 0. -1.
    10030    2    1    2    0    0  0.00000000000E+00  0.00000000000E+00  0.14035602289E+03  0.79432834592E+03  0.78182971802E+03 0.  0.
        5    1    3    3  502    0 -0.19186827710E+03  0.20897274583E+03 -0.20302466104E+03  0.34888987839E+03  0.46999998093E+01 0. -1.
       -5    1    3    3    0  502  0.19186827710E+03 -0.20897274583E+03  0.34338068393E+03  0.44543846753E+03  0.46999998093E+01 0.  1.
</event>
<event>
 5   0  0.6337108E-03  0.8015012E+03  0.7818609E-02  0.9557847E-01
       -2   -1    0    0    0  501  0.00000000000E+00  0.00000000000E+00  0.57442017328E+03  0.57442017328E+03  0.25500000920E-02 0.  1.
        2   -1    0    0  501    0  0.00000000000E+00  0.00000000000E+00 -0.27958809882E+03  0.27958809883E+03  0.25500000920E-02 0. -1.
    10030    2    1    2    0    0  0.00000000000E+00  0.00000000000E+00  0.29483207446E+03  0.85400827211E+03  0.80150120194E+03 0.  0.
        4    1    3    3  502    0  0.26333569335E+01  0.12879306816E+03 -0.25692372128E+03  0.28741259616E+03  0.12699999809E+01 0. -1.
       -4    1    3    3    0  502 -0.26333569335E+01 -0.12879306816E+03  0.55175579574E+03  0.56659567595E+03  0.12699999809E+01 0.  1.
</event>
<event>
 5   0  0.6256781E-03  0.8007657E+03  0.7818609E-02  0.9558910E-01
        2   -1    0    0  501    0  0.00000000000E+00  0.00000000000E+00  0.61516549277E+03  0.61516549277E+03  0.25500000920E-02 0. -1.
       -2   -1    0    0    0  501  0.00000000000E+00  0.00000000000E+00 -0.26059070727E+03  0.26059070728E+03  0.25500000920E-02 0.  1.
    10030    2    1    2    0    0  0.00000000000E+00  0.00000000000E+00  0.35457478550E+03  0.87575620005E+03  0.80076566074E+03 0.  0.
        1    1    3    3  502    0  0.17119873943E+03  0.83197896476E+02 -0.20794324394E+03  0.28190652899E+03  0.50400001928E-02 0.  1.
       -1    1    3    3    0  502 -0.17119873943E+03 -0.83197896476E+02  0.56251802944E+03  0.59384967107E+03  0.50400001928E-02 0. -1.
</event>
<event>
 5   0  0.6256781E-03  0.8047505E+03  0.7818609E-02  0.9553166E-01
       -2   -1    0    0    0  501  0.00000000000E+00  0.00000000000E+00  0.12277097258E+03  0.12277097261E+03  0.25500000920E-02 0.  1.
        2   -1    0    0  501    0  0.00000000000E+00  0.00000000000E+00 -0.13187633378E+04  0.13187633378E+04  0.25500000920E-02 0. -1.
    10030    2    1    2    0    0  0.00000000000E+00  0.00000000000E+00 -0.11959923652E+04  0.14415343104E+04  0.80475053926E+03 0.  0.
        1    1    3    3  502    0 -0.23335758069E+03  0.31576423820E+03 -0.75561916572E+03  0.85154162448E+03  0.50400001928E-02 0.  1.
       -1    1    3    3    0  502  0.23335758069E+03 -0.31576423820E+03 -0.44037319951E+03  0.58999268594E+03  0.50400001928E-02 0. -1.
</event>
<event>
 5   0  0.3671128E-03  0.7992544E+03  0.7818609E-02  0.9561097E-01
       -1   -1    0    0    0  501  0.00000000000E+00  0.00000000000E+00  0.11511014334E+03  0.11511014345E+03  0.50400001928E-02 0.  1.
        1   -1    0    0  501    0  0.00000000000E+00  0.00000000000E+00 -0.13873833395E+04  0.13873833395E+04  0.50400001928E-02 0. -1.
    10030    2    1    2    0    0  0.00000000000E+00  0.00000000000E+00 -0.12722731961E+04  0.15024934829E+04  0.79925439044E+03 0.  0.
        2    1    3    3  502    0 -0.32514948764E+03 -0.23209465759E+03 -0.65601133453E+03  0.76807616187E+03  0.25500000920E-02 0. -1.
       -2    1    3    3    0  502  0.32514948764E+03  0.23209465759E+03 -0.61626186160E+03  0.73441732105E+03  0.25500000920E-02 0.  1.
</event>
<event>
 5   0  0.3753450E-03  0.8004300E+03  0.7818609E-02  0.9559395E-01
       -1   -1    0    0    0  501  0.00000000000E+00  0.00000000000E+00  0.42689088065E+03  0.42689088068E+03  0.50400001928E-02 0.  1.
        1   -1    0    0  501    0  0.00000000000E+00  0.00000000000E+00 -0.37520609886E+03  0.37520609889E+03  0.50400001928E-02 0. -1.
    10030    2    1    2    0    0  0.00000000000E+00  0.00000000000E+00  0.51684781790E+02  0.80209697957E+03  0.80043003939E+03 0.  0.
        5    1    3    3  502    0 -0.24135333396E+03  0.44043572809E+02  0.34266328122E+03  0.42146350069E+03  0.46999998093E+01 0.  1.
       -5    1    3    3    0  502  0.24135333396E+03 -0.44043572809E+02 -0.29097849943E+03  0.38063347888E+03  0.46999998093E+01 0. -1.
</event>
<event>
 5   0  0.5813850E-03  0.8001914E+03  0.7818609E-02  0.9559740E-01
       -2   -1    0    0    0  501  0.00000000000E+00  0.00000000000E+00  0.20414256483E+03  0.20414256485E+03  0.25500000920E-02 0. -1.
        2   -1    0    0  501    0  0.00000000000E+00  0.00000000000E+00 -0.78414103516E+03  0.78414103516E+03  0.25500000920E-02 0.  1.
    10030    2    1    2    0    0  0.00000000000E+00  0.00000000000E+00 -0.57999847033E+03  0.98828360001E+03  0.80019138240E+03 0.  0.
        5    1    3    3  502    0  0.14611516799E+03 -0.20959100195E+02  0.16924604856E+03  0.22462244133E+03  0.46999998093E+01 0. -1.
       -5    1    3    3    0  502 -0.14611516799E+03  0.20959100195E+02 -0.74924451888E+03  0.76366115868E+03  0.46999998093E+01 0.  1.
</event>
<event>
 5   0  0.3860515E-03  0.7994292E+03  0.7818609E-02  0.9560844E-01
       -1   -1    0    0    0  501  0.00000000000E+00  0.00000000000E+00  0.63308428873E+03  0.63308428875E+03  0.50400001928E-02 0.  1.
        1   -1    0    0  501    0  0.00000000000E+00  0.00000000000E+00 -0.25237045604E+03  0.25237045609E+03  0.50400001928E-02 0. -1.
    10030    2    1    2    0    0  0.00000000000E+00  0.00000000000E+00  0.38071383269E+03  0.88545474485E+03  0.79942922311E+03 0.  0.
        4    1    3    3  502    0 -0.14416881640E+03  0.31401235661E+03 -0.32219383295E+02  0.34702753390E+03  0.12699999809E+01 0. -1.
       -4    1    3    3    0  502  0.14416881640E+03 -0.31401235661E+03  0.41293321599E+03  0.53842721095E+03  0.12699999809E+01 0.  1.
</event>
<event>
 5   0  0.6153659E-03  0.7990006E+03  0.7818609E-02  0.9561465E-01
       -2   -1    0    0    0  501  0.00000000000E+00  0.00000000000E+00  0.22167441223E+03  0.22167441225E+03  0.25500000920E-02 0. -1.
        2   -1    0    0  501    0  0.00000000000E+00  0.00000000000E+00 -0.71997705792E+03  0.71997705793E+03  0.25500000920E-02 0.  1.
    10030    2    1    2    0    0  0.00000000000E+00  0.00000000000E+00 -0.49830264569E+03  0.94165147018E+03  0.79900060362E+03 0.  0.
        2    1    3    3  502    0 -0.94735526856E+01  0.52227691763E+02  0.21750008670E+03  0.22388337971E+03  0.25500000920E-02 0. -1.
       -2    1    3    3    0  502  0.94735526856E+01 -0.52227691763E+02 -0.71580273239E+03  0.71776809047E+03  0.25500000920E-02 0.  1.
</event>
<event>
 5   0  0.3714448E-03  0.7993009E+03  0.7818609E-02  0.9561030E-01
        1   -1    0    0  501    0  0.00000000000E+00  0.00000000000E+00  0.25711423909E+03  0.25711423914E+03  0.50400001928E-02 0. -1.
       -1   -1    0    0    0  501  0.00000000000E+00  0.00000000000E+00 -0.62120436517E+03  0.62120436519E+03  0.50400001928E-02 0.  1.
    10030    2    1    2    0    0  0.00000000000E+00  0.00000000000E+00 -0.36409012607E+03  0.87831860433E+03  0.79930091380E+03 0.  0.
        1    1    3    3  502    0 -0.39416854285E+03  0.63053229676E+02 -0.16073917065E+03  0.43032735325E+03  0.50400001928E-02 0. -1.
       -1    1    3    3    0  502  0.39416854285E+03 -0.63053229676E+02 -0.20335095542E+03  0.44799125108E+03  0.50400001928E-02 0.  1.
</event>
<event>
 5   0  0.6536209E-03  0.8003201E+03  0.7818609E-02  0.9559554E-01
        2   -1    0    0  501    0  0.00000000000E+00  0.00000000000E+00  0.40016514284E+03  0.40016514285E+03  0.25500000920E-02 0. -1.
       -2   -1    0    0    0  501  0.00000000000E+00  0.00000000000E+00 -0.40015492669E+03  0.40015492670E+03  0.25500000920E-02 0.  1.
    10030    2    1    2    0    0  0.00000000000E+00  0.00000000000E+00  0.10216151035E-01  0.80032006955E+03  0.80032006949E+03 0.  0.
        3    1    3    3  502    0 -0.86016062652E+02 -0.11283233173E+03  0.37416836804E+03  0.40016481100E+03  0.10100000352E+00 0. -1.
       -3    1    3    3    0  502  0.86016062652E+02  0.11283233173E+03 -0.37415815189E+03  0.40015525855E+03  0.10100000352E+00 0.  1.
</event>
<event>
 5   0  0.5813850E-03  0.8051439E+03  0.7818609E-02  0.9552601E-01
       -2   -1    0    0    0  501  0.00000000000E+00  0.00000000000E+00  0.23587070096E+03  0.23587070097E+03  0.25500000920E-02 0. -1.
        2   -1    0    0  501    0  0.00000000000E+00  0.00000000000E+00 -0.68708911139E+03  0.68708911139E+03  0.25500000920E-02 0.  1.
    10030    2    1    2    0    0  0.00000000000E+00  0.00000000000E+00 -0.45121841043E+03  0.92295981236E+03  0.80514393827E+03 0.  0.
        5    1    3    3  502    0  0.10116169523E+03 -0.32775322684E+03  0.15899846778E+02  0.34341048530E+03  0.46999998093E+01 0. -1.
       -5    1    3    3    0  502 -0.10116169523E+03  0.32775322684E+03 -0.46711825720E+03  0.57954932706E+03  0.46999998093E+01 0.  1.
</event>
<event>
 5   0  0.3714448E-03  0.7991062E+03  0.7818609E-02  0.9561312E-01
       -1   -1    0    0    0  501  0.00000000000E+00  0.00000000000E+00  0.60932189335E+03  0.60932189337E+03  0.50400001928E-02 0. -1.
        1   -1    0    0  501    0  0.00000000000E+00  0.00000000000E+00 -0.26200056116E+03  0.26200056121E+03  0.50400001928E-02 0.  1.
    10030    2    1    2    0    0  0.00000000000E+00  0.00000000000E+00  0.34732133219E+03  0.87132245458E+03  0.79910619573E+03 0.  0.
        1    1    3    3  502    0  0.13009843302E+03 -0.29039538145E+03  0.43713281493E+03  0.54068491542E+03  0.50400001928E-02 0. -1.
       -1    1    3    3    0  502 -0.13009843302E+03  0.29039538145E+03 -0.89811482742E+02  0.33063753916E+03  0.50400001928E-02 0.  1.
</event>
<event>
 5   0  0.3860515E-03  0.8003291E+03  0.7818609E-02  0.9559541E-01
       -1   -1    0    0    0  501  0.00000000000E+00  0.00000000000E+00  0.98467571673E+02  0.98467571802E+02  0.50400001928E-02 0.  1.
        1   -1    0    0  501    0  0.00000000000E+00  0.00000000000E+00 -0.16262374543E+04  0.16262374543E+04  0.50400001928E-02 0. -1.
    10030    2    1    2    0    0  0.00000000000E+00  0.00000000000E+00 -0.15277698827E+04  0.17247050261E+04  0.80032906535E+03 0.  0.
        4    1    3    3  502    0 -0.38949472289E+03 -0.49962842991E+02 -0.59796971217E+03  0.71538228550E+03  0.12699999809E+01 0.  1.
       -4    1    3    3    0  502  0.38949472289E+03  0.49962842991E+02 -0.92980017049E+03  0.10093227406E+04  0.12699999809E+01 0. -1.
</event>
<event>
 5   0  0.3753450E-03  0.8017951E+03  0.7818609E-02  0.9557422E-01
       -1   -1    0    0    0  501  0.00000000000E+00  0.00000000000E+00  0.13356982984E+03  0.13356982993E+03  0.50400001928E-02 0. -1.
        1   -1    0    0  501    0  0.00000000000E+00  0.00000000000E+00 -0.12032569637E+04  0.12032569637E+04  0.50400001928E-02 0.  1.
    10030    2    1    2    0    0  0.00000000000E+00  0.00000000000E+00 -0.10696871339E+04  0.13368267937E+04  0.80179505603E+03 0.  0.
        5    1    3    3  502    0 -0.18000304026E+03  0.30797171388E+03 -0.22991102709E+03  0.42441588263E+03  0.46999998093E+01 0. -1.
       -5    1    3    3    0  502  0.18000304026E+03 -0.30797171388E+03 -0.83977610680E+03  0.91241091105E+03  0.46999998093E+01 0.  1.
</event>
<event>
 5   0  0.3753450E-03  0.7970379E+03  0.7818609E-02  0.9564315E-01
       -1   -1    0    0    0  501  0.00000000000E+00  0.00000000000E+00  0.27895612735E+03  0.27895612740E+03  0.50400001928E-02 0. -1.
        1   -1    0    0  501    0  0.00000000000E+00  0.00000000000E+00 -0.56932739015E+03  0.56932739017E+03  0.50400001928E-02 0.  1.
    10030    2    1    2    0    0  0.00000000000E+00  0.00000000000E+00 -0.29037126279E+03  0.84828351757E+03  0.79703792628E+03 0.  0.
        5    1    3    3  502    0  0.25149624685E+03  0.10026139357E+03 -0.45637604816E+03  0.53066363787E+03  0.46999998093E+01 0.  1.
       -5    1    3    3    0  502 -0.25149624685E+03 -0.10026139357E+03  0.16600478537E+03  0.31761987970E+03  0.46999998093E+01 0. -1.
</event>
<event>
 5   0  0.5813850E-03  0.7996582E+03  0.7818609E-02  0.9560512E-01
       -2   -1    0    0    0  501  0.00000000000E+00  0.00000000000E+00  0.13746876132E+03  0.13746876135E+03  0.25500000920E-02 0.  1.
        2   -1    0    0  501    0  0.00000000000E+00  0.00000000000E+00 -0.11629063275E+04  0.11629063275E+04  0.25500000920E-02 0. -1.
    10030    2    1    2    0    0  0.00000000000E+00  0.00000000000E+00 -0.10254375661E+04  0.13003750888E+04  0.79965815794E+03 0.  0.
        5    1    3    3  502    0 -0.67099331498E+01 -0.18460312446E+03 -0.10893030245E+04  0.11048649266E+04  0.46999998093E+01 0. -1.
       -5    1    3    3    0  502  0.67099331498E+01  0.18460312446E+03  0.63865458383E+02  0.19551016223E+03  0.46999998093E+01 0.  1.
</event>
<event>
 5   0  0.5813850E-03  0.7898187E+03  0.7818609E-02  0.9574872E-01
       -2   -1    0    0    0  501  0.00000000000E+00  0.00000000000E+00  0.12604936914E+03  0.12604936917E+03  0.25500000920E-02 0. -1.
        2   -1    0    0  501    0  0.00000000000E+00  0.00000000000E+00 -0.12372407053E+04  0.12372407053E+04  0.25500000920E-02 0.  1.
    10030    2    1    2    0    0  0.00000000000E+00  0.00000000000E+00 -0.11111913361E+04  0.13632900744E+04  0.78981873970E+03 0.  0.
        5    1    3    3  502    0  0.81410229532E+02  0.28259293506E+03 -0.10104591849E+04  0.10523954802E+04  0.46999998093E+01 0.  1.
       -5    1    3    3    0  502 -0.81410229532E+02 -0.28259293506E+03 -0.10073215118E+03  0.31089459419E+03  0.46999998093E+01 0. -1.
</event>
<event>
 5   0  0.6536209E-03  0.8038159E+03  0.7818609E-02  0.9554510E-01
       -2   -1    0    0    0  501  0.00000000000E+00  0.00000000000E+00  0.87016623977E+02  0.87016624015E+02  0.25500000920E-02 0. -1.
        2   -1    0    0  501    0  0.00000000000E+00  0.00000000000E+00 -0.18563120507E+04  0.18563120507E+04  0.25500000920E-02 0.  1.
    10030    2    1    2    0    0  0.00000000000E+00  0.00000000000E+00 -0.17692954268E+04  0.19433286748E+04  0.80381591858E+03 0.  0.
        3    1    3    3  502    0  0.37437514253E+03 -0.75416300950E+02 -0.58185831592E+03  0.69599100267E+03  0.10100000352E+00 0. -1.
       -3    1    3    3    0  502 -0.37437514253E+03  0.75416300950E+02 -0.11874371109E+04  0.12473376721E+04  0.10100000352E+00 0.  1.
</event>
<event>
 5   0  0.5813850E-03  0.8015757E+03  0.7818609E-02  0.9557739E-01
        2   -1    0    0  501    0  0.00000000000E+00  0.00000000000E+00  0.13088791453E+04  0.13088791454E+04  0.25500000920E-02 0. -1.
       -2   -1    0    0    0  501  0.00000000000E+00  0.00000000000E+00 -0.12272400636E+03  0.12272400638E+03  0.25500000920E-02 0.  1.
    10030    2    1    2    0    0  0.00000000000E+00  0.00000000000E+00  0.11861551390E+04  0.14316031517E+04  0.80157567971E+03 0.  0.
        5    1    3    3  502    0 -0.58656100630E+02 -0.20398228199E+03 -0.14051360748E+02  0.21276475329E+03  0.46999998093E+01 0.  1.
       -5    1    3    3    0  502  0.58656100630E+02  0.20398228199E+03  0.12002064997E+04  0.12188383984E+04  0.46999998093E+01 0. -1.
</event>
<event>
 5   0  0.3671128E-03  0.7978686E+03  0.7818609E-02  0.9563107E-01
       -1   -1    0    0    0  501  0.00000000000E+00  0.00000000000E+00  0.55836235380E+03  0.55836235383E+03  0.50400001928E-02 0. -1.
        1   -1    0    0  501    0  0.00000000000E+00  0.00000000000E+00 -0.28502740381E+03  0.28502740386E+03  0.50400001928E-02 0.  1.
    10030    2    1    2    0    0  0.00000000000E+00  0.00000000000E+00  0.27333494999E+03  0.84338975768E+03  0.79786859099E+03 0.  0.
        2    1    3    3  502    0  0.32647730375E+03 -0.17241036224E+03  0.29640434005E+03  0.47346414403E+03  0.25500000920E-02 0.  1.
       -2    1    3    3    0  502 -0.32647730375E+03  0.17241036224E+03 -0.23069390060E+02  0.36992561366E+03  0.25500000920E-02 0. -1.
</event>
<event>
 5   0  0.6536209E-03  0.8148860E+03  0.7818609E-02  0.9538717E-01
        2   -1    0    0  501    0  0.00000000000E+00  0.00000000000E+00  0.18666979149E+04  0.18666979149E+04  0.25500000920E-02 0. -1.
       -2   -1    0    0    0  501  0.00000000000E+00  0.00000000000E+00 -0.88932342217E+02  0.88932342254E+02  0.25500000920E-02 0.  1.
    10030    2    1    2    0    0  0.00000000000E+00  0.00000000000E+00  0.17777655727E+04  0.19556302571E+04  0.81488604804E+03 0.  0.
        3    1    3    3  502    0  0.95956750430E+02 -0.13486858026E+03  0.17823758445E+04  0.17900449417E+04  0.10100000352E+00 0. -1.
       -3    1    3    3    0  502 -0.95956750430E+02  0.13486858026E+03 -0.46102718417E+01  0.16558531547E+03  0.10100000352E+00 0.  1.
</event>
<event>
 5   0  0.6153659E-03  0.8005035E+03  0.7818609E-02  0.9559289E-01
        2   -1    0    0  501    0  0.00000000000E+00  0.00000000000E+00  0.19146893641E+03  0.19146893642E+03  0.25500000920E-02 0. -1.
       -2   -1    0    0    0  501  0.00000000000E+00  0.00000000000E+00 -0.83669687393E+03  0.83669687394E+03  0.25500000920E-02 0.  1.
    10030    2    1    2    0    0  0.00000000000E+00  0.00000000000E+00 -0.64522793752E+03  0.10281658104E+04  0.80050349295E+03 0.  0.
        2    1    3    3  502    0 -0.36683045280E+02 -0.37953956511E+03 -0.47889704601E+03  0.61215872776E+03  0.25500000920E-02 0. -1.
       -2    1    3    3    0  502  0.36683045280E+02  0.37953956511E+03 -0.16633089151E+03  0.41600708260E+03  0.25500000920E-02 0.  1.
</event>
<event>
 5   0  0.6536209E-03  0.8122313E+03  0.7818609E-02  0.9542480E-01
        2   -1    0    0  501    0  0.00000000000E+00  0.00000000000E+00  0.14003662738E+04  0.14003662738E+04  0.25500000920E-02 0.  1.
       -2   -1    0    0    0  501  0.00000000000E+00  0.00000000000E+00 -0.11777626629E+03  0.11777626631E+03  0.25500000920E-02 0. -1.
    10030    2    1    2    0    0  0.00000000000E+00  0.00000000000E+00  0.12825900075E+04  0.15181425401E+04  0.81223127539E+03 0.  0.
        3    1    3    3  502    0 -0.19014462454E+03 -0.32068124871E+03  0.94232164373E+03  0.10133911051E+04  0.10100000352E+00 0.  1.
       -3    1    3    3    0  502  0.19014462454E+03  0.32068124871E+03  0.34026836375E+03  0.50475143495E+03  0.10100000352E+00 0. -1.
</event>
<event>
 5   0  0.2478000E-03  0.7975405E+03  0.7818609E-02  0.9563584E-01
        4   -1    0    0  501    0  0.00000000000E+00  0.00000000000E+00  0.56210364118E+03  0.56210507588E+03  0.12699999809E+01 0. -1.
       -4   -1    0    0    0  501  0.00000000000E+00  0.00000000000E+00 -0.28289430436E+03  0.28289715506E+03  0.12699999809E+01 0.  1.
    10030    2    1    2    0    0  0.00000000000E+00  0.00000000000E+00  0.27920933682E+03  0.84500223093E+03  0.79754054224E+03 0.  0.
        3    1    3    3  502    0 -0.74729588093E+02  0.30632087979E+03  0.39826561465E+03  0.50796899782E+03  0.10100000352E+00 0. -1.
       -3    1    3    3    0  502  0.74729588093E+02 -0.30632087979E+03 -0.11905627783E+03  0.33703323311E+03  0.10100000352E+00 0.  1.
</event>
<event>
 5   0  0.6153659E-03  0.7963751E+03  0.7818609E-02  0.9565279E-01
        2   -1    0    0  501    0  0.00000000000E+00  0.00000000000E+00  0.13143851532E+04  0.13143851532E+04  0.25500000920E-02 0.  1.
       -2   -1    0    0    0  501  0.00000000000E+00  0.00000000000E+00 -0.12062925981E+03  0.12062925983E+03  0.25500000920E-02 0. -1.
    10030    2    1    2    0    0  0.00000000000E+00  0.00000000000E+00  0.11937558934E+04  0.14350144130E+04  0.79637505775E+03 0.  0.
        2    1    3    3  502    0  0.20278741910E+03  0.21219127170E+03  0.10817466995E+04  0.11208585080E+04  0.25500000920E-02 0.  1.
       -2    1    3    3    0  502 -0.20278741910E+03 -0.21219127170E+03  0.11200919390E+03  0.31415590502E+03  0.25500000920E-02 0. -1.
</event>
<event>
 5   0  0.3671128E-03  0.7928674E+03  0.7818609E-02  0.9570399E-01
       -1   -1    0    0    0  501  0.00000000000E+00  0.00000000000E+00  0.26301624678E+03  0.26301624683E+03  0.50400001928E-02 0.  1.
        1   -1    0    0  501    0  0.00000000000E+00  0.00000000000E+00 -0.59752837669E+03  0.59752837671E+03  0.50400001928E-02 0. -1.
    10030    2    1    2    0    0  0.00000000000E+00  0.00000000000E+00 -0.33451212991E+03  0.86054462354E+03  0.79286738113E+03 0.  0.
        2    1    3    3  502    0  0.57418749284E+02 -0.20582781083E+02 -0.59240478514E+03  0.59553672692E+03  0.25500000920E-02 0. -1.
       -2    1    3    3    0  502 -0.57418749284E+02  0.20582781083E+02  0.25789265523E+03  0.26500789663E+03  0.25500000920E-02 0.  1.
</event>
<event>
 5   0  0.3671128E-03  0.8032509E+03  0.7818609E-02  0.9555323E-01
        1   -1    0    0  501    0  0.00000000000E+00  0.00000000000E+00  0.19854851917E+04  0.19854851917E+04  0.50400001928E-02 0. -1.
       -1   -1    0    0    0  501  0.00000000000E+00  0.00000000000E+00 -0.81241101772E+02  0.81241101928E+02  0.50400001928E-02 0.  1.
    10030    2    1    2    0    0  0.00000000000E+00  0.00000000000E+00  0.19042440899E+04  0.20667262937E+04  0.80325090649E+03 0.  0.
        2    1    3    3  502    0  0.16330944509E+03 -0.34638116049E+03  0.64066596329E+03  0.74639316698E+03  0.25500000920E-02 0.  1.
       -2    1    3    3    0  502 -0.16330944509E+03  0.34638116049E+03  0.12635781267E+04  0.13203331267E+04  0.25500000920E-02 0. -1.
</event>
<event>
 5   0  0.6337108E-03  0.8002323E+03  0.7818609E-02  0.9559681E-01
        2   -1    0    0  501    0  0.00000000000E+00  0.00000000000E+00  0.42982421147E+03  0.42982421148E+03  0.25500000920E-02 0. -1.
       -2   -1    0    0    0  501  0.00000000000E+00  0.00000000000E+00 -0.37246145363E+03  0.37246145363E+03  0.25500000920E-02 0.  1.
    10030    2    1    2    0    0  0.00000000000E+00  0.00000000000E+00  0.57362757848E+02  0.80228566512E+03  0.80023234280E+03 0.  0.
        4    1    3    3  502    0  0.33030534440E+02 -0.10733017430E+03  0.41369874109E+03  0.42867125376E+03  0.12699999809E+01 0. -1.
       -4    1    3    3    0  502 -0.33030534440E+02  0.10733017430E+03 -0.35633598324E+03  0.37361441136E+03  0.12699999809E+01 0.  1.
</event>
<event>
 5   0  0.3627496E-03  0.8008033E+03  0.7818609E-02  0.9558855E-01
        1   -1    0    0  501    0  0.00000000000E+00  0.00000000000E+00  0.32675020615E+03  0.32675020619E+03  0.50400001928E-02 0.  1.
       -1   -1    0    0    0  501  0.00000000000E+00  0.00000000000E+00 -0.49065453291E+03  0.49065453293E+03  0.50400001928E-02 0. -1.
    10030    2    1    2    0    0  0.00000000000E+00  0.00000000000E+00 -0.16390432676E+03  0.81740473912E+03  0.80080327122E+03 0.  0.
        3    1    3    3  502    0 -0.28208130458E+03  0.27794458503E+03 -0.21578664386E+02  0.39659639900E+03  0.10100000352E+00 0.  1.
       -3    1    3    3    0  502  0.28208130458E+03 -0.27794458503E+03 -0.14232566238E+03  0.42080834012E+03  0.10100000352E+00 0. -1.
</event>
<event>
 5   0  0.2478000E-03  0.7687794E+03  0.7818609E-02  0.9606341E-01
        4   -1    0    0  501    0  0.00000000000E+00  0.00000000000E+00  0.47061506904E+03  0.47061678265E+03  0.12699999809E+01 0. -1.
       -4   -1    0    0    0  501  0.00000000000E+00  0.00000000000E+00 -0.31395881408E+03  0.31396138272E+03  0.12699999809E+01 0.  1.
    10030    2    1    2    0    0  0.00000000000E+00  0.00000000000E+00  0.15665625496E+03  0.78457816537E+03  0.76877936715E+03 0.  0.
        4    1    3    3  502    0 -0.13256318759E+02  0.91599539686E+02  0.45907363512E+03  0.46831231141E+03  0.12699999809E+01 0. -1.
       -4    1    3    3    0  502  0.13256318759E+02 -0.91599539686E+02 -0.30241738016E+03  0.31626585396E+03  0.12699999809E+01 0.  1.
</event>
<event>
 5   0  0.6256781E-03  0.7742140E+03  0.7818609E-02  0.9598110E-01
        2   -1    0    0  501    0  0.00000000000E+00  0.00000000000E+00  0.10802181849E+04  0.10802181849E+04  0.25500000920E-02 0.  1.
       -2   -1    0    0    0  501  0.00000000000E+00  0.00000000000E+00 -0.13872365630E+03  0.13872365632E+03  0.25500000920E-02 0. -1.
    10030    2    1    2    0    0  0.00000000000E+00  0.00000000000E+00  0.94149452860E+03  0.12189418412E+04  0.77421396584E+03 0.  0.
        1    1    3    3  502    0 -0.16324225415E+03 -0.96973758966E+02  0.10018675287E+04  0.10197011761E+04  0.50400001928E-02 0.  1.
       -1    1    3    3    0  502  0.16324225415E+03  0.96973758966E+02 -0.60373000100E+02  0.19924066512E+03  0.50400001928E-02 0. -1.
</event>
<event>
 5   0  0.6536209E-03  0.7967467E+03  0.7818609E-02  0.9564738E-01
        2   -1    0    0  501    0  0.00000000000E+00  0.00000000000E+00  0.71020747287E+03  0.71020747287E+03  0.25500000920E-02 0.  1.
       -2   -1    0    0    0  501  0.00000000000E+00  0.00000000000E+00 -0.22345770804E+03  0.22345770806E+03  0.25500000920E-02 0. -1.
    10030    2    1    2    0    0  0.00000000000E+00  0.00000000000E+00  0.48674976482E+03  0.93366518093E+03  0.79674672044E+03 0.  0.
        3    1    3    3  502    0  0.12025476085E+03  0.36672143758E+03  0.12763161822E+03  0.40649189471E+03  0.10100000352E+00 0.  1.
       -3    1    3    3    0  502 -0.12025476085E+03 -0.36672143758E+03  0.35911814660E+03  0.52717328622E+03  0.10100000352E+00 0. -1.
</event>
<event>
 5   0  0.6153659E-03  0.7947265E+03  0.7818609E-02  0.9567682E-01
       -2   -1    0    0    0  501  0.00000000000E+00  0.00000000000E+00  0.89208071433E+02  0.89208071470E+02  0.25500000920E-02 0. -1.
        2   -1    0    0  501    0  0.00000000000E+00  0.00000000000E+00 -0.17699918216E+04  0.17699918216E+04  0.25500000920E-02 0.  1.
    10030    2    1    2    0    0  0.00000000000E+00  0.00000000000E+00 -0.16807837501E+04  0.18591998930E+04  0.79472651117E+03 0.  0.
        2    1    3    3  502    0 -0.90527476504E+02  0.37860341920E+03 -0.10269859459E+04  0.10982877155E+04  0.25500000920E-02 0.  1.
       -2    1    3    3    0  502  0.90527476504E+02 -0.37860341920E+03 -0.65379780427E+03  0.76091217752E+03  0.25500000920E-02 0. -1.
</event>
<event>
 5   0  0.3714448E-03  0.8020823E+03  0.7818609E-02  0.9557008E-01
        1   -1    0    0  501    0  0.00000000000E+00  0.00000000000E+00  0.14356459659E+04  0.14356459659E+04  0.50400001928E-02 0. -1.
       -1   -1    0    0    0  501  0.00000000000E+00  0.00000000000E+00 -0.11202900172E+03  0.11202900183E+03  0.50400001928E-02 0.  1.
    10030    2    1    2    0    0  0.00000000000E+00  0.00000000000E+00  0.13236169642E+04  0.15476749677E+04  0.80208225134E+03 0.  0.
        1    1    3    3  502    0 -0.25309838906E+03  0.11879789219E+03  0.12165803945E+04  0.12482946728E+04  0.50400001928E-02 0. -1.
       -1    1    3    3    0  502  0.25309838906E+03 -0.11879789219E+03  0.10703656963E+03  0.29938029494E+03  0.50400001928E-02 0.  1.
</event>
<event>
 5   0  0.6337108E-03  0.8012285E+03  0.7818609E-02  0.9558241E-01
        2   -1    0    0  501    0  0.00000000000E+00  0.00000000000E+00  0.71965920491E+03  0.71965920491E+03  0.25500000920E-02 0. -1.
       -2   -1    0    0    0  501  0.00000000000E+00  0.00000000000E+00 -0.22301081777E+03  0.22301081778E+03  0.25500000920E-02 0.  1.
    10030    2    1    2    0    0  0.00000000000E+00  0.00000000000E+00  0.49664838714E+03  0.94267002270E+03  0.80122852623E+03 0.  0.
        4    1    3    3  502    0  0.99285903389E+02 -0.18480165776E+02  0.70443434048E+03  0.71163794171E+03  0.12699999809E+01 0. -1.
       -4    1    3    3    0  502 -0.99285903389E+02  0.18480165776E+02 -0.20778595334E+03  0.23103208098E+03  0.12699999809E+01 0.  1.
</event>
<event>
 5   0  0.3714448E-03  0.7960031E+03  0.7818609E-02  0.9565821E-01
        1   -1    0    0  501    0  0.00000000000E+00  0.00000000000E+00  0.86320543824E+03  0.86320543825E+03  0.50400001928E-02 0. -1.
       -1   -1    0    0    0  501  0.00000000000E+00  0.00000000000E+00 -0.18350815961E+03  0.18350815968E+03  0.50400001928E-02 0.  1.
    10030    2    1    2    0    0  0.00000000000E+00  0.00000000000E+00  0.67969727863E+03  0.10467135979E+04  0.79600311904E+03 0.  0.
        1    1    3    3  502    0  0.27096630967E+03  0.27202433844E+03  0.20202673055E+03  0.43386032495E+03  0.50400001928E-02 0.  1.
       -1    1    3    3    0  502 -0.27096630967E+03 -0.27202433844E+03  0.47767054808E+03  0.61285327299E+03  0.50400001928E-02 0. -1.
</event>
<event>
 5   0  0.6536209E-03  0.7995109E+03  0.7818609E-02  0.9560725E-01
        2   -1    0    0  501    0  0.00000000000E+00  0.00000000000E+00  0.57150954015E+03  0.57150954015E+03  0.25500000920E-02 0.  1.
       -2   -1    0    0    0  501  0.00000000000E+00  0.00000000000E+00 -0.27961812565E+03  0.27961812566E+03  0.25500000920E-02 0. -1.
    10030    2    1    2    0    0  0.00000000000E+00  0.00000000000E+00  0.29189141450E+03  0.85112766581E+03  0.79951091654E+03 0.  0.
        3    1    3    3  502    0  0.73528955978E+02  0.32765632926E+03 -0.84941808964E+02  0.34638172380E+03  0.10100000352E+00 0. -1.
       -3    1    3    3    0  502 -0.73528955978E+02 -0.32765632926E+03  0.37683322346E+03  0.50474594201E+03  0.10100000352E+00 0.  1.
</event>
<event>
 5   0  0.6536209E-03  0.7979526E+03  0.7818609E-02  0.9562985E-01
       -2   -1    0    0    0  501  0.00000000000E+00  0.00000000000E+00  0.29950512766E+03  0.29950512767E+03  0.25500000920E-02 0. -1.
        2   -1    0    0  501    0  0.00000000000E+00  0.00000000000E+00 -0.53148374439E+03  0.53148374439E+03  0.25500000920E-02 0.  1.
    10030    2    1    2    0    0  0.00000000000E+00  0.00000000000E+00 -0.23197861673E+03  0.83098887206E+03  0.79795264701E+03 0.  0.
        3    1    3    3  502    0  0.57544507366E+02 -0.12265353327E+03 -0.50679492868E+03  0.52459162164E+03  0.10100000352E+00 0.  1.
       -3    1    3    3    0  502 -0.57544507366E+02  0.12265353327E+03  0.27481631196E+03  0.30639725043E+03  0.10100000352E+00 0. -1.
</event>
<event>
 5   0  0.3860515E-03  0.8089162E+03  0.7818609E-02  0.9547200E-01
        1   -1    0    0  501    0  0.00000000000E+00  0.00000000000E+00  0.51348493224E+03  0.51348493226E+03  0.50400001928E-02 0. -1.
       -1   -1    0    0    0  501  0.00000000000E+00  0.00000000000E+00 -0.31858066572E+03  0.31858066576E+03  0.50400001928E-02 0.  1.
    10030    2    1    2    0    0  0.00000000000E+00  0.00000000000E+00  0.19490426652E+03  0.83206559802E+03  0.80891624184E+03 0.  0.
        4    1    3    3  502    0  0.30593662574E+03 -0.52629872125E+02  0.36413531564E+03  0.47850105894E+03  0.12699999809E+01 0. -1.
       -4    1    3    3    0  502 -0.30593662574E+03  0.52629872125E+02 -0.16923104912E+03  0.35356453908E+03  0.12699999809E+01 0.  1.
</event>
<event>
 5   0  0.3714448E-03  0.7998188E+03  0.7818609E-02  0.9560279E-01
       -1   -1    0    0    0  501  0.00000000000E+00  0.00000000000E+00  0.33780447936E+03  0.33780447940E+03  0.50400001928E-02 0. -1.
        1   -1    0    0  501    0  0.00000000000E+00  0.00000000000E+00 -0.47343220653E+03  0.47343220656E+03  0.50400001928E-02 0.  1.
    10030    2    1    2    0    0  0.00000000000E+00  0.00000000000E+00 -0.13562772716E+03  0.81123668596E+03  0.79981877964E+03 0.  0.
        1    1    3    3  502    0  0.11946054522E+03 -0.37073377439E+03 -0.15973413628E+03  0.42098616088E+03  0.50400001928E-02 0.  1.
       -1    1    3    3    0  502 -0.11946054522E+03  0.37073377439E+03  0.24106409116E+02  0.39025052508E+03  0.50400001928E-02 0. -1.
</event>
<event>
 5   0  0.6256781E-03  0.7996151E+03  0.7818609E-02  0.9560574E-01
        2   -1    0    0  501    0  0.00000000000E+00  0.00000000000E+00  0.96554333445E+03  0.96554333445E+03  0.25500000920E-02 0. -1.
       -2   -1    0    0    0  501  0.00000000000E+00  0.00000000000E+00 -0.16555038189E+03  0.16555038191E+03  0.25500000920E-02 0.  1.
    10030    2    1    2    0    0  0.00000000000E+00  0.00000000000E+00  0.79999295256E+03  0.11310937164E+04  0.79961507680E+03 0.  0.
        1    1    3    3  502    0 -0.23428314364E+03 -0.11304559297E+03  0.82946531421E+03  0.86929891578E+03  0.50400001928E-02 0. -1.
       -1    1    3    3    0  502  0.23428314364E+03  0.11304559297E+03 -0.29472361642E+02  0.26179480058E+03  0.50400001928E-02 0.  1.
</event>
<event>
 5   0  0.3671128E-03  0.8055509E+03  0.7818609E-02  0.9552017E-01
       -1   -1    0    0    0  501  0.00000000000E+00  0.00000000000E+00  0.15783267112E+03  0.15783267120E+03  0.50400001928E-02 0.  1.
        1   -1    0    0  501    0  0.00000000000E+00  0.00000000000E+00 -0.10278485227E+04  0.10278485228E+04  0.50400001928E-02 0. -1.
    10030    2    1    2    0    0  0.00000000000E+00  0.00000000000E+00 -0.87001585162E+03  0.11856811940E+04  0.80555093670E+03 0.  0.
        2    1    3    3  502    0  0.15122358398E+03 -0.36142776932E+03 -0.57252890009E+03  0.69374919548E+03  0.25500000920E-02 0. -1.
       -2    1    3    3    0  502 -0.15122358398E+03  0.36142776932E+03 -0.29748695154E+03  0.49193199848E+03  0.25500000920E-02 0.  1.
</event>
<event>
 5   0  0.5813850E-03  0.7841875E+03  0.7818609E-02  0.9583191E-01
        2   -1    0    0  501    0  0.00000000000E+00  0.00000000000E+00  0.38584446016E+03  0.38584446017E+03  0.25500000920E-02 0. -1.
       -2   -1    0    0    0  501  0.00000000000E+00  0.00000000000E+00 -0.39844422609E+03  0.39844422610E+03  0.25500000920E-02 0.  1.
    10030    2    1    2    0    0  0.00000000000E+00  0.00000000000E+00 -0.12599765929E+02  0.78428868626E+03  0.78418747076E+03 0.  0.
        5    1    3    3  502    0 -0.25338758570E+03 -0.60715166764E+02 -0.29929470091E+03  0.39685136771E+03  0.46999998093E+01 0.  1.
       -5    1    3    3    0  502  0.25338758570E+03  0.60715166764E+02  0.28669493498E+03  0.38743731855E+03  0.46999998093E+01 0. -1.
</event>
<event>
 5   0  0.3671128E-03  0.8010351E+03  0.7818609E-02  0.9558520E-01
        1   -1    0    0  501    0  0.00000000000E+00  0.00000000000E+00  0.12093062862E+04  0.12093062862E+04  0.50400001928E-02 0.  1.
       -1   -1    0    0    0  501  0.00000000000E+00  0.00000000000E+00 -0.13264985265E+03  0.13264985275E+03  0.50400001928E-02 0. -1.
    10030    2    1    2    0    0  0.00000000000E+00  0.00000000000E+00  0.10766564336E+04  0.13419561390E+04  0.80103508224E+03 0.  0.
        2    1    3    3  502    0  0.27261594695E+02 -0.19286624887E+03 -0.47956040019E+02  0.20060001565E+03  0.25500000920E-02 0. -1.
       -2    1    3    3    0  502 -0.27261594695E+02  0.19286624887E+03  0.11246124736E+04  0.11413561233E+04  0.25500000920E-02 0.  1.
</event>
<event>
 5   0  0.3753450E-03  0.7997800E+03  0.7818609E-02  0.9560336E-01
        1   -1    0    0  501    0  0.00000000000E+00  0.00000000000E+00  0.75064547578E+03  0.75064547579E+03  0.50400001928E-02 0.  1.
       -1   -1    0    0    0  501  0.00000000000E+00  0.00000000000E+00 -0.21303268713E+03  0.21303268719E+03  0.50400001928E-02 0. -1.
    10030    2    1    2    0    0  0.00000000000E+00  0.00000000000E+00  0.53761278865E+03  0.96367816298E+03  0.79978002681E+03 0.  0.
        5    1    3    3  502    0  0.35299732386E+03 -0.12831371747E+02  0.49460822162E+03  0.60780847119E+03  0.46999998093E+01 0.  1.
       -5    1    3    3    0  502 -0.35299732386E+03  0.12831371747E+02  0.43004567033E+02  0.35586969180E+03  0.46999998093E+01 0. -1.
</event>
<event>
 5   0  0.3714448E-03  0.8018987E+03  0.7818609E-02  0.9557273E-01
        1   -1    0    0  501    0  0.00000000000E+00  0.00000000000E+00  0.30880609927E+03  0.30880609931E+03  0.50400001928E-02 0.  1.
       -1   -1    0    0    0  501  0.00000000000E+00  0.00000000000E+00 -0.52058678648E+03  0.52058678651E+03  0.50400001928E-02 0. -1.
    10030    2    1    2    0    0  0.00000000000E+00  0.00000000000E+00 -0.21178068721E+03  0.82939288582E+03  0.80189868411E+03 0.  0.
        1    1    3    3  502    0  0.34473014286E+03 -0.19769831634E+03 -0.16097887894E+03  0.42876298251E+03  0.50400001928E-02 0.  1.
       -1    1    3    3    0  502 -0.34473014286E+03  0.19769831634E+03 -0.50801808269E+02  0.40062990331E+03  0.50400001928E-02 0. -1.
</event>
<event>
 5   0  0.5813850E-03  0.7992596E+03  0.7818609E-02  0.9561089E-01
        2   -1    0    0  501    0  0.00000000000E+00  0.00000000000E+00  0.43989807738E+03  0.43989807739E+03  0.25500000920E-02 0. -1.
       -2   -1    0    0    0  501  0.00000000000E+00  0.00000000000E+00 -0.36304766750E+03  0.36304766751E+03  0.25500000920E-02 0.  1.
    10030    2    1    2    0    0  0.00000000000E+00  0.00000000000E+00  0.76850409887E+02  0.80294574490E+03  0.79925958471E+03 0.  0.
        5    1    3    3  502    0  0.18398265115E+01 -0.39956765884E+03  0.43365403053E+02  0.40194570172E+03  0.46999998093E+01 0.  1.
       -5    1    3    3    0  502 -0.18398265115E+01  0.39956765884E+03  0.33485006834E+02  0.40100004318E+03  0.46999998093E+01 0. -1.
</event>
<event>
 5   0  0.3671128E-03  0.8004282E+03  0.7818609E-02  0.9559397E-01
       -1   -1    0    0    0  501  0.00000000000E+00  0.00000000000E+00  0.18853373611E+03  0.18853373618E+03  0.50400001928E-02 0.  1.
        1   -1    0    0  501    0  0.00000000000E+00  0.00000000000E+00 -0.84956323791E+03  0.84956323792E+03  0.50400001928E-02 0. -1.
    10030    2    1    2    0    0  0.00000000000E+00  0.00000000000E+00 -0.66102950180E+03  0.10380969741E+04  0.80042821377E+03 0.  0.
        2    1    3    3  502    0 -0.92629587608E+02  0.15782237013E+03 -0.79212456403E+03  0.81298798636E+03  0.25500000920E-02 0. -1.
       -2    1    3    3    0  502  0.92629587608E+02 -0.15782237013E+03  0.13109506223E+03  0.22510898774E+03  0.25500000920E-02 0.  1.
</event>
<event>
 5   0  0.3627496E-03  0.8004003E+03  0.7818609E-02  0.9559438E-01
        1   -1    0    0  501    0  0.00000000000E+00  0.00000000000E+00  0.43520584757E+03  0.43520584760E+03  0.50400001928E-02 0.  1.
       -1   -1    0    0    0  501  0.00000000000E+00  0.00000000000E+00 -0.36801016656E+03  0.36801016660E+03  0.50400001928E-02 0. -1.
    10030    2    1    2    0    0  0.00000000000E+00  0.00000000000E+00  0.67195681009E+02  0.80321601420E+03  0.80040034103E+03 0.  0.
        3    1    3    3  502    0 -0.10160560431E+03  0.33906550593E+03 -0.15379699026E+03  0.38593087536E+03  0.10100000352E+00 0. -1.
       -3    1    3    3    0  502  0.10160560431E+03 -0.33906550593E+03  0.22099267127E+03  0.41728513884E+03  0.10100000352E+00 0.  1.
</event>
<event>
 5   0  0.6536209E-03  0.7994254E+03  0.7818609E-02  0.9560849E-01
       -2   -1    0    0    0  501  0.00000000000E+00  0.00000000000E+00  0.33955541283E+03  0.33955541284E+03  0.25500000920E-02 0.  1.
        2   -1    0    0  501    0  0.00000000000E+00  0.00000000000E+00 -0.47052775475E+03  0.47052775476E+03  0.25500000920E-02 0. -1.
    10030    2    1    2    0    0  0.00000000000E+00  0.00000000000E+00 -0.13097234192E+03  0.81008316759E+03  0.79942540870E+03 0.  0.
        3    1    3    3  502    0 -0.11787384050E+03 -0.13978815543E+03  0.29468915566E+03  0.34680928381E+03  0.10100000352E+00 0.  1.
       -3    1    3    3    0  502  0.11787384050E+03  0.13978815543E+03 -0.42566149758E+03  0.46327388378E+03  0.10100000352E+00 0. -1.
</event>
<event>
 5   0  0.5813850E-03  0.7984901E+03  0.7818609E-02  0.9562205E-01
        2   -1    0    0  501    0  0.00000000000E+00  0.00000000000E+00  0.77592407717E+03  0.77592407718E+03  0.25500000920E-02 0.  1.
       -2   -1    0    0    0  501  0.00000000000E+00  0.00000000000E+00 -0.20542812225E+03  0.20542812227E+03  0.25500000920E-02 0. -1.
    10030    2    1    2    0    0  0.00000000000E+00  0.00000000000E+00  0.57049595492E+03  0.98135219945E+03  0.79849014069E+03 0.  0.
        5    1    3    3  502    0 -0.10047575621E+03 -0.19464784346E+03 -0.12493829864E+03  0.25221980298E+03  0.46999998093E+01 0. -1.
       -5    1    3    3    0  502  0.10047575621E+03  0.19464784346E+03  0.69543425356E+03  0.72913239647E+03  0.46999998093E+01 0.  1.
</event>
<event>
 5   0  0.6256781E-03  0.8024645E+03  0.7818609E-02  0.9556457E-01
        2   -1    0    0  501    0  0.00000000000E+00  0.00000000000E+00  0.32616221179E+03  0.32616221180E+03  0.25500000920E-02 0.  1.
       -2   -1    0    0    0  501  0.00000000000E+00  0.00000000000E+00 -0.49358048277E+03  0.49358048277E+03  0.25500000920E-02 0. -1.
    10030    2    1    2    0    0  0.00000000000E+00  0.00000000000E+00 -0.16741827098E+03  0.81974269458E+03  0.80246445894E+03 0.  0.
        1    1    3    3  502    0 -0.18167984986E+02 -0.49409052585E+02 -0.49003728458E+03  0.49285684581E+03  0.50400001928E-02 0. -1.
       -1    1    3    3    0  502  0.18167984986E+02  0.49409052585E+02  0.32261901361E+03  0.32688584876E+03  0.50400001928E-02 0.  1.
</event>
<event>
 5   0  0.3860515E-03  0.7985165E+03  0.7818609E-02  0.9562167E-01
       -1   -1    0    0    0  501  0.00000000000E+00  0.00000000000E+00  0.31989097751E+03  0.31989097755E+03  0.50400001928E-02 0. -1.
        1   -1    0    0  501    0  0.00000000000E+00  0.00000000000E+00 -0.49831716572E+03  0.49831716575E+03  0.50400001928E-02 0.  1.
    10030    2    1    2    0    0  0.00000000000E+00  0.00000000000E+00 -0.17842618821E+03  0.81820814330E+03  0.79851653779E+03 0.  0.
        4    1    3    3  502    0  0.10516718066E+03 -0.18558964082E+03 -0.43502932261E+03  0.48451602151E+03  0.12699999809E+01 0.  1.
       -4    1    3    3    0  502 -0.10516718066E+03  0.18558964082E+03  0.25660313440E+03  0.33369212180E+03  0.12699999809E+01 0. -1.
</event>
<event>
 5   0  0.3627496E-03  0.8470152E+03  0.7818609E-02  0.9494352E-01
        1   -1    0    0  501    0  0.00000000000E+00  0.00000000000E+00  0.17245433764E+04  0.17245433764E+04  0.50400001928E-02 0.  1.
       -1   -1    0    0    0  501  0.00000000000E+00  0.00000000000E+00 -0.10400359051E+03  0.10400359063E+03  0.50400001928E-02 0. -1.
    10030    2    1    2    0    0  0.00000000000E+00  0.00000000000E+00  0.16205397858E+04  0.18285469670E+04  0.84701523777E+03 0.  0.
        3    1    3    3  502    0 -0.17351652625E+02 -0.27285692967E+03  0.15084937219E+04  0.15330705474E+04  0.10100000352E+00 0.  1.
       -3    1    3    3    0  502  0.17351652625E+02  0.27285692967E+03  0.11204606392E+03  0.29547641963E+03  0.10100000352E+00 0. -1.
</event>
<event>
 5   0  0.3714448E-03  0.8048800E+03  0.7818609E-02  0.9552980E-01
        1   -1    0    0  501    0  0.00000000000E+00  0.00000000000E+00  0.33791873417E+03  0.33791873421E+03  0.50400001928E-02 0.  1.
       -1   -1    0    0    0  501  0.00000000000E+00  0.00000000000E+00 -0.47928078030E+03  0.47928078033E+03  0.50400001928E-02 0. -1.
    10030    2    1    2    0    0  0.00000000000E+00  0.00000000000E+00 -0.14136204613E+03  0.81719951454E+03  0.80488000253E+03 0.  0.
        1    1    3    3  502    0  0.95698160374E+02 -0.32784688058E+03 -0.28681542303E+03  0.44598744592E+03  0.50400001928E-02 0. -1.
       -1    1    3    3    0  502 -0.95698160374E+02  0.32784688058E+03  0.14545337690E+03  0.37121206861E+03  0.50400001928E-02 0.  1.
</event>
<event>
 5   0  0.6153659E-03  0.8235526E+03  0.7818609E-02  0.9526538E-01
       -2   -1    0    0    0  501  0.00000000000E+00  0.00000000000E+00  0.20799245624E+03  0.20799245625E+03  0.25500000920E-02 0.  1.
        2   -1    0    0  501    0  0.00000000000E+00  0.00000000000E+00 -0.81522062387E+03  0.81522062388E+03  0.25500000920E-02 0. -1.
    10030    2    1    2    0    0  0.00000000000E+00  0.00000000000E+00 -0.60722816764E+03  0.10232130801E+04  0.82355264542E+03 0.  0.
        2    1    3    3  502    0  0.84974593382E+01  0.15841024785E+03  0.16850209030E+03  0.23142810520E+03  0.25500000920E-02 0.  1.
       -2    1    3    3    0  502 -0.84974593382E+01 -0.15841024785E+03 -0.77573025793E+03  0.79178497492E+03  0.25500000920E-02 0. -1.
</event>
<event>
 5   0  0.3714448E-03  0.7984287E+03  0.7818609E-02  0.9562294E-01
       -1   -1    0    0    0  501  0.00000000000E+00  0.00000000000E+00  0.11775492903E+03  0.11775492914E+03  0.50400001928E-02 0. -1.
        1   -1    0    0  501    0  0.00000000000E+00  0.00000000000E+00 -0.13534219332E+04  0.13534219332E+04  0.50400001928E-02 0.  1.
    10030    2    1    2    0    0  0.00000000000E+00  0.00000000000E+00 -0.12356670042E+04  0.14711768623E+04  0.79842871637E+03 0.  0.
        1    1    3    3  502    0 -0.62598372467E+02  0.28818525699E+03 -0.11136334011E+04  0.11520193795E+04  0.50400001928E-02 0.  1.
       -1    1    3    3    0  502  0.62598372467E+02 -0.28818525699E+03 -0.12203360307E+03  0.31915748289E+03  0.50400001928E-02 0. -1.
</event>
<event>
 5   0  0.2478000E-03  0.7985386E+03  0.7818609E-02  0.9562135E-01
        4   -1    0    0  501    0  0.00000000000E+00  0.00000000000E+00  0.30554416151E+03  0.30554680088E+03  0.12699999809E+01 0. -1.
       -4   -1    0    0    0  501  0.00000000000E+00  0.00000000000E+00 -0.52173879563E+03  0.52174034133E+03  0.12699999809E+01 0.  1.
    10030    2    1    2    0    0  0.00000000000E+00  0.00000000000E+00 -0.21619463413E+03  0.82728714221E+03  0.79853860010E+03 0.  0.
        2    1    3    3  502    0  0.24904629415E+03 -0.30503035182E+03 -0.17641375181E+03  0.43149667901E+03  0.25500000920E-02 0.  1.
       -2    1    3    3    0  502 -0.24904629415E+03  0.30503035182E+03 -0.39780882320E+02  0.39579046321E+03  0.25500000920E-02 0. -1.
</event>
<event>
 5   0  0.3860515E-03  0.7999209E+03  0.7818609E-02  0.9560132E-01
       -1   -1    0    0    0  501  0.00000000000E+00  0.00000000000E+00  0.10732559198E+03  0.10732559210E+03  0.50400001928E-02 0.  1.
        1   -1    0    0  501    0  0.00000000000E+00  0.00000000000E+00 -0.14904961279E+04  0.14904961280E+04  0.50400001928E-02 0. -1.
    10030    2    1    2    0    0  0.00000000000E+00  0.00000000000E+00 -0.13831705360E+04  0.15978217201E+04  0.79992094455E+03 0.  0.
        4    1    3    3  502    0  0.35815973316E+02  0.37780384560E+03 -0.94383899399E+03  0.10172768498E+04  0.12699999809E+01 0.  1.
       -4    1    3    3    0  502 -0.35815973316E+02 -0.37780384560E+03 -0.43933154197E+03  0.58054487024E+03  0.12699999809E+01 0. -1.
</event>
<event>
 5   0  0.6256781E-03  0.8000903E+03  0.7818609E-02  0.9559886E-01
       -2   -1    0    0    0  501  0.00000000000E+00  0.00000000000E+00  0.25043948456E+03  0.25043948457E+03  0.25500000920E-02 0. -1.
        2   -1    0    0  501    0  0.00000000000E+00  0.00000000000E+00 -0.63902113795E+03  0.63902113795E+03  0.25500000920E-02 0.  1.
    10030    2    1    2    0    0  0.00000000000E+00  0.00000000000E+00 -0.38858165339E+03  0.88946062252E+03  0.80009030595E+03 0.  0.
        1    1    3    3  502    0  0.28173477676E+03 -0.15514883154E+02 -0.50955328576E+03  0.58246008197E+03  0.50400001928E-02 0.  1.
       -1    1    3    3    0  502 -0.28173477676E+03  0.15514883154E+02  0.12097163237E+03  0.30700054055E+03  0.50400001928E-02 0. -1.
</event>
<event>
 5   0  0.6536209E-03  0.8063847E+03  0.7818609E-02  0.9550821E-01
        2   -1    0    0  501    0  0.00000000000E+00  0.00000000000E+00  0.12239724807E+04  0.12239724807E+04  0.25500000920E-02 0. -1.
       -2   -1    0    0    0  501  0.00000000000E+00  0.00000000000E+00 -0.13281678049E+03  0.13281678052E+03  0.25500000920E-02 0.  1.
    10030    2    1    2    0    0  0.00000000000E+00  0.00000000000E+00  0.10911557002E+04  0.13567892612E+04  0.80638473279E+03 0.  0.
        3    1    3    3  502    0 -0.20308807810E+03 -0.40834467638E+02  0.11275870036E+04  0.11464574489E+04  0.10100000352E+00 0. -1.
       -3    1    3    3    0  502  0.20308807810E+03  0.40834467638E+02 -0.36431303388E+02  0.21033181234E+03  0.10100000352E+00 0.  1.
</event>
<event>
 5   0  0.2478000E-03  0.7991638E+03  0.7818609E-02  0.9561228E-01
        4   -1    0    0  501    0  0.00000000000E+00  0.00000000000E+00  0.38805083052E+03  0.38805290872E+03  0.12699999809E+01 0. -1.
       -4   -1    0    0    0  501  0.00000000000E+00  0.00000000000E+00 -0.41145148108E+03  0.41145344109E+03  0.12699999809E+01 0.  1.
    10030    2    1    2    0    0  0.00000000000E+00  0.00000000000E+00 -0.23400650566E+02  0.79950634981E+03  0.79916382109E+03 0.  0.
        5    1    3    3  502    0  0.31767763098E+03  0.16121824611E+03 -0.19270109500E+03  0.40505086362E+03  0.46999998093E+01 0. -1.
       -5    1    3    3    0  502 -0.31767763098E+03 -0.16121824611E+03  0.16930044444E+03  0.39445548619E+03  0.46999998093E+01 0.  1.
</event>
<event>
 5   0  0.2478000E-03  0.7986911E+03  0.7818609E-02  0.9561914E-01
        3   -1    0    0  501    0  0.00000000000E+00  0.00000000000E+00  0.42261280443E+03  0.42261281649E+03  0.10100000352E+00 0. -1.
       -3   -1    0    0    0  501  0.00000000000E+00  0.00000000000E+00 -0.37735925298E+03  0.37735926649E+03  0.10100000352E+00 0.  1.
    10030    2    1    2    0    0  0.00000000000E+00  0.00000000000E+00  0.45253551449E+02  0.79997208299E+03  0.79869108524E+03 0.  0.
        2    1    3    3  502    0  0.36204955690E+03  0.13060177909E+03 -0.84034189605E+02  0.39395234659E+03  0.25500000920E-02 0. -1.
       -2    1    3    3    0  502 -0.36204955690E+03 -0.13060177909E+03  0.12928774105E+03  0.40601973640E+03  0.25500000920E-02 0.  1.
</event>
<event>
 5   0  0.3753450E-03  0.7997643E+03  0.7818609E-02  0.9560358E-01
       -1   -1    0    0    0  501  0.00000000000E+00  0.00000000000E+00  0.23094830928E+03  0.23094830934E+03  0.50400001928E-02 0.  1.
        1   -1    0    0  501    0  0.00000000000E+00  0.00000000000E+00 -0.69238756018E+03  0.69238756020E+03  0.50400001928E-02 0. -1.
    10030    2    1    2    0    0  0.00000000000E+00  0.00000000000E+00 -0.46143925089E+03  0.92333586954E+03  0.79976430635E+03 0.  0.
        5    1    3    3  502    0 -0.37714175378E+03 -0.74912180351E+02 -0.10406030856E+03  0.39836964621E+03  0.46999998093E+01 0.  1.
       -5    1    3    3    0  502  0.37714175378E+03  0.74912180351E+02 -0.35737894233E+03  0.52496622332E+03  0.46999998093E+01 0. -1.
</event>
<event>
 5   0  0.5813850E-03  0.7996637E+03  0.7818609E-02  0.9560504E-01
       -2   -1    0    0    0  501  0.00000000000E+00  0.00000000000E+00  0.15349516673E+03  0.15349516675E+03  0.25500000920E-02 0. -1.
        2   -1    0    0  501    0  0.00000000000E+00  0.00000000000E+00 -0.10415019431E+04  0.10415019431E+04  0.25500000920E-02 0.  1.
    10030    2    1    2    0    0  0.00000000000E+00  0.00000000000E+00 -0.88800677633E+03  0.11949971098E+04  0.79966371536E+03 0.  0.
        5    1    3    3  502    0  0.16971294980E+03  0.28516662328E+03 -0.11078488239E+03  0.34988264965E+03  0.46999998093E+01 0. -1.
       -5    1    3    3    0  502 -0.16971294980E+03 -0.28516662328E+03 -0.77722189394E+03  0.84511446017E+03  0.46999998093E+01 0.  1.
</event>
<event>
 5   0  0.6256781E-03  0.7992709E+03  0.7818609E-02  0.9561073E-01
        2   -1    0    0  501    0  0.00000000000E+00  0.00000000000E+00  0.70215027360E+03  0.70215027361E+03  0.25500000920E-02 0. -1.
       -2   -1    0    0    0  501  0.00000000000E+00  0.00000000000E+00 -0.22745626187E+03  0.22745626188E+03  0.25500000920E-02 0.  1.
    10030    2    1    2    0    0  0.00000000000E+00  0.00000000000E+00  0.47469401174E+03  0.92960653549E+03  0.79927085900E+03 0.  0.
        1    1    3    3  502    0 -0.27378695647E+03 -0.24820602919E+03  0.60411696217E+02  0.37445307253E+03  0.50400001928E-02 0.  1.
       -1    1    3    3    0  502  0.27378695647E+03  0.24820602919E+03  0.41428231552E+03  0.55515346296E+03  0.50400001928E-02 0. -1.
</event>
<event>
 5   0  0.3753450E-03  0.8034555E+03  0.7818609E-02  0.9555029E-01
        1   -1    0    0  501    0  0.00000000000E+00  0.00000000000E+00  0.42163555516E+03  0.42163555519E+03  0.50400001928E-02 0. -1.
       -1   -1    0    0    0  501  0.00000000000E+00  0.00000000000E+00 -0.38275995136E+03  0.38275995139E+03  0.50400001928E-02 0.  1.
    10030    2    1    2    0    0  0.00000000000E+00  0.00000000000E+00  0.38875603801E+02  0.80439550658E+03  0.80345554852E+03 0.  0.
        5    1    3    3  502    0  0.15354799581E+03 -0.30021809756E+03 -0.19911834617E+03  0.39163516045E+03  0.46999998093E+01 0.  1.
       -5    1    3    3    0  502 -0.15354799581E+03  0.30021809756E+03  0.23799394997E+03  0.41276034613E+03  0.46999998093E+01 0. -1.
</event>
<event>
 5   0  0.3671128E-03  0.7991656E+03  0.7818609E-02  0.9561226E-01
        1   -1    0    0  501    0  0.00000000000E+00  0.00000000000E+00  0.50700365689E+03  0.50700365692E+03  0.50400001928E-02 0. -1.
       -1   -1    0    0    0  501  0.00000000000E+00  0.00000000000E+00 -0.31492165174E+03  0.31492165178E+03  0.50400001928E-02 0.  1.
    10030    2    1    2    0    0  0.00000000000E+00  0.00000000000E+00  0.19208200515E+03  0.82192530870E+03  0.79916563764E+03 0.  0.
        2    1    3    3  502    0  0.12029667745E+03 -0.38036061121E+03  0.72566789606E+02  0.40547678617E+03  0.25500000920E-02 0. -1.
       -2    1    3    3    0  502 -0.12029667745E+03  0.38036061121E+03  0.11951521554E+03  0.41644852253E+03  0.25500000920E-02 0.  1.
</event>
<event>
 5   0  0.6337108E-03  0.7988907E+03  0.7818609E-02  0.9561624E-01
       -2   -1    0    0    0  501  0.00000000000E+00  0.00000000000E+00  0.95192853284E+02  0.95192853318E+02  0.25500000920E-02 0. -1.
        2   -1    0    0  501    0  0.00000000000E+00  0.00000000000E+00 -0.16761403250E+04  0.16761403250E+04  0.25500000920E-02 0.  1.
    10030    2    1    2    0    0  0.00000000000E+00  0.00000000000E+00 -0.15809474717E+04  0.17713331783E+04  0.79889068107E+03 0.  0.
        4    1    3    3  502    0 -0.26220424729E+03 -0.25617839007E+03 -0.11422859058E+04  0.11996654277E+04  0.12699999809E+01 0.  1.
       -4    1    3    3    0  502  0.26220424729E+03  0.25617839007E+03 -0.43866156590E+03  0.57166775065E+03  0.12699999809E+01 0. -1.
</event>
<event>
 5   0  0.6256781E-03  0.8000661E+03  0.7818609E-02  0.9559921E-01
        2   -1    0    0  501    0  0.00000000000E+00  0.00000000000E+00  0.58261636272E+03  0.58261636273E+03  0.25500000920E-02 0.  1.
       -2   -1    0    0    0  501  0.00000000000E+00  0.00000000000E+00 -0.27466861320E+03  0.27466861321E+03  0.25500000920E-02 0. -1.
    10030    2    1    2    0    0  0.00000000000E+00  0.00000000000E+00  0.30794774952E+03  0.85728497594E+03  0.80006606823E+03 0.  0.
        1    1    3    3  502    0  0.11125707316E+03 -0.10033592411E+03  0.55142028874E+03  0.57141033317E+03  0.50400001928E-02 0.  1.
       -1    1    3    3    0  502 -0.11125707316E+03  0.10033592411E+03 -0.24347253922E+03  0.28587464276E+03  0.50400001928E-02 0. -1.
</event>
<event>
 5   0  0.5813850E-03  0.7942762E+03  0.7818609E-02  0.9568339E-01
       -2   -1    0    0    0  501  0.00000000000E+00  0.00000000000E+00  0.15322590185E+03  0.15322590187E+03  0.25500000920E-02 0. -1.
        2   -1    0    0  501    0  0.00000000000E+00  0.00000000000E+00 -0.10293212032E+04  0.10293212032E+04  0.25500000920E-02 0.  1.
    10030    2    1    2    0    0  0.00000000000E+00  0.00000000000E+00 -0.87609530134E+03  0.11825471051E+04  0.79427619798E+03 0.  0.
        5    1    3    3  502    0  0.65059267762E+02 -0.24252944224E+03 -0.89607554992E+03  0.93060556620E+03  0.46999998093E+01 0.  1.
       -5    1    3    3    0  502 -0.65059267762E+02  0.24252944224E+03  0.19980248580E+02  0.25194153887E+03  0.46999998093E+01 0. -1.
</event>
<event>
 5   0  0.5813850E-03  0.8005906E+03  0.7818609E-02  0.9559163E-01
        2   -1    0    0  501    0  0.00000000000E+00  0.00000000000E+00  0.68841736612E+03  0.68841736612E+03  0.25500000920E-02 0. -1.
       -2   -1    0    0    0  501  0.00000000000E+00  0.00000000000E+00 -0.23276046399E+03  0.23276046400E+03  0.25500000920E-02 0.  1.
    10030    2    1    2    0    0  0.00000000000E+00  0.00000000000E+00  0.45565690213E+03  0.92117783012E+03  0.80059064587E+03 0.  0.
        5    1    3    3  502    0 -0.97838451971E+02 -0.29682514146E+03  0.51556865304E+03  0.60291844663E+03  0.46999998093E+01 0.  1.
       -5    1    3    3    0  502  0.97838451971E+02  0.29682514146E+03 -0.59911750918E+02  0.31825938349E+03  0.46999998093E+01 0. -1.
</event>
<event>
 5   0  0.5813850E-03  0.8014072E+03  0.7818609E-02  0.9557983E-01
       -2   -1    0    0    0  501  0.00000000000E+00  0.00000000000E+00  0.27601939532E+03  0.27601939534E+03  0.25500000920E-02 0.  1.
        2   -1    0    0  501    0  0.00000000000E+00  0.00000000000E+00 -0.58171045506E+03  0.58171045507E+03  0.25500000920E-02 0. -1.
    10030    2    1    2    0    0  0.00000000000E+00  0.00000000000E+00 -0.30569105974E+03  0.85772985041E+03  0.80140718257E+03 0.  0.
        5    1    3    3  502    0  0.28253082777E+03  0.26501489674E+03 -0.26243670576E+03  0.46792272724E+03  0.46999998093E+01 0. -1.
       -5    1    3    3    0  502 -0.28253082777E+03 -0.26501489674E+03 -0.43254353985E+02  0.38980712317E+03  0.46999998093E+01 0.  1.
</event>
<event>
 5   0  0.3753450E-03  0.7783878E+03  0.7818609E-02  0.9591838E-01
        1   -1    0    0  501    0  0.00000000000E+00  0.00000000000E+00  0.43874601877E+03  0.43874601880E+03  0.50400001928E-02 0.  1.
       -1   -1    0    0    0  501  0.00000000000E+00  0.00000000000E+00 -0.34523820037E+03  0.34523820040E+03  0.50400001928E-02 0. -1.
    10030    2    1    2    0    0  0.00000000000E+00  0.00000000000E+00  0.93507818402E+02  0.78398421920E+03  0.77838778501E+03 0.  0.
        5    1    3    3  502    0  0.29608746190E+03 -0.82062020946E+02 -0.19381023386E+03  0.36329940425E+03  0.46999998093E+01 0. -1.
       -5    1    3    3    0  502 -0.29608746190E+03  0.82062020946E+02  0.28731805226E+03  0.42068481495E+03  0.46999998093E+01 0.  1.
</event>
<event>
 5   0  0.6256781E-03  0.8000029E+03  0.7818609E-02  0.9560013E-01
       -2   -1    0    0    0  501  0.00000000000E+00  0.00000000000E+00  0.23670898615E+03  0.23670898616E+03  0.25500000920E-02 0. -1.
        2   -1    0    0  501    0  0.00000000000E+00  0.00000000000E+00 -0.67594043426E+03  0.67594043426E+03  0.25500000920E-02 0.  1.
    10030    2    1    2    0    0  0.00000000000E+00  0.00000000000E+00 -0.43923144811E+03  0.91264942042E+03  0.80000293724E+03 0.  0.
        1    1    3    3  502    0 -0.52282481391E+02 -0.10804609613E+03 -0.65491082460E+03  0.66581949878E+03  0.50400001928E-02 0.  1.
       -1    1    3    3    0  502  0.52282481391E+02  0.10804609613E+03  0.21567937649E+03  0.24682992164E+03  0.50400001928E-02 0. -1.
</event>
<event>
 5   0  0.3671128E-03  0.8018520E+03  0.7818609E-02  0.9557340E-01
       -1   -1    0    0    0  501  0.00000000000E+00  0.00000000000E+00  0.44103326828E+03  0.44103326831E+03  0.50400001928E-02 0. -1.
        1   -1    0    0  501    0  0.00000000000E+00  0.00000000000E+00 -0.36446601880E+03  0.36446601883E+03  0.50400001928E-02 0.  1.
    10030    2    1    2    0    0  0.00000000000E+00  0.00000000000E+00  0.76567249484E+02  0.80549928715E+03  0.80185195510E+03 0.  0.
        2    1    3    3  502    0  0.37208519874E+03  0.14841311977E+03  0.54722357215E+02  0.40431223779E+03  0.25500000920E-02 0. -1.
       -2    1    3    3    0  502 -0.37208519874E+03 -0.14841311977E+03  0.21844892269E+02  0.40118704935E+03  0.25500000920E-02 0.  1.
</event>
<event>
 5   0  0.3671128E-03  0.7988887E+03  0.7818609E-02  0.9561627E-01
       -1   -1    0    0    0  501  0.00000000000E+00  0.00000000000E+00  0.12831858317E+03  0.12831858327E+03  0.50400001928E-02 0.  1.
        1   -1    0    0  501    0  0.00000000000E+00  0.00000000000E+00 -0.12434348048E+04  0.12434348048E+04  0.50400001928E-02 0. -1.
    10030    2    1    2    0    0  0.00000000000E+00  0.00000000000E+00 -0.11151162216E+04  0.13717533881E+04  0.79888870937E+03 0.  0.
        2    1    3    3  502    0  0.39612507027E+03 -0.51304691314E+02 -0.56257886022E+03  0.68995812671E+03  0.25500000920E-02 0. -1.
       -2    1    3    3    0  502 -0.39612507027E+03  0.51304691314E+02 -0.55253736139E+03  0.68179526134E+03  0.25500000920E-02 0.  1.
</event>
<event>
 5   0  0.3627496E-03  0.7996906E+03  0.7818609E-02  0.9560465E-01
       -1   -1    0    0    0  501  0.00000000000E+00  0.00000000000E+00  0.18060997885E+03  0.18060997892E+03  0.50400001928E-02 0.  1.
        1   -1    0    0  501    0  0.00000000000E+00  0.00000000000E+00 -0.88520174949E+03  0.88520174950E+03  0.50400001928E-02 0. -1.
    10030    2    1    2    0    0  0.00000000000E+00  0.00000000000E+00 -0.70459177064E+03  0.10658117284E+04  0.79969061342E+03 0.  0.
        3    1    3    3  502    0 -0.29115110877E+03  0.26969164629E+03 -0.41722986796E+03  0.57583272322E+03  0.10100000352E+00 0.  1.
       -3    1    3    3    0  502  0.29115110877E+03 -0.26969164629E+03 -0.28736190268E+03  0.48997900520E+03  0.10100000352E+00 0. -1.
</event>
<event>
 5   0  0.6256781E-03  0.8030644E+03  0.7818609E-02  0.9555592E-01
       -2   -1    0    0    0  501  0.00000000000E+00  0.00000000000E+00  0.55769271903E+03  0.55769271904E+03  0.25500000920E-02 0. -1.
        2   -1    0    0  501    0  0.00000000000E+00  0.00000000000E+00 -0.28909849713E+03  0.28909849714E+03  0.25500000920E-02 0.  1.
    10030    2    1    2    0    0  0.00000000000E+00  0.00000000000E+00  0.26859422190E+03  0.84679121618E+03  0.80306444808E+03 0.  0.
        1    1    3    3  502    0 -0.20979759737E+03  0.11200908464E+03  0.47543578505E+03  0.53160159202E+03  0.50400001928E-02 0. -1.
       -1    1    3    3    0  502  0.20979759737E+03 -0.11200908464E+03 -0.20684156315E+03  0.31518962416E+03  0.50400001928E-02 0.  1.
</event>
<event>
 5   0  0.3860515E-03  0.7960173E+03  0.7818609E-02  0.9565800E-01
        1   -1    0    0  501    0  0.00000000000E+00  0.00000000000E+00  0.10109008649E+04  0.10109008649E+04  0.50400001928E-02 0.  1.
       -1   -1    0    0    0  501  0.00000000000E+00  0.00000000000E+00 -0.15670267564E+03  0.15670267572E+03  0.50400001928E-02 0. -1.
    10030    2    1    2    0    0  0.00000000000E+00  0.00000000000E+00  0.85419818927E+03  0.11676035406E+04  0.79601726209E+03 0.  0.
        4    1    3    3  502    0 -0.17237377385E+03  0.34558317293E+03  0.28588276770E+03  0.48049039229E+03  0.12699999809E+01 0.  1.
       -4    1    3    3    0  502  0.17237377385E+03 -0.34558317293E+03  0.56831542158E+03  0.68711314834E+03  0.12699999809E+01 0. -1.
</event>
<event>
 5   0  0.3860515E-03  0.8025342E+03  0.7818609E-02  0.9556356E-01
       -1   -1    0    0    0  501  0.00000000000E+00  0.00000000000E+00  0.24773700247E+03  0.24773700252E+03  0.50400001928E-02 0.  1.
        1   -1    0    0  501    0  0.00000000000E+00  0.00000000000E+00 -0.64994448549E+03  0.64994448551E+03  0.50400001928E-02 0. -1.
    10030    2    1    2    0    0  0.00000000000E+00  0.00000000000E+00 -0.40220748302E+03  0.89768148803E+03  0.80253423264E+03 0.  0.
        4    1    3    3  502    0  0.10938967297E+03 -0.33365676673E+03  0.16140786501E+02  0.35150402049E+03  0.12699999809E+01 0.  1.
       -4    1    3    3    0  502 -0.10938967297E+03  0.33365676673E+03 -0.41834826952E+03  0.54617746754E+03  0.12699999809E+01 0. -1.
</event>
<event>
 5   0  0.3627496E-03  0.7997889E+03  0.7818609E-02  0.9560323E-01
       -1   -1    0    0    0  501  0.00000000000E+00  0.00000000000E+00  0.86557347312E+03  0.86557347313E+03  0.50400001928E-02 0. -1.
        1   -1    0    0  501    0  0.00000000000E+00  0.00000000000E+00 -0.18475100408E+03  0.18475100415E+03  0.50400001928E-02 0.  1.
    10030    2    1    2    0    0  0.00000000000E+00  0.00000000000E+00  0.68082246904E+03  0.10503244773E+04  0.79978889292E+03 0.  0.
        3    1    3    3  502    0 -0.18622869398E+03 -0.15626745989E+03 -0.76564235678E+02  0.25487788815E+03  0.10100000352E+00 0.  1.
       -3    1    3    3    0  502  0.18622869398E+03  0.15626745989E+03  0.75738670472E+03  0.79544658913E+03  0.10100000352E+00 0. -1.
</event>
<event>
 5   0  0.6153659E-03  0.8016161E+03  0.7818609E-02  0.9557681E-01
        2   -1    0    0  501    0  0.00000000000E+00  0.00000000000E+00  0.17901657816E+04  0.17901657816E+04  0.25500000920E-02 0.  1.
       -2   -1    0    0    0  501  0.00000000000E+00  0.00000000000E+00 -0.89738673927E+02  0.89738673964E+02  0.25500000920E-02 0. -1.
    10030    2    1    2    0    0  0.00000000000E+00  0.00000000000E+00  0.17004271076E+04  0.18799044555E+04  0.80161612604E+03 0.  0.
        2    1    3    3  502    0 -0.31264202995E+03  0.19985324485E+03  0.12055684631E+04  0.12613808614E+04  0.25500000920E-02 0.  1.
       -2    1    3    3    0  502  0.31264202995E+03 -0.19985324485E+03  0.49485864454E+03  0.61852359409E+03  0.25500000920E-02 0. -1.
</event>
<event>
 5   0  0.6337108E-03  0.7991929E+03  0.7818609E-02  0.9561186E-01
        2   -1    0    0  501    0  0.00000000000E+00  0.00000000000E+00  0.77579158240E+03  0.77579158240E+03  0.25500000920E-02 0.  1.
       -2   -1    0    0    0  501  0.00000000000E+00  0.00000000000E+00 -0.20582502999E+03  0.20582503000E+03  0.25500000920E-02 0. -1.
    10030    2    1    2    0    0  0.00000000000E+00  0.00000000000E+00  0.56996655241E+03  0.98161661240E+03  0.79919290717E+03 0.  0.
        4    1    3    3  502    0  0.20954492033E+03 -0.33962055174E+03  0.25967635189E+03  0.47611407607E+03  0.12699999809E+01 0.  1.
       -4    1    3    3    0  502 -0.20954492033E+03  0.33962055174E+03  0.31029020052E+03  0.50550253634E+03  0.12699999809E+01 0. -1.
</event>
<event>
 5   0  0.5813850E-03  0.7994926E+03  0.7818609E-02  0.9560752E-01
       -2   -1    0    0    0  501  0.00000000000E+00  0.00000000000E+00  0.13262359454E+03  0.13262359456E+03  0.25500000920E-02 0.  1.
        2   -1    0    0  501    0  0.00000000000E+00  0.00000000000E+00 -0.12048919955E+04  0.12048919955E+04  0.25500000920E-02 0. -1.
    10030    2    1    2    0    0  0.00000000000E+00  0.00000000000E+00 -0.10722684010E+04  0.13375155901E+04  0.79949260782E+03 0.  0.
        5    1    3    3  502    0  0.35705033283E+02 -0.61033885264E+02 -0.11942993054E+04  0.11963999772E+04  0.46999998093E+01 0. -1.
       -5    1    3    3    0  502 -0.35705033283E+02  0.61033885264E+02  0.12203090445E+03  0.14111561285E+03  0.46999998093E+01 0.  1.
</event>
<event>
 5   0  0.6536209E-03  0.8023218E+03  0.7818609E-02  0.9556663E-01
        2   -1    0    0  501    0  0.00000000000E+00  0.00000000000E+00  0.51912465958E+03  0.51912465959E+03  0.25500000920E-02 0.  1.
       -2   -1    0    0    0  501  0.00000000000E+00  0.00000000000E+00 -0.31000272021E+03  0.31000272022E+03  0.25500000920E-02 0. -1.
    10030    2    1    2    0    0  0.00000000000E+00  0.00000000000E+00  0.20912193938E+03  0.82912737981E+03  0.80232177237E+03 0.  0.
        3    1    3    3  502    0  0.36754412490E+03 -0.30894505743E+02  0.26758739738E+03  0.45568210374E+03  0.10100000352E+00 0.  1.
       -3    1    3    3    0  502 -0.36754412490E+03  0.30894505743E+02 -0.58465458004E+02  0.37344527606E+03  0.10100000352E+00 0. -1.
</event>
<event>
 5   0  0.5813850E-03  0.8001588E+03  0.7818609E-02  0.9559787E-01
       -2   -1    0    0    0  501  0.00000000000E+00  0.00000000000E+00  0.49861548364E+03  0.49861548364E+03  0.25500000920E-02 0.  1.
        2   -1    0    0  501    0  0.00000000000E+00  0.00000000000E+00 -0.32101591728E+03  0.32101591729E+03  0.25500000920E-02 0. -1.
    10030    2    1    2    0    0  0.00000000000E+00  0.00000000000E+00  0.17759956636E+03  0.81963140093E+03  0.80015875139E+03 0.  0.
        5    1    3    3  502    0  0.28920031702E+03 -0.30718833717E+01 -0.19432334151E+03  0.34846794815E+03  0.46999998093E+01 0. -1.
       -5    1    3    3    0  502 -0.28920031702E+03  0.30718833717E+01  0.37192290787E+03  0.47116345278E+03  0.46999998093E+01 0.  1.
</event>
<event>
 5   0  0.6153659E-03  0.7982745E+03  0.7818609E-02  0.9562518E-01
        2   -1    0    0  501    0  0.00000000000E+00  0.00000000000E+00  0.55234980799E+03  0.55234980800E+03  0.25500000920E-02 0. -1.
       -2   -1    0    0    0  501  0.00000000000E+00  0.00000000000E+00 -0.28842330621E+03  0.28842330622E+03  0.25500000920E-02 0.  1.
    10030    2    1    2    0    0  0.00000000000E+00  0.00000000000E+00  0.26392650178E+03  0.84077311422E+03  0.79827453376E+03 0.  0.
        2    1    3    3  502    0  0.38124645685E+03  0.10806318583E+03  0.18229926829E+03  0.43618750122E+03  0.25500000920E-02 0. -1.
       -2    1    3    3    0  502 -0.38124645685E+03 -0.10806318583E+03  0.81627233495E+02  0.40458561300E+03  0.25500000920E-02 0.  1.
</event>
<event>
 5   0  0.3714448E-03  0.8043449E+03  0.7818609E-02  0.9553749E-01
       -1   -1    0    0    0  501  0.00000000000E+00  0.00000000000E+00  0.50168242824E+03  0.50168242826E+03  0.50400001928E-02 0. -1.
        1   -1    0    0  501    0  0.00000000000E+00  0.00000000000E+00 -0.32240052466E+03  0.32240052470E+03  0.50400001928E-02 0.  1.
    10030    2    1    2    0    0  0.00000000000E+00  0.00000000000E+00  0.17928190358E+03  0.82408295296E+03  0.80434489642E+03 0.  0.
        1    1    3    3  502    0  0.22968482313E+03  0.32838346025E+03  0.12441290273E+03  0.41960622652E+03  0.50400001928E-02 0.  1.
       -1    1    3    3    0  502 -0.22968482313E+03 -0.32838346025E+03  0.54869000848E+02  0.40447672643E+03  0.50400001928E-02 0. -1.
</event>
<event>
 5   0  0.3860515E-03  0.8000542E+03  0.7818609E-02  0.9559939E-01
       -1   -1    0    0    0  501  0.00000000000E+00  0.00000000000E+00  0.24595536795E+03  0.24595536800E+03  0.50400001928E-02 0.  1.
        1   -1    0    0  501    0  0.00000000000E+00  0.00000000000E+00 -0.65061273550E+03  0.65061273552E+03  0.50400001928E-02 0. -1.
    10030    2    1    2    0    0  0.00000000000E+00  0.00000000000E+00 -0.40465736756E+03  0.89656810352E+03  0.80005423512E+03 0.  0.
        4    1    3    3  502    0 -0.37086040163E+02 -0.65378617486E+01  0.24396232363E+03  0.24685490933E+03  0.12699999809E+01 0.  1.
       -4    1    3    3    0  502  0.37086040163E+02  0.65378617486E+01 -0.64861969118E+03  0.64971319419E+03  0.12699999809E+01 0. -1.
</event>
<event>
 5   0  0.6337108E-03  0.8012457E+03  0.7818609E-02  0.9558216E-01
        2   -1    0    0  501    0  0.00000000000E+00  0.00000000000E+00  0.81407697381E+03  0.81407697382E+03  0.25500000920E-02 0. -1.
       -2   -1    0    0    0  501  0.00000000000E+00  0.00000000000E+00 -0.19715415613E+03  0.19715415615E+03  0.25500000920E-02 0.  1.
    10030    2    1    2    0    0  0.00000000000E+00  0.00000000000E+00  0.61692281768E+03  0.10112311300E+04  0.80124567720E+03 0.  0.
        4    1    3    3  502    0  0.78673870798E+02 -0.18637296491E+03  0.74487728566E+03  0.77186024875E+03  0.12699999809E+01 0. -1.
       -4    1    3    3    0  502 -0.78673870798E+02  0.18637296491E+03 -0.12795446798E+03  0.23937088122E+03  0.12699999809E+01 0.  1.
</event>
<event>
 5   0  0.6337108E-03  0.7988046E+03  0.7818609E-02  0.9561749E-01
       -2   -1    0    0    0  501  0.00000000000E+00  0.00000000000E+00  0.23812945203E+03  0.23812945204E+03  0.25500000920E-02 0. -1.
        2   -1    0    0  501    0  0.00000000000E+00  0.00000000000E+00 -0.66989690155E+03  0.66989690156E+03  0.25500000920E-02 0.  1.
    10030    2    1    2    0    0  0.00000000000E+00  0.00000000000E+00 -0.43176744952E+03  0.90802635360E+03  0.79880456206E+03 0.  0.
        4    1    3    3  502    0  0.18866717456E+03 -0.15954304840E+03 -0.57259161267E+03  0.62362813828E+03  0.12699999809E+01 0.  1.
       -4    1    3    3    0  502 -0.18866717456E+03  0.15954304840E+03  0.14082416315E+03  0.28439821532E+03  0.12699999809E+01 0. -1.
</event>
<event>
 5   0  0.3671128E-03  0.8017597E+03  0.7818609E-02  0.9557474E-01
        1   -1    0    0  501    0  0.00000000000E+00  0.00000000000E+00  0.48184746445E+03  0.48184746448E+03  0.50400001928E-02 0.  1.
       -1   -1    0    0    0  501  0.00000000000E+00  0.00000000000E+00 -0.33351765769E+03  0.33351765773E+03  0.50400001928E-02 0. -1.
    10030    2    1    2    0    0  0.00000000000E+00  0.00000000000E+00  0.14832980676E+03  0.81536512221E+03  0.80175965909E+03 0.  0.
        2    1    3    3  502    0 -0.63247685167E+02  0.26462868676E+03 -0.22523897766E+03  0.35321552712E+03  0.25500000920E-02 0. -1.
       -2    1    3    3    0  502  0.63247685167E+02 -0.26462868676E+03  0.37356878443E+03  0.46214959509E+03  0.25500000920E-02 0.  1.
</event>
<event>
 5   0  0.2478000E-03  0.7998644E+03  0.7818609E-02  0.9560213E-01
        4   -1    0    0  501    0  0.00000000000E+00  0.00000000000E+00  0.62208177874E+03  0.62208307512E+03  0.12699999809E+01 0.  1.
       -4   -1    0    0    0  501  0.00000000000E+00  0.00000000000E+00 -0.25711057745E+03  0.25711371402E+03  0.12699999809E+01 0. -1.
    10030    2    1    2    0    0  0.00000000000E+00  0.00000000000E+00  0.36497120129E+03  0.87919678914E+03  0.79986437366E+03 0.  0.
        1    1    3    3  502    0 -0.29451787467E+03 -0.16625882523E+03  0.41711141524E+03  0.53699600392E+03  0.50400001928E-02 0.  1.
       -1    1    3    3    0  502  0.29451787467E+03  0.16625882523E+03 -0.52140213951E+02  0.34220078522E+03  0.50400001928E-02 0. -1.
</event>
<event>
 5   0  0.6153659E-03  0.7999285E+03  0.7818609E-02  0.9560121E-01
       -2   -1    0    0    0  501  0.00000000000E+00  0.00000000000E+00  0.91768021111E+03  0.91768021111E+03  0.25500000920E-02 0. -1.
        2   -1    0    0  501    0  0.00000000000E+00  0.00000000000E+00 -0.17432152336E+03  0.17432152337E+03  0.25500000920E-02 0.  1.
    10030    2    1    2    0    0  0.00000000000E+00  0.00000000000E+00  0.74335868775E+03  0.10920017345E+04  0.79992852772E+03 0.  0.
        2    1    3    3  502    0 -0.39656407539E+03 -0.42917577996E+02  0.41186197535E+03  0.57335440274E+03  0.25500000920E-02 0. -1.
       -2    1    3    3    0  502  0.39656407539E+03  0.42917577996E+02  0.33149671240E+03  0.51864733175E+03  0.25500000920E-02 0.  1.
</event>
<event>
 5   0  0.6536209E-03  0.7917148E+03  0.7818609E-02  0.9572088E-01
        2   -1    0    0  501    0  0.00000000000E+00  0.00000000000E+00  0.15529063482E+03  0.15529063484E+03  0.25500000920E-02 0. -1.
       -2   -1    0    0    0  501  0.00000000000E+00  0.00000000000E+00 -0.10090955352E+04  0.10090955352E+04  0.25500000920E-02 0.  1.
    10030    2    1    2    0    0  0.00000000000E+00  0.00000000000E+00 -0.85380490042E+03  0.11643861701E+04  0.79171481299E+03 0.  0.
        3    1    3    3  502    0 -0.19671155723E+03 -0.11030729160E+03 -0.90537063138E+03  0.93303758000E+03  0.10100000352E+00 0.  1.
       -3    1    3    3    0  502  0.19671155723E+03  0.11030729160E+03  0.51565730958E+02  0.23134859009E+03  0.10100000352E+00 0. -1.
</event>
<event>
 5   0  0.2478000E-03  0.8026722E+03  0.7818609E-02  0.9556157E-01
        3   -1    0    0  501    0  0.00000000000E+00  0.00000000000E+00  0.75476827404E+03  0.75476828080E+03  0.10100000352E+00 0.  1.
       -3   -1    0    0    0  501  0.00000000000E+00  0.00000000000E+00 -0.21340408823E+03  0.21340411213E+03  0.10100000352E+00 0. -1.
    10030    2    1    2    0    0  0.00000000000E+00  0.00000000000E+00  0.54136418580E+03  0.96817239293E+03  0.80267216269E+03 0.  0.
        1    1    3    3  502    0 -0.13671219326E+03  0.20579215655E+02  0.72513907553E+03  0.73820079029E+03  0.50400001928E-02 0.  1.
       -1    1    3    3    0  502  0.13671219326E+03 -0.20579215655E+02 -0.18377488972E+03  0.22997160264E+03  0.50400001928E-02 0. -1.
</event>
<event>
 5   0  0.6153659E-03  0.7990419E+03  0.7818609E-02  0.9561405E-01
       -2   -1    0    0    0  501  0.00000000000E+00  0.00000000000E+00  0.92896596539E+02  0.92896596574E+02  0.25500000920E-02 0. -1.
        2   -1    0    0  501    0  0.00000000000E+00  0.00000000000E+00 -0.17182220164E+04  0.17182220164E+04  0.25500000920E-02 0.  1.
    10030    2    1    2    0    0  0.00000000000E+00  0.00000000000E+00 -0.16253254199E+04  0.18111186130E+04  0.79904186988E+03 0.  0.
        2    1    3    3  502    0 -0.25398174986E+02 -0.72870019038E+02 -0.17011688116E+04  0.17029182108E+04  0.25500000920E-02 0.  1.
       -2    1    3    3    0  502  0.25398174986E+02  0.72870019038E+02  0.75843391728E+02  0.10820040223E+03  0.25500000920E-02 0. -1.
</event>
<event>
 5   0  0.6256781E-03  0.7999258E+03  0.7818609E-02  0.9560124E-01
        2   -1    0    0  501    0  0.00000000000E+00  0.00000000000E+00  0.11833989263E+04  0.11833989263E+04  0.25500000920E-02 0.  1.
       -2   -1    0    0    0  501  0.00000000000E+00  0.00000000000E+00 -0.13517870825E+03  0.13517870827E+03  0.25500000920E-02 0. -1.
    10030    2    1    2    0    0  0.00000000000E+00  0.00000000000E+00  0.10482202180E+04  0.13185776345E+04  0.79992584210E+03 0.  0.
        1    1    3    3  502    0 -0.18994555144E+03  0.32304122029E+03  0.75450194404E+03  0.84244176422E+03  0.50400001928E-02 0.  1.
       -1    1    3    3    0  502  0.18994555144E+03 -0.32304122029E+03  0.29371827398E+03  0.47613587033E+03  0.50400001928E-02 0. -1.
</event>
<event>
 5   0  0.3627496E-03  0.8039376E+03  0.7818609E-02  0.9554335E-01
       -1   -1    0    0    0  501  0.00000000000E+00  0.00000000000E+00  0.24672671011E+03  0.24672671016E+03  0.50400001928E-02 0.  1.
        1   -1    0    0  501    0  0.00000000000E+00  0.00000000000E+00 -0.65489025189E+03  0.65489025191E+03  0.50400001928E-02 0. -1.
    10030    2    1    2    0    0  0.00000000000E+00  0.00000000000E+00 -0.40816354179E+03  0.90161696207E+03  0.80393760296E+03 0.  0.
        3    1    3    3  502    0  0.16850271051E+02 -0.30202782204E+03 -0.50096024750E+03  0.58520587548E+03  0.10100000352E+00 0. -1.
       -3    1    3    3    0  502 -0.16850271051E+02  0.30202782204E+03  0.92796705715E+02  0.31641108659E+03  0.10100000352E+00 0.  1.
</event>
<event>
 5   0  0.5813850E-03  0.7971937E+03  0.7818609E-02  0.9564088E-01
        2   -1    0    0  501    0  0.00000000000E+00  0.00000000000E+00  0.38242420983E+03  0.38242420984E+03  0.25500000920E-02 0.  1.
       -2   -1    0    0    0  501  0.00000000000E+00  0.00000000000E+00 -0.41545341743E+03  0.41545341744E+03  0.25500000920E-02 0. -1.
    10030    2    1    2    0    0  0.00000000000E+00  0.00000000000E+00 -0.33029207598E+02  0.79787762728E+03  0.79719369012E+03 0.  0.
        5    1    3    3  502    0 -0.19383561543E+03  0.16693287183E+03  0.28939206079E+03  0.38627539962E+03  0.46999998093E+01 0.  1.
       -5    1    3    3    0  502  0.19383561543E+03 -0.16693287183E+03 -0.32242126839E+03  0.41160222766E+03  0.46999998093E+01 0. -1.
</event>
<event>
 5   0  0.6337108E-03  0.8146500E+03  0.7818609E-02  0.9539051E-01
        2   -1    0    0  501    0  0.00000000000E+00  0.00000000000E+00  0.14872882803E+03  0.14872882805E+03  0.25500000920E-02 0. -1.
       -2   -1    0    0    0  501  0.00000000000E+00  0.00000000000E+00 -0.11155446388E+04  0.11155446388E+04  0.25500000920E-02 0.  1.
    10030    2    1    2    0    0  0.00000000000E+00  0.00000000000E+00 -0.96681581079E+03  0.12642734669E+04  0.81464997823E+03 0.  0.
        4    1    3    3  502    0 -0.42670325476E+02 -0.16866411627E+03 -0.10549783662E+04  0.10692283698E+04  0.12699999809E+01 0.  1.
       -4    1    3    3    0  502  0.42670325476E+02  0.16866411627E+03  0.88162555429E+02  0.19504509702E+03  0.12699999809E+01 0. -1.
</event>
<event>
 5   0  0.6153659E-03  0.7946979E+03  0.7818609E-02  0.9567724E-01
        2   -1    0    0  501    0  0.00000000000E+00  0.00000000000E+00  0.15405245361E+04  0.15405245361E+04  0.25500000920E-02 0. -1.
       -2   -1    0    0    0  501  0.00000000000E+00  0.00000000000E+00 -0.10248858712E+03  0.10248858715E+03  0.25500000920E-02 0.  1.
    10030    2    1    2    0    0  0.00000000000E+00  0.00000000000E+00  0.14380359490E+04  0.16430131233E+04  0.79469788765E+03 0.  0.
        2    1    3    3  502    0 -0.82619668597E+02  0.18091921857E+02  0.15216988903E+04  0.15240475189E+04  0.25500000920E-02 0. -1.
       -2    1    3    3    0  502  0.82619668597E+02 -0.18091921857E+02 -0.83662941256E+02  0.11896560436E+03  0.25500000920E-02 0.  1.
</event>
<event>
 5   0  0.3627496E-03  0.8005674E+03  0.7818609E-02  0.9559196E-01
        1   -1    0    0  501    0  0.00000000000E+00  0.00000000000E+00  0.36209631170E+03  0.36209631174E+03  0.50400001928E-02 0.  1.
       -1   -1    0    0    0  501  0.00000000000E+00  0.00000000000E+00 -0.44249840425E+03  0.44249840428E+03  0.50400001928E-02 0. -1.
    10030    2    1    2    0    0  0.00000000000E+00  0.00000000000E+00 -0.80402092546E+02  0.80459471602E+03  0.80056739913E+03 0.  0.
        3    1    3    3  502    0 -0.19478135460E+03  0.34325908970E+03 -0.10732363082E+03  0.40900482967E+03  0.10100000352E+00 0.  1.
       -3    1    3    3    0  502  0.19478135460E+03 -0.34325908970E+03  0.26921538271E+02  0.39558988635E+03  0.10100000352E+00 0. -1.
</event>
<event>
 5   0  0.3753450E-03  0.7995039E+03  0.7818609E-02  0.9560735E-01
       -1   -1    0    0    0  501  0.00000000000E+00  0.00000000000E+00  0.27241192049E+03  0.27241192054E+03  0.50400001928E-02 0. -1.
        1   -1    0    0  501    0  0.00000000000E+00  0.00000000000E+00 -0.58661763819E+03  0.58661763821E+03  0.50400001928E-02 0.  1.
    10030    2    1    2    0    0  0.00000000000E+00  0.00000000000E+00 -0.31420571770E+03  0.85902955875E+03  0.79950393981E+03 0.  0.
        5    1    3    3  502    0 -0.16388947021E+03  0.22267495496E+03 -0.46727509586E+03  0.54296592823E+03  0.46999998093E+01 0.  1.
       -5    1    3    3    0  502  0.16388947021E+03 -0.22267495496E+03  0.15306937816E+03  0.31606363052E+03  0.46999998093E+01 0. -1.
</event>
<event>
 5   0  0.6256781E-03  0.7924803E+03  0.7818609E-02  0.9570966E-01
        2   -1    0    0  501    0  0.00000000000E+00  0.00000000000E+00  0.57340310581E+03  0.57340310581E+03  0.25500000920E-02 0.  1.
       -2   -1    0    0    0  501  0.00000000000E+00  0.00000000000E+00 -0.27381482389E+03  0.27381482390E+03  0.25500000920E-02 0. -1.
    10030    2    1    2    0    0  0.00000000000E+00  0.00000000000E+00  0.29958828191E+03  0.84721792972E+03  0.79248033526E+03 0.  0.
        1    1    3    3  502    0 -0.36559691258E+02  0.17679696723E+03  0.52687860348E+03  0.55695138161E+03  0.50400001928E-02 0.  1.
       -1    1    3    3    0  502  0.36559691258E+02 -0.17679696723E+03 -0.22729032157E+03  0.29026654811E+03  0.50400001928E-02 0. -1.
</event>
<event>
 5   0  0.5813850E-03  0.8004519E+03  0.7818609E-02  0.9559363E-01
       -2   -1    0    0    0  501  0.00000000000E+00  0.00000000000E+00  0.32488252607E+03  0.32488252608E+03  0.25500000920E-02 0.  1.
        2   -1    0    0  501    0  0.00000000000E+00  0.00000000000E+00 -0.49304222835E+03  0.49304222836E+03  0.25500000920E-02 0. -1.
    10030    2    1    2    0    0  0.00000000000E+00  0.00000000000E+00 -0.16815970228E+03  0.81792475443E+03  0.80045188390E+03 0.  0.
        5    1    3    3  502    0  0.63260698649E+02 -0.35421566982E+03 -0.26308388727E+03  0.44576437552E+03  0.46999998093E+01 0. -1.
       -5    1    3    3    0  502 -0.63260698649E+02  0.35421566982E+03  0.94924184990E+02  0.37216037892E+03  0.46999998093E+01 0.  1.
</event>
<event>
 5   0  0.5813850E-03  0.7995264E+03  0.7818609E-02  0.9560703E-01
       -2   -1    0    0    0  501  0.00000000000E+00  0.00000000000E+00  0.92325023465E+02  0.92325023501E+02  0.25500000920E-02 0.  1.
        2   -1    0    0  501    0  0.00000000000E+00  0.00000000000E+00 -0.17309568176E+04  0.17309568176E+04  0.25500000920E-02 0. -1.
    10030    2    1    2    0    0  0.00000000000E+00  0.00000000000E+00 -0.16386317941E+04  0.18232818411E+04  0.79952643192E+03 0.  0.
        5    1    3    3  502    0 -0.12730055816E+03  0.76143963666E+01  0.44626827608E+02  0.13519265838E+03  0.46999998093E+01 0.  1.
       -5    1    3    3    0  502  0.12730055816E+03 -0.76143963666E+01 -0.16832586217E+04  0.16880891827E+04  0.46999998093E+01 0. -1.
</event>
<event>
 5   0  0.3860515E-03  0.7969609E+03  0.7818609E-02  0.9564427E-01
       -1   -1    0    0    0  501  0.00000000000E+00  0.00000000000E+00  0.77786794705E+02  0.77786794868E+02  0.50400001928E-02 0.  1.
        1   -1    0    0  501    0  0.00000000000E+00  0.00000000000E+00 -0.20413061147E+04  0.20413061147E+04  0.50400001928E-02 0. -1.
    10030    2    1    2    0    0  0.00000000000E+00  0.00000000000E+00 -0.19635193200E+04  0.21190929095E+04  0.79696087696E+03 0.  0.
        4    1    3    3  502    0 -0.38831634902E+03  0.11647448290E+02 -0.12174917247E+04  0.12779722073E+04  0.12699999809E+01 0.  1.
       -4    1    3    3    0  502  0.38831634902E+03 -0.11647448290E+02 -0.74602759521E+03  0.84112070221E+03  0.12699999809E+01 0. -1.
</event>
<event>
 5   0  0.3860515E-03  0.7546290E+03  0.7818609E-02  0.9628116E-01
        1   -1    0    0  501    0  0.00000000000E+00  0.00000000000E+00  0.73111118087E+03  0.73111118088E+03  0.50400001928E-02 0. -1.
       -1   -1    0    0    0  501  0.00000000000E+00  0.00000000000E+00 -0.19472581328E+03  0.19472581335E+03  0.50400001928E-02 0.  1.
    10030    2    1    2    0    0  0.00000000000E+00  0.00000000000E+00  0.53638536758E+03  0.92583699423E+03  0.75462896667E+03 0.  0.
        4    1    3    3  502    0 -0.37245430818E+03 -0.48499646323E+01  0.19438735737E+03  0.42015924534E+03  0.12699999809E+01 0.  1.
       -4    1    3    3    0  502  0.37245430818E+03  0.48499646323E+01  0.34199801022E+03  0.50567774890E+03  0.12699999809E+01 0. -1.
</event>
<event>
 5   0  0.3671128E-03  0.7995470E+03  0.7818609E-02  0.9560673E-01
       -1   -1    0    0    0  501  0.00000000000E+00  0.00000000000E+00  0.23787306434E+03  0.23787306440E+03  0.50400001928E-02 0.  1.
        1   -1    0    0  501    0  0.00000000000E+00  0.00000000000E+00 -0.67186616529E+03  0.67186616531E+03  0.50400001928E-02 0. -1.
    10030    2    1    2    0    0  0.00000000000E+00  0.00000000000E+00 -0.43399310095E+03  0.90973922971E+03  0.79954703076E+03 0.  0.
        2    1    3    3  502    0 -0.34953690875E+03 -0.16141582834E+03 -0.33947857106E+03  0.51329993223E+03  0.25500000920E-02 0. -1.
       -2    1    3    3    0  502  0.34953690875E+03  0.16141582834E+03 -0.94514529888E+02  0.39643929747E+03  0.25500000920E-02 0.  1.
</event>
<event>
 5   0  0.6256781E-03  0.8003706E+03  0.7818609E-02  0.9559481E-01
       -2   -1    0    0    0  501  0.00000000000E+00  0.00000000000E+00  0.15152676582E+03  0.15152676584E+03  0.25500000920E-02 0. -1.
        2   -1    0    0  501    0  0.00000000000E+00  0.00000000000E+00 -0.10568974771E+04  0.10568974771E+04  0.25500000920E-02 0.  1.
    10030    2    1    2    0    0  0.00000000000E+00  0.00000000000E+00 -0.90537071131E+03  0.12084242430E+04  0.80037055550E+03 0.  0.
        1    1    3    3  502    0  0.17120601424E+02  0.15597168102E+03  0.10314569307E+03  0.18777463699E+03  0.50400001928E-02 0. -1.
       -1    1    3    3    0  502 -0.17120601424E+02 -0.15597168102E+03 -0.10085164044E+04  0.10206496060E+04  0.50400001928E-02 0.  1.
</event>
<event>
 5   0  0.5813850E-03  0.8009265E+03  0.7818609E-02  0.9558677E-01
       -2   -1    0    0    0  501  0.00000000000E+00  0.00000000000E+00  0.30943077268E+03  0.30943077269E+03  0.25500000920E-02 0.  1.
        2   -1    0    0  501    0  0.00000000000E+00  0.00000000000E+00 -0.51827688984E+03  0.51827688985E+03  0.25500000920E-02 0. -1.
    10030    2    1    2    0    0  0.00000000000E+00  0.00000000000E+00 -0.20884611717E+03  0.82770766254E+03  0.80092650972E+03 0.  0.
        5    1    3    3  502    0 -0.12624129930E+03  0.30776563116E+03  0.12594821762E+03  0.35572685152E+03  0.46999998093E+01 0.  1.
       -5    1    3    3    0  502  0.12624129930E+03 -0.30776563116E+03 -0.33479433479E+03  0.47198081102E+03  0.46999998093E+01 0. -1.
</event>
<event>
 5   0  0.6536209E-03  0.8223999E+03  0.7818609E-02  0.9528148E-01
        2   -1    0    0  501    0  0.00000000000E+00  0.00000000000E+00  0.74550568196E+03  0.74550568197E+03  0.25500000920E-02 0.  1.
       -2   -1    0    0    0  501  0.00000000000E+00  0.00000000000E+00 -0.22680629423E+03  0.22680629425E+03  0.25500000920E-02 0. -1.
    10030    2    1    2    0    0  0.00000000000E+00  0.00000000000E+00  0.51869938773E+03  0.97231197622E+03  0.82239985668E+03 0.  0.
        3    1    3    3  502    0  0.22685492938E+03 -0.11049661451E+03 -0.12450698240E+03  0.28137992052E+03  0.10100000352E+00 0. -1.
       -3    1    3    3    0  502 -0.22685492938E+03  0.11049661451E+03  0.64320637014E+03  0.69093205570E+03  0.10100000352E+00 0.  1.
</event>
<event>
 5   0  0.3860515E-03  0.7964969E+03  0.7818609E-02  0.9565102E-01
       -1   -1    0    0    0  501  0.00000000000E+00  0.00000000000E+00  0.28627701252E+04  0.28627701252E+04  0.50400001928E-02 0.  1.
        1   -1    0    0  501    0  0.00000000000E+00  0.00000000000E+00 -0.55401530866E+02  0.55401531095E+02  0.50400001928E-02 0. -1.
    10030    2    1    2    0    0  0.00000000000E+00  0.00000000000E+00  0.28073685943E+04  0.29181716563E+04  0.79649694989E+03 0.  0.
        4    1    3    3  502    0  0.14664861430E+03 -0.11829986482E+03  0.11823494543E+03  0.22244502538E+03  0.12699999809E+01 0. -1.
       -4    1    3    3    0  502 -0.14664861430E+03  0.11829986482E+03  0.26891336489E+04  0.26957266309E+04  0.12699999809E+01 0.  1.
</event>
<event>
 5   0  0.6256781E-03  0.7939476E+03  0.7818609E-02  0.9568819E-01
       -2   -1    0    0    0  501  0.00000000000E+00  0.00000000000E+00  0.77653193086E+02  0.77653193128E+02  0.25500000920E-02 0. -1.
        2   -1    0    0  501    0  0.00000000000E+00  0.00000000000E+00 -0.20293844492E+04  0.20293844492E+04  0.25500000920E-02 0.  1.
    10030    2    1    2    0    0  0.00000000000E+00  0.00000000000E+00 -0.19517312561E+04  0.21070376423E+04  0.79394756130E+03 0.  0.
        1    1    3    3  502    0  0.70742775115E+02 -0.17175330661E+03 -0.44796215886E+02  0.19107705134E+03  0.50400001928E-02 0. -1.
       -1    1    3    3    0  502 -0.70742775115E+02  0.17175330661E+03 -0.19069350402E+04  0.19159605910E+04  0.50400001928E-02 0.  1.
</event>
<event>
 5   0  0.3860515E-03  0.8017793E+03  0.7818609E-02  0.9557445E-01
       -1   -1    0    0    0  501  0.00000000000E+00  0.00000000000E+00  0.16892251692E+03  0.16892251700E+03  0.50400001928E-02 0. -1.
        1   -1    0    0  501    0  0.00000000000E+00  0.00000000000E+00 -0.95139769321E+03  0.95139769322E+03  0.50400001928E-02 0.  1.
    10030    2    1    2    0    0  0.00000000000E+00  0.00000000000E+00 -0.78247517629E+03  0.11203202102E+04  0.80177925386E+03 0.  0.
        4    1    3    3  502    0 -0.45664503626E+02 -0.72394585312E+02  0.15600301890E+03  0.17794599653E+03  0.12699999809E+01 0. -1.
       -4    1    3    3    0  502  0.45664503626E+02  0.72394585312E+02 -0.93847819519E+03  0.94237421369E+03  0.12699999809E+01 0.  1.
</event>
<event>
 5   0  0.6536209E-03  0.7955650E+03  0.7818609E-02  0.9566459E-01
        2   -1    0    0  501    0  0.00000000000E+00  0.00000000000E+00  0.62383959071E+03  0.62383959071E+03  0.25500000920E-02 0.  1.
       -2   -1    0    0    0  501  0.00000000000E+00  0.00000000000E+00 -0.25364036605E+03  0.25364036606E+03  0.25500000920E-02 0. -1.
    10030    2    1    2    0    0  0.00000000000E+00  0.00000000000E+00  0.37019922466E+03  0.87747995677E+03  0.79556496189E+03 0.  0.
        3    1    3    3  502    0 -0.30199571109E+03  0.71787021429E+02  0.45946103409E+03  0.55449007026E+03  0.10100000352E+00 0.  1.
       -3    1    3    3    0  502  0.30199571109E+03 -0.71787021429E+02 -0.89261809433E+02  0.32298988651E+03  0.10100000352E+00 0. -1.
</event>
<event>
 5   0  0.6337108E-03  0.7986872E+03  0.7818609E-02  0.9561919E-01
        2   -1    0    0  501    0  0.00000000000E+00  0.00000000000E+00  0.39678169826E+03  0.39678169827E+03  0.25500000920E-02 0. -1.
       -2   -1    0    0    0  501  0.00000000000E+00  0.00000000000E+00 -0.40192204169E+03  0.40192204169E+03  0.25500000920E-02 0.  1.
    10030    2    1    2    0    0  0.00000000000E+00  0.00000000000E+00 -0.51403434215E+01  0.79870373997E+03  0.79868719854E+03 0.  0.
        4    1    3    3  502    0 -0.18269217276E+03 -0.10414062499E+03 -0.34206504882E+03  0.40153681062E+03  0.12699999809E+01 0.  1.
       -4    1    3    3    0  502  0.18269217276E+03  0.10414062499E+03  0.33692470540E+03  0.39716692935E+03  0.12699999809E+01 0. -1.
</event>
<event>
 5   0  0.3714448E-03  0.7986045E+03  0.7818609E-02  0.9562039E-01
        1   -1    0    0  501    0  0.00000000000E+00  0.00000000000E+00  0.11504250659E+04  0.11504250660E+04  0.50400001928E-02 0. -1.
       -1   -1    0    0    0  501  0.00000000000E+00  0.00000000000E+00 -0.13859423149E+03  0.13859423158E+03  0.50400001928E-02 0.  1.
    10030    2    1    2    0    0  0.00000000000E+00  0.00000000000E+00  0.10118308345E+04  0.12890192975E+04  0.79860447775E+03 0.  0.
        1    1    3    3  502    0  0.10094815068E+03 -0.28217303029E+03  0.93183369777E+03  0.97883920460E+03  0.50400001928E-02 0. -1.
       -1    1    3    3    0  502 -0.10094815068E+03  0.28217303029E+03  0.79997136683E+02  0.31018009293E+03  0.50400001928E-02 0.  1.
</event>
<event>
 5   0  0.6256781E-03  0.8010814E+03  0.7818609E-02  0.9558453E-01
       -2   -1    0    0    0  501  0.00000000000E+00  0.00000000000E+00  0.10419373597E+03  0.10419373600E+03  0.25500000920E-02 0. -1.
        2   -1    0    0  501    0  0.00000000000E+00  0.00000000000E+00 -0.15397552631E+04  0.15397552631E+04  0.25500000920E-02 0.  1.
    10030    2    1    2    0    0  0.00000000000E+00  0.00000000000E+00 -0.14355615272E+04  0.16439489991E+04  0.80108140252E+03 0.  0.
        1    1    3    3  502    0 -0.53552177245E+02  0.80176673205E+02  0.80024110435E+02  0.12529961249E+03  0.50400001928E-02 0. -1.
       -1    1    3    3    0  502  0.53552177245E+02 -0.80176673205E+02 -0.15155856376E+04  0.15186493867E+04  0.50400001928E-02 0.  1.
</event>
<event>
 5   0  0.3627496E-03  0.7992257E+03  0.7818609E-02  0.9561138E-01
       -1   -1    0    0    0  501  0.00000000000E+00  0.00000000000E+00  0.11645568119E+04  0.11645568119E+04  0.50400001928E-02 0.  1.
        1   -1    0    0  501    0  0.00000000000E+00  0.00000000000E+00 -0.13712550810E+03  0.13712550819E+03  0.50400001928E-02 0. -1.
    10030    2    1    2    0    0  0.00000000000E+00  0.00000000000E+00  0.10274313038E+04  0.13016823201E+04  0.79922573684E+03 0.  0.
        3    1    3    3  502    0  0.36125390053E+03 -0.16876505449E+03  0.55694197994E+03  0.68496014738E+03  0.10100000352E+00 0. -1.
       -3    1    3    3    0  502 -0.36125390053E+03  0.16876505449E+03  0.47048932382E+03  0.61672217270E+03  0.10100000352E+00 0.  1.
</event>
<event>
 5   0  0.3753450E-03  0.8024890E+03  0.7818609E-02  0.9556421E-01
       -1   -1    0    0    0  501  0.00000000000E+00  0.00000000000E+00  0.31102396344E+03  0.31102396348E+03  0.50400001928E-02 0.  1.
        1   -1    0    0  501    0  0.00000000000E+00  0.00000000000E+00 -0.51763587506E+03  0.51763587509E+03  0.50400001928E-02 0. -1.
    10030    2    1    2    0    0  0.00000000000E+00  0.00000000000E+00 -0.20661191162E+03  0.82865983856E+03  0.80248903172E+03 0.  0.
        5    1    3    3  502    0 -0.68455444526E+02 -0.31932468572E+03 -0.34397472650E+03  0.47433648949E+03  0.46999998093E+01 0. -1.
       -5    1    3    3    0  502  0.68455444526E+02  0.31932468572E+03  0.13736281487E+03  0.35432334908E+03  0.46999998093E+01 0.  1.
</event>
<event>
 5   0  0.3860515E-03  0.8002206E+03  0.7818609E-02  0.9559698E-01
        1   -1    0    0  501    0  0.00000000000E+00  0.00000000000E+00  0.52392673837E+03  0.52392673839E+03  0.50400001928E-02 0.  1.
       -1   -1    0    0    0  501  0.00000000000E+00  0.00000000000E+00 -0.30555466046E+03  0.30555466050E+03  0.50400001928E-02 0. -1.
    10030    2    1    2    0    0  0.00000000000E+00  0.00000000000E+00  0.21837207791E+03  0.82948139890E+03  0.80022061128E+03 0.  0.
        4    1    3    3  502    0  0.11551953798E+03 -0.31938225091E+02 -0.28650774351E+03  0.31056901627E+03  0.12699999809E+01 0. -1.
       -4    1    3    3    0  502 -0.11551953798E+03  0.31938225091E+02  0.50487982141E+03  0.51891238263E+03  0.12699999809E+01 0.  1.
</event>
<event>
 5   0  0.3627496E-03  0.8050276E+03  0.7818609E-02  0.9552768E-01
       -1   -1    0    0    0  501  0.00000000000E+00  0.00000000000E+00  0.30778289151E+03  0.30778289155E+03  0.50400001928E-02 0.  1.
        1   -1    0    0  501    0  0.00000000000E+00  0.00000000000E+00 -0.52640142156E+03  0.52640142158E+03  0.50400001928E-02 0. -1.
    10030    2    1    2    0    0  0.00000000000E+00  0.00000000000E+00 -0.21861853005E+03  0.83418431313E+03  0.80502758127E+03 0.  0.
        3    1    3    3  502    0 -0.34053467724E+03  0.49183140980E+02  0.10714504062E+03  0.36036497844E+03  0.10100000352E+00 0. -1.
       -3    1    3    3    0  502  0.34053467724E+03 -0.49183140980E+02 -0.32576357066E+03  0.47381933469E+03  0.10100000352E+00 0.  1.
</event>
<event>
 5   0  0.3627496E-03  0.8015105E+03  0.7818609E-02  0.9557833E-01
        1   -1    0    0  501    0  0.00000000000E+00  0.00000000000E+00  0.37757393309E+03  0.37757393313E+03  0.50400001928E-02 0.  1.
       -1   -1    0    0    0  501  0.00000000000E+00  0.00000000000E+00 -0.42535982196E+03  0.42535982199E+03  0.50400001928E-02 0. -1.
    10030    2    1    2    0    0  0.00000000000E+00  0.00000000000E+00 -0.47785888870E+02  0.80293375512E+03  0.80151052640E+03 0.  0.
        3    1    3    3  502    0  0.26007462438E+03  0.27602963466E+03 -0.15363585721E+03  0.40918841171E+03  0.10100000352E+00 0.  1.
       -3    1    3    3    0  502 -0.26007462438E+03 -0.27602963466E+03  0.10584996833E+03  0.39374534341E+03  0.10100000352E+00 0. -1.
</event>
<event>
 5   0  0.3860515E-03  0.7969188E+03  0.7818609E-02  0.9564488E-01
        1   -1    0    0  501    0  0.00000000000E+00  0.00000000000E+00  0.28408869676E+03  0.28408869680E+03  0.50400001928E-02 0. -1.
       -1   -1    0    0    0  501  0.00000000000E+00  0.00000000000E+00 -0.55887437438E+03  0.55887437440E+03  0.50400001928E-02 0.  1.
    10030    2    1    2    0    0  0.00000000000E+00  0.00000000000E+00 -0.27478567762E+03  0.84296307120E+03  0.79691879811E+03 0.  0.
        4    1    3    3  502    0 -0.27615741187E+03 -0.18878176749E+03 -0.36638845346E+03  0.49612859582E+03  0.12699999809E+01 0.  1.
       -4    1    3    3    0  502  0.27615741187E+03  0.18878176749E+03  0.91602775832E+02  0.34683447538E+03  0.12699999809E+01 0. -1.
</event>
<event>
 5   0  0.3627496E-03  0.7909286E+03  0.7818609E-02  0.9573241E-01
       -1   -1    0    0    0  501  0.00000000000E+00  0.00000000000E+00  0.23707764572E+03  0.23707764577E+03  0.50400001928E-02 0. -1.
        1   -1    0    0  501    0  0.00000000000E+00  0.00000000000E+00 -0.65966584224E+03  0.65966584226E+03  0.50400001928E-02 0.  1.
    10030    2    1    2    0    0  0.00000000000E+00  0.00000000000E+00 -0.42258819652E+03  0.89674348803E+03  0.79092863110E+03 0.  0.
        3    1    3    3  502    0  0.30165527872E+03  0.13308583655E+03  0.36287574508E+02  0.33169948045E+03  0.10100000352E+00 0. -1.
       -3    1    3    3    0  502 -0.30165527872E+03 -0.13308583655E+03 -0.45887577103E+03  0.56504400758E+03  0.10100000352E+00 0.  1.
</event>
<event>
 5   0  0.3714448E-03  0.7998457E+03  0.7818609E-02  0.9560240E-01
       -1   -1    0    0    0  501  0.00000000000E+00  0.00000000000E+00  0.28756070027E+03  0.28756070032E+03  0.50400001928E-02 0. -1.
        1   -1    0    0  501    0  0.00000000000E+00  0.00000000000E+00 -0.55618967388E+03  0.55618967390E+03  0.50400001928E-02 0.  1.
    10030    2    1    2    0    0  0.00000000000E+00  0.00000000000E+00 -0.26862897361E+03  0.84375037422E+03  0.79984571546E+03 0.  0.
        1    1    3    3  502    0  0.40458153835E+02  0.14540928230E+03 -0.52499131003E+03  0.54625689673E+03  0.50400001928E-02 0.  1.
       -1    1    3    3    0  502 -0.40458153835E+02 -0.14540928230E+03  0.25636233642E+03  0.29749347749E+03  0.50400001928E-02 0. -1.
</event>
<event>
 5   0  0.3627496E-03  0.8006823E+03  0.7818609E-02  0.9559030E-01
        1   -1    0    0  501    0  0.00000000000E+00  0.00000000000E+00  0.18780516056E+03  0.18780516062E+03  0.50400001928E-02 0.  1.
       -1   -1    0    0    0  501  0.00000000000E+00  0.00000000000E+00 -0.85340049783E+03  0.85340049785E+03  0.50400001928E-02 0. -1.
    10030    2    1    2    0    0  0.00000000000E+00  0.00000000000E+00 -0.66559533728E+03  0.10412056585E+04  0.80068225297E+03 0.  0.
        3    1    3    3  502    0 -0.29823104087E+03  0.23255221334E+03 -0.16200078141E+03  0.41142016121E+03  0.10100000352E+00 0.  1.
       -3    1    3    3    0  502  0.29823104087E+03 -0.23255221334E+03 -0.50359455586E+03  0.62978549726E+03  0.10100000352E+00 0. -1.
</event>
<event>
 5   0  0.6536209E-03  0.7978994E+03  0.7818609E-02  0.9563063E-01
        2   -1    0    0  501    0  0.00000000000E+00  0.00000000000E+00  0.88027625514E+03  0.88027625514E+03  0.25500000920E-02 0. -1.
       -2   -1    0    0    0  501  0.00000000000E+00  0.00000000000E+00 -0.18080785968E+03  0.18080785970E+03  0.25500000920E-02 0.  1.
    10030    2    1    2    0    0  0.00000000000E+00  0.00000000000E+00  0.69946839546E+03  0.10610841148E+04  0.79789940627E+03 0.  0.
        3    1    3    3  502    0  0.13838750410E+03  0.82068826625E+02  0.83521844167E+03  0.85057407032E+03  0.10100000352E+00 0. -1.
       -3    1    3    3    0  502 -0.13838750410E+03 -0.82068826625E+02 -0.13575004621E+03  0.21051004452E+03  0.10100000352E+00 0.  1.
</event>
<event>
 5   0  0.6153659E-03  0.8005476E+03  0.7818609E-02  0.9559225E-01
       -2   -1    0    0    0  501  0.00000000000E+00  0.00000000000E+00  0.21517633081E+03  0.21517633083E+03  0.25500000920E-02 0.  1.
        2   -1    0    0  501    0  0.00000000000E+00  0.00000000000E+00 -0.74459454486E+03  0.74459454486E+03  0.25500000920E-02 0. -1.
    10030    2    1    2    0    0  0.00000000000E+00  0.00000000000E+00 -0.52941821404E+03  0.95977087569E+03  0.80054761786E+03 0.  0.
        2    1    3    3  502    0  0.32090996120E+03 -0.10039242726E+03 -0.43607935258E+01  0.33627497555E+03  0.25500000920E-02 0.  1.
       -2    1    3    3    0  502 -0.32090996120E+03  0.10039242726E+03 -0.52505742051E+03  0.62349590014E+03  0.25500000920E-02 0. -1.
</event>
<event>
 5   0  0.3753450E-03  0.7945344E+03  0.7818609E-02  0.9567962E-01
       -1   -1    0    0    0  501  0.00000000000E+00  0.00000000000E+00  0.19220234407E+03  0.19220234414E+03  0.50400001928E-02 0.  1.
        1   -1    0    0  501    0  0.00000000000E+00  0.00000000000E+00 -0.82112018471E+03  0.82112018472E+03  0.50400001928E-02 0. -1.
    10030    2    1    2    0    0  0.00000000000E+00  0.00000000000E+00 -0.62891784064E+03  0.10133225289E+04  0.79453439021E+03 0.  0.
        5    1    3    3  502    0 -0.82781496866E+02  0.45120673100E+00  0.18104377964E+03  0.19912789848E+03  0.46999998093E+01 0.  1.
       -5    1    3    3    0  502  0.82781496866E+02 -0.45120673100E+00 -0.80996162028E+03  0.81419463037E+03  0.46999998093E+01 0. -1.
</event>
<event>
 5   0  0.6536209E-03  0.8013452E+03  0.7818609E-02  0.9558072E-01
       -2   -1    0    0    0  501  0.00000000000E+00  0.00000000000E+00  0.36144145677E+03  0.36144145678E+03  0.25500000920E-02 0.  1.
        2   -1    0    0  501    0  0.00000000000E+00  0.00000000000E+00 -0.44416193700E+03  0.44416193701E+03  0.25500000920E-02 0. -1.
    10030    2    1    2    0    0  0.00000000000E+00  0.00000000000E+00 -0.82720480227E+02  0.80560339379E+03  0.80134521290E+03 0.  0.
        3    1    3    3  502    0 -0.16783599835E+03 -0.16451792661E+03 -0.36758953268E+03  0.43629937572E+03  0.10100000352E+00 0. -1.
       -3    1    3    3    0  502  0.16783599835E+03  0.16451792661E+03  0.28486905245E+03  0.36930401807E+03  0.10100000352E+00 0.  1.
</event>
<event>
 5   0  0.6256781E-03  0.7956932E+03  0.7818609E-02  0.9566272E-01
       -2   -1    0    0    0  501  0.00000000000E+00  0.00000000000E+00  0.31955110003E+03  0.31955110004E+03  0.25500000920E-02 0.  1.
        2   -1    0    0  501    0  0.00000000000E+00  0.00000000000E+00 -0.49532582121E+03  0.49532582122E+03  0.25500000920E-02 0. -1.
    10030    2    1    2    0    0  0.00000000000E+00  0.00000000000E+00 -0.17577472118E+03  0.81487692127E+03  0.79569318472E+03 0.  0.
        1    1    3    3  502    0 -0.34077027935E+02  0.19966271110E+03 -0.43856892378E+03  0.48308295661E+03  0.50400001928E-02 0. -1.
       -1    1    3    3    0  502  0.34077027935E+02 -0.19966271110E+03  0.26279420260E+03  0.33179396465E+03  0.50400001928E-02 0.  1.
</event>
<event>
 5   0  0.6337108E-03  0.8018156E+03  0.7818609E-02  0.9557393E-01
       -2   -1    0    0    0  501  0.00000000000E+00  0.00000000000E+00  0.14092291671E+03  0.14092291673E+03  0.25500000920E-02 0. -1.
        2   -1    0    0  501    0  0.00000000000E+00  0.00000000000E+00 -0.11405316396E+04  0.11405316396E+04  0.25500000920E-02 0.  1.
    10030    2    1    2    0    0  0.00000000000E+00  0.00000000000E+00 -0.99960872290E+03  0.12814545563E+04  0.80181555302E+03 0.  0.
        4    1    3    3  502    0 -0.38292038186E+03 -0.11821640224E+03 -0.48213037798E+03  0.62694054812E+03  0.12699999809E+01 0. -1.
       -4    1    3    3    0  502  0.38292038186E+03  0.11821640224E+03 -0.51747834492E+03  0.65451400822E+03  0.12699999809E+01 0.  1.
</event>
<event>
 5   0  0.6153659E-03  0.8001253E+03  0.7818609E-02  0.9559836E-01
       -2   -1    0    0    0  501  0.00000000000E+00  0.00000000000E+00  0.16992971958E+03  0.16992971960E+03  0.25500000920E-02 0. -1.
        2   -1    0    0  501    0  0.00000000000E+00  0.00000000000E+00 -0.94186068317E+03  0.94186068317E+03  0.25500000920E-02 0.  1.
    10030    2    1    2    0    0  0.00000000000E+00  0.00000000000E+00 -0.77193096358E+03  0.11117904028E+04  0.80012529466E+03 0.  0.
        2    1    3    3  502    0 -0.12187552891E+03  0.31617318479E+02 -0.91361162219E+03  0.92224698188E+03  0.25500000920E-02 0.  1.
       -2    1    3    3    0  502  0.12187552891E+03 -0.31617318479E+02  0.14168065861E+03  0.18954342090E+03  0.25500000920E-02 0. -1.
</event>
<event>
 5   0  0.3753450E-03  0.7957878E+03  0.7818609E-02  0.9566134E-01
        1   -1    0    0  501    0  0.00000000000E+00  0.00000000000E+00  0.11358429298E+03  0.11358429309E+03  0.50400001928E-02 0.  1.
       -1   -1    0    0    0  501  0.00000000000E+00  0.00000000000E+00 -0.13938507985E+04  0.13938507986E+04  0.50400001928E-02 0. -1.
    10030    2    1    2    0    0  0.00000000000E+00  0.00000000000E+00 -0.12802665056E+04  0.15074350916E+04  0.79578780478E+03 0.  0.
        5    1    3    3  502    0 -0.17559533587E+03  0.15399932384E+03 -0.29990985361E+02  0.23552295625E+03  0.46999998093E+01 0.  1.
       -5    1    3    3    0  502  0.17559533587E+03 -0.15399932384E+03 -0.12502755202E+04  0.12719121354E+04  0.46999998093E+01 0. -1.
</event>
<event>
 5   0  0.6153659E-03  0.7475452E+03  0.7818609E-02  0.9639209E-01
       -2   -1    0    0    0  501  0.00000000000E+00  0.00000000000E+00  0.32677261563E+03  0.32677261564E+03  0.25500000920E-02 0. -1.
        2   -1    0    0  501    0  0.00000000000E+00  0.00000000000E+00 -0.42753258858E+03  0.42753258859E+03  0.25500000920E-02 0.  1.
    10030    2    1    2    0    0  0.00000000000E+00  0.00000000000E+00 -0.10075997295E+03  0.75430520423E+03  0.74754516183E+03 0.  0.
        2    1    3    3  502    0  0.20283242681E+03  0.17361299159E+02  0.26592486928E+03  0.33490064822E+03  0.25500000920E-02 0. -1.
       -2    1    3    3    0  502 -0.20283242681E+03 -0.17361299159E+02 -0.36668484223E+03  0.41940455601E+03  0.25500000920E-02 0.  1.
</event>
<event>
 5   0  0.3753450E-03  0.7966535E+03  0.7818609E-02  0.9564874E-01
       -1   -1    0    0    0  501  0.00000000000E+00  0.00000000000E+00  0.17766560240E+03  0.17766560247E+03  0.50400001928E-02 0.  1.
        1   -1    0    0  501    0  0.00000000000E+00  0.00000000000E+00 -0.89304953389E+03  0.89304953390E+03  0.50400001928E-02 0. -1.
    10030    2    1    2    0    0  0.00000000000E+00  0.00000000000E+00 -0.71538393148E+03  0.10707151364E+04  0.79665345906E+03 0.  0.
        5    1    3    3  502    0  0.32252379853E+02 -0.34419313586E+03 -0.91817971282E+02  0.35771743126E+03  0.46999998093E+01 0.  1.
       -5    1    3    3    0  502 -0.32252379853E+02  0.34419313586E+03 -0.62356596020E+03  0.71299770512E+03  0.46999998093E+01 0. -1.
</event>
<event>
 5   0  0.3671128E-03  0.7994462E+03  0.7818609E-02  0.9560819E-01
        1   -1    0    0  501    0  0.00000000000E+00  0.00000000000E+00  0.89946817665E+03  0.89946817666E+03  0.50400001928E-02 0.  1.
       -1   -1    0    0    0  501  0.00000000000E+00  0.00000000000E+00 -0.17763668626E+03  0.17763668633E+03  0.50400001928E-02 0. -1.
    10030    2    1    2    0    0  0.00000000000E+00  0.00000000000E+00  0.72183149038E+03  0.10771048630E+04  0.79944617416E+03 0.  0.
        2    1    3    3  502    0 -0.40449569027E+02 -0.33483971832E+02  0.89480097669E+03  0.89634041072E+03  0.25500000920E-02 0.  1.
       -2    1    3    3    0  502  0.40449569027E+02  0.33483971832E+02 -0.17296948631E+03  0.18076445227E+03  0.25500000920E-02 0. -1.
</event>
<event>
 5   0  0.3671128E-03  0.8015759E+03  0.7818609E-02  0.9557739E-01
        1   -1    0    0  501    0  0.00000000000E+00  0.00000000000E+00  0.19964061964E+03  0.19964061970E+03  0.50400001928E-02 0.  1.
       -1   -1    0    0    0  501  0.00000000000E+00  0.00000000000E+00 -0.80460071623E+03  0.80460071625E+03  0.50400001928E-02 0. -1.
    10030    2    1    2    0    0  0.00000000000E+00  0.00000000000E+00 -0.60496009660E+03  0.10042413359E+04  0.80157591178E+03 0.  0.
        2    1    3    3  502    0 -0.11655366322E+03  0.38314234256E+03 -0.32221663389E+03  0.51401008768E+03  0.25500000920E-02 0.  1.
       -2    1    3    3    0  502  0.11655366322E+03 -0.38314234256E+03 -0.28274346270E+03  0.49023124827E+03  0.25500000920E-02 0. -1.
</event>
<event>
 5   0  0.3671128E-03  0.7987581E+03  0.7818609E-02  0.9561816E-01
       -1   -1    0    0    0  501  0.00000000000E+00  0.00000000000E+00  0.22057809215E+03  0.22057809221E+03  0.50400001928E-02 0.  1.
        1   -1    0    0  501    0  0.00000000000E+00  0.00000000000E+00 -0.72311630824E+03  0.72311630826E+03  0.50400001928E-02 0. -1.
    10030    2    1    2    0    0  0.00000000000E+00  0.00000000000E+00 -0.50253821609E+03  0.94369440047E+03  0.79875807530E+03 0.  0.
        2    1    3    3  502    0 -0.12289468379E+03  0.12768316280E+01 -0.70021916585E+03  0.71092307168E+03  0.25500000920E-02 0. -1.
       -2    1    3    3    0  502  0.12289468379E+03 -0.12768316280E+01  0.19768094977E+03  0.23277132880E+03  0.25500000920E-02 0.  1.
</event>
<event>
 5   0  0.6256781E-03  0.8008684E+03  0.7818609E-02  0.9558761E-01
       -2   -1    0    0    0  501  0.00000000000E+00  0.00000000000E+00  0.67305440334E+03  0.67305440334E+03  0.25500000920E-02 0.  1.
        2   -1    0    0  501    0  0.00000000000E+00  0.00000000000E+00 -0.23823860616E+03  0.23823860618E+03  0.25500000920E-02 0. -1.
    10030    2    1    2    0    0  0.00000000000E+00  0.00000000000E+00  0.43481579718E+03  0.91129300952E+03  0.80086838602E+03 0.  0.
        1    1    3    3  502    0 -0.29192701925E+03  0.27200449701E+03  0.17899346470E+03  0.43731738062E+03  0.50400001928E-02 0.  1.
       -1    1    3    3    0  502  0.29192701925E+03 -0.27200449701E+03  0.25582233248E+03  0.47397562890E+03  0.50400001928E-02 0. -1.
</event>
<event>
 5   0  0.6337108E-03  0.8022104E+03  0.7818609E-02  0.9556823E-01
       -2   -1    0    0    0  501  0.00000000000E+00  0.00000000000E+00  0.93345773404E+03  0.93345773404E+03  0.25500000920E-02 0. -1.
        2   -1    0    0  501    0  0.00000000000E+00  0.00000000000E+00 -0.17235422766E+03  0.17235422768E+03  0.25500000920E-02 0.  1.
    10030    2    1    2    0    0  0.00000000000E+00  0.00000000000E+00  0.76110350638E+03  0.11058119617E+04  0.80221041334E+03 0.  0.
        4    1    3    3  502    0 -0.20559220872E+03  0.22578563057E+03  0.73904703498E+03  0.79964957329E+03  0.12699999809E+01 0. -1.
       -4    1    3    3    0  502  0.20559220872E+03 -0.22578563057E+03  0.22056471403E+02  0.30616238843E+03  0.12699999809E+01 0.  1.
</event>
<event>
 5   0  0.3627496E-03  0.8201626E+03  0.7818609E-02  0.9531283E-01
        1   -1    0    0  501    0  0.00000000000E+00  0.00000000000E+00  0.65839472523E+03  0.65839472525E+03  0.50400001928E-02 0.  1.
       -1   -1    0    0    0  501  0.00000000000E+00  0.00000000000E+00 -0.25541924390E+03  0.25541924395E+03  0.50400001928E-02 0. -1.
    10030    2    1    2    0    0  0.00000000000E+00  0.00000000000E+00  0.40297548133E+03  0.91381396919E+03  0.82016262518E+03 0.  0.
        3    1    3    3  502    0 -0.26727993591E+03  0.63574644055E+02 -0.13772000644E+03  0.30732248516E+03  0.10100000352E+00 0. -1.
       -3    1    3    3    0  502  0.26727993591E+03 -0.63574644055E+02  0.54069548778E+03  0.60649148404E+03  0.10100000352E+00 0.  1.
</event>
<event>
 5   0  0.6536209E-03  0.8055583E+03  0.7818609E-02  0.9552006E-01
        2   -1    0    0  501    0  0.00000000000E+00  0.00000000000E+00  0.21482376600E+04  0.21482376600E+04  0.25500000920E-02 0. -1.
       -2   -1    0    0    0  501  0.00000000000E+00  0.00000000000E+00 -0.75518193393E+02  0.75518193436E+02  0.25500000920E-02 0.  1.
    10030    2    1    2    0    0  0.00000000000E+00  0.00000000000E+00  0.20727194666E+04  0.22237558535E+04  0.80555825888E+03 0.  0.
        3    1    3    3  502    0 -0.35098821363E+03  0.18488218097E+03  0.84397598252E+03  0.93256078420E+03  0.10100000352E+00 0. -1.
       -3    1    3    3    0  502  0.35098821363E+03 -0.18488218097E+03  0.12287434841E+04  0.12911950693E+04  0.10100000352E+00 0.  1.
</event>
<event>
 5   0  0.3627496E-03  0.8016285E+03  0.7818609E-02  0.9557663E-01
        1   -1    0    0  501    0  0.00000000000E+00  0.00000000000E+00  0.26389264793E+04  0.26389264793E+04  0.50400001928E-02 0. -1.
       -1   -1    0    0    0  501  0.00000000000E+00  0.00000000000E+00 -0.60877811797E+02  0.60877812006E+02  0.50400001928E-02 0.  1.
    10030    2    1    2    0    0  0.00000000000E+00  0.00000000000E+00  0.25780486675E+04  0.26998042914E+04  0.80162851707E+03 0.  0.
        3    1    3    3  502    0  0.11950688975E+02  0.39974137167E+03  0.11989006737E+04  0.12638428774E+04  0.10100000352E+00 0. -1.
       -3    1    3    3    0  502 -0.11950688975E+02 -0.39974137167E+03  0.13791479939E+04  0.14359614140E+04  0.10100000352E+00 0.  1.
</event>
<event>
 5   0  0.3671128E-03  0.7991940E+03  0.7818609E-02  0.9561185E-01
       -1   -1    0    0    0  501  0.00000000000E+00  0.00000000000E+00  0.21255782782E+03  0.21255782788E+03  0.50400001928E-02 0.  1.
        1   -1    0    0  501    0  0.00000000000E+00  0.00000000000E+00 -0.75122030122E+03  0.75122030123E+03  0.50400001928E-02 0. -1.
    10030    2    1    2    0    0  0.00000000000E+00  0.00000000000E+00 -0.53866247339E+03  0.96377812912E+03  0.79919398266E+03 0.  0.
        2    1    3    3  502    0 -0.25673045459E+03 -0.19365989806E+03 -0.55537770232E+03  0.64176247528E+03  0.25500000920E-02 0. -1.
       -2    1    3    3    0  502  0.25673045459E+03  0.19365989806E+03  0.16715228929E+02  0.32201565384E+03  0.25500000920E-02 0.  1.
</event>
<event>
 5   0  0.6153659E-03  0.7920688E+03  0.7818609E-02  0.9571569E-01
        2   -1    0    0  501    0  0.00000000000E+00  0.00000000000E+00  0.68704733628E+03  0.68704733629E+03  0.25500000920E-02 0.  1.
       -2   -1    0    0    0  501  0.00000000000E+00  0.00000000000E+00 -0.22828595727E+03  0.22828595728E+03  0.25500000920E-02 0. -1.
    10030    2    1    2    0    0  0.00000000000E+00  0.00000000000E+00  0.45876137901E+03  0.91533329357E+03  0.79206883252E+03 0.  0.
        2    1    3    3  502    0  0.33194258808E+03  0.76733034917E+02 -0.39563014772E+01  0.34071908188E+03  0.25500000920E-02 0. -1.
       -2    1    3    3    0  502 -0.33194258808E+03 -0.76733034917E+02  0.46271768049E+03  0.57461421169E+03  0.25500000920E-02 0.  1.
</event>
<event>
 5   0  0.3753450E-03  0.7980835E+03  0.7818609E-02  0.9562795E-01
       -1   -1    0    0    0  501  0.00000000000E+00  0.00000000000E+00  0.79048732058E+03  0.79048732060E+03  0.50400001928E-02 0.  1.
        1   -1    0    0  501    0  0.00000000000E+00  0.00000000000E+00 -0.20143816869E+03  0.20143816876E+03  0.50400001928E-02 0. -1.
    10030    2    1    2    0    0  0.00000000000E+00  0.00000000000E+00  0.58904915189E+03  0.99192548935E+03  0.79808350007E+03 0.  0.
        5    1    3    3  502    0 -0.15237332911E+03  0.29845435433E+03  0.56374490251E+03  0.65583766143E+03  0.46999998093E+01 0.  1.
       -5    1    3    3    0  502  0.15237332911E+03 -0.29845435433E+03  0.25304249378E+02  0.33608782793E+03  0.46999998093E+01 0. -1.
</event>
<event>
 5   0  0.3714448E-03  0.8021480E+03  0.7818609E-02  0.9556913E-01
       -1   -1    0    0    0  501  0.00000000000E+00  0.00000000000E+00  0.11099861653E+03  0.11099861664E+03  0.50400001928E-02 0. -1.
        1   -1    0    0  501    0  0.00000000000E+00  0.00000000000E+00 -0.14492104893E+04  0.14492104893E+04  0.50400001928E-02 0.  1.
    10030    2    1    2    0    0  0.00000000000E+00  0.00000000000E+00 -0.13382118728E+04  0.15602091059E+04  0.80214801494E+03 0.  0.
        1    1    3    3  502    0 -0.32342763558E+03 -0.18472308631E+03 -0.37974385342E+03  0.53191488822E+03  0.50400001928E-02 0. -1.
       -1    1    3    3    0  502  0.32342763558E+03  0.18472308631E+03 -0.95846801935E+03  0.10282942177E+04  0.50400001928E-02 0.  1.
</event>
<event>
 5   0  0.6337108E-03  0.7987161E+03  0.7818609E-02  0.9561877E-01
       -2   -1    0    0    0  501  0.00000000000E+00  0.00000000000E+00  0.10499707585E+03  0.10499707588E+03  0.25500000920E-02 0. -1.
        2   -1    0    0  501    0  0.00000000000E+00  0.00000000000E+00 -0.15189646220E+04  0.15189646220E+04  0.25500000920E-02 0.  1.
    10030    2    1    2    0    0  0.00000000000E+00  0.00000000000E+00 -0.14139675462E+04  0.16239616979E+04  0.79871607885E+03 0.  0.
        4    1    3    3  502    0 -0.15209448281E+03 -0.34505520030E+03 -0.97432960257E+03  0.10447562444E+04  0.12699999809E+01 0.  1.
       -4    1    3    3    0  502  0.15209448281E+03  0.34505520030E+03 -0.43963794360E+03  0.57920545345E+03  0.12699999809E+01 0. -1.
</event>
<event>
 5   0  0.3714448E-03  0.7996817E+03  0.7818609E-02  0.9560478E-01
       -1   -1    0    0    0  501  0.00000000000E+00  0.00000000000E+00  0.46667386072E+03  0.46667386075E+03  0.50400001928E-02 0. -1.
        1   -1    0    0  501    0  0.00000000000E+00  0.00000000000E+00 -0.34257908078E+03  0.34257908082E+03  0.50400001928E-02 0.  1.
    10030    2    1    2    0    0  0.00000000000E+00  0.00000000000E+00  0.12409477994E+03  0.80925294157E+03  0.79968169232E+03 0.  0.
        1    1    3    3  502    0  0.27074248682E+03  0.21351142362E+03  0.26691567348E+03  0.43604196927E+03  0.50400001928E-02 0. -1.
       -1    1    3    3    0  502 -0.27074248682E+03 -0.21351142362E+03 -0.14282089354E+03  0.37321097230E+03  0.50400001928E-02 0.  1.
</event>
<event>
 5   0  0.6337108E-03  0.8091985E+03  0.7818609E-02  0.9546797E-01
        2   -1    0    0  501    0  0.00000000000E+00  0.00000000000E+00  0.33914049728E+03  0.33914049729E+03  0.25500000920E-02 0. -1.
       -2   -1    0    0    0  501  0.00000000000E+00  0.00000000000E+00 -0.48269246950E+03  0.48269246951E+03  0.25500000920E-02 0.  1.
    10030    2    1    2    0    0  0.00000000000E+00  0.00000000000E+00 -0.14355197222E+03  0.82183296680E+03  0.80919852731E+03 0.  0.
        4    1    3    3  502    0 -0.24586013890E+03 -0.86896651628E+02 -0.38596143448E+03  0.46579617621E+03  0.12699999809E+01 0.  1.
       -4    1    3    3    0  502  0.24586013890E+03  0.86896651628E+02  0.24240946226E+03  0.35603679060E+03  0.12699999809E+01 0. -1.
</event>
<event>
 5   0  0.5813850E-03  0.8019883E+03  0.7818609E-02  0.9557144E-01
       -2   -1    0    0    0  501  0.00000000000E+00  0.00000000000E+00  0.33742738512E+03  0.33742738513E+03  0.25500000920E-02 0.  1.
        2   -1    0    0  501    0  0.00000000000E+00  0.00000000000E+00 -0.47653602846E+03  0.47653602846E+03  0.25500000920E-02 0. -1.
    10030    2    1    2    0    0  0.00000000000E+00  0.00000000000E+00 -0.13910864334E+03  0.81396341359E+03  0.80198829419E+03 0.  0.
        5    1    3    3  502    0  0.37881939297E+03 -0.12096371223E+03 -0.17427284310E+02  0.39807304908E+03  0.46999998093E+01 0.  1.
       -5    1    3    3    0  502 -0.37881939297E+03  0.12096371223E+03 -0.12168135903E+03  0.41589036452E+03  0.46999998093E+01 0. -1.
</event>
<event>
 5   0  0.3860515E-03  0.8001792E+03  0.7818609E-02  0.9559758E-01
       -1   -1    0    0    0  501  0.00000000000E+00  0.00000000000E+00  0.14363812675E+03  0.14363812684E+03  0.50400001928E-02 0.  1.
        1   -1    0    0  501    0  0.00000000000E+00  0.00000000000E+00 -0.11144094096E+04  0.11144094096E+04  0.50400001928E-02 0. -1.
    10030    2    1    2    0    0  0.00000000000E+00  0.00000000000E+00 -0.97077128282E+03  0.12580475364E+04  0.80017918016E+03 0.  0.
        4    1    3    3  502    0  0.39270571775E+03  0.71566886269E+02 -0.44289334792E+03  0.59623462705E+03  0.12699999809E+01 0. -1.
       -4    1    3    3    0  502 -0.39270571775E+03 -0.71566886269E+02 -0.52787793490E+03  0.66181290937E+03  0.12699999809E+01 0.  1.
</event>
<event>
 5   0  0.5813850E-03  0.8214535E+03  0.7818609E-02  0.9529473E-01
       -2   -1    0    0    0  501  0.00000000000E+00  0.00000000000E+00  0.47646896053E+03  0.47646896054E+03  0.25500000920E-02 0. -1.
        2   -1    0    0  501    0  0.00000000000E+00  0.00000000000E+00 -0.35405553838E+03  0.35405553839E+03  0.25500000920E-02 0.  1.
    10030    2    1    2    0    0  0.00000000000E+00  0.00000000000E+00  0.12241342215E+03  0.83052449893E+03  0.82145352723E+03 0.  0.
        5    1    3    3  502    0  0.39682833920E+03  0.55199944864E+02 -0.30093399545E+02  0.40180526054E+03  0.46999998093E+01 0. -1.
       -5    1    3    3    0  502 -0.39682833920E+03 -0.55199944864E+02  0.15250682169E+03  0.42871923839E+03  0.46999998093E+01 0.  1.
</event>
<event>
 5   0  0.2478000E-03  0.8038791E+03  0.7818609E-02  0.9554419E-01
        4   -1    0    0  501    0  0.00000000000E+00  0.00000000000E+00  0.32195493762E+03  0.32195744247E+03  0.12699999809E+01 0.  1.
       -4   -1    0    0    0  501  0.00000000000E+00  0.00000000000E+00 -0.50178985476E+03  0.50179146190E+03  0.12699999809E+01 0. -1.
    10030    2    1    2    0    0  0.00000000000E+00  0.00000000000E+00 -0.17983491713E+03  0.82374890437E+03  0.80387913272E+03 0.  0.
        4    1    3    3  502    0  0.21651398368E+03  0.25001070507E+03  0.14413602737E+03  0.36077758392E+03  0.12699999809E+01 0.  1.
       -4    1    3    3    0  502 -0.21651398368E+03 -0.25001070507E+03 -0.32397094450E+03  0.46297132045E+03  0.12699999809E+01 0. -1.
</event>
<event>
 5   0  0.2478000E-03  0.7966716E+03  0.7818609E-02  0.9564847E-01
        3   -1    0    0  501    0  0.00000000000E+00  0.00000000000E+00  0.35527837210E+03  0.35527838646E+03  0.10100000352E+00 0.  1.
       -3   -1    0    0    0  501  0.00000000000E+00  0.00000000000E+00 -0.44661153140E+03  0.44661154282E+03  0.10100000352E+00 0. -1.
    10030    2    1    2    0    0  0.00000000000E+00  0.00000000000E+00 -0.91333159303E+02  0.80188992928E+03  0.79667164672E+03 0.  0.
        5    1    3    3  502    0 -0.36874748135E+03 -0.16234035025E+02 -0.19635048972E+03  0.41810746670E+03  0.46999998093E+01 0.  1.
       -5    1    3    3    0  502  0.36874748135E+03  0.16234035025E+02  0.10501733042E+03  0.38378246258E+03  0.46999998093E+01 0. -1.
</event>
<event>
 5   0  0.6153659E-03  0.8005808E+03  0.7818609E-02  0.9559177E-01
        2   -1    0    0  501    0  0.00000000000E+00  0.00000000000E+00  0.21812958816E+03  0.21812958817E+03  0.25500000920E-02 0. -1.
       -2   -1    0    0    0  501  0.00000000000E+00  0.00000000000E+00 -0.73457445701E+03  0.73457445702E+03  0.25500000920E-02 0.  1.
    10030    2    1    2    0    0  0.00000000000E+00  0.00000000000E+00 -0.51644486886E+03  0.95270404519E+03  0.80058084861E+03 0.  0.
        2    1    3    3  502    0  0.37600766512E+03  0.13679728520E+03 -0.27215946392E+03  0.48390705231E+03  0.25500000920E-02 0.  1.
       -2    1    3    3    0  502 -0.37600766512E+03 -0.13679728520E+03 -0.24428540493E+03  0.46879699288E+03  0.25500000920E-02 0. -1.
</event>
<event>
 5   0  0.3627496E-03  0.8055784E+03  0.7818609E-02  0.9551978E-01
        1   -1    0    0  501    0  0.00000000000E+00  0.00000000000E+00  0.72738596583E+03  0.72738596585E+03  0.50400001928E-02 0.  1.
       -1   -1    0    0    0  501  0.00000000000E+00  0.00000000000E+00 -0.22304406208E+03  0.22304406213E+03  0.50400001928E-02 0. -1.
    10030    2    1    2    0    0  0.00000000000E+00  0.00000000000E+00  0.50434190375E+03  0.95043002798E+03  0.80557835262E+03 0.  0.
        3    1    3    3  502    0 -0.30290438363E+03 -0.20216442935E+03  0.45521357107E+03  0.58295877007E+03  0.10100000352E+00 0.  1.
       -3    1    3    3    0  502  0.30290438363E+03  0.20216442935E+03  0.49128332677E+02  0.36747125791E+03  0.10100000352E+00 0. -1.
</event>
</LesHouchesEvents>
