<LesHouchesEvents version="3.0">
<header>
<!--
#*********************************************************************
#                                                                    *
#                        MadGraph5_aMC@NLO                           *
#                                                                    *
#                           Going Beyond                             *
#                                                                    *
#                   http://madgraph.hep.uiuc.edu                     *
#                   http://madgraph.phys.ucl.ac.be                   *
#                   http://amcatnlo.cern.ch                          *
#                                                                    *
#                     The MadGraph5_aMC@NLO team                     *
#                                                                    *
#....................................................................*
#                                                                    *
# This file contains all the information necessary to reproduce      *
# the events generated:                                              *
#                                                                    *
# 1. software version                                                *
# 2. proc_card          : code generation info including model       *
# 3. param_card         : model primary parameters in the LH format  *
# 4. run_card           : running parameters (collider and cuts)     *
# 5. pythia_card        : present only if pythia has been run        *
# 6. pgs_card           : present only if pgs has been run           *
# 7. delphes_cards      : present only if delphes has been run       *
#                                                                    *
#                                                                    *
#*********************************************************************
-->
<MGVersion>
#5.2.2.3
</MGVersion>
<MG5ProcCard>
#************************************************************
#*                     MadGraph5_aMC@NLO                    *
#*                                                          *
#*                *                       *                 *
#*                  *        * *        *                   *
#*                    * * * * 5 * * * *                     *
#*                  *        * *        *                   *
#*                *                       *                 *
#*                                                          *
#*                                                          *
#*         VERSION 2.2.3                 2015-02-10         *
#*                                                          *
#*    The MadGraph5_aMC@NLO Development Team - Find us at   *
#*    https://server06.fynu.ucl.ac.be/projects/madgraph     *
#*                                                          *
#************************************************************
#*                                                          *
#*               Command File for MadGraph5_aMC@NLO         *
#*                                                          *
#*     run as ./bin/mg5_aMC  filename                       *
#*                                                          *
#************************************************************
set group_subprocesses Auto
set ignore_six_quark_processes False
set loop_optimized_output True
set gauge unitary
set complex_mass_scheme False
import model sm
define p = g u c d s u~ c~ d~ s~
define j = g u c d s u~ c~ d~ s~
define l+ = e+ mu+
define l- = e- mu-
define vl = ve vm vt
define vl~ = ve~ vm~ vt~
import model Zprime_UFO
generate p p > zph, zph > j j
add process p p > zph, zph > b b~
output Dijet_signal
</MG5ProcCard>
<MGProcCard>
#*********************************************************************
#                        MadGraph/MadEvent                           *
#                   http://madgraph.hep.uiuc.edu                     *
#                                                                    *
#                          proc_card.dat                             *
#*********************************************************************
#                                                                    *
#            This Files is generated by MADGRAPH 5                   *
#                                                                    *
# WARNING: This Files is generated for MADEVENT (compatibility issue)*
#          This files is NOT a valid MG4 proc_card.dat               *
#          Running this in MG4 will NEVER reproduce the result of MG5*
#                                                                    *
#*********************************************************************
#*********************************************************************
# Process(es) requested : mg2 input                                  *
#*********************************************************************
# Begin PROCESS # This is TAG. Do not modify this line
p p > zph , zph > j j           #Process
# Be carefull the coupling are here in MG5 convention
          
end_coup           # End the couplings input

done               # this tells MG there are no more procs
# End PROCESS  # This is TAG. Do not modify this line
#*********************************************************************
# Model information                                                  *
#*********************************************************************
# Begin MODEL  # This is TAG. Do not modify this line
Zprime_UFO
# End   MODEL  # This is TAG. Do not modify this line
#*********************************************************************
# Start multiparticle definitions                                    *
#*********************************************************************
# Begin MULTIPARTICLES # This is TAG. Do not modify this line

# End  MULTIPARTICLES # This is TAG. Do not modify this line
</MGProcCard>
<MGRunCard>
#*********************************************************************
#                       MadGraph5_aMC@NLO                            *
#                                                                    *
#                     run_card.dat MadEvent                          *
#                                                                    *
#  This file is used to set the parameters of the run.               *
#                                                                    *
#  Some notation/conventions:                                        *
#                                                                    *
#   Lines starting with a '# ' are info or comments                  *
#                                                                    *
#   mind the format:   value    = variable     ! comment             *
#*********************************************************************
#
#*******************                                                 
# Running parameters
#*******************                                                 
#                                                                    
#*********************************************************************
# Tag name for the run (one word)                                    *
#*********************************************************************
  tag_1     = run_tag ! name of the run 
#*********************************************************************
# Run to generate the grid pack                                      *
#*********************************************************************
  .false.     = gridpack  !True = setting up the grid pack
#*********************************************************************
# Number of events and rnd seed                                      *
# Warning: Do not generate more than 1M events in a single run       *
# If you want to run Pythia, avoid more than 50k events in a run.    *
#*********************************************************************
  2000 = nevents ! Number of unweighted events requested 
 849 = iseed   ! rnd seed (0=assigned automatically=default))
#*********************************************************************
# Collider type and energy                                           *
# lpp: 0=No PDF, 1=proton, -1=antiproton, 2=photon from proton,      *
#                                         3=photon from electron     *
#*********************************************************************
        1     = lpp1    ! beam 1 type 
        1     = lpp2    ! beam 2 type
     4000     = ebeam1  ! beam 1 total energy in GeV
     4000     = ebeam2  ! beam 2 total energy in GeV
#*********************************************************************
# Beam polarization from -100 (left-handed) to 100 (right-handed)    *
#*********************************************************************
        0     = polbeam1 ! beam polarization for beam 1
        0     = polbeam2 ! beam polarization for beam 2
#*********************************************************************
# PDF CHOICE: this automatically fixes also alpha_s and its evol.    *
#*********************************************************************
 'nn23lo1'    = pdlabel     ! PDF set                                     
 230000    = lhaid     ! if pdlabel=lhapdf, this is the lhapdf number
#*********************************************************************
# Renormalization and factorization scales                           *
#*********************************************************************
 F        = fixed_ren_scale  ! if .true. use fixed ren scale
 F        = fixed_fac_scale  ! if .true. use fixed fac scale
 91.1880  = scale            ! fixed ren scale
 91.1880  = dsqrt_q2fact1    ! fixed fact scale for pdf1
 91.1880  = dsqrt_q2fact2    ! fixed fact scale for pdf2
 1        = scalefact        ! scale factor for event-by-event scales
#*********************************************************************
# Matching - Warning! ickkw > 1 is still beta
#*********************************************************************
 0        = ickkw            ! 0 no matching, 1 MLM, 2 CKKW matching
 1        = highestmult      ! for ickkw=2, highest mult group
 1        = ktscheme         ! for ickkw=1, 1 Durham kT, 2 Pythia pTE
 1        = alpsfact         ! scale factor for QCD emission vx
 F        = chcluster        ! cluster only according to channel diag
 T        = pdfwgt           ! for ickkw=1, perform pdf reweighting
 5        = asrwgtflavor     ! highest quark flavor for a_s reweight
 T        = clusinfo         ! include clustering tag in output
 3.0      = lhe_version       ! Change the way clustering information pass to shower.        
#*********************************************************************
#**********************************************************
#
#**********************************************************
# Automatic ptj and mjj cuts if xqcut > 0
# (turn off for VBF and single top processes)
#**********************************************************
   T  = auto_ptj_mjj  ! Automatic setting of ptj and mjj
#**********************************************************
#                                                                    
#**********************************
# BW cutoff (M+/-bwcutoff*Gamma)
#**********************************
  15  = bwcutoff      ! (M+/-bwcutoff*Gamma)
#**********************************************************
# Apply pt/E/eta/dr/mij cuts on decay products or not
# (note that etmiss/ptll/ptheavy/ht/sorted cuts always apply)
#**********************************************************
   T  = cut_decays    ! Cut decay products 
#*************************************************************
# Number of helicities to sum per event (0 = all helicities)
# 0 gives more stable result, but longer run time (needed for
# long decay chains e.g.).
# Use >=2 if most helicities contribute, e.g. pure QCD.
#*************************************************************
   0  = nhel          ! Number of helicities used per event
#*******************                                                 
# Standard Cuts
#*******************                                                 
#                                                                    
#*********************************************************************
# Minimum and maximum pt's (for max, -1 means no cut)                *
#*********************************************************************
 20  = ptj       ! minimum pt for the jets 
  0  = ptb       ! minimum pt for the b 
 10  = pta       ! minimum pt for the photons 
 10  = ptl       ! minimum pt for the charged leptons 
  0  = misset    ! minimum missing Et (sum of neutrino's momenta)
  0  = ptheavy   ! minimum pt for one heavy final state
 1.0 = ptonium   ! minimum pt for the quarkonium states
 -1  = ptjmax    ! maximum pt for the jets
 -1  = ptbmax    ! maximum pt for the b
 -1  = ptamax    ! maximum pt for the photons
 -1  = ptlmax    ! maximum pt for the charged leptons
 -1  = missetmax ! maximum missing Et (sum of neutrino's momenta)
#*********************************************************************
# Minimum and maximum E's (in the center of mass frame)              *
#*********************************************************************
  0  = ej     ! minimum E for the jets 
  0  = eb     ! minimum E for the b 
  0  = ea     ! minimum E for the photons 
  0  = el     ! minimum E for the charged leptons 
 -1   = ejmax ! maximum E for the jets
 -1   = ebmax ! maximum E for the b
 -1   = eamax ! maximum E for the photons
 -1   = elmax ! maximum E for the charged leptons
#*********************************************************************
# Maximum and minimum absolute rapidity (for max, -1 means no cut)   *
#*********************************************************************
   5  = etaj    ! max rap for the jets 
  -1  = etab    ! max rap for the b
 2.5  = etaa    ! max rap for the photons 
 2.5  = etal    ! max rap for the charged leptons 
 0.6  = etaonium ! max rap for the quarkonium states
   0  = etajmin ! min rap for the jets
   0  = etabmin ! min rap for the b
   0  = etaamin ! min rap for the photons
   0  = etalmin ! main rap for the charged leptons
#*********************************************************************
# Minimum and maximum DeltaR distance                                *
#*********************************************************************
 0.4 = drjj    ! min distance between jets 
 0   = drbb    ! min distance between b's 
 0.4 = drll    ! min distance between leptons 
 0.4 = draa    ! min distance between gammas 
 0   = drbj    ! min distance between b and jet 
 0.4 = draj    ! min distance between gamma and jet 
 0.4 = drjl    ! min distance between jet and lepton 
 0   = drab    ! min distance between gamma and b 
 0   = drbl    ! min distance between b and lepton 
 0.4 = dral    ! min distance between gamma and lepton 
 -1  = drjjmax ! max distance between jets
 -1  = drbbmax ! max distance between b's
 -1  = drllmax ! max distance between leptons
 -1  = draamax ! max distance between gammas
 -1  = drbjmax ! max distance between b and jet
 -1  = drajmax ! max distance between gamma and jet
 -1  = drjlmax ! max distance between jet and lepton
 -1  = drabmax ! max distance between gamma and b
 -1  = drblmax ! max distance between b and lepton
 -1  = dralmax ! maxdistance between gamma and lepton
#*********************************************************************
# Minimum and maximum invariant mass for pairs                       *
# WARNING: for four lepton final state mmll cut require to have      *
#          different lepton masses for each flavor!                  *           
#*********************************************************************
 0   = mmjj    ! min invariant mass of a jet pair 
 0   = mmbb    ! min invariant mass of a b pair 
 0   = mmaa    ! min invariant mass of gamma gamma pair
 0   = mmll    ! min invariant mass of l+l- (same flavour) lepton pair
 -1  = mmjjmax ! max invariant mass of a jet pair
 -1  = mmbbmax ! max invariant mass of a b pair
 -1  = mmaamax ! max invariant mass of gamma gamma pair
 -1  = mmllmax ! max invariant mass of l+l- (same flavour) lepton pair
#*********************************************************************
# Minimum and maximum invariant mass for all letpons                 *
#*********************************************************************
 0   = mmnl    ! min invariant mass for all letpons (l+- and vl) 
 -1  = mmnlmax ! max invariant mass for all letpons (l+- and vl) 
#*********************************************************************
# Minimum and maximum pt for 4-momenta sum of leptons                *
#*********************************************************************
 0   = ptllmin  ! Minimum pt for 4-momenta sum of leptons(l and vl)
 -1  = ptllmax  ! Maximum pt for 4-momenta sum of leptons(l and vl)
#*********************************************************************
# Inclusive cuts                                                     *
#*********************************************************************
 0  = xptj ! minimum pt for at least one jet  
 0  = xptb ! minimum pt for at least one b 
 0  = xpta ! minimum pt for at least one photon 
 0  = xptl ! minimum pt for at least one charged lepton 
#*********************************************************************
# Control the pt's of the jets sorted by pt                          *
#*********************************************************************
 0   = ptj1min ! minimum pt for the leading jet in pt
 0   = ptj2min ! minimum pt for the second jet in pt
 0   = ptj3min ! minimum pt for the third jet in pt
 0   = ptj4min ! minimum pt for the fourth jet in pt
 -1  = ptj1max ! maximum pt for the leading jet in pt 
 -1  = ptj2max ! maximum pt for the second jet in pt
 -1  = ptj3max ! maximum pt for the third jet in pt
 -1  = ptj4max ! maximum pt for the fourth jet in pt
 0   = cutuse  ! reject event if fails any (0) / all (1) jet pt cuts
#*********************************************************************
# Control the pt's of leptons sorted by pt                           *
#*********************************************************************
 0   = ptl1min ! minimum pt for the leading lepton in pt
 0   = ptl2min ! minimum pt for the second lepton in pt
 0   = ptl3min ! minimum pt for the third lepton in pt
 0   = ptl4min ! minimum pt for the fourth lepton in pt
 -1  = ptl1max ! maximum pt for the leading lepton in pt 
 -1  = ptl2max ! maximum pt for the second lepton in pt
 -1  = ptl3max ! maximum pt for the third lepton in pt
 -1  = ptl4max ! maximum pt for the fourth lepton in pt
#*********************************************************************
# Control the Ht(k)=Sum of k leading jets                            *
#*********************************************************************
 0   = htjmin ! minimum jet HT=Sum(jet pt)
 -1  = htjmax ! maximum jet HT=Sum(jet pt)
 0   = ihtmin  !inclusive Ht for all partons (including b)
 -1  = ihtmax  !inclusive Ht for all partons (including b)
 0   = ht2min ! minimum Ht for the two leading jets
 0   = ht3min ! minimum Ht for the three leading jets
 0   = ht4min ! minimum Ht for the four leading jets
 -1  = ht2max ! maximum Ht for the two leading jets
 -1  = ht3max ! maximum Ht for the three leading jets
 -1  = ht4max ! maximum Ht for the four leading jets
#***********************************************************************
# Photon-isolation cuts, according to hep-ph/9801442                   *
# When ptgmin=0, all the other parameters are ignored                  *
# When ptgmin>0, pta and draj are not going to be used                 *
#***********************************************************************
   0 = ptgmin ! Min photon transverse momentum
 0.4 = R0gamma ! Radius of isolation code
 1.0 = xn ! n parameter of eq.(3.4) in hep-ph/9801442
 1.0 = epsgamma ! epsilon_gamma parameter of eq.(3.4) in hep-ph/9801442
 .true. = isoEM ! isolate photons from EM energy (photons and leptons)
#*********************************************************************
# WBF cuts                                                           *
#*********************************************************************
 0   = xetamin ! minimum rapidity for two jets in the WBF case  
 0   = deltaeta ! minimum rapidity for two jets in the WBF case 
#*********************************************************************
# KT DURHAM CUT                                                      *
#*********************************************************************
 -1    =  ktdurham        
 0.4  =  dparameter 
#*********************************************************************
# maximal pdg code for quark to be considered as a light jet         *
# (otherwise b cuts are applied)                                     *
#*********************************************************************
 4 = maxjetflavor    ! Maximum jet pdg code
#*********************************************************************
# Jet measure cuts                                                   *
#*********************************************************************
 0   = xqcut   ! minimum kt jet measure between partons
#*********************************************************************
#
#*********************************************************************
# Store info for systematics studies                                 *
# WARNING: If use_syst is T, matched Pythia output is                *
#          meaningful ONLY if plotted taking matchscale              *
#          reweighting into account!                                 *
#*********************************************************************
   F  = use_syst      ! Enable systematics studies
#
#**************************************
# Parameter of the systematics study
#  will be used by SysCalc (if installed)
#**************************************                                  
#
0.5 1 2 = sys_scalefact  # factorization/renormalization scale factor
0.5 1 2 = sys_alpsfact  # \alpha_s emission scale factors
30 50 = sys_matchscale # variation of merging scale
# PDF sets and number of members (0 or none for all members).
CT10nlo.LHgrid = sys_pdf # matching scales
# MSTW2008nlo68cl.LHgrid 1  = sys_pdf
</MGRunCard>
<slha>
######################################################################
## PARAM_CARD AUTOMATICALY GENERATED BY MG5 FOLLOWING UFO MODEL   ####
######################################################################
##                                                                  ##
##  Width set on Auto will be computed following the information    ##
##        present in the decay.py files of the model.               ##
##        See  arXiv:1402.1178 for more details.                    ##
##                                                                  ##
######################################################################

###################################
## INFORMATION FOR CKMBLOCK
###################################
Block ckmblock 
    1 2.277360e-01 # cabi 

###################################
## INFORMATION FOR FRBLOCK
###################################
Block frblock 
    1 4.000000e-01 # gz 

###################################
## INFORMATION FOR MASS
###################################
Block mass 
    1 5.040000e-03 # MD 
    2 2.550000e-03 # MU 
    3 1.010000e-01 # MS 
    4 1.270000e+00 # MC 
    5 4.700000e+00 # MB 
    6 1.720000e+02 # MT 
   11 5.110000e-04 # Me 
   13 1.056600e-01 # MM 
   15 1.777000e+00 # MTA 
   23 9.118760e+01 # MZ 
   25 1.200000e+02 # MH 
  10030 8.000000e+02 # MZph 
  10031 3.000000e+02 # MZpl 
## Dependent parameters, given by model restrictions.
## Those values should be edited following the 
## analytical expression. MG5 ignores those values 
## but they are important for interfacing the output of MG5
## to external program such as Pythia.
  12 0.000000 # ve : 0.0 
  14 0.000000 # vm : 0.0 
  16 0.000000 # vt : 0.0 
  21 0.000000 # g : 0.0 
  22 0.000000 # a : 0.0 
  24 79.824360 # w+ : cmath.sqrt(MZ__exp__2/2. + cmath.sqrt(MZ__exp__4/4. - (aEW*cmath.pi*MZ__exp__2)/(Gf*sqrt__2))) 

###################################
## INFORMATION FOR SMINPUTS
###################################
Block sminputs 
    1 1.279000e+02 # aEWM1 
    2 1.166370e-05 # Gf 
    3 1.184000e-01 # aS 

###################################
## INFORMATION FOR YUKAWA
###################################
Block yukawa 
    1 5.040000e-03 # ymdo 
    2 2.550000e-03 # ymup 
    3 1.010000e-01 # yms 
    4 1.270000e+00 # ymc 
    5 4.700000e+00 # ymb 
    6 1.720000e+02 # ymt 
   11 5.110000e-04 # yme 
   13 1.056600e-01 # ymm 
   15 1.777000e+00 # ymtau 

###################################
## INFORMATION FOR DECAY
###################################
DECAY   6 1.508336e+00 # WT 
DECAY  23 2.495200e+00 # WZ 
DECAY  24 2.085000e+00 # WW 
DECAY  25 5.753088e-03 # WH 
## Dependent parameters, given by model restrictions.
## Those values should be edited following the 
## analytical expression. MG5 ignores those values 
## but they are important for interfacing the output of MG5
## to external program such as Pythia.
DECAY  1 0.000000 # d : 0.0 
DECAY  2 0.000000 # u : 0.0 
DECAY  3 0.000000 # s : 0.0 
DECAY  4 0.000000 # c : 0.0 
DECAY  5 0.000000 # b : 0.0 
DECAY  11 0.000000 # e- : 0.0 
DECAY  12 0.000000 # ve : 0.0 
DECAY  13 0.000000 # mu- : 0.0 
DECAY  14 0.000000 # vm : 0.0 
DECAY  15 0.000000 # ta- : 0.0 
DECAY  16 0.000000 # vt : 0.0 
DECAY  21 0.000000 # g : 0.0 
DECAY  22 0.000000 # a : 0.0 
DECAY  10030 0.308725 # zph : (gz__exp__2*MZph*(5 + cmath.sqrt(1 - (4*MT__exp__2)/MZph__exp__2)))/(144.*cmath.pi) 
DECAY  10031 0.132629 # zpl : (5*gz__exp__2*MZpl)/(144.*cmath.pi) 
#===========================================================
# QUANTUM NUMBERS OF NEW STATE(S) (NON SM PDG CODE)
#===========================================================

Block QNUMBERS 10030  # zph 
        1 0  # 3 times electric charge
        2 3  # number of spin states (2S+1)
        3 1  # colour rep (1: singlet, 3: triplet, 8: octet)
        4 0  # Particle/Antiparticle distinction (0=own anti)
Block QNUMBERS 10031  # zpl 
        1 0  # 3 times electric charge
        2 3  # number of spin states (2S+1)
        3 1  # colour rep (1: singlet, 3: triplet, 8: octet)
        4 0  # Particle/Antiparticle distinction (0=own anti)
</slha>
## END BANNER##
<MGGenerationInfo>
#  Number of Events        :         4079
#  Integrated weight (pb)  :  0.87628E+00
#  Max wgt                 :  0.29105E-03
#  Average wgt             :  0.21483E-03
</MGGenerationInfo>
</header>
<init>
     2212     2212  0.40000000000E+04  0.40000000000E+04 0 0  247000  247000 2   1
  0.87530660880E+00  0.18050926334E-02  0.29105010000E-03   0
</init>
<event>
 5   0  0.2910501E-03  0.8016723E+03  0.7818609E-02  0.9557600E-01
        2   -1    0    0  501    0  0.00000000000E+00  0.00000000000E+00  0.11328867554E+04  0.11328867554E+04  0.25500000920E-02 0.  1.
       -2   -1    0    0    0  501  0.00000000000E+00  0.00000000000E+00 -0.14182319439E+03  0.14182319441E+03  0.25500000920E-02 0. -1.
    10030    2    1    2    0    0  0.00000000000E+00  0.00000000000E+00  0.99106356096E+03  0.12747099498E+04  0.80167229850E+03 0.  0.
        1    1    3    3  502    0  0.25649015981E+03  0.23374433052E+02  0.98390669468E+03  0.10170574959E+04  0.50400001928E-02 0.  1.
       -1    1    3    3    0  502 -0.25649015981E+03 -0.23374433052E+02  0.71568662815E+01  0.25765245382E+03  0.50400001928E-02 0. -1.
</event>
<event>
 5   0  0.1095350E-03  0.7985148E+03  0.7818609E-02  0.9562169E-01
       -3   -1    0    0    0  501  0.00000000000E+00  0.00000000000E+00  0.40557981276E+03  0.40557982534E+03  0.10100000352E+00 0.  1.
        3   -1    0    0  501    0  0.00000000000E+00  0.00000000000E+00 -0.39303350082E+03  0.39303351380E+03  0.10100000352E+00 0. -1.
    10030    2    1    2    0    0  0.00000000000E+00  0.00000000000E+00  0.12546311939E+02  0.79861333913E+03  0.79851478101E+03 0.  0.
        5    1    3    3  502    0 -0.75819121093E+02  0.49531844025E+01  0.39825430674E+03  0.40546474075E+03  0.46999998093E+01 0.  1.
       -5    1    3    3    0  502  0.75819121093E+02 -0.49531844025E+01 -0.38570799480E+03  0.39314859838E+03  0.46999998093E+01 0. -1.
</event>
<event>
 5   0  0.2910501E-03  0.8002251E+03  0.7818609E-02  0.9559691E-01
        2   -1    0    0  501    0  0.00000000000E+00  0.00000000000E+00  0.45502802842E+03  0.45502802843E+03  0.25500000920E-02 0.  1.
       -2   -1    0    0    0  501  0.00000000000E+00  0.00000000000E+00 -0.35182461614E+03  0.35182461615E+03  0.25500000920E-02 0. -1.
    10030    2    1    2    0    0  0.00000000000E+00  0.00000000000E+00  0.10320341228E+03  0.80685264458E+03  0.80022512192E+03 0.  0.
        1    1    3    3  502    0 -0.18790702398E+03 -0.39724919096E+02  0.40551150374E+03  0.44869443784E+03  0.50400001928E-02 0.  1.
       -1    1    3    3    0  502  0.18790702398E+03  0.39724919096E+02 -0.30230809147E+03  0.35815820673E+03  0.50400001928E-02 0. -1.
</event>
<event>
 5   0  0.2763587E-03  0.7995506E+03  0.7818609E-02  0.9560668E-01
       -2   -1    0    0    0  501  0.00000000000E+00  0.00000000000E+00  0.15268579197E+03  0.15268579199E+03  0.25500000920E-02 0. -1.
        2   -1    0    0  501    0  0.00000000000E+00  0.00000000000E+00 -0.10467265839E+04  0.10467265839E+04  0.25500000920E-02 0.  1.
    10030    2    1    2    0    0  0.00000000000E+00  0.00000000000E+00 -0.89404079194E+03  0.11994123759E+04  0.79955056740E+03 0.  0.
        3    1    3    3  502    0 -0.23195132251E+02  0.32009634077E+03 -0.89438565656E+02  0.33316504733E+03  0.10100000352E+00 0. -1.
       -3    1    3    3    0  502  0.23195132251E+02 -0.32009634077E+03 -0.80460222629E+03  0.86624732858E+03  0.10100000352E+00 0.  1.
</event>
<event>
 5   0  0.2910501E-03  0.7998186E+03  0.7818609E-02  0.9560280E-01
       -2   -1    0    0    0  501  0.00000000000E+00  0.00000000000E+00  0.44408810975E+03  0.44408810976E+03  0.25500000920E-02 0. -1.
        2   -1    0    0  501    0  0.00000000000E+00  0.00000000000E+00 -0.36012547006E+03  0.36012547007E+03  0.25500000920E-02 0.  1.
    10030    2    1    2    0    0  0.00000000000E+00  0.00000000000E+00  0.83962639696E+02  0.80421357983E+03  0.79981857763E+03 0.  0.
        1    1    3    3  502    0  0.13224925355E+03 -0.23902908479E+03  0.33565243298E+03  0.43276705540E+03  0.50400001928E-02 0. -1.
       -1    1    3    3    0  502 -0.13224925355E+03  0.23902908479E+03 -0.25168979329E+03  0.37144652443E+03  0.50400001928E-02 0.  1.
</event>
<event>
 5   0  0.2763587E-03  0.7989751E+03  0.7818609E-02  0.9561502E-01
       -2   -1    0    0    0  501  0.00000000000E+00  0.00000000000E+00  0.22948152395E+03  0.22948152397E+03  0.25500000920E-02 0. -1.
        2   -1    0    0  501    0  0.00000000000E+00  0.00000000000E+00 -0.69543853582E+03  0.69543853583E+03  0.25500000920E-02 0.  1.
    10030    2    1    2    0    0  0.00000000000E+00  0.00000000000E+00 -0.46595701187E+03  0.92492005979E+03  0.79897508102E+03 0.  0.
        3    1    3    3  502    0 -0.12250326258E+03 -0.76831021538E+02  0.19812170976E+03  0.24527999775E+03  0.10100000352E+00 0. -1.
       -3    1    3    3    0  502  0.12250326258E+03  0.76831021538E+02 -0.66407872163E+03  0.67964006205E+03  0.10100000352E+00 0.  1.
</event>
<event>
 5   0  0.1617491E-03  0.7998274E+03  0.7818609E-02  0.9560267E-01
       -1   -1    0    0    0  501  0.00000000000E+00  0.00000000000E+00  0.45383812544E+03  0.45383812547E+03  0.50400001928E-02 0.  1.
        1   -1    0    0  501    0  0.00000000000E+00  0.00000000000E+00 -0.35239645808E+03  0.35239645812E+03  0.50400001928E-02 0. -1.
    10030    2    1    2    0    0  0.00000000000E+00  0.00000000000E+00  0.10144166736E+03  0.80623458359E+03  0.79982735131E+03 0.  0.
        1    1    3    3  502    0 -0.22215955342E+03  0.15535641853E+03 -0.24564198500E+03  0.36582846906E+03  0.50400001928E-02 0. -1.
       -1    1    3    3    0  502  0.22215955342E+03 -0.15535641853E+03  0.34708365236E+03  0.44040611453E+03  0.50400001928E-02 0.  1.
</event>
<event>
 5   0  0.1656051E-03  0.7939786E+03  0.7818609E-02  0.9568774E-01
        1   -1    0    0  501    0  0.00000000000E+00  0.00000000000E+00  0.30967232738E+03  0.30967232742E+03  0.50400001928E-02 0. -1.
       -1   -1    0    0    0  501  0.00000000000E+00  0.00000000000E+00 -0.50892669095E+03  0.50892669098E+03  0.50400001928E-02 0.  1.
    10030    2    1    2    0    0  0.00000000000E+00  0.00000000000E+00 -0.19925436357E+03  0.81859901840E+03  0.79397862158E+03 0.  0.
        3    1    3    3  502    0  0.30676363689E+03  0.11218712811E+03  0.13300329585E+03  0.35267515866E+03  0.10100000352E+00 0. -1.
       -3    1    3    3    0  502 -0.30676363689E+03 -0.11218712811E+03 -0.33225765942E+03  0.46592385974E+03  0.10100000352E+00 0.  1.
</event>
<event>
 5   0  0.2910501E-03  0.8003186E+03  0.7818609E-02  0.9559556E-01
       -2   -1    0    0    0  501  0.00000000000E+00  0.00000000000E+00  0.21331302132E+03  0.21331302134E+03  0.25500000920E-02 0. -1.
        2   -1    0    0  501    0  0.00000000000E+00  0.00000000000E+00 -0.75066901661E+03  0.75066901661E+03  0.25500000920E-02 0.  1.
    10030    2    1    2    0    0  0.00000000000E+00  0.00000000000E+00 -0.53735599529E+03  0.96398203795E+03  0.80031862643E+03 0.  0.
        1    1    3    3  502    0 -0.54078303721E+02 -0.33733332306E+03 -0.51963372920E+03  0.62188218042E+03  0.50400001928E-02 0.  1.
       -1    1    3    3    0  502  0.54078303721E+02  0.33733332306E+03 -0.17722266091E+02  0.34209985753E+03  0.50400001928E-02 0. -1.
</event>
<event>
 5   0  0.1095350E-03  0.7992703E+03  0.7818609E-02  0.9561074E-01
       -4   -1    0    0    0  501  0.00000000000E+00  0.00000000000E+00  0.97844823850E+03  0.97844906272E+03  0.12699999809E+01 0. -1.
        4   -1    0    0  501    0  0.00000000000E+00  0.00000000000E+00 -0.16322268430E+03  0.16322762502E+03  0.12699999809E+01 0.  1.
    10030    2    1    2    0    0  0.00000000000E+00  0.00000000000E+00  0.81522555421E+03  0.11416766877E+04  0.79927026411E+03 0.  0.
        5    1    3    3  502    0 -0.38574284048E+02  0.26169439853E+03  0.83545151888E+03  0.87634083781E+03  0.46999998093E+01 0. -1.
       -5    1    3    3    0  502  0.38574284048E+02 -0.26169439853E+03 -0.20225964674E+02  0.26533584993E+03  0.46999998093E+01 0.  1.
</event>
<event>
 5   0  0.2910501E-03  0.7991862E+03  0.7818609E-02  0.9561196E-01
        2   -1    0    0  501    0  0.00000000000E+00  0.00000000000E+00  0.11047671014E+04  0.11047671014E+04  0.25500000920E-02 0. -1.
       -2   -1    0    0    0  501  0.00000000000E+00  0.00000000000E+00 -0.14453241797E+03  0.14453241799E+03  0.25500000920E-02 0.  1.
    10030    2    1    2    0    0  0.00000000000E+00  0.00000000000E+00  0.96023468348E+03  0.12492995194E+04  0.79918623732E+03 0.  0.
        1    1    3    3  502    0  0.37637967370E+03  0.12849658220E+03  0.41954141726E+03  0.57808998541E+03  0.50400001928E-02 0. -1.
       -1    1    3    3    0  502 -0.37637967370E+03 -0.12849658220E+03  0.54069326622E+03  0.67120953403E+03  0.50400001928E-02 0.  1.
</event>
<event>
 5   0  0.1095350E-03  0.8008542E+03  0.7818609E-02  0.9558781E-01
        4   -1    0    0  501    0  0.00000000000E+00  0.00000000000E+00  0.66783269839E+03  0.66783390595E+03  0.12699999809E+01 0. -1.
       -4   -1    0    0    0  501  0.00000000000E+00  0.00000000000E+00 -0.24008977227E+03  0.24009313120E+03  0.12699999809E+01 0.  1.
    10030    2    1    2    0    0  0.00000000000E+00  0.00000000000E+00  0.42774292612E+03  0.90792703715E+03  0.80085422764E+03 0.  0.
        4    1    3    3  502    0  0.33060586284E+03  0.19296182259E+03  0.80664286991E+02  0.39120690384E+03  0.12699999809E+01 0.  1.
       -4    1    3    3    0  502 -0.33060586284E+03 -0.19296182259E+03  0.34707863913E+03  0.51672013330E+03  0.12699999809E+01 0. -1.
</event>
<event>
 5   0  0.2690809E-03  0.8001972E+03  0.7818609E-02  0.9559732E-01
       -2   -1    0    0    0  501  0.00000000000E+00  0.00000000000E+00  0.19646240571E+03  0.19646240573E+03  0.25500000920E-02 0. -1.
        2   -1    0    0  501    0  0.00000000000E+00  0.00000000000E+00 -0.81480669621E+03  0.81480669622E+03  0.25500000920E-02 0.  1.
    10030    2    1    2    0    0  0.00000000000E+00  0.00000000000E+00 -0.61834429050E+03  0.10112691019E+04  0.80019718504E+03 0.  0.
        5    1    3    3  502    0 -0.34233419270E+03 -0.16229433765E+03 -0.47162814359E+03  0.60496888131E+03  0.46999998093E+01 0.  1.
       -5    1    3    3    0  502  0.34233419270E+03  0.16229433765E+03 -0.14671614691E+03  0.40630022064E+03  0.46999998093E+01 0. -1.
</event>
<event>
 5   0  0.1640035E-03  0.8021466E+03  0.7818609E-02  0.9556915E-01
        1   -1    0    0  501    0  0.00000000000E+00  0.00000000000E+00  0.86829046716E+03  0.86829046717E+03  0.50400001928E-02 0. -1.
       -1   -1    0    0    0  501  0.00000000000E+00  0.00000000000E+00 -0.18526034763E+03  0.18526034770E+03  0.50400001928E-02 0.  1.
    10030    2    1    2    0    0  0.00000000000E+00  0.00000000000E+00  0.68303011953E+03  0.10535508149E+04  0.80214660464E+03 0.  0.
        5    1    3    3  502    0  0.34272506151E+03  0.14584843352E+03  0.14623782384E+03  0.40017474242E+03  0.46999998093E+01 0.  1.
       -5    1    3    3    0  502 -0.34272506151E+03 -0.14584843352E+03  0.53679229569E+03  0.65337607246E+03  0.46999998093E+01 0. -1.
</event>
<event>
 5   0  0.1095350E-03  0.8021891E+03  0.7818609E-02  0.9556854E-01
       -3   -1    0    0    0  501  0.00000000000E+00  0.00000000000E+00  0.26928316143E+03  0.26928318038E+03  0.10100000352E+00 0.  1.
        3   -1    0    0  501    0  0.00000000000E+00  0.00000000000E+00 -0.59742623750E+03  0.59742624604E+03  0.10100000352E+00 0. -1.
    10030    2    1    2    0    0  0.00000000000E+00  0.00000000000E+00 -0.32814307607E+03  0.86670942641E+03  0.80218909957E+03 0.  0.
        4    1    3    3  502    0  0.21626188108E+03  0.27940759820E+03  0.41032209796E+02  0.35570080444E+03  0.12699999809E+01 0.  1.
       -4    1    3    3    0  502 -0.21626188108E+03 -0.27940759820E+03 -0.36917528586E+03  0.51100862197E+03  0.12699999809E+01 0. -1.
</event>
<event>
 5   0  0.1617491E-03  0.8007705E+03  0.7818609E-02  0.9558902E-01
        1   -1    0    0  501    0  0.00000000000E+00  0.00000000000E+00  0.53034916793E+03  0.53034916795E+03  0.50400001928E-02 0.  1.
       -1   -1    0    0    0  501  0.00000000000E+00  0.00000000000E+00 -0.30226946472E+03  0.30226946476E+03  0.50400001928E-02 0. -1.
    10030    2    1    2    0    0  0.00000000000E+00  0.00000000000E+00  0.22807970320E+03  0.83261863271E+03  0.80077052676E+03 0.  0.
        1    1    3    3  502    0 -0.38120217705E+03  0.11987116387E+03  0.14001674374E+03  0.42342518143E+03  0.50400001928E-02 0.  1.
       -1    1    3    3    0  502  0.38120217705E+03 -0.11987116387E+03  0.88062959460E+02  0.40919345128E+03  0.50400001928E-02 0. -1.
</event>
<event>
 5   0  0.1656051E-03  0.7997103E+03  0.7818609E-02  0.9560437E-01
        1   -1    0    0  501    0  0.00000000000E+00  0.00000000000E+00  0.68716089806E+03  0.68716089808E+03  0.50400001928E-02 0. -1.
       -1   -1    0    0    0  501  0.00000000000E+00  0.00000000000E+00 -0.23267350201E+03  0.23267350207E+03  0.50400001928E-02 0.  1.
    10030    2    1    2    0    0  0.00000000000E+00  0.00000000000E+00  0.45448739605E+03  0.91983440014E+03  0.79971027912E+03 0.  0.
        3    1    3    3  502    0 -0.26328601395E+03 -0.17705788721E+03  0.50713745358E+03  0.59821185845E+03  0.10100000352E+00 0. -1.
       -3    1    3    3    0  502  0.26328601395E+03  0.17705788721E+03 -0.52650057531E+02  0.32162254169E+03  0.10100000352E+00 0.  1.
</event>
<event>
 5   0  0.1656051E-03  0.8004777E+03  0.7818609E-02  0.9559326E-01
       -1   -1    0    0    0  501  0.00000000000E+00  0.00000000000E+00  0.77752303369E+03  0.77752303371E+03  0.50400001928E-02 0. -1.
        1   -1    0    0  501    0  0.00000000000E+00  0.00000000000E+00 -0.20602749177E+03  0.20602749183E+03  0.50400001928E-02 0.  1.
    10030    2    1    2    0    0  0.00000000000E+00  0.00000000000E+00  0.57149554192E+03  0.98355052554E+03  0.80047765856E+03 0.  0.
        3    1    3    3  502    0  0.60032230857E+02  0.37265330296E+03  0.12220190239E+03  0.39674635234E+03  0.10100000352E+00 0.  1.
       -3    1    3    3    0  502 -0.60032230857E+02 -0.37265330296E+03  0.44929363954E+03  0.58680417320E+03  0.10100000352E+00 0. -1.
</event>
<event>
 5   0  0.2910501E-03  0.8003575E+03  0.7818609E-02  0.9559500E-01
       -2   -1    0    0    0  501  0.00000000000E+00  0.00000000000E+00  0.82964410671E+02  0.82964410711E+02  0.25500000920E-02 0.  1.
        2   -1    0    0  501    0  0.00000000000E+00  0.00000000000E+00 -0.19302618554E+04  0.19302618554E+04  0.25500000920E-02 0. -1.
    10030    2    1    2    0    0  0.00000000000E+00  0.00000000000E+00 -0.18472974447E+04  0.20132262661E+04  0.80035751340E+03 0.  0.
        1    1    3    3  502    0  0.48533708247E+02 -0.76452013900E+02 -0.19041504135E+04  0.19063025019E+04  0.50400001928E-02 0. -1.
       -1    1    3    3    0  502 -0.48533708247E+02  0.76452013900E+02  0.56852968823E+02  0.10692376422E+03  0.50400001928E-02 0.  1.
</event>
<event>
 5   0  0.1712793E-03  0.7993595E+03  0.7818609E-02  0.9560945E-01
       -1   -1    0    0    0  501  0.00000000000E+00  0.00000000000E+00  0.22896624585E+03  0.22896624590E+03  0.50400001928E-02 0.  1.
        1   -1    0    0  501    0  0.00000000000E+00  0.00000000000E+00 -0.69767453139E+03  0.69767453141E+03  0.50400001928E-02 0. -1.
    10030    2    1    2    0    0  0.00000000000E+00  0.00000000000E+00 -0.46870828555E+03  0.92664077731E+03  0.79935953941E+03 0.  0.
        4    1    3    3  502    0  0.22592463774E+02  0.38722701912E+03 -0.12263957417E+03  0.40681354674E+03  0.12699999809E+01 0.  1.
       -4    1    3    3    0  502 -0.22592463774E+02 -0.38722701912E+03 -0.34606871137E+03  0.51982723057E+03  0.12699999809E+01 0. -1.
</event>
<event>
 5   0  0.1617491E-03  0.8003637E+03  0.7818609E-02  0.9559491E-01
        1   -1    0    0  501    0  0.00000000000E+00  0.00000000000E+00  0.41264284395E+03  0.41264284398E+03  0.50400001928E-02 0.  1.
       -1   -1    0    0    0  501  0.00000000000E+00  0.00000000000E+00 -0.38809717742E+03  0.38809717745E+03  0.50400001928E-02 0. -1.
    10030    2    1    2    0    0  0.00000000000E+00  0.00000000000E+00  0.24545666534E+02  0.80074002143E+03  0.80036372492E+03 0.  0.
        1    1    3    3  502    0  0.35824294334E+03  0.79164514196E+02 -0.14761624698E+03  0.39546881440E+03  0.50400001928E-02 0. -1.
       -1    1    3    3    0  502 -0.35824294334E+03 -0.79164514196E+02  0.17216191352E+03  0.40527120704E+03  0.50400001928E-02 0.  1.
</event>
<event>
 5   0  0.2873212E-03  0.8017538E+03  0.7818609E-02  0.9557482E-01
       -2   -1    0    0    0  501  0.00000000000E+00  0.00000000000E+00  0.87288104748E+02  0.87288104785E+02  0.25500000920E-02 0.  1.
        2   -1    0    0  501    0  0.00000000000E+00  0.00000000000E+00 -0.18410559858E+04  0.18410559858E+04  0.25500000920E-02 0. -1.
    10030    2    1    2    0    0  0.00000000000E+00  0.00000000000E+00 -0.17537678811E+04  0.19283440906E+04  0.80175379706E+03 0.  0.
        2    1    3    3  502    0  0.33024846922E+03  0.20225472032E+03 -0.62772931476E+03  0.73757380372E+03  0.25500000920E-02 0.  1.
       -2    1    3    3    0  502 -0.33024846922E+03 -0.20225472032E+03 -0.11260385663E+04  0.11907702869E+04  0.25500000920E-02 0. -1.
</event>
<event>
 5   0  0.1656051E-03  0.8000916E+03  0.7818609E-02  0.9559885E-01
       -1   -1    0    0    0  501  0.00000000000E+00  0.00000000000E+00  0.12896007458E+03  0.12896007468E+03  0.50400001928E-02 0.  1.
        1   -1    0    0  501    0  0.00000000000E+00  0.00000000000E+00 -0.12409782462E+04  0.12409782463E+04  0.50400001928E-02 0. -1.
    10030    2    1    2    0    0  0.00000000000E+00  0.00000000000E+00 -0.11120181717E+04  0.13699383209E+04  0.80009161290E+03 0.  0.
        3    1    3    3  502    0 -0.32266636072E+03 -0.16937661665E+03 -0.27344175839E+03  0.45560116773E+03  0.10100000352E+00 0.  1.
       -3    1    3    3    0  502  0.32266636072E+03  0.16937661665E+03 -0.83857641328E+03  0.91433715320E+03  0.10100000352E+00 0. -1.
</event>
<event>
 5   0  0.1095350E-03  0.8005979E+03  0.7818609E-02  0.9559152E-01
       -3   -1    0    0    0  501  0.00000000000E+00  0.00000000000E+00  0.91783429452E+02  0.91783485023E+02  0.10100000352E+00 0.  1.
        3   -1    0    0  501    0  0.00000000000E+00  0.00000000000E+00 -0.17458403473E+04  0.17458403502E+04  0.10100000352E+00 0. -1.
    10030    2    1    2    0    0  0.00000000000E+00  0.00000000000E+00 -0.16540569179E+04  0.18376238353E+04  0.80059794678E+03 0.  0.
        1    1    3    3  502    0 -0.12706072717E+03  0.61201177779E+02 -0.16869269760E+04  0.16928120495E+04  0.50400001928E-02 0. -1.
       -1    1    3    3    0  502  0.12706072717E+03 -0.61201177779E+02  0.32870058127E+02  0.14481178577E+03  0.50400001928E-02 0.  1.
</event>
<event>
 5   0  0.2763587E-03  0.8022649E+03  0.7818609E-02  0.9556745E-01
       -2   -1    0    0    0  501  0.00000000000E+00  0.00000000000E+00  0.36342557161E+03  0.36342557161E+03  0.25500000920E-02 0. -1.
        2   -1    0    0  501    0  0.00000000000E+00  0.00000000000E+00 -0.44275159627E+03  0.44275159627E+03  0.25500000920E-02 0.  1.
    10030    2    1    2    0    0  0.00000000000E+00  0.00000000000E+00 -0.79326024662E+02  0.80617716789E+03  0.80226492372E+03 0.  0.
        3    1    3    3  502    0 -0.29473277128E+03  0.23896283343E+02 -0.31203608578E+03  0.42988948330E+03  0.10100000352E+00 0.  1.
       -3    1    3    3    0  502  0.29473277128E+03 -0.23896283343E+02  0.23271006112E+03  0.37628768459E+03  0.10100000352E+00 0. -1.
</event>
<event>
 5   0  0.1617491E-03  0.8011303E+03  0.7818609E-02  0.9558382E-01
        1   -1    0    0  501    0  0.00000000000E+00  0.00000000000E+00  0.16282770094E+04  0.16282770095E+04  0.50400001928E-02 0. -1.
       -1   -1    0    0    0  501  0.00000000000E+00  0.00000000000E+00 -0.98541249508E+02  0.98541249637E+02  0.50400001928E-02 0.  1.
    10030    2    1    2    0    0  0.00000000000E+00  0.00000000000E+00  0.15297357599E+04  0.17268182591E+04  0.80113032941E+03 0.  0.
        1    1    3    3  502    0  0.25294296417E+03 -0.18211260607E+03  0.13072063073E+04  0.13438502425E+04  0.50400001928E-02 0. -1.
       -1    1    3    3    0  502 -0.25294296417E+03  0.18211260607E+03  0.22252945265E+03  0.38296801659E+03  0.50400001928E-02 0.  1.
</event>
<event>
 5   0  0.2873212E-03  0.7994696E+03  0.7818609E-02  0.9560785E-01
        2   -1    0    0  501    0  0.00000000000E+00  0.00000000000E+00  0.98978090961E+03  0.98978090961E+03  0.25500000920E-02 0. -1.
       -2   -1    0    0    0  501  0.00000000000E+00  0.00000000000E+00 -0.16143766532E+03  0.16143766534E+03  0.25500000920E-02 0.  1.
    10030    2    1    2    0    0  0.00000000000E+00  0.00000000000E+00  0.82834324429E+03  0.11512185749E+04  0.79946962228E+03 0.  0.
        2    1    3    3  502    0  0.61583688927E+02 -0.39297853239E+03  0.47110525145E+03  0.61657508514E+03  0.25500000920E-02 0. -1.
       -2    1    3    3    0  502 -0.61583688927E+02  0.39297853239E+03  0.35723799284E+03  0.53464348981E+03  0.25500000920E-02 0.  1.
</event>
<event>
 5   0  0.1637228E-03  0.8021002E+03  0.7818609E-02  0.9556982E-01
        1   -1    0    0  501    0  0.00000000000E+00  0.00000000000E+00  0.20932690406E+04  0.20932690406E+04  0.50400001928E-02 0.  1.
       -1   -1    0    0    0  501  0.00000000000E+00  0.00000000000E+00 -0.76837323986E+02  0.76837324152E+02  0.50400001928E-02 0. -1.
    10030    2    1    2    0    0  0.00000000000E+00  0.00000000000E+00  0.20164317166E+04  0.21701063647E+04  0.80210022228E+03 0.  0.
        2    1    3    3  502    0 -0.39256771537E+03 -0.95649446978E+01  0.12286840720E+04  0.12899090852E+04  0.25500000920E-02 0.  1.
       -2    1    3    3    0  502  0.39256771537E+03  0.95649446978E+01  0.78774764461E+03  0.88019727954E+03  0.25500000920E-02 0. -1.
</event>
<event>
 5   0  0.2763587E-03  0.8002241E+03  0.7818609E-02  0.9559693E-01
        2   -1    0    0  501    0  0.00000000000E+00  0.00000000000E+00  0.61818799383E+03  0.61818799383E+03  0.25500000920E-02 0. -1.
       -2   -1    0    0    0  501  0.00000000000E+00  0.00000000000E+00 -0.25896599068E+03  0.25896599070E+03  0.25500000920E-02 0.  1.
    10030    2    1    2    0    0  0.00000000000E+00  0.00000000000E+00  0.35922200314E+03  0.87715398453E+03  0.80022413425E+03 0.  0.
        3    1    3    3  502    0 -0.19344860406E+03 -0.33395710271E+03  0.63918353572E+02  0.39119723284E+03  0.10100000352E+00 0. -1.
       -3    1    3    3    0  502  0.19344860406E+03  0.33395710271E+03  0.29530364957E+03  0.48595675169E+03  0.10100000352E+00 0.  1.
</event>
<event>
 5   0  0.2690809E-03  0.8041519E+03  0.7818609E-02  0.9554027E-01
       -2   -1    0    0    0  501  0.00000000000E+00  0.00000000000E+00  0.45599918685E+03  0.45599918685E+03  0.25500000920E-02 0. -1.
        2   -1    0    0  501    0  0.00000000000E+00  0.00000000000E+00 -0.35452931611E+03  0.35452931612E+03  0.25500000920E-02 0.  1.
    10030    2    1    2    0    0  0.00000000000E+00  0.00000000000E+00  0.10146987073E+03  0.81052850297E+03  0.80415192561E+03 0.  0.
        5    1    3    3  502    0 -0.31042336290E+03 -0.25435266741E+03  0.75114462277E+02  0.40831631867E+03  0.46999998093E+01 0.  1.
       -5    1    3    3    0  502  0.31042336290E+03  0.25435266741E+03  0.26355408456E+02  0.40221218430E+03  0.46999998093E+01 0. -1.
</event>
<event>
 5   0  0.1637228E-03  0.8031914E+03  0.7818609E-02  0.9555409E-01
        1   -1    0    0  501    0  0.00000000000E+00  0.00000000000E+00  0.73992975001E+03  0.73992975002E+03  0.50400001928E-02 0.  1.
       -1   -1    0    0    0  501  0.00000000000E+00  0.00000000000E+00 -0.21796542229E+03  0.21796542235E+03  0.50400001928E-02 0. -1.
    10030    2    1    2    0    0  0.00000000000E+00  0.00000000000E+00  0.52196432772E+03  0.95789517237E+03  0.80319138556E+03 0.  0.
        2    1    3    3  502    0  0.25984645516E+03  0.15674814459E+03  0.57468415779E+03  0.64988617643E+03  0.25500000920E-02 0.  1.
       -2    1    3    3    0  502 -0.25984645516E+03 -0.15674814459E+03 -0.52719830073E+02  0.30800899594E+03  0.25500000920E-02 0. -1.
</event>
<event>
 5   0  0.2763587E-03  0.7999324E+03  0.7818609E-02  0.9560115E-01
        2   -1    0    0  501    0  0.00000000000E+00  0.00000000000E+00  0.27502698705E+03  0.27502698706E+03  0.25500000920E-02 0.  1.
       -2   -1    0    0    0  501  0.00000000000E+00  0.00000000000E+00 -0.58166280865E+03  0.58166280865E+03  0.25500000920E-02 0. -1.
    10030    2    1    2    0    0  0.00000000000E+00  0.00000000000E+00 -0.30663582159E+03  0.85668979571E+03  0.79993242152E+03 0.  0.
        3    1    3    3  502    0 -0.79219346716E+02 -0.37229970160E+03 -0.21759807605E+02  0.38125617652E+03  0.10100000352E+00 0.  1.
       -3    1    3    3    0  502  0.79219346716E+02  0.37229970160E+03 -0.28487601399E+03  0.47543361919E+03  0.10100000352E+00 0. -1.
</event>
<event>
 5   0  0.2910501E-03  0.8003154E+03  0.7818609E-02  0.9559561E-01
       -2   -1    0    0    0  501  0.00000000000E+00  0.00000000000E+00  0.13534612641E+03  0.13534612643E+03  0.25500000920E-02 0. -1.
        2   -1    0    0  501    0  0.00000000000E+00  0.00000000000E+00 -0.11830866866E+04  0.11830866866E+04  0.25500000920E-02 0.  1.
    10030    2    1    2    0    0  0.00000000000E+00  0.00000000000E+00 -0.10477405602E+04  0.13184328130E+04  0.80031543845E+03 0.  0.
        1    1    3    3  502    0  0.11599282637E+03  0.36885021263E+03 -0.69365061512E+03  0.79413852130E+03  0.50400001928E-02 0.  1.
       -1    1    3    3    0  502 -0.11599282637E+03 -0.36885021263E+03 -0.35408994506E+03  0.52429429173E+03  0.50400001928E-02 0. -1.
</event>
<event>
 5   0  0.1656051E-03  0.8008377E+03  0.7818609E-02  0.9558805E-01
        1   -1    0    0  501    0  0.00000000000E+00  0.00000000000E+00  0.45729099948E+03  0.45729099951E+03  0.50400001928E-02 0. -1.
       -1   -1    0    0    0  501  0.00000000000E+00  0.00000000000E+00 -0.35061974081E+03  0.35061974084E+03  0.50400001928E-02 0.  1.
    10030    2    1    2    0    0  0.00000000000E+00  0.00000000000E+00  0.10667125867E+03  0.80791074035E+03  0.80083769076E+03 0.  0.
        3    1    3    3  502    0 -0.18816787573E+03 -0.27325925555E+03  0.27949739904E+03  0.43381629346E+03  0.10100000352E+00 0. -1.
       -3    1    3    3    0  502  0.18816787573E+03  0.27325925555E+03 -0.17282614036E+03  0.37409444689E+03  0.10100000352E+00 0.  1.
</event>
<event>
 5   0  0.2763587E-03  0.7998500E+03  0.7818609E-02  0.9560234E-01
        2   -1    0    0  501    0  0.00000000000E+00  0.00000000000E+00  0.82210122175E+03  0.82210122175E+03  0.25500000920E-02 0. -1.
       -2   -1    0    0    0  501  0.00000000000E+00  0.00000000000E+00 -0.19455023525E+03  0.19455023527E+03  0.25500000920E-02 0.  1.
    10030    2    1    2    0    0  0.00000000000E+00  0.00000000000E+00  0.62755098649E+03  0.10166514570E+04  0.79984995118E+03 0.  0.
        3    1    3    3  502    0  0.17575205841E+03 -0.35397140240E+03  0.39166765481E+03  0.55640641781E+03  0.10100000352E+00 0.  1.
       -3    1    3    3    0  502 -0.17575205841E+03  0.35397140240E+03  0.23588333168E+03  0.46024503921E+03  0.10100000352E+00 0. -1.
</event>
<event>
 5   0  0.1712793E-03  0.7959436E+03  0.7818609E-02  0.9565907E-01
       -1   -1    0    0    0  501  0.00000000000E+00  0.00000000000E+00  0.48581948129E+03  0.48581948131E+03  0.50400001928E-02 0. -1.
        1   -1    0    0  501    0  0.00000000000E+00  0.00000000000E+00 -0.32600904986E+03  0.32600904989E+03  0.50400001928E-02 0.  1.
    10030    2    1    2    0    0  0.00000000000E+00  0.00000000000E+00  0.15981043143E+03  0.81182853121E+03  0.79594358474E+03 0.  0.
        4    1    3    3  502    0 -0.52794858095E+02 -0.39104161156E+03  0.13269818996E+03  0.41630669167E+03  0.12699999809E+01 0.  1.
       -4    1    3    3    0  502  0.52794858095E+02  0.39104161156E+03  0.27112241477E+02  0.39552183954E+03  0.12699999809E+01 0. -1.
</event>
<event>
 5   0  0.1617491E-03  0.8000806E+03  0.7818609E-02  0.9559900E-01
        1   -1    0    0  501    0  0.00000000000E+00  0.00000000000E+00  0.47915103545E+03  0.47915103547E+03  0.50400001928E-02 0. -1.
       -1   -1    0    0    0  501  0.00000000000E+00  0.00000000000E+00 -0.33399124178E+03  0.33399124182E+03  0.50400001928E-02 0.  1.
    10030    2    1    2    0    0  0.00000000000E+00  0.00000000000E+00  0.14515979366E+03  0.81314227730E+03  0.80008061933E+03 0.  0.
        1    1    3    3  502    0  0.13192163184E+03 -0.34583016776E+03 -0.81655406025E+02  0.37903750110E+03  0.50400001928E-02 0.  1.
       -1    1    3    3    0  502 -0.13192163184E+03  0.34583016776E+03  0.22681519969E+03  0.43410477620E+03  0.50400001928E-02 0. -1.
</event>
<event>
 5   0  0.1656051E-03  0.7999571E+03  0.7818609E-02  0.9560079E-01
        1   -1    0    0  501    0  0.00000000000E+00  0.00000000000E+00  0.61503364896E+03  0.61503364898E+03  0.50400001928E-02 0. -1.
       -1   -1    0    0    0  501  0.00000000000E+00  0.00000000000E+00 -0.26012047230E+03  0.26012047235E+03  0.50400001928E-02 0.  1.
    10030    2    1    2    0    0  0.00000000000E+00  0.00000000000E+00  0.35491317666E+03  0.87515412133E+03  0.79995710705E+03 0.  0.
        3    1    3    3  502    0 -0.37103900451E+03 -0.16419161175E+02  0.33988281683E+03  0.50344798251E+03  0.10100000352E+00 0. -1.
       -3    1    3    3    0  502  0.37103900451E+03  0.16419161175E+02  0.15030359826E+02  0.37170613882E+03  0.10100000352E+00 0.  1.
</event>
<event>
 5   0  0.2768834E-03  0.7993000E+03  0.7818609E-02  0.9561031E-01
        2   -1    0    0  501    0  0.00000000000E+00  0.00000000000E+00  0.13688812788E+04  0.13688812788E+04  0.25500000920E-02 0. -1.
       -2   -1    0    0    0  501  0.00000000000E+00  0.00000000000E+00 -0.11667931413E+03  0.11667931416E+03  0.25500000920E-02 0.  1.
    10030    2    1    2    0    0  0.00000000000E+00  0.00000000000E+00  0.12522019647E+04  0.14855605930E+04  0.79930001567E+03 0.  0.
        4    1    3    3  502    0 -0.24634147997E+03  0.31211480432E+03  0.55132379899E+03  0.67974945389E+03  0.12699999809E+01 0.  1.
       -4    1    3    3    0  502  0.24634147997E+03 -0.31211480432E+03  0.70087816568E+03  0.80581113907E+03  0.12699999809E+01 0. -1.
</event>
<event>
 5   0  0.2768834E-03  0.7954962E+03  0.7818609E-02  0.9566559E-01
        2   -1    0    0  501    0  0.00000000000E+00  0.00000000000E+00  0.68336853641E+03  0.68336853642E+03  0.25500000920E-02 0.  1.
       -2   -1    0    0    0  501  0.00000000000E+00  0.00000000000E+00 -0.23150547663E+03  0.23150547664E+03  0.25500000920E-02 0. -1.
    10030    2    1    2    0    0  0.00000000000E+00  0.00000000000E+00  0.45186305978E+03  0.91487401306E+03  0.79549621933E+03 0.  0.
        4    1    3    3  502    0  0.26441982591E+03 -0.12538892724E+03  0.53572834693E+03  0.61044795193E+03  0.12699999809E+01 0.  1.
       -4    1    3    3    0  502 -0.26441982591E+03  0.12538892724E+03 -0.83865287144E+02  0.30442606113E+03  0.12699999809E+01 0. -1.
</event>
<event>
 5   0  0.1095350E-03  0.7990797E+03  0.7818609E-02  0.9561350E-01
       -4   -1    0    0    0  501  0.00000000000E+00  0.00000000000E+00  0.68898443503E+03  0.68898560552E+03  0.12699999809E+01 0. -1.
        4   -1    0    0  501    0  0.00000000000E+00  0.00000000000E+00 -0.23168876402E+03  0.23169224474E+03  0.12699999809E+01 0.  1.
    10030    2    1    2    0    0  0.00000000000E+00  0.00000000000E+00  0.45729567101E+03  0.92067785026E+03  0.79907970393E+03 0.  0.
        1    1    3    3  502    0 -0.17256064590E+03 -0.26091352210E+03  0.51502488511E+03  0.60258084507E+03  0.50400001928E-02 0. -1.
       -1    1    3    3    0  502  0.17256064590E+03  0.26091352210E+03 -0.57729214100E+02  0.31809700519E+03  0.50400001928E-02 0.  1.
</event>
<event>
 5   0  0.1656051E-03  0.8011651E+03  0.7818609E-02  0.9558332E-01
       -1   -1    0    0    0  501  0.00000000000E+00  0.00000000000E+00  0.16652337966E+03  0.16652337973E+03  0.50400001928E-02 0.  1.
        1   -1    0    0  501    0  0.00000000000E+00  0.00000000000E+00 -0.96362662210E+03  0.96362662211E+03  0.50400001928E-02 0. -1.
    10030    2    1    2    0    0  0.00000000000E+00  0.00000000000E+00 -0.79710324244E+03  0.11301500018E+04  0.80116505637E+03 0.  0.
        3    1    3    3  502    0  0.20285337051E+03  0.30519880380E+03 -0.17034905068E+03  0.40412202245E+03  0.10100000352E+00 0.  1.
       -3    1    3    3    0  502 -0.20285337051E+03 -0.30519880380E+03 -0.62675419176E+03  0.72602797939E+03  0.10100000352E+00 0. -1.
</event>
<event>
 5   0  0.1640035E-03  0.7994526E+03  0.7818609E-02  0.9560810E-01
       -1   -1    0    0    0  501  0.00000000000E+00  0.00000000000E+00  0.85646692891E+03  0.85646692892E+03  0.50400001928E-02 0.  1.
        1   -1    0    0  501    0  0.00000000000E+00  0.00000000000E+00 -0.18655841732E+03  0.18655841739E+03  0.50400001928E-02 0. -1.
    10030    2    1    2    0    0  0.00000000000E+00  0.00000000000E+00  0.66990851159E+03  0.10430253463E+04  0.79945259968E+03 0.  0.
        5    1    3    3  502    0  0.31930528813E+03 -0.23046364178E+03  0.24560865517E+03  0.46412827828E+03  0.46999998093E+01 0. -1.
       -5    1    3    3    0  502 -0.31930528813E+03  0.23046364178E+03  0.42429985642E+03  0.57889706803E+03  0.46999998093E+01 0.  1.
</event>
<event>
 5   0  0.2873212E-03  0.7995353E+03  0.7818609E-02  0.9560690E-01
       -2   -1    0    0    0  501  0.00000000000E+00  0.00000000000E+00  0.26547464115E+03  0.26547464116E+03  0.25500000920E-02 0. -1.
        2   -1    0    0  501    0  0.00000000000E+00  0.00000000000E+00 -0.60199405431E+03  0.60199405432E+03  0.25500000920E-02 0.  1.
    10030    2    1    2    0    0  0.00000000000E+00  0.00000000000E+00 -0.33651941316E+03  0.86746869548E+03  0.79953525389E+03 0.  0.
        2    1    3    3  502    0 -0.14317728949E+03  0.37294124602E+03 -0.15183236081E+03  0.42736164428E+03  0.25500000920E-02 0.  1.
       -2    1    3    3    0  502  0.14317728949E+03 -0.37294124602E+03 -0.18468705235E+03  0.44010705120E+03  0.25500000920E-02 0. -1.
</event>
<event>
 5   0  0.2763587E-03  0.8003267E+03  0.7818609E-02  0.9559544E-01
        2   -1    0    0  501    0  0.00000000000E+00  0.00000000000E+00  0.76854856572E+03  0.76854856572E+03  0.25500000920E-02 0. -1.
       -2   -1    0    0    0  501  0.00000000000E+00  0.00000000000E+00 -0.20835472609E+03  0.20835472610E+03  0.25500000920E-02 0.  1.
    10030    2    1    2    0    0  0.00000000000E+00  0.00000000000E+00  0.56019383963E+03  0.97690329182E+03  0.80032674803E+03 0.  0.
        3    1    3    3  502    0  0.11977539155E+03 -0.18018022902E+03  0.69099760511E+03  0.72407786862E+03  0.10100000352E+00 0. -1.
       -3    1    3    3    0  502 -0.11977539155E+03  0.18018022902E+03 -0.13080376548E+03  0.25282542320E+03  0.10100000352E+00 0.  1.
</event>
<event>
 5   0  0.2910501E-03  0.8018504E+03  0.7818609E-02  0.9557343E-01
        2   -1    0    0  501    0  0.00000000000E+00  0.00000000000E+00  0.19551873300E+04  0.19551873300E+04  0.25500000920E-02 0.  1.
       -2   -1    0    0    0  501  0.00000000000E+00  0.00000000000E+00 -0.82212592621E+02  0.82212592661E+02  0.25500000920E-02 0. -1.
    10030    2    1    2    0    0  0.00000000000E+00  0.00000000000E+00  0.18729747374E+04  0.20373999227E+04  0.80185040875E+03 0.  0.
        1    1    3    3  502    0 -0.35993205312E+03  0.16510669114E+03  0.10957682231E+04  0.11651263026E+04  0.50400001928E-02 0.  1.
       -1    1    3    3    0  502  0.35993205312E+03 -0.16510669114E+03  0.77720651431E+03  0.87227362005E+03  0.50400001928E-02 0. -1.
</event>
<event>
 5   0  0.2873212E-03  0.7997490E+03  0.7818609E-02  0.9560380E-01
        2   -1    0    0  501    0  0.00000000000E+00  0.00000000000E+00  0.44288099682E+03  0.44288099682E+03  0.25500000920E-02 0. -1.
       -2   -1    0    0    0  501  0.00000000000E+00  0.00000000000E+00 -0.36104422581E+03  0.36104422581E+03  0.25500000920E-02 0.  1.
    10030    2    1    2    0    0  0.00000000000E+00  0.00000000000E+00  0.81836771011E+02  0.80392522264E+03  0.79974902720E+03 0.  0.
        2    1    3    3  502    0  0.23332965334E+03 -0.19333419972E+03  0.30319999358E+03  0.42866196008E+03  0.25500000920E-02 0. -1.
       -2    1    3    3    0  502 -0.23332965334E+03  0.19333419972E+03 -0.22136322257E+03  0.37526326255E+03  0.25500000920E-02 0.  1.
</event>
<event>
 5   0  0.2763587E-03  0.8010405E+03  0.7818609E-02  0.9558512E-01
       -2   -1    0    0    0  501  0.00000000000E+00  0.00000000000E+00  0.15708358131E+03  0.15708358133E+03  0.25500000920E-02 0.  1.
        2   -1    0    0  501    0  0.00000000000E+00  0.00000000000E+00 -0.10212173686E+04  0.10212173686E+04  0.25500000920E-02 0. -1.
    10030    2    1    2    0    0  0.00000000000E+00  0.00000000000E+00 -0.86413378725E+03  0.11783009499E+04  0.80104052722E+03 0.  0.
        3    1    3    3  502    0 -0.29312712036E+03  0.15486214586E+03 -0.76265965475E+03  0.83159819149E+03  0.10100000352E+00 0. -1.
       -3    1    3    3    0  502  0.29312712036E+03 -0.15486214586E+03 -0.10147413250E+03  0.34670275840E+03  0.10100000352E+00 0.  1.
</event>
<event>
 5   0  0.1656051E-03  0.8029843E+03  0.7818609E-02  0.9555707E-01
        1   -1    0    0  501    0  0.00000000000E+00  0.00000000000E+00  0.10944827679E+04  0.10944827679E+04  0.50400001928E-02 0. -1.
       -1   -1    0    0    0  501  0.00000000000E+00  0.00000000000E+00 -0.14728048391E+03  0.14728048400E+03  0.50400001928E-02 0.  1.
    10030    2    1    2    0    0  0.00000000000E+00  0.00000000000E+00  0.94720228395E+03  0.12417632519E+04  0.80298431302E+03 0.  0.
        3    1    3    3  502    0 -0.10547397273E+03  0.17500536912E+03 -0.60857942419E+02  0.21320257386E+03  0.10100000352E+00 0.  1.
       -3    1    3    3    0  502  0.10547397273E+03 -0.17500536912E+03  0.10080602264E+04  0.10285606780E+04  0.10100000352E+00 0. -1.
</event>
<event>
 5   0  0.2690809E-03  0.7983174E+03  0.7818609E-02  0.9562456E-01
       -2   -1    0    0    0  501  0.00000000000E+00  0.00000000000E+00  0.22447670065E+03  0.22447670067E+03  0.25500000920E-02 0. -1.
        2   -1    0    0  501    0  0.00000000000E+00  0.00000000000E+00 -0.70977378013E+03  0.70977378013E+03  0.25500000920E-02 0.  1.
    10030    2    1    2    0    0  0.00000000000E+00  0.00000000000E+00 -0.48529707947E+03  0.93425048080E+03  0.79831742154E+03 0.  0.
        5    1    3    3  502    0  0.37754372990E+02 -0.24358246002E+03 -0.61002484601E+03  0.65795912507E+03  0.46999998093E+01 0.  1.
       -5    1    3    3    0  502 -0.37754372990E+02  0.24358246002E+03  0.12472776653E+03  0.27629135573E+03  0.46999998093E+01 0. -1.
</event>
<event>
 5   0  0.1640035E-03  0.7967489E+03  0.7818609E-02  0.9564735E-01
       -1   -1    0    0    0  501  0.00000000000E+00  0.00000000000E+00  0.45294734726E+03  0.45294734729E+03  0.50400001928E-02 0.  1.
        1   -1    0    0  501    0  0.00000000000E+00  0.00000000000E+00 -0.35037674433E+03  0.35037674436E+03  0.50400001928E-02 0. -1.
    10030    2    1    2    0    0  0.00000000000E+00  0.00000000000E+00  0.10257060293E+03  0.80332409166E+03  0.79674893640E+03 0.  0.
        5    1    3    3  502    0 -0.21159213604E+03 -0.17630082195E+03 -0.23888639065E+03  0.36461213568E+03  0.46999998093E+01 0. -1.
       -5    1    3    3    0  502  0.21159213604E+03  0.17630082195E+03  0.34145699358E+03  0.43871195597E+03  0.46999998093E+01 0.  1.
</event>
<event>
 5   0  0.1656051E-03  0.7993852E+03  0.7818609E-02  0.9560907E-01
       -1   -1    0    0    0  501  0.00000000000E+00  0.00000000000E+00  0.36980867047E+03  0.36980867050E+03  0.50400001928E-02 0. -1.
        1   -1    0    0  501    0  0.00000000000E+00  0.00000000000E+00 -0.43199140576E+03  0.43199140579E+03  0.50400001928E-02 0.  1.
    10030    2    1    2    0    0  0.00000000000E+00  0.00000000000E+00 -0.62182735295E+02  0.80180007630E+03  0.79938518236E+03 0.  0.
        3    1    3    3  502    0  0.51469863718E+02 -0.36538379767E+03 -0.18517735858E+03  0.41285001005E+03  0.10100000352E+00 0.  1.
       -3    1    3    3    0  502 -0.51469863718E+02  0.36538379767E+03  0.12299462328E+03  0.38895006624E+03  0.10100000352E+00 0. -1.
</event>
<event>
 5   0  0.2763587E-03  0.8007087E+03  0.7818609E-02  0.9558992E-01
       -2   -1    0    0    0  501  0.00000000000E+00  0.00000000000E+00  0.20792857558E+03  0.20792857560E+03  0.25500000920E-02 0. -1.
        2   -1    0    0  501    0  0.00000000000E+00  0.00000000000E+00 -0.77085890231E+03  0.77085890232E+03  0.25500000920E-02 0.  1.
    10030    2    1    2    0    0  0.00000000000E+00  0.00000000000E+00 -0.56293032673E+03  0.97878747792E+03  0.80070866998E+03 0.  0.
        3    1    3    3  502    0  0.17868844957E+03 -0.35678942650E+03 -0.32117584025E+03  0.51223255210E+03  0.10100000352E+00 0. -1.
       -3    1    3    3    0  502 -0.17868844957E+03  0.35678942650E+03 -0.24175448648E+03  0.46655492582E+03  0.10100000352E+00 0.  1.
</event>
<event>
 5   0  0.1617491E-03  0.8061870E+03  0.7818609E-02  0.9551105E-01
        1   -1    0    0  501    0  0.00000000000E+00  0.00000000000E+00  0.98738221022E+03  0.98738221024E+03  0.50400001928E-02 0.  1.
       -1   -1    0    0    0  501  0.00000000000E+00  0.00000000000E+00 -0.16456077112E+03  0.16456077119E+03  0.50400001928E-02 0. -1.
    10030    2    1    2    0    0  0.00000000000E+00  0.00000000000E+00  0.82282143911E+03  0.11519429814E+04  0.80618702037E+03 0.  0.
        1    1    3    3  502    0  0.59767307401E+02  0.39863790223E+03  0.41178821820E+03  0.57624113425E+03  0.50400001928E-02 0.  1.
       -1    1    3    3    0  502 -0.59767307401E+02 -0.39863790223E+03  0.41103322091E+03  0.57570184718E+03  0.50400001928E-02 0. -1.
</event>
<event>
 5   0  0.1656051E-03  0.8036586E+03  0.7818609E-02  0.9554737E-01
       -1   -1    0    0    0  501  0.00000000000E+00  0.00000000000E+00  0.12987345942E+04  0.12987345942E+04  0.50400001928E-02 0. -1.
        1   -1    0    0  501    0  0.00000000000E+00  0.00000000000E+00 -0.12432622313E+03  0.12432622323E+03  0.50400001928E-02 0.  1.
    10030    2    1    2    0    0  0.00000000000E+00  0.00000000000E+00  0.11744083710E+04  0.14230608174E+04  0.80365855191E+03 0.  0.
        3    1    3    3  502    0 -0.36274062250E+02  0.26278020871E+03  0.52756566820E+02  0.27046720915E+03  0.10100000352E+00 0.  1.
       -3    1    3    3    0  502  0.36274062250E+02 -0.26278020871E+03  0.11216518042E+04  0.11525936083E+04  0.10100000352E+00 0. -1.
</event>
<event>
 5   0  0.1637228E-03  0.8001446E+03  0.7818609E-02  0.9559808E-01
        1   -1    0    0  501    0  0.00000000000E+00  0.00000000000E+00  0.94286908648E+03  0.94286908649E+03  0.50400001928E-02 0.  1.
       -1   -1    0    0    0  501  0.00000000000E+00  0.00000000000E+00 -0.16975617661E+03  0.16975617668E+03  0.50400001928E-02 0. -1.
    10030    2    1    2    0    0  0.00000000000E+00  0.00000000000E+00  0.77311290987E+03  0.11126252632E+04  0.80014461495E+03 0.  0.
        2    1    3    3  502    0  0.74325356604E+02  0.22971175185E+01 -0.16006222080E+03  0.17649206758E+03  0.25500000920E-02 0. -1.
       -2    1    3    3    0  502 -0.74325356604E+02 -0.22971175185E+01  0.93317513067E+03  0.93613319560E+03  0.25500000920E-02 0.  1.
</event>
<event>
 5   0  0.1640035E-03  0.8002946E+03  0.7818609E-02  0.9559591E-01
        1   -1    0    0  501    0  0.00000000000E+00  0.00000000000E+00  0.10776215923E+04  0.10776215923E+04  0.50400001928E-02 0. -1.
       -1   -1    0    0    0  501  0.00000000000E+00  0.00000000000E+00 -0.14858449795E+03  0.14858449804E+03  0.50400001928E-02 0.  1.
    10030    2    1    2    0    0  0.00000000000E+00  0.00000000000E+00  0.92903709431E+03  0.12262060903E+04  0.80029460408E+03 0.  0.
        5    1    3    3  502    0  0.17084275700E+03 -0.12452295033E+03  0.98501922888E+03  0.10074612568E+04  0.46999998093E+01 0. -1.
       -5    1    3    3    0  502 -0.17084275700E+03  0.12452295033E+03 -0.55982134577E+02  0.21874483347E+03  0.46999998093E+01 0.  1.
</event>
<event>
 5   0  0.2768834E-03  0.7999739E+03  0.7818609E-02  0.9560055E-01
        2   -1    0    0  501    0  0.00000000000E+00  0.00000000000E+00  0.11022969687E+04  0.11022969687E+04  0.25500000920E-02 0. -1.
       -2   -1    0    0    0  501  0.00000000000E+00  0.00000000000E+00 -0.14514196245E+03  0.14514196247E+03  0.25500000920E-02 0.  1.
    10030    2    1    2    0    0  0.00000000000E+00  0.00000000000E+00  0.95715500622E+03  0.12474389311E+04  0.79997386269E+03 0.  0.
        4    1    3    3  502    0 -0.30503333787E+03 -0.89748597144E+02  0.10017316760E+03  0.33337130097E+03  0.12699999809E+01 0.  1.
       -4    1    3    3    0  502  0.30503333787E+03  0.89748597144E+02  0.85698183862E+03  0.91406763018E+03  0.12699999809E+01 0. -1.
</event>
<event>
 5   0  0.2910501E-03  0.8000429E+03  0.7818609E-02  0.9559955E-01
        2   -1    0    0  501    0  0.00000000000E+00  0.00000000000E+00  0.11445149221E+04  0.11445149221E+04  0.25500000920E-02 0. -1.
       -2   -1    0    0    0  501  0.00000000000E+00  0.00000000000E+00 -0.13981221940E+03  0.13981221942E+03  0.25500000920E-02 0.  1.
    10030    2    1    2    0    0  0.00000000000E+00  0.00000000000E+00  0.10047027027E+04  0.12843271415E+04  0.80004292736E+03 0.  0.
        1    1    3    3  502    0  0.13740946787E+03 -0.21633313463E+03  0.99541229515E+03  0.10278750043E+04  0.50400001928E-02 0. -1.
       -1    1    3    3    0  502 -0.13740946787E+03  0.21633313463E+03  0.92904075292E+01  0.25645213725E+03  0.50400001928E-02 0.  1.
</event>
<event>
 5   0  0.1712793E-03  0.7999365E+03  0.7818609E-02  0.9560109E-01
        1   -1    0    0  501    0  0.00000000000E+00  0.00000000000E+00  0.15631471445E+04  0.15631471445E+04  0.50400001928E-02 0. -1.
       -1   -1    0    0    0  501  0.00000000000E+00  0.00000000000E+00 -0.10234135191E+03  0.10234135204E+03  0.50400001928E-02 0.  1.
    10030    2    1    2    0    0  0.00000000000E+00  0.00000000000E+00  0.14608057926E+04  0.16654884965E+04  0.79993647777E+03 0.  0.
        4    1    3    3  502    0  0.17264134298E+03 -0.60253071064E+02 -0.10217697225E+02  0.18314333217E+03  0.12699999809E+01 0.  1.
       -4    1    3    3    0  502 -0.17264134298E+03  0.60253071064E+02  0.14710234898E+04  0.14823451644E+04  0.12699999809E+01 0. -1.
</event>
<event>
 5   0  0.2873212E-03  0.8019758E+03  0.7818609E-02  0.9557162E-01
        2   -1    0    0  501    0  0.00000000000E+00  0.00000000000E+00  0.10394487506E+03  0.10394487510E+03  0.25500000920E-02 0.  1.
       -2   -1    0    0    0  501  0.00000000000E+00  0.00000000000E+00 -0.15468900097E+04  0.15468900097E+04  0.25500000920E-02 0. -1.
    10030    2    1    2    0    0  0.00000000000E+00  0.00000000000E+00 -0.14429451347E+04  0.16508348848E+04  0.80197578224E+03 0.  0.
        2    1    3    3  502    0  0.22636546645E+03 -0.26797637743E+03 -0.11213578525E+04  0.11749451462E+04  0.25500000920E-02 0. -1.
       -2    1    3    3    0  502 -0.22636546645E+03  0.26797637743E+03 -0.32158728219E+03  0.47588973863E+03  0.25500000920E-02 0.  1.
</event>
<event>
 5   0  0.1640035E-03  0.8008956E+03  0.7818609E-02  0.9558722E-01
        1   -1    0    0  501    0  0.00000000000E+00  0.00000000000E+00  0.47844363051E+03  0.47844363053E+03  0.50400001928E-02 0. -1.
       -1   -1    0    0    0  501  0.00000000000E+00  0.00000000000E+00 -0.33516685048E+03  0.33516685052E+03  0.50400001928E-02 0.  1.
    10030    2    1    2    0    0  0.00000000000E+00  0.00000000000E+00  0.14327678003E+03  0.81361048105E+03  0.80089561067E+03 0.  0.
        5    1    3    3  502    0 -0.22684176373E+03 -0.12305105868E+03  0.38266500221E+03  0.46157701711E+03  0.46999998093E+01 0. -1.
       -5    1    3    3    0  502  0.22684176373E+03  0.12305105868E+03 -0.23938822218E+03  0.35203346394E+03  0.46999998093E+01 0.  1.
</event>
<event>
 5   0  0.2873212E-03  0.7995713E+03  0.7818609E-02  0.9560638E-01
       -2   -1    0    0    0  501  0.00000000000E+00  0.00000000000E+00  0.11478501740E+03  0.11478501743E+03  0.25500000920E-02 0. -1.
        2   -1    0    0  501    0  0.00000000000E+00  0.00000000000E+00 -0.13924164820E+04  0.13924164820E+04  0.25500000920E-02 0.  1.
    10030    2    1    2    0    0  0.00000000000E+00  0.00000000000E+00 -0.12776314646E+04  0.15072014994E+04  0.79957126046E+03 0.  0.
        2    1    3    3  502    0 -0.15017150121E+03 -0.34814364423E+02  0.56508561559E+02  0.16418507021E+03  0.25500000920E-02 0. -1.
       -2    1    3    3    0  502  0.15017150121E+03  0.34814364423E+02 -0.13341400261E+04  0.13430164292E+04  0.25500000920E-02 0.  1.
</event>
<event>
 5   0  0.1637228E-03  0.8022106E+03  0.7818609E-02  0.9556823E-01
       -1   -1    0    0    0  501  0.00000000000E+00  0.00000000000E+00  0.70209774792E+03  0.70209774793E+03  0.50400001928E-02 0. -1.
        1   -1    0    0  501    0  0.00000000000E+00  0.00000000000E+00 -0.22914963761E+03  0.22914963767E+03  0.50400001928E-02 0.  1.
    10030    2    1    2    0    0  0.00000000000E+00  0.00000000000E+00  0.47294811030E+03  0.93124738560E+03  0.80221055724E+03 0.  0.
        2    1    3    3  502    0 -0.20824542666E+03  0.28776046989E+03  0.45275786496E+03  0.57546670629E+03  0.25500000920E-02 0. -1.
       -2    1    3    3    0  502  0.20824542666E+03 -0.28776046989E+03  0.20190245344E+02  0.35578067931E+03  0.25500000920E-02 0.  1.
</event>
<event>
 5   0  0.1637228E-03  0.7956760E+03  0.7818609E-02  0.9566297E-01
        1   -1    0    0  501    0  0.00000000000E+00  0.00000000000E+00  0.40809248330E+03  0.40809248333E+03  0.50400001928E-02 0. -1.
       -1   -1    0    0    0  501  0.00000000000E+00  0.00000000000E+00 -0.38784118416E+03  0.38784118419E+03  0.50400001928E-02 0.  1.
    10030    2    1    2    0    0  0.00000000000E+00  0.00000000000E+00  0.20251299147E+02  0.79593366752E+03  0.79567599435E+03 0.  0.
        2    1    3    3  502    0 -0.34874370229E+03 -0.15367283149E+03  0.12434477470E+03  0.40087296246E+03  0.25500000920E-02 0. -1.
       -2    1    3    3    0  502  0.34874370229E+03  0.15367283149E+03 -0.10409347555E+03  0.39506070507E+03  0.25500000920E-02 0.  1.
</event>
<event>
 5   0  0.1637228E-03  0.7992004E+03  0.7818609E-02  0.9561175E-01
       -1   -1    0    0    0  501  0.00000000000E+00  0.00000000000E+00  0.26053855038E+03  0.26053855043E+03  0.50400001928E-02 0. -1.
        1   -1    0    0  501    0  0.00000000000E+00  0.00000000000E+00 -0.61288564853E+03  0.61288564855E+03  0.50400001928E-02 0.  1.
    10030    2    1    2    0    0  0.00000000000E+00  0.00000000000E+00 -0.35234709815E+03  0.87342419898E+03  0.79920044657E+03 0.  0.
        2    1    3    3  502    0  0.23474256375E+03 -0.17258931874E+03 -0.47504809518E+03  0.55728075233E+03  0.25500000920E-02 0.  1.
       -2    1    3    3    0  502 -0.23474256375E+03  0.17258931874E+03  0.12270099703E+03  0.31614344665E+03  0.25500000920E-02 0. -1.
</event>
<event>
 5   0  0.2768834E-03  0.8005481E+03  0.7818609E-02  0.9559224E-01
       -2   -1    0    0    0  501  0.00000000000E+00  0.00000000000E+00  0.15068343862E+03  0.15068343864E+03  0.25500000920E-02 0.  1.
        2   -1    0    0  501    0  0.00000000000E+00  0.00000000000E+00 -0.10632842638E+04  0.10632842638E+04  0.25500000920E-02 0. -1.
    10030    2    1    2    0    0  0.00000000000E+00  0.00000000000E+00 -0.91260082520E+03  0.12139677025E+04  0.80054813501E+03 0.  0.
        4    1    3    3  502    0  0.13152033689E+03 -0.11777151185E+03 -0.10010522039E+04  0.10165012818E+04  0.12699999809E+01 0. -1.
       -4    1    3    3    0  502 -0.13152033689E+03  0.11777151185E+03  0.88451378676E+02  0.19746642071E+03  0.12699999809E+01 0.  1.
</event>
<event>
 5   0  0.1640035E-03  0.8001721E+03  0.7818609E-02  0.9559768E-01
        1   -1    0    0  501    0  0.00000000000E+00  0.00000000000E+00  0.78953606164E+03  0.78953606165E+03  0.50400001928E-02 0. -1.
       -1   -1    0    0    0  501  0.00000000000E+00  0.00000000000E+00 -0.20273786691E+03  0.20273786698E+03  0.50400001928E-02 0.  1.
    10030    2    1    2    0    0  0.00000000000E+00  0.00000000000E+00  0.58679819472E+03  0.99227392863E+03  0.80017212405E+03 0.  0.
        5    1    3    3  502    0 -0.22601427418E+02 -0.40602489308E+02  0.78614369634E+03  0.78752992829E+03  0.46999998093E+01 0. -1.
       -5    1    3    3    0  502  0.22601427418E+02  0.40602489308E+02 -0.19934550162E+03  0.20474400034E+03  0.46999998093E+01 0.  1.
</event>
<event>
 5   0  0.2690809E-03  0.8017955E+03  0.7818609E-02  0.9557422E-01
        2   -1    0    0  501    0  0.00000000000E+00  0.00000000000E+00  0.16685653942E+04  0.16685653942E+04  0.25500000920E-02 0. -1.
       -2   -1    0    0    0  501  0.00000000000E+00  0.00000000000E+00 -0.96321679185E+02  0.96321679218E+02  0.25500000920E-02 0.  1.
    10030    2    1    2    0    0  0.00000000000E+00  0.00000000000E+00  0.15722437150E+04  0.17648870734E+04  0.80179553660E+03 0.  0.
        5    1    3    3  502    0  0.45848494276E+02  0.12758630304E+02  0.16622645183E+04  0.16629522801E+04  0.46999998093E+01 0. -1.
       -5    1    3    3    0  502 -0.45848494276E+02 -0.12758630304E+02 -0.90020803268E+02  0.10193479334E+03  0.46999998093E+01 0.  1.
</event>
<event>
 5   0  0.2690809E-03  0.8003392E+03  0.7818609E-02  0.9559526E-01
        2   -1    0    0  501    0  0.00000000000E+00  0.00000000000E+00  0.16567346555E+04  0.16567346555E+04  0.25500000920E-02 0.  1.
       -2   -1    0    0    0  501  0.00000000000E+00  0.00000000000E+00 -0.96657419276E+02  0.96657419310E+02  0.25500000920E-02 0. -1.
    10030    2    1    2    0    0  0.00000000000E+00  0.00000000000E+00  0.15600772363E+04  0.17533920749E+04  0.80033916876E+03 0.  0.
        5    1    3    3  502    0 -0.29150221034E+03 -0.26210893986E+03  0.95583632726E+03  0.10331117120E+04  0.46999998093E+01 0.  1.
       -5    1    3    3    0  502  0.29150221034E+03  0.26210893986E+03  0.60424090900E+03  0.72028036284E+03  0.46999998093E+01 0. -1.
</event>
<event>
 5   0  0.2768834E-03  0.8001191E+03  0.7818609E-02  0.9559845E-01
        2   -1    0    0  501    0  0.00000000000E+00  0.00000000000E+00  0.11784707904E+04  0.11784707904E+04  0.25500000920E-02 0. -1.
       -2   -1    0    0    0  501  0.00000000000E+00  0.00000000000E+00 -0.13580959128E+03  0.13580959131E+03  0.25500000920E-02 0.  1.
    10030    2    1    2    0    0  0.00000000000E+00  0.00000000000E+00  0.10426611991E+04  0.13142803817E+04  0.80011908213E+03 0.  0.
        4    1    3    3  502    0 -0.13091020409E+03 -0.18214033005E+03  0.10654608845E+04  0.10888163714E+04  0.12699999809E+01 0.  1.
       -4    1    3    3    0  502  0.13091020409E+03  0.18214033005E+03 -0.22799685418E+02  0.22546401026E+03  0.12699999809E+01 0. -1.
</event>
<event>
 5   0  0.1712793E-03  0.7997911E+03  0.7818609E-02  0.9560319E-01
       -1   -1    0    0    0  501  0.00000000000E+00  0.00000000000E+00  0.19909765104E+03  0.19909765110E+03  0.50400001928E-02 0. -1.
        1   -1    0    0  501    0  0.00000000000E+00  0.00000000000E+00 -0.80320620993E+03  0.80320620994E+03  0.50400001928E-02 0.  1.
    10030    2    1    2    0    0  0.00000000000E+00  0.00000000000E+00 -0.60410855889E+03  0.10023038610E+04  0.79979114708E+03 0.  0.
        4    1    3    3  502    0 -0.39200096131E+03 -0.63157387723E+02 -0.24246105766E+03  0.46523390533E+03  0.12699999809E+01 0. -1.
       -4    1    3    3    0  502  0.39200096131E+03  0.63157387723E+02 -0.36164750123E+03  0.53706995572E+03  0.12699999809E+01 0.  1.
</event>
<event>
 5   0  0.1637228E-03  0.7960276E+03  0.7818609E-02  0.9565785E-01
       -1   -1    0    0    0  501  0.00000000000E+00  0.00000000000E+00  0.32652812863E+03  0.32652812866E+03  0.50400001928E-02 0. -1.
        1   -1    0    0  501    0  0.00000000000E+00  0.00000000000E+00 -0.48514959855E+03  0.48514959857E+03  0.50400001928E-02 0.  1.
    10030    2    1    2    0    0  0.00000000000E+00  0.00000000000E+00 -0.15862146992E+03  0.81167772724E+03  0.79602761395E+03 0.  0.
        2    1    3    3  502    0  0.31918863415E+03 -0.14051639631E+03  0.11626411411E+03  0.36761880534E+03  0.25500000920E-02 0. -1.
       -2    1    3    3    0  502 -0.31918863415E+03  0.14051639631E+03 -0.27488558403E+03  0.44405892190E+03  0.25500000920E-02 0.  1.
</event>
<event>
 5   0  0.1095350E-03  0.8000804E+03  0.7818609E-02  0.9559901E-01
        3   -1    0    0  501    0  0.00000000000E+00  0.00000000000E+00  0.18299526263E+03  0.18299529051E+03  0.10100000352E+00 0.  1.
       -3   -1    0    0    0  501  0.00000000000E+00  0.00000000000E+00 -0.87451515788E+03  0.87451516372E+03  0.10100000352E+00 0. -1.
    10030    2    1    2    0    0  0.00000000000E+00  0.00000000000E+00 -0.69151989525E+03  0.10575104542E+04  0.80008036800E+03 0.  0.
        3    1    3    3  502    0 -0.27520694392E+03 -0.28669967550E+03 -0.40628093694E+03  0.56833069232E+03  0.10100000352E+00 0.  1.
       -3    1    3    3    0  502  0.27520694392E+03  0.28669967550E+03 -0.28523895831E+03  0.48917976190E+03  0.10100000352E+00 0. -1.
</event>
<event>
 5   0  0.2873212E-03  0.8004052E+03  0.7818609E-02  0.9559431E-01
        2   -1    0    0  501    0  0.00000000000E+00  0.00000000000E+00  0.52804256322E+03  0.52804256323E+03  0.25500000920E-02 0. -1.
       -2   -1    0    0    0  501  0.00000000000E+00  0.00000000000E+00 -0.30331290797E+03  0.30331290798E+03  0.25500000920E-02 0.  1.
    10030    2    1    2    0    0  0.00000000000E+00  0.00000000000E+00  0.22472965525E+03  0.83135547121E+03  0.80040521085E+03 0.  0.
        2    1    3    3  502    0  0.87624630119E+01 -0.33065564951E+02 -0.30179169540E+03  0.30372411785E+03  0.25500000920E-02 0.  1.
       -2    1    3    3    0  502 -0.87624630119E+01  0.33065564951E+02  0.52652135066E+03  0.52763135336E+03  0.25500000920E-02 0. -1.
</event>
<event>
 5   0  0.1637228E-03  0.7989783E+03  0.7818609E-02  0.9561497E-01
        1   -1    0    0  501    0  0.00000000000E+00  0.00000000000E+00  0.91467714102E+03  0.91467714103E+03  0.50400001928E-02 0. -1.
       -1   -1    0    0    0  501  0.00000000000E+00  0.00000000000E+00 -0.17447857486E+03  0.17447857493E+03  0.50400001928E-02 0.  1.
    10030    2    1    2    0    0  0.00000000000E+00  0.00000000000E+00  0.74019856615E+03  0.10891557160E+04  0.79897825770E+03 0.  0.
        2    1    3    3  502    0 -0.22177233609E+03 -0.33081471483E+03  0.41256026217E+03  0.57343466457E+03  0.25500000920E-02 0. -1.
       -2    1    3    3    0  502  0.22177233609E+03  0.33081471483E+03  0.32763830398E+03  0.51572105139E+03  0.25500000920E-02 0.  1.
</event>
<event>
 5   0  0.2763587E-03  0.8061826E+03  0.7818609E-02  0.9551111E-01
       -2   -1    0    0    0  501  0.00000000000E+00  0.00000000000E+00  0.40675722838E+03  0.40675722839E+03  0.25500000920E-02 0.  1.
        2   -1    0    0  501    0  0.00000000000E+00  0.00000000000E+00 -0.39945845803E+03  0.39945845804E+03  0.25500000920E-02 0. -1.
    10030    2    1    2    0    0  0.00000000000E+00  0.00000000000E+00  0.72987703524E+01  0.80621568643E+03  0.80618264742E+03 0.  0.
        3    1    3    3  502    0 -0.18905981773E+03  0.29721493465E+03  0.19962239521E+03  0.40488201112E+03  0.10100000352E+00 0.  1.
       -3    1    3    3    0  502  0.18905981773E+03 -0.29721493465E+03 -0.19232362486E+03  0.40133367531E+03  0.10100000352E+00 0. -1.
</event>
<event>
 5   0  0.2690809E-03  0.7998172E+03  0.7818609E-02  0.9560282E-01
       -2   -1    0    0    0  501  0.00000000000E+00  0.00000000000E+00  0.66002488627E+03  0.66002488628E+03  0.25500000920E-02 0.  1.
        2   -1    0    0  501    0  0.00000000000E+00  0.00000000000E+00 -0.24230431501E+03  0.24230431502E+03  0.25500000920E-02 0. -1.
    10030    2    1    2    0    0  0.00000000000E+00  0.00000000000E+00  0.41772057126E+03  0.90232920130E+03  0.79981717402E+03 0.  0.
        5    1    3    3  502    0 -0.45872501424E+02 -0.23014501982E+03 -0.15641887149E+03  0.28206376920E+03  0.46999998093E+01 0. -1.
       -5    1    3    3    0  502  0.45872501424E+02  0.23014501982E+03  0.57413944276E+03  0.62026543210E+03  0.46999998093E+01 0.  1.
</event>
<event>
 5   0  0.1640035E-03  0.8023855E+03  0.7818609E-02  0.9556571E-01
        1   -1    0    0  501    0  0.00000000000E+00  0.00000000000E+00  0.95416977807E+03  0.95416977808E+03  0.50400001928E-02 0. -1.
       -1   -1    0    0    0  501  0.00000000000E+00  0.00000000000E+00 -0.16868655491E+03  0.16868655499E+03  0.50400001928E-02 0.  1.
    10030    2    1    2    0    0  0.00000000000E+00  0.00000000000E+00  0.78548322316E+03  0.11228563331E+04  0.80238547523E+03 0.  0.
        5    1    3    3  502    0  0.63493783549E+02 -0.21970612703E+03  0.85397271079E+03  0.88407789452E+03  0.46999998093E+01 0. -1.
       -5    1    3    3    0  502 -0.63493783549E+02  0.21970612703E+03 -0.68489487632E+02  0.23877843856E+03  0.46999998093E+01 0.  1.
</event>
<event>
 5   0  0.1656051E-03  0.7948958E+03  0.7818609E-02  0.9567435E-01
       -1   -1    0    0    0  501  0.00000000000E+00  0.00000000000E+00  0.51583077147E+03  0.51583077150E+03  0.50400001928E-02 0.  1.
        1   -1    0    0  501    0  0.00000000000E+00  0.00000000000E+00 -0.30623382484E+03  0.30623382489E+03  0.50400001928E-02 0. -1.
    10030    2    1    2    0    0  0.00000000000E+00  0.00000000000E+00  0.20959694663E+03  0.82206459639E+03  0.79489579229E+03 0.  0.
        3    1    3    3  502    0  0.32755695128E+03  0.18395608947E+02 -0.12721947040E+03  0.35187605575E+03  0.10100000352E+00 0. -1.
       -3    1    3    3    0  502 -0.32755695128E+03 -0.18395608947E+02  0.33681641703E+03  0.47018854063E+03  0.10100000352E+00 0.  1.
</event>
<event>
 5   0  0.2763587E-03  0.7994998E+03  0.7818609E-02  0.9560741E-01
       -2   -1    0    0    0  501  0.00000000000E+00  0.00000000000E+00  0.36098885226E+03  0.36098885227E+03  0.25500000920E-02 0. -1.
        2   -1    0    0  501    0  0.00000000000E+00  0.00000000000E+00 -0.44267295185E+03  0.44267295186E+03  0.25500000920E-02 0.  1.
    10030    2    1    2    0    0  0.00000000000E+00  0.00000000000E+00 -0.81684099596E+02  0.80366180413E+03  0.79949984571E+03 0.  0.
        3    1    3    3  502    0 -0.20233578285E+03 -0.27608304151E+03 -0.24840759768E+03  0.42292784209E+03  0.10100000352E+00 0.  1.
       -3    1    3    3    0  502  0.20233578285E+03  0.27608304151E+03  0.16672349808E+03  0.38073396203E+03  0.10100000352E+00 0. -1.
</event>
<event>
 5   0  0.2910501E-03  0.7994586E+03  0.7818609E-02  0.9560801E-01
        2   -1    0    0  501    0  0.00000000000E+00  0.00000000000E+00  0.30553216170E+03  0.30553216171E+03  0.25500000920E-02 0. -1.
       -2   -1    0    0    0  501  0.00000000000E+00  0.00000000000E+00 -0.52296789631E+03  0.52296789631E+03  0.25500000920E-02 0.  1.
    10030    2    1    2    0    0  0.00000000000E+00  0.00000000000E+00 -0.21743573461E+03  0.82850005802E+03  0.79945859646E+03 0.  0.
        1    1    3    3  502    0  0.16293939438E+02  0.11036188898E+03 -0.50650831834E+03  0.51864816164E+03  0.50400001928E-02 0.  1.
       -1    1    3    3    0  502 -0.16293939438E+02 -0.11036188898E+03  0.28907258373E+03  0.30985189638E+03  0.50400001928E-02 0. -1.
</event>
<event>
 5   0  0.2910501E-03  0.8002520E+03  0.7818609E-02  0.9559652E-01
        2   -1    0    0  501    0  0.00000000000E+00  0.00000000000E+00  0.84694117433E+03  0.84694117434E+03  0.25500000920E-02 0. -1.
       -2   -1    0    0    0  501  0.00000000000E+00  0.00000000000E+00 -0.18903418632E+03  0.18903418633E+03  0.25500000920E-02 0.  1.
    10030    2    1    2    0    0  0.00000000000E+00  0.00000000000E+00  0.65790698802E+03  0.10359753607E+04  0.80025204969E+03 0.  0.
        1    1    3    3  502    0  0.31960477552E+03 -0.46945806512E+02  0.23289731380E+02  0.32387271095E+03  0.50400001928E-02 0.  1.
       -1    1    3    3    0  502 -0.31960477552E+03  0.46945806512E+02  0.63461725664E+03  0.71210264972E+03  0.50400001928E-02 0. -1.
</event>
<event>
 5   0  0.2873212E-03  0.7997430E+03  0.7818609E-02  0.9560389E-01
        2   -1    0    0  501    0  0.00000000000E+00  0.00000000000E+00  0.23970337727E+04  0.23970337727E+04  0.25500000920E-02 0.  1.
       -2   -1    0    0    0  501  0.00000000000E+00  0.00000000000E+00 -0.66706284101E+02  0.66706284149E+02  0.25500000920E-02 0. -1.
    10030    2    1    2    0    0  0.00000000000E+00  0.00000000000E+00  0.23303274886E+04  0.24637400569E+04  0.79974299848E+03 0.  0.
        2    1    3    3  502    0  0.11794487097E+03 -0.24952711754E+03  0.27377862703E+03  0.38875379304E+03  0.25500000920E-02 0. -1.
       -2    1    3    3    0  502 -0.11794487097E+03  0.24952711754E+03  0.20565488616E+04  0.20749862639E+04  0.25500000920E-02 0.  1.
</event>
<event>
 5   0  0.1617491E-03  0.8011902E+03  0.7818609E-02  0.9558296E-01
        1   -1    0    0  501    0  0.00000000000E+00  0.00000000000E+00  0.50585332176E+03  0.50585332178E+03  0.50400001928E-02 0. -1.
       -1   -1    0    0    0  501  0.00000000000E+00  0.00000000000E+00 -0.31723907253E+03  0.31723907257E+03  0.50400001928E-02 0.  1.
    10030    2    1    2    0    0  0.00000000000E+00  0.00000000000E+00  0.18861424923E+03  0.82309239435E+03  0.80119021127E+03 0.  0.
        1    1    3    3  502    0 -0.75291963315E+02 -0.17380780100E+03 -0.26832744232E+03  0.32844732874E+03  0.50400001928E-02 0.  1.
       -1    1    3    3    0  502  0.75291963315E+02  0.17380780100E+03  0.45694169155E+03  0.49464506561E+03  0.50400001928E-02 0. -1.
</event>
<event>
 5   0  0.2910501E-03  0.7972573E+03  0.7818609E-02  0.9563996E-01
       -2   -1    0    0    0  501  0.00000000000E+00  0.00000000000E+00  0.96363705237E+02  0.96363705271E+02  0.25500000920E-02 0.  1.
        2   -1    0    0  501    0  0.00000000000E+00  0.00000000000E+00 -0.16490109360E+04  0.16490109360E+04  0.25500000920E-02 0. -1.
    10030    2    1    2    0    0  0.00000000000E+00  0.00000000000E+00 -0.15526472308E+04  0.17453746413E+04  0.79725730803E+03 0.  0.
        1    1    3    3  502    0  0.38700855869E+03 -0.82236691189E+02 -0.66982950345E+03  0.77795248030E+03  0.50400001928E-02 0.  1.
       -1    1    3    3    0  502 -0.38700855869E+03  0.82236691189E+02 -0.88281772734E+03  0.96742216101E+03  0.50400001928E-02 0. -1.
</event>
<event>
 5   0  0.2768834E-03  0.8002620E+03  0.7818609E-02  0.9559638E-01
        2   -1    0    0  501    0  0.00000000000E+00  0.00000000000E+00  0.32010086253E+03  0.32010086254E+03  0.25500000920E-02 0.  1.
       -2   -1    0    0    0  501  0.00000000000E+00  0.00000000000E+00 -0.50016992384E+03  0.50016992384E+03  0.25500000920E-02 0. -1.
    10030    2    1    2    0    0  0.00000000000E+00  0.00000000000E+00 -0.18006906130E+03  0.82027078639E+03  0.80026201719E+03 0.  0.
        4    1    3    3  502    0 -0.88955621565E+02  0.38977633329E+03 -0.73363859106E+02  0.40647578197E+03  0.12699999809E+01 0.  1.
       -4    1    3    3    0  502  0.88955621565E+02 -0.38977633329E+03 -0.10670520220E+03  0.41379500442E+03  0.12699999809E+01 0. -1.
</event>
<event>
 5   0  0.2763587E-03  0.7994294E+03  0.7818609E-02  0.9560843E-01
       -2   -1    0    0    0  501  0.00000000000E+00  0.00000000000E+00  0.17806553651E+03  0.17806553653E+03  0.25500000920E-02 0. -1.
        2   -1    0    0  501    0  0.00000000000E+00  0.00000000000E+00 -0.89726433585E+03  0.89726433585E+03  0.25500000920E-02 0.  1.
    10030    2    1    2    0    0  0.00000000000E+00  0.00000000000E+00 -0.71919879934E+03  0.10753298724E+04  0.79942943495E+03 0.  0.
        3    1    3    3  502    0  0.14763470361E+03  0.11405487530E+03  0.11591077290E+03  0.21963569329E+03  0.10100000352E+00 0. -1.
       -3    1    3    3    0  502 -0.14763470361E+03 -0.11405487530E+03 -0.83510957223E+03  0.85569417909E+03  0.10100000352E+00 0.  1.
</event>
<event>
 5   0  0.1656051E-03  0.8047200E+03  0.7818609E-02  0.9553210E-01
       -1   -1    0    0    0  501  0.00000000000E+00  0.00000000000E+00  0.87201720888E+03  0.87201720889E+03  0.50400001928E-02 0.  1.
        1   -1    0    0  501    0  0.00000000000E+00  0.00000000000E+00 -0.18565411039E+03  0.18565411046E+03  0.50400001928E-02 0. -1.
    10030    2    1    2    0    0  0.00000000000E+00  0.00000000000E+00  0.68636309849E+03  0.10576713194E+04  0.80472002388E+03 0.  0.
        3    1    3    3  502    0 -0.47482464993E+02 -0.36110022305E+01 -0.18193736419E+03  0.18806604826E+03  0.10100000352E+00 0. -1.
       -3    1    3    3    0  502  0.47482464993E+02  0.36110022305E+01  0.86830046268E+03  0.86960527109E+03  0.10100000352E+00 0.  1.
</event>
<event>
 5   0  0.1095350E-03  0.8005854E+03  0.7818609E-02  0.9559170E-01
        4   -1    0    0  501    0  0.00000000000E+00  0.00000000000E+00  0.11479292707E+03  0.11479995211E+03  0.12699999809E+01 0.  1.
       -4   -1    0    0    0  501  0.00000000000E+00  0.00000000000E+00 -0.13958047989E+04  0.13958053767E+04  0.12699999809E+01 0. -1.
    10030    2    1    2    0    0  0.00000000000E+00  0.00000000000E+00 -0.12810118718E+04  0.15106053288E+04  0.80058543803E+03 0.  0.
        3    1    3    3  502    0 -0.21843017914E+03  0.15481598842E+03 -0.79007325333E+02  0.27914494638E+03  0.10100000352E+00 0.  1.
       -3    1    3    3    0  502  0.21843017914E+03 -0.15481598842E+03 -0.12020045465E+04  0.12314603824E+04  0.10100000352E+00 0. -1.
</event>
<event>
 5   0  0.2910501E-03  0.8012932E+03  0.7818609E-02  0.9558147E-01
       -2   -1    0    0    0  501  0.00000000000E+00  0.00000000000E+00  0.18063969570E+03  0.18063969572E+03  0.25500000920E-02 0.  1.
        2   -1    0    0  501    0  0.00000000000E+00  0.00000000000E+00 -0.88860701579E+03  0.88860701580E+03  0.25500000920E-02 0. -1.
    10030    2    1    2    0    0  0.00000000000E+00  0.00000000000E+00 -0.70796732010E+03  0.10692467115E+04  0.80129320711E+03 0.  0.
        1    1    3    3  502    0 -0.11669899147E+03  0.71788384919E+02  0.14840642829E+03  0.20198191702E+03  0.50400001928E-02 0.  1.
       -1    1    3    3    0  502  0.11669899147E+03 -0.71788384919E+02 -0.85637374839E+03  0.86726479449E+03  0.50400001928E-02 0. -1.
</event>
<event>
 5   0  0.2768834E-03  0.8015704E+03  0.7818609E-02  0.9557747E-01
       -2   -1    0    0    0  501  0.00000000000E+00  0.00000000000E+00  0.18808465358E+03  0.18808465359E+03  0.25500000920E-02 0. -1.
        2   -1    0    0  501    0  0.00000000000E+00  0.00000000000E+00 -0.85402384728E+03  0.85402384728E+03  0.25500000920E-02 0.  1.
    10030    2    1    2    0    0  0.00000000000E+00  0.00000000000E+00 -0.66593919370E+03  0.10421085009E+04  0.80157040732E+03 0.  0.
        4    1    3    3  502    0  0.32971261462E+03 -0.45180611893E+02 -0.62331487443E+03  0.70659375989E+03  0.12699999809E+01 0.  1.
       -4    1    3    3    0  502 -0.32971261462E+03  0.45180611893E+02 -0.42624319270E+02  0.33551474099E+03  0.12699999809E+01 0. -1.
</event>
<event>
 5   0  0.2763587E-03  0.7989045E+03  0.7818609E-02  0.9561604E-01
       -2   -1    0    0    0  501  0.00000000000E+00  0.00000000000E+00  0.22951502743E+03  0.22951502744E+03  0.25500000920E-02 0. -1.
        2   -1    0    0  501    0  0.00000000000E+00  0.00000000000E+00 -0.69521418777E+03  0.69521418777E+03  0.25500000920E-02 0.  1.
    10030    2    1    2    0    0  0.00000000000E+00  0.00000000000E+00 -0.46569916034E+03  0.92472921521E+03  0.79890450839E+03 0.  0.
        3    1    3    3  502    0 -0.30076057816E+03 -0.11715905531E+03 -0.50524008311E+03  0.59954209310E+03  0.10100000352E+00 0.  1.
       -3    1    3    3    0  502  0.30076057816E+03  0.11715905531E+03  0.39540922771E+02  0.32518712211E+03  0.10100000352E+00 0. -1.
</event>
<event>
 5   0  0.1617491E-03  0.7995995E+03  0.7818609E-02  0.9560597E-01
        1   -1    0    0  501    0  0.00000000000E+00  0.00000000000E+00  0.52333498761E+03  0.52333498763E+03  0.50400001928E-02 0. -1.
       -1   -1    0    0    0  501  0.00000000000E+00  0.00000000000E+00 -0.30542549370E+03  0.30542549374E+03  0.50400001928E-02 0.  1.
    10030    2    1    2    0    0  0.00000000000E+00  0.00000000000E+00  0.21790949391E+03  0.82876048137E+03  0.79959951722E+03 0.  0.
        1    1    3    3  502    0  0.21669256835E+03 -0.33252595438E+03  0.59132279331E+02  0.40128020883E+03  0.50400001928E-02 0. -1.
       -1    1    3    3    0  502 -0.21669256835E+03  0.33252595438E+03  0.15877721458E+03  0.42748027254E+03  0.50400001928E-02 0.  1.
</event>
<event>
 5   0  0.2873212E-03  0.7997153E+03  0.7818609E-02  0.9560429E-01
        2   -1    0    0  501    0  0.00000000000E+00  0.00000000000E+00  0.10851216375E+04  0.10851216375E+04  0.25500000920E-02 0. -1.
       -2   -1    0    0    0  501  0.00000000000E+00  0.00000000000E+00 -0.14734397046E+03  0.14734397048E+03  0.25500000920E-02 0.  1.
    10030    2    1    2    0    0  0.00000000000E+00  0.00000000000E+00  0.93777766706E+03  0.12324656080E+04  0.79971527562E+03 0.  0.
        2    1    3    3  502    0  0.37466549066E+03 -0.10115206812E+03  0.61735146129E+03  0.72919736528E+03  0.25500000920E-02 0. -1.
       -2    1    3    3    0  502 -0.37466549066E+03  0.10115206812E+03  0.32042620577E+03  0.50326824272E+03  0.25500000920E-02 0.  1.
</event>
<event>
 5   0  0.1617491E-03  0.7957383E+03  0.7818609E-02  0.9566206E-01
       -1   -1    0    0    0  501  0.00000000000E+00  0.00000000000E+00  0.15089623840E+03  0.15089623848E+03  0.50400001928E-02 0.  1.
        1   -1    0    0  501    0  0.00000000000E+00  0.00000000000E+00 -0.10490641983E+04  0.10490641983E+04  0.50400001928E-02 0. -1.
    10030    2    1    2    0    0  0.00000000000E+00  0.00000000000E+00 -0.89816795993E+03  0.11999604368E+04  0.79573825200E+03 0.  0.
        1    1    3    3  502    0 -0.30915390020E+02  0.28233820085E+02  0.14756509479E+03  0.15338959274E+03  0.50400001928E-02 0.  1.
       -1    1    3    3    0  502  0.30915390020E+02 -0.28233820085E+02 -0.10457330547E+04  0.10465708441E+04  0.50400001928E-02 0. -1.
</event>
<event>
 5   0  0.1637228E-03  0.7979122E+03  0.7818609E-02  0.9563044E-01
       -1   -1    0    0    0  501  0.00000000000E+00  0.00000000000E+00  0.19264991695E+03  0.19264991702E+03  0.50400001928E-02 0. -1.
        1   -1    0    0  501    0  0.00000000000E+00  0.00000000000E+00 -0.82619274346E+03  0.82619274348E+03  0.50400001928E-02 0.  1.
    10030    2    1    2    0    0  0.00000000000E+00  0.00000000000E+00 -0.63354282651E+03  0.10188426605E+04  0.79791218429E+03 0.  0.
        2    1    3    3  502    0  0.35931642602E+03  0.12780663351E+03 -0.16718964102E+03  0.41640749951E+03  0.25500000920E-02 0. -1.
       -2    1    3    3    0  502 -0.35931642602E+03 -0.12780663351E+03 -0.46635318549E+03  0.60243516099E+03  0.25500000920E-02 0.  1.
</event>
<event>
 5   0  0.2690809E-03  0.8003477E+03  0.7818609E-02  0.9559514E-01
       -2   -1    0    0    0  501  0.00000000000E+00  0.00000000000E+00  0.21880387819E+03  0.21880387820E+03  0.25500000920E-02 0. -1.
        2   -1    0    0  501    0  0.00000000000E+00  0.00000000000E+00 -0.73188429906E+03  0.73188429906E+03  0.25500000920E-02 0.  1.
    10030    2    1    2    0    0  0.00000000000E+00  0.00000000000E+00 -0.51308042087E+03  0.95068817727E+03  0.80034773200E+03 0.  0.
        5    1    3    3  502    0 -0.19907568090E+03 -0.18922114833E+03 -0.60220332494E+03  0.66189629419E+03  0.46999998093E+01 0.  1.
       -5    1    3    3    0  502  0.19907568090E+03  0.18922114833E+03  0.89122904069E+02  0.28879188307E+03  0.46999998093E+01 0. -1.
</event>
<event>
 5   0  0.1617491E-03  0.8008518E+03  0.7818609E-02  0.9558785E-01
        1   -1    0    0  501    0  0.00000000000E+00  0.00000000000E+00  0.15980029206E+04  0.15980029206E+04  0.50400001928E-02 0. -1.
       -1   -1    0    0    0  501  0.00000000000E+00  0.00000000000E+00 -0.10033829581E+03  0.10033829594E+03  0.50400001928E-02 0.  1.
    10030    2    1    2    0    0  0.00000000000E+00  0.00000000000E+00  0.14976646248E+04  0.16983412165E+04  0.80085177122E+03 0.  0.
        1    1    3    3  502    0 -0.28346290003E+03  0.28200734903E+03  0.79439112748E+03  0.88934617784E+03  0.50400001928E-02 0.  1.
       -1    1    3    3    0  502  0.28346290003E+03 -0.28200734903E+03  0.70327349728E+03  0.80899503867E+03  0.50400001928E-02 0. -1.
</event>
<event>
 5   0  0.2768834E-03  0.8001777E+03  0.7818609E-02  0.9559760E-01
        2   -1    0    0  501    0  0.00000000000E+00  0.00000000000E+00  0.19598955245E+04  0.19598955245E+04  0.25500000920E-02 0. -1.
       -2   -1    0    0    0  501  0.00000000000E+00  0.00000000000E+00 -0.81673268002E+02  0.81673268042E+02  0.25500000920E-02 0.  1.
    10030    2    1    2    0    0  0.00000000000E+00  0.00000000000E+00  0.18782222565E+04  0.20415687925E+04  0.80017766145E+03 0.  0.
        4    1    3    3  502    0 -0.28703494323E+03 -0.21436512799E+03  0.48464774751E+03  0.60268276797E+03  0.12699999809E+01 0.  1.
       -4    1    3    3    0  502  0.28703494323E+03  0.21436512799E+03  0.13935745090E+04  0.14388860246E+04  0.12699999809E+01 0. -1.
</event>
<event>
 5   0  0.1640035E-03  0.7989272E+03  0.7818609E-02  0.9561571E-01
       -1   -1    0    0    0  501  0.00000000000E+00  0.00000000000E+00  0.12436934462E+04  0.12436934462E+04  0.50400001928E-02 0. -1.
        1   -1    0    0  501    0  0.00000000000E+00  0.00000000000E+00 -0.12830424781E+03  0.12830424790E+03  0.50400001928E-02 0.  1.
    10030    2    1    2    0    0  0.00000000000E+00  0.00000000000E+00  0.11153891984E+04  0.13719976941E+04  0.79892716111E+03 0.  0.
        5    1    3    3  502    0  0.93479620374E+02 -0.11815924883E+03  0.11929773050E+04  0.12024628841E+04  0.46999998093E+01 0. -1.
       -5    1    3    3    0  502 -0.93479620374E+02  0.11815924883E+03 -0.77588106598E+02  0.16953480997E+03  0.46999998093E+01 0.  1.
</event>
<event>
 5   0  0.2763587E-03  0.8001607E+03  0.7818609E-02  0.9559785E-01
       -2   -1    0    0    0  501  0.00000000000E+00  0.00000000000E+00  0.58176147767E+03  0.58176147767E+03  0.25500000920E-02 0. -1.
        2   -1    0    0  501    0  0.00000000000E+00  0.00000000000E+00 -0.27513730199E+03  0.27513730200E+03  0.25500000920E-02 0.  1.
    10030    2    1    2    0    0  0.00000000000E+00  0.00000000000E+00  0.30662417567E+03  0.85689877968E+03  0.80016069230E+03 0.  0.
        3    1    3    3  502    0  0.22330439728E+03 -0.28082701793E+02  0.50753966677E+03  0.55520267969E+03  0.10100000352E+00 0. -1.
       -3    1    3    3    0  502 -0.22330439728E+03  0.28082701793E+02 -0.20091549110E+03  0.30169609999E+03  0.10100000352E+00 0.  1.
</event>
<event>
 5   0  0.2690809E-03  0.7995079E+03  0.7818609E-02  0.9560730E-01
        2   -1    0    0  501    0  0.00000000000E+00  0.00000000000E+00  0.54187832492E+03  0.54187832493E+03  0.25500000920E-02 0.  1.
       -2   -1    0    0    0  501  0.00000000000E+00  0.00000000000E+00 -0.29490609762E+03  0.29490609763E+03  0.25500000920E-02 0. -1.
    10030    2    1    2    0    0  0.00000000000E+00  0.00000000000E+00  0.24697222730E+03  0.83678442256E+03  0.79950790414E+03 0.  0.
        5    1    3    3  502    0 -0.12180864697E+03 -0.16245850590E+03 -0.23687960647E+03  0.31203229092E+03  0.46999998093E+01 0. -1.
       -5    1    3    3    0  502  0.12180864697E+03  0.16245850590E+03  0.48385183377E+03  0.52475213164E+03  0.46999998093E+01 0.  1.
</event>
<event>
 5   0  0.1656051E-03  0.8002568E+03  0.7818609E-02  0.9559645E-01
        1   -1    0    0  501    0  0.00000000000E+00  0.00000000000E+00  0.47882612572E+03  0.47882612575E+03  0.50400001928E-02 0.  1.
       -1   -1    0    0    0  501  0.00000000000E+00  0.00000000000E+00 -0.33436507385E+03  0.33436507388E+03  0.50400001928E-02 0. -1.
    10030    2    1    2    0    0  0.00000000000E+00  0.00000000000E+00  0.14446105188E+03  0.81319119964E+03  0.80025679107E+03 0.  0.
        3    1    3    3  502    0  0.30321445921E+02 -0.33917141912E+03 -0.14127512790E+03  0.36866694128E+03  0.10100000352E+00 0. -1.
       -3    1    3    3    0  502 -0.30321445921E+02  0.33917141912E+03  0.28573617978E+03  0.44452425835E+03  0.10100000352E+00 0.  1.
</event>
<event>
 5   0  0.2873212E-03  0.7967452E+03  0.7818609E-02  0.9564740E-01
        2   -1    0    0  501    0  0.00000000000E+00  0.00000000000E+00  0.38390070923E+03  0.38390070924E+03  0.25500000920E-02 0.  1.
       -2   -1    0    0    0  501  0.00000000000E+00  0.00000000000E+00 -0.41339004197E+03  0.41339004198E+03  0.25500000920E-02 0. -1.
    10030    2    1    2    0    0  0.00000000000E+00  0.00000000000E+00 -0.29489332739E+02  0.79729075122E+03  0.79674520472E+03 0.  0.
        2    1    3    3  502    0 -0.64299384055E+02 -0.17296415665E+03  0.33855475128E+03  0.38557791676E+03  0.25500000920E-02 0.  1.
       -2    1    3    3    0  502  0.64299384055E+02  0.17296415665E+03 -0.36804408402E+03  0.41171283446E+03  0.25500000920E-02 0. -1.
</event>
<event>
 5   0  0.2768834E-03  0.8013836E+03  0.7818609E-02  0.9558017E-01
        2   -1    0    0  501    0  0.00000000000E+00  0.00000000000E+00  0.17761310249E+03  0.17761310251E+03  0.25500000920E-02 0. -1.
       -2   -1    0    0    0  501  0.00000000000E+00  0.00000000000E+00 -0.90395312711E+03  0.90395312711E+03  0.25500000920E-02 0.  1.
    10030    2    1    2    0    0  0.00000000000E+00  0.00000000000E+00 -0.72634002462E+03  0.10815662296E+04  0.80138360208E+03 0.  0.
        4    1    3    3  502    0  0.62384330672E+02 -0.32365603523E+03 -0.67065702146E+03  0.74728005941E+03  0.12699999809E+01 0.  1.
       -4    1    3    3    0  502 -0.62384330672E+02  0.32365603523E+03 -0.55683003161E+02  0.33428617021E+03  0.12699999809E+01 0. -1.
</event>
<event>
 5   0  0.2768834E-03  0.7999038E+03  0.7818609E-02  0.9560156E-01
       -2   -1    0    0    0  501  0.00000000000E+00  0.00000000000E+00  0.10370042161E+03  0.10370042164E+03  0.25500000920E-02 0. -1.
        2   -1    0    0  501    0  0.00000000000E+00  0.00000000000E+00 -0.15425350926E+04  0.15425350926E+04  0.25500000920E-02 0.  1.
    10030    2    1    2    0    0  0.00000000000E+00  0.00000000000E+00 -0.14388346709E+04  0.16462355142E+04  0.79990384291E+03 0.  0.
        4    1    3    3  502    0  0.27568422301E+03 -0.28961721965E+03 -0.70100943785E+03  0.80702897692E+03  0.12699999809E+01 0. -1.
       -4    1    3    3    0  502 -0.27568422301E+03  0.28961721965E+03 -0.73782523310E+03  0.83920653729E+03  0.12699999809E+01 0.  1.
</event>
<event>
 5   0  0.1712793E-03  0.7990220E+03  0.7818609E-02  0.9561434E-01
       -1   -1    0    0    0  501  0.00000000000E+00  0.00000000000E+00  0.33197841615E+03  0.33197841619E+03  0.50400001928E-02 0.  1.
        1   -1    0    0  501    0  0.00000000000E+00  0.00000000000E+00 -0.48078136887E+03  0.48078136890E+03  0.50400001928E-02 0. -1.
    10030    2    1    2    0    0  0.00000000000E+00  0.00000000000E+00 -0.14880295273E+03  0.81275978508E+03  0.79902199564E+03 0.  0.
        4    1    3    3  502    0 -0.30863573229E+03 -0.22021110952E+03 -0.20249707368E+03  0.42983209018E+03  0.12699999809E+01 0. -1.
       -4    1    3    3    0  502  0.30863573229E+03  0.22021110952E+03  0.53694120954E+02  0.38292769490E+03  0.12699999809E+01 0.  1.
</event>
<event>
 5   0  0.1656051E-03  0.7993895E+03  0.7818609E-02  0.9560901E-01
        1   -1    0    0  501    0  0.00000000000E+00  0.00000000000E+00  0.11276325126E+04  0.11276325126E+04  0.50400001928E-02 0. -1.
       -1   -1    0    0    0  501  0.00000000000E+00  0.00000000000E+00 -0.14167371346E+03  0.14167371355E+03  0.50400001928E-02 0.  1.
    10030    2    1    2    0    0  0.00000000000E+00  0.00000000000E+00  0.98595879916E+03  0.12693062262E+04  0.79938948091E+03 0.  0.
        3    1    3    3  502    0 -0.19247099208E+03 -0.28469923686E+03  0.16889905573E+03  0.38291727500E+03  0.10100000352E+00 0.  1.
       -3    1    3    3    0  502  0.19247099208E+03  0.28469923686E+03  0.81705974343E+03  0.88638895119E+03  0.10100000352E+00 0. -1.
</event>
<event>
 5   0  0.1617491E-03  0.8017513E+03  0.7818609E-02  0.9557486E-01
        1   -1    0    0  501    0  0.00000000000E+00  0.00000000000E+00  0.64565595684E+03  0.64565595686E+03  0.50400001928E-02 0.  1.
       -1   -1    0    0    0  501  0.00000000000E+00  0.00000000000E+00 -0.24889613411E+03  0.24889613416E+03  0.50400001928E-02 0. -1.
    10030    2    1    2    0    0  0.00000000000E+00  0.00000000000E+00  0.39675982273E+03  0.89455209101E+03  0.80175126230E+03 0.  0.
        1    1    3    3  502    0 -0.38738672044E+02  0.12795961334E+03 -0.22328845830E+03  0.26025388181E+03  0.50400001928E-02 0. -1.
       -1    1    3    3    0  502  0.38738672044E+02 -0.12795961334E+03  0.62004828104E+03  0.63429820921E+03  0.50400001928E-02 0.  1.
</event>
<event>
 5   0  0.1637228E-03  0.7988859E+03  0.7818609E-02  0.9561631E-01
       -1   -1    0    0    0  501  0.00000000000E+00  0.00000000000E+00  0.56883804267E+03  0.56883804269E+03  0.50400001928E-02 0.  1.
        1   -1    0    0  501    0  0.00000000000E+00  0.00000000000E+00 -0.28049226043E+03  0.28049226047E+03  0.50400001928E-02 0. -1.
    10030    2    1    2    0    0  0.00000000000E+00  0.00000000000E+00  0.28834578224E+03  0.84933030317E+03  0.79888589532E+03 0.  0.
        2    1    3    3  502    0 -0.36445540502E+03  0.64520904819E+01 -0.29498340410E+02  0.36570414793E+03  0.25500000920E-02 0.  1.
       -2    1    3    3    0  502  0.36445540502E+03 -0.64520904819E+01  0.31784412265E+03  0.48362615524E+03  0.25500000920E-02 0. -1.
</event>
<event>
 5   0  0.1617491E-03  0.7998410E+03  0.7818609E-02  0.9560247E-01
       -1   -1    0    0    0  501  0.00000000000E+00  0.00000000000E+00  0.13984508184E+04  0.13984508184E+04  0.50400001928E-02 0.  1.
        1   -1    0    0  501    0  0.00000000000E+00  0.00000000000E+00 -0.11436684457E+03  0.11436684468E+03  0.50400001928E-02 0. -1.
    10030    2    1    2    0    0  0.00000000000E+00  0.00000000000E+00  0.12840839739E+04  0.15128176631E+04  0.79984100289E+03 0.  0.
        1    1    3    3  502    0  0.13184065755E+03 -0.31305884282E+01  0.13561409136E+04  0.13625380498E+04  0.50400001928E-02 0.  1.
       -1    1    3    3    0  502 -0.13184065755E+03  0.31305884282E+01 -0.72056939794E+02  0.15027961327E+03  0.50400001928E-02 0. -1.
</event>
<event>
 5   0  0.2873212E-03  0.8010137E+03  0.7818609E-02  0.9558551E-01
       -2   -1    0    0    0  501  0.00000000000E+00  0.00000000000E+00  0.27624492578E+03  0.27624492579E+03  0.25500000920E-02 0. -1.
        2   -1    0    0  501    0  0.00000000000E+00  0.00000000000E+00 -0.58066489822E+03  0.58066489823E+03  0.25500000920E-02 0.  1.
    10030    2    1    2    0    0  0.00000000000E+00  0.00000000000E+00 -0.30441997244E+03  0.85690982402E+03  0.80101368707E+03 0.  0.
        2    1    3    3  502    0 -0.15424680525E+03 -0.36817807455E+03 -0.18701589409E+03  0.44081982278E+03  0.25500000920E-02 0. -1.
       -2    1    3    3    0  502  0.15424680525E+03  0.36817807455E+03 -0.11740407835E+03  0.41609000124E+03  0.25500000920E-02 0.  1.
</event>
<event>
 5   0  0.1712793E-03  0.8003865E+03  0.7818609E-02  0.9559458E-01
       -1   -1    0    0    0  501  0.00000000000E+00  0.00000000000E+00  0.51698361592E+03  0.51698361594E+03  0.50400001928E-02 0.  1.
        1   -1    0    0  501    0  0.00000000000E+00  0.00000000000E+00 -0.30978667049E+03  0.30978667053E+03  0.50400001928E-02 0. -1.
    10030    2    1    2    0    0  0.00000000000E+00  0.00000000000E+00  0.20719694543E+03  0.82677028648E+03  0.80038648939E+03 0.  0.
        4    1    3    3  502    0 -0.46268257487E+02 -0.39560004732E+03  0.63420679794E+02  0.40331618442E+03  0.12699999809E+01 0. -1.
       -4    1    3    3    0  502  0.46268257487E+02  0.39560004732E+03  0.14377626563E+03  0.42345410206E+03  0.12699999809E+01 0.  1.
</event>
<event>
 5   0  0.2768834E-03  0.7987376E+03  0.7818609E-02  0.9561846E-01
       -2   -1    0    0    0  501  0.00000000000E+00  0.00000000000E+00  0.32744937951E+03  0.32744937952E+03  0.25500000920E-02 0.  1.
        2   -1    0    0  501    0  0.00000000000E+00  0.00000000000E+00 -0.48708421396E+03  0.48708421396E+03  0.25500000920E-02 0. -1.
    10030    2    1    2    0    0  0.00000000000E+00  0.00000000000E+00 -0.15963483445E+03  0.81453359348E+03  0.79873756300E+03 0.  0.
        4    1    3    3  502    0 -0.26277334605E+02  0.81007791570E+02 -0.47771452011E+03  0.48524791214E+03  0.12699999809E+01 0. -1.
       -4    1    3    3    0  502  0.26277334605E+02 -0.81007791570E+02  0.31807968566E+03  0.32928568135E+03  0.12699999809E+01 0.  1.
</event>
<event>
 5   0  0.1617491E-03  0.8030369E+03  0.7818609E-02  0.9555632E-01
        1   -1    0    0  501    0  0.00000000000E+00  0.00000000000E+00  0.13169555641E+03  0.13169555650E+03  0.50400001928E-02 0.  1.
       -1   -1    0    0    0  501  0.00000000000E+00  0.00000000000E+00 -0.12241648189E+04  0.12241648189E+04  0.50400001928E-02 0. -1.
    10030    2    1    2    0    0  0.00000000000E+00  0.00000000000E+00 -0.10924692625E+04  0.13558603754E+04  0.80303690334E+03 0.  0.
        1    1    3    3  502    0 -0.11025666886E+03  0.37938858032E+03 -0.42536433610E+03  0.58054030554E+03  0.50400001928E-02 0.  1.
       -1    1    3    3    0  502  0.11025666886E+03 -0.37938858032E+03 -0.66710492642E+03  0.77532006990E+03  0.50400001928E-02 0. -1.
</event>
<event>
 5   0  0.1656051E-03  0.7965221E+03  0.7818609E-02  0.9565065E-01
       -1   -1    0    0    0  501  0.00000000000E+00  0.00000000000E+00  0.36452778739E+03  0.36452778742E+03  0.50400001928E-02 0.  1.
        1   -1    0    0  501    0  0.00000000000E+00  0.00000000000E+00 -0.43511592773E+03  0.43511592775E+03  0.50400001928E-02 0. -1.
    10030    2    1    2    0    0  0.00000000000E+00  0.00000000000E+00 -0.70588140337E+02  0.79964371518E+03  0.79652205598E+03 0.  0.
        3    1    3    3  502    0  0.18030078880E+03  0.35480027342E+03 -0.20395837706E+02  0.39850672373E+03  0.10100000352E+00 0. -1.
       -3    1    3    3    0  502 -0.18030078880E+03 -0.35480027342E+03 -0.50192302631E+02  0.40113699145E+03  0.10100000352E+00 0.  1.
</event>
<event>
 5   0  0.2873212E-03  0.7990789E+03  0.7818609E-02  0.9561351E-01
        2   -1    0    0  501    0  0.00000000000E+00  0.00000000000E+00  0.83821716310E+03  0.83821716310E+03  0.25500000920E-02 0.  1.
       -2   -1    0    0    0  501  0.00000000000E+00  0.00000000000E+00 -0.19044204120E+03  0.19044204122E+03  0.25500000920E-02 0. -1.
    10030    2    1    2    0    0  0.00000000000E+00  0.00000000000E+00  0.64777512190E+03  0.10286592043E+04  0.79907893858E+03 0.  0.
        2    1    3    3  502    0 -0.34408419454E+03 -0.20151740872E+03  0.29161264867E+03  0.49400519817E+03  0.25500000920E-02 0.  1.
       -2    1    3    3    0  502  0.34408419454E+03  0.20151740872E+03  0.35616247323E+03  0.53465400615E+03  0.25500000920E-02 0. -1.
</event>
<event>
 5   0  0.2763587E-03  0.7999992E+03  0.7818609E-02  0.9560018E-01
       -2   -1    0    0    0  501  0.00000000000E+00  0.00000000000E+00  0.47412713090E+03  0.47412713091E+03  0.25500000920E-02 0. -1.
        2   -1    0    0  501    0  0.00000000000E+00  0.00000000000E+00 -0.33746159832E+03  0.33746159833E+03  0.25500000920E-02 0.  1.
    10030    2    1    2    0    0  0.00000000000E+00  0.00000000000E+00  0.13666553258E+03  0.81158872923E+03  0.79999924851E+03 0.  0.
        3    1    3    3  502    0  0.35544033169E+03  0.17426529723E+03  0.10112656504E+02  0.39599052922E+03  0.10100000352E+00 0. -1.
       -3    1    3    3    0  502 -0.35544033169E+03 -0.17426529723E+03  0.12655287608E+03  0.41559820001E+03  0.10100000352E+00 0.  1.
</event>
<event>
 5   0  0.2690809E-03  0.8013480E+03  0.7818609E-02  0.9558068E-01
       -2   -1    0    0    0  501  0.00000000000E+00  0.00000000000E+00  0.13722730112E+03  0.13722730115E+03  0.25500000920E-02 0. -1.
        2   -1    0    0  501    0  0.00000000000E+00  0.00000000000E+00 -0.11698813708E+04  0.11698813708E+04  0.25500000920E-02 0.  1.
    10030    2    1    2    0    0  0.00000000000E+00  0.00000000000E+00 -0.10326540697E+04  0.13071086720E+04  0.80134802220E+03 0.  0.
        5    1    3    3  502    0 -0.25179310979E+03  0.30247896278E+03 -0.39399956375E+03  0.55691205706E+03  0.46999998093E+01 0.  1.
       -5    1    3    3    0  502  0.25179310979E+03 -0.30247896278E+03 -0.63865450595E+03  0.75019661491E+03  0.46999998093E+01 0. -1.
</event>
<event>
 5   0  0.1712793E-03  0.7992281E+03  0.7818609E-02  0.9561135E-01
        1   -1    0    0  501    0  0.00000000000E+00  0.00000000000E+00  0.42332958599E+03  0.42332958602E+03  0.50400001928E-02 0.  1.
       -1   -1    0    0    0  501  0.00000000000E+00  0.00000000000E+00 -0.37722710515E+03  0.37722710518E+03  0.50400001928E-02 0. -1.
    10030    2    1    2    0    0  0.00000000000E+00  0.00000000000E+00  0.46102480842E+02  0.80055669120E+03  0.79922811330E+03 0.  0.
        4    1    3    3  502    0  0.29845034552E+03  0.45954664338E+02 -0.23911909966E+03  0.38518047282E+03  0.12699999809E+01 0.  1.
       -4    1    3    3    0  502 -0.29845034552E+03 -0.45954664338E+02  0.28522158050E+03  0.41537621838E+03  0.12699999809E+01 0. -1.
</event>
<event>
 5   0  0.1617491E-03  0.7996892E+03  0.7818609E-02  0.9560467E-01
       -1   -1    0    0    0  501  0.00000000000E+00  0.00000000000E+00  0.28998278070E+03  0.28998278075E+03  0.50400001928E-02 0. -1.
        1   -1    0    0  501    0  0.00000000000E+00  0.00000000000E+00 -0.55132826515E+03  0.55132826518E+03  0.50400001928E-02 0.  1.
    10030    2    1    2    0    0  0.00000000000E+00  0.00000000000E+00 -0.26134548445E+03  0.84131104593E+03  0.79968919822E+03 0.  0.
        1    1    3    3  502    0  0.76498939310E+02 -0.36464919472E+03  0.21981422549E+02  0.37323492051E+03  0.50400001928E-02 0. -1.
       -1    1    3    3    0  502 -0.76498939310E+02  0.36464919472E+03 -0.28332690700E+03  0.46807612541E+03  0.50400001928E-02 0.  1.
</event>
<event>
 5   0  0.1656051E-03  0.7990750E+03  0.7818609E-02  0.9561357E-01
       -1   -1    0    0    0  501  0.00000000000E+00  0.00000000000E+00  0.23802074168E+03  0.23802074173E+03  0.50400001928E-02 0. -1.
        1   -1    0    0  501    0  0.00000000000E+00  0.00000000000E+00 -0.67065677075E+03  0.67065677076E+03  0.50400001928E-02 0.  1.
    10030    2    1    2    0    0  0.00000000000E+00  0.00000000000E+00 -0.43263602907E+03  0.90867751250E+03  0.79907502030E+03 0.  0.
        3    1    3    3  502    0 -0.52884553409E+02 -0.38904753162E+03 -0.30046378513E+03  0.49440191568E+03  0.10100000352E+00 0. -1.
       -3    1    3    3    0  502  0.52884553409E+02  0.38904753162E+03 -0.13217224394E+03  0.41427559682E+03  0.10100000352E+00 0.  1.
</event>
<event>
 5   0  0.2763587E-03  0.8008016E+03  0.7818609E-02  0.9558858E-01
        2   -1    0    0  501    0  0.00000000000E+00  0.00000000000E+00  0.20679407895E+04  0.20679407895E+04  0.25500000920E-02 0.  1.
       -2   -1    0    0    0  501  0.00000000000E+00  0.00000000000E+00 -0.77526778786E+02  0.77526778828E+02  0.25500000920E-02 0. -1.
    10030    2    1    2    0    0  0.00000000000E+00  0.00000000000E+00  0.19904140107E+04  0.21454675683E+04  0.80080156887E+03 0.  0.
        3    1    3    3  502    0 -0.11994275537E+03 -0.11241633046E+03  0.19733612862E+04  0.19801965741E+04  0.10100000352E+00 0.  1.
       -3    1    3    3    0  502  0.11994275537E+03  0.11241633046E+03  0.17052724493E+02  0.16527099423E+03  0.10100000352E+00 0. -1.
</event>
<event>
 5   0  0.2873212E-03  0.7982978E+03  0.7818609E-02  0.9562484E-01
        2   -1    0    0  501    0  0.00000000000E+00  0.00000000000E+00  0.15129996540E+04  0.15129996540E+04  0.25500000920E-02 0.  1.
       -2   -1    0    0    0  501  0.00000000000E+00  0.00000000000E+00 -0.10530065816E+03  0.10530065819E+03  0.25500000920E-02 0. -1.
    10030    2    1    2    0    0  0.00000000000E+00  0.00000000000E+00  0.14076989958E+04  0.16183003122E+04  0.79829783760E+03 0.  0.
        2    1    3    3  502    0 -0.23841628302E+03 -0.29517709176E+03  0.45270692377E+03  0.59069061136E+03  0.25500000920E-02 0. -1.
       -2    1    3    3    0  502  0.23841628302E+03  0.29517709176E+03  0.95499207203E+03  0.10276097008E+04  0.25500000920E-02 0.  1.
</event>
<event>
 5   0  0.1095350E-03  0.7990993E+03  0.7818609E-02  0.9561322E-01
       -4   -1    0    0    0  501  0.00000000000E+00  0.00000000000E+00  0.38227073610E+03  0.38227284572E+03  0.12699999809E+01 0. -1.
        4   -1    0    0  501    0  0.00000000000E+00  0.00000000000E+00 -0.41760537170E+03  0.41760730282E+03  0.12699999809E+01 0.  1.
    10030    2    1    2    0    0  0.00000000000E+00  0.00000000000E+00 -0.35334635602E+02  0.79988014855E+03  0.79909931521E+03 0.  0.
        3    1    3    3  502    0 -0.30656544429E+03 -0.16707388560E+03 -0.21213495536E+03  0.40853066515E+03  0.10100000352E+00 0. -1.
       -3    1    3    3    0  502  0.30656544429E+03  0.16707388560E+03  0.17680031976E+03  0.39134948339E+03  0.10100000352E+00 0.  1.
</event>
<event>
 5   0  0.1637228E-03  0.7998500E+03  0.7818609E-02  0.9560234E-01
        1   -1    0    0  501    0  0.00000000000E+00  0.00000000000E+00  0.64399574081E+03  0.64399574083E+03  0.50400001928E-02 0.  1.
       -1   -1    0    0    0  501  0.00000000000E+00  0.00000000000E+00 -0.24835567493E+03  0.24835567498E+03  0.50400001928E-02 0. -1.
    10030    2    1    2    0    0  0.00000000000E+00  0.00000000000E+00  0.39564006588E+03  0.89235141581E+03  0.79984997816E+03 0.  0.
        2    1    3    3  502    0 -0.30726536944E+03  0.22902945854E+03  0.70257462656E+02  0.38961854576E+03  0.25500000920E-02 0.  1.
       -2    1    3    3    0  502  0.30726536944E+03 -0.22902945854E+03  0.32538260323E+03  0.50273287005E+03  0.25500000920E-02 0. -1.
</event>
<event>
 5   0  0.2910501E-03  0.7982505E+03  0.7818609E-02  0.9562553E-01
       -2   -1    0    0    0  501  0.00000000000E+00  0.00000000000E+00  0.25443120682E+03  0.25443120684E+03  0.25500000920E-02 0. -1.
        2   -1    0    0  501    0  0.00000000000E+00  0.00000000000E+00 -0.62610622576E+03  0.62610622576E+03  0.25500000920E-02 0.  1.
    10030    2    1    2    0    0  0.00000000000E+00  0.00000000000E+00 -0.37167501894E+03  0.88053743260E+03  0.79825049358E+03 0.  0.
        1    1    3    3  502    0  0.93221563420E+02  0.33559548491E+03  0.29154610784E+02  0.34952050117E+03  0.50400001928E-02 0. -1.
       -1    1    3    3    0  502 -0.93221563420E+02 -0.33559548491E+03 -0.40082962972E+03  0.53101693143E+03  0.50400001928E-02 0.  1.
</event>
<event>
 5   0  0.1656051E-03  0.7961664E+03  0.7818609E-02  0.9565583E-01
        1   -1    0    0  501    0  0.00000000000E+00  0.00000000000E+00  0.46227621809E+03  0.46227621812E+03  0.50400001928E-02 0. -1.
       -1   -1    0    0    0  501  0.00000000000E+00  0.00000000000E+00 -0.34280419457E+03  0.34280419461E+03  0.50400001928E-02 0.  1.
    10030    2    1    2    0    0  0.00000000000E+00  0.00000000000E+00  0.11947202352E+03  0.80508041273E+03  0.79616638120E+03 0.  0.
        3    1    3    3  502    0  0.35920660785E+03  0.15763138378E+03  0.12826778615E+03  0.41271015912E+03  0.10100000352E+00 0. -1.
       -3    1    3    3    0  502 -0.35920660785E+03 -0.15763138378E+03 -0.87957626268E+01  0.39237025361E+03  0.10100000352E+00 0.  1.
</event>
<event>
 5   0  0.2910501E-03  0.7996583E+03  0.7818609E-02  0.9560512E-01
       -2   -1    0    0    0  501  0.00000000000E+00  0.00000000000E+00  0.23870595480E+03  0.23870595481E+03  0.25500000920E-02 0.  1.
        2   -1    0    0  501    0  0.00000000000E+00  0.00000000000E+00 -0.66970822842E+03  0.66970822842E+03  0.25500000920E-02 0. -1.
    10030    2    1    2    0    0  0.00000000000E+00  0.00000000000E+00 -0.43100227362E+03  0.90841418323E+03  0.79965828229E+03 0.  0.
        1    1    3    3  502    0  0.14935638106E+02  0.62186868117E+02 -0.66385988230E+03  0.66693344736E+03  0.50400001928E-02 0. -1.
       -1    1    3    3    0  502 -0.14935638106E+02 -0.62186868117E+02  0.23285760868E+03  0.24148073587E+03  0.50400001928E-02 0.  1.
</event>
<event>
 5   0  0.1095350E-03  0.7995789E+03  0.7818609E-02  0.9560627E-01
        4   -1    0    0  501    0  0.00000000000E+00  0.00000000000E+00  0.34130114703E+03  0.34130350989E+03  0.12699999809E+01 0.  1.
       -4   -1    0    0    0  501  0.00000000000E+00  0.00000000000E+00 -0.46829598704E+03  0.46829770913E+03  0.12699999809E+01 0. -1.
    10030    2    1    2    0    0  0.00000000000E+00  0.00000000000E+00 -0.12699484001E+03  0.80960121902E+03  0.79957891696E+03 0.  0.
        3    1    3    3  502    0 -0.91776082342E+02 -0.20833827892E+03  0.26926139162E+03  0.35260373647E+03  0.10100000352E+00 0.  1.
       -3    1    3    3    0  502  0.91776082342E+02  0.20833827892E+03 -0.39625623163E+03  0.45699748255E+03  0.10100000352E+00 0. -1.
</event>
<event>
 5   0  0.1712793E-03  0.7996586E+03  0.7818609E-02  0.9560511E-01
        1   -1    0    0  501    0  0.00000000000E+00  0.00000000000E+00  0.81105701629E+03  0.81105701631E+03  0.50400001928E-02 0. -1.
       -1   -1    0    0    0  501  0.00000000000E+00  0.00000000000E+00 -0.19710507857E+03  0.19710507864E+03  0.50400001928E-02 0.  1.
    10030    2    1    2    0    0  0.00000000000E+00  0.00000000000E+00  0.61395193772E+03  0.10081620949E+04  0.79965856955E+03 0.  0.
        4    1    3    3  502    0 -0.17119751493E+03  0.11469187129E+03 -0.12499844356E+03  0.24101667629E+03  0.12699999809E+01 0.  1.
       -4    1    3    3    0  502  0.17119751493E+03 -0.11469187129E+03  0.73895038129E+03  0.76714541865E+03  0.12699999809E+01 0. -1.
</event>
<event>
 5   0  0.2768834E-03  0.7988867E+03  0.7818609E-02  0.9561630E-01
        2   -1    0    0  501    0  0.00000000000E+00  0.00000000000E+00  0.11395478186E+04  0.11395478186E+04  0.25500000920E-02 0. -1.
       -2   -1    0    0    0  501  0.00000000000E+00  0.00000000000E+00 -0.14001603840E+03  0.14001603842E+03  0.25500000920E-02 0.  1.
    10030    2    1    2    0    0  0.00000000000E+00  0.00000000000E+00  0.99953178020E+03  0.12795638570E+04  0.79888665315E+03 0.  0.
        4    1    3    3  502    0  0.12913953213E+03 -0.33063810881E+03  0.79316176256E+03  0.86896822281E+03  0.12699999809E+01 0. -1.
       -4    1    3    3    0  502 -0.12913953213E+03  0.33063810881E+03  0.20637001764E+03  0.41059563422E+03  0.12699999809E+01 0.  1.
</event>
<event>
 5   0  0.2873212E-03  0.8004131E+03  0.7818609E-02  0.9559419E-01
        2   -1    0    0  501    0  0.00000000000E+00  0.00000000000E+00  0.89295570258E+03  0.89295570258E+03  0.25500000920E-02 0.  1.
       -2   -1    0    0    0  501  0.00000000000E+00  0.00000000000E+00 -0.17936533445E+03  0.17936533447E+03  0.25500000920E-02 0. -1.
    10030    2    1    2    0    0  0.00000000000E+00  0.00000000000E+00  0.71359036813E+03  0.10723210371E+04  0.80041313897E+03 0.  0.
        2    1    3    3  502    0 -0.13797907488E+03 -0.33835120504E+03  0.13810824746E+03  0.39063237332E+03  0.25500000920E-02 0. -1.
       -2    1    3    3    0  502  0.13797907488E+03  0.33835120504E+03  0.57548212067E+03  0.68168866374E+03  0.25500000920E-02 0.  1.
</event>
<event>
 5   0  0.1640035E-03  0.8001392E+03  0.7818609E-02  0.9559816E-01
       -1   -1    0    0    0  501  0.00000000000E+00  0.00000000000E+00  0.20409488385E+03  0.20409488391E+03  0.50400001928E-02 0.  1.
        1   -1    0    0  501    0  0.00000000000E+00  0.00000000000E+00 -0.78422195936E+03  0.78422195937E+03  0.50400001928E-02 0. -1.
    10030    2    1    2    0    0  0.00000000000E+00  0.00000000000E+00 -0.58012707551E+03  0.98831684328E+03  0.80013921225E+03 0.  0.
        5    1    3    3  502    0 -0.18868452958E+03 -0.25183129255E+03 -0.59516264439E+03  0.67324699397E+03  0.46999998093E+01 0. -1.
       -5    1    3    3    0  502  0.18868452958E+03  0.25183129255E+03  0.15035568886E+02  0.31506984931E+03  0.46999998093E+01 0.  1.
</event>
<event>
 5   0  0.2690809E-03  0.7987917E+03  0.7818609E-02  0.9561768E-01
       -2   -1    0    0    0  501  0.00000000000E+00  0.00000000000E+00  0.13407259914E+03  0.13407259917E+03  0.25500000920E-02 0. -1.
        2   -1    0    0  501    0  0.00000000000E+00  0.00000000000E+00 -0.11897811490E+04  0.11897811490E+04  0.25500000920E-02 0.  1.
    10030    2    1    2    0    0  0.00000000000E+00  0.00000000000E+00 -0.10557085499E+04  0.13238537482E+04  0.79879171524E+03 0.  0.
        5    1    3    3  502    0 -0.10341351190E+03  0.38385588324E+03 -0.59107767957E+03  0.71234444395E+03  0.46999998093E+01 0.  1.
       -5    1    3    3    0  502  0.10341351190E+03 -0.38385588324E+03 -0.46463087034E+03  0.61150930427E+03  0.46999998093E+01 0. -1.
</event>
<event>
 5   0  0.2873212E-03  0.8021590E+03  0.7818609E-02  0.9556897E-01
        2   -1    0    0  501    0  0.00000000000E+00  0.00000000000E+00  0.32385311801E+03  0.32385311802E+03  0.25500000920E-02 0.  1.
       -2   -1    0    0    0  501  0.00000000000E+00  0.00000000000E+00 -0.49672140992E+03  0.49672140993E+03  0.25500000920E-02 0. -1.
    10030    2    1    2    0    0  0.00000000000E+00  0.00000000000E+00 -0.17286829191E+03  0.82057452795E+03  0.80215903010E+03 0.  0.
        2    1    3    3  502    0  0.14106566065E+03 -0.15578220385E+03  0.26301799171E+03  0.33666909514E+03  0.25500000920E-02 0.  1.
       -2    1    3    3    0  502 -0.14106566065E+03  0.15578220385E+03 -0.43588628362E+03  0.48390543281E+03  0.25500000920E-02 0. -1.
</event>
<event>
 5   0  0.1095350E-03  0.8007878E+03  0.7818609E-02  0.9558877E-01
        4   -1    0    0  501    0  0.00000000000E+00  0.00000000000E+00  0.41697327722E+03  0.41697521127E+03  0.12699999809E+01 0. -1.
       -4   -1    0    0    0  501  0.00000000000E+00  0.00000000000E+00 -0.38446989749E+03  0.38447199505E+03  0.12699999809E+01 0.  1.
    10030    2    1    2    0    0  0.00000000000E+00  0.00000000000E+00  0.32503379727E+02  0.80144720632E+03  0.80078783383E+03 0.  0.
        2    1    3    3  502    0 -0.11086425214E+03  0.31430041638E+03  0.23833450386E+03  0.40973036240E+03  0.25500000920E-02 0. -1.
       -2    1    3    3    0  502  0.11086425214E+03 -0.31430041638E+03 -0.20583112413E+03  0.39171684391E+03  0.25500000920E-02 0.  1.
</event>
<event>
 5   0  0.1656051E-03  0.7994944E+03  0.7818609E-02  0.9560749E-01
        1   -1    0    0  501    0  0.00000000000E+00  0.00000000000E+00  0.38426140876E+03  0.38426140880E+03  0.50400001928E-02 0. -1.
       -1   -1    0    0    0  501  0.00000000000E+00  0.00000000000E+00 -0.41585707948E+03  0.41585707951E+03  0.50400001928E-02 0.  1.
    10030    2    1    2    0    0  0.00000000000E+00  0.00000000000E+00 -0.31595670716E+02  0.80011848831E+03  0.79949440831E+03 0.  0.
        3    1    3    3  502    0  0.97587683131E+02 -0.16646294957E+03  0.33456764292E+03  0.38622375298E+03  0.10100000352E+00 0. -1.
       -3    1    3    3    0  502 -0.97587683131E+02  0.16646294957E+03 -0.36616331363E+03  0.41389473533E+03  0.10100000352E+00 0.  1.
</event>
<event>
 5   0  0.2910501E-03  0.8037658E+03  0.7818609E-02  0.9554582E-01
       -2   -1    0    0    0  501  0.00000000000E+00  0.00000000000E+00  0.91320233183E+02  0.91320233219E+02  0.25500000920E-02 0. -1.
        2   -1    0    0  501    0  0.00000000000E+00  0.00000000000E+00 -0.17686098506E+04  0.17686098506E+04  0.25500000920E-02 0.  1.
    10030    2    1    2    0    0  0.00000000000E+00  0.00000000000E+00 -0.16772896175E+04  0.18599300839E+04  0.80376579675E+03 0.  0.
        1    1    3    3  502    0 -0.40980228672E+02 -0.23743853340E+02 -0.17621293032E+04  0.17627656767E+04  0.50400001928E-02 0.  1.
       -1    1    3    3    0  502  0.40980228672E+02  0.23743853340E+02  0.84839685754E+02  0.97164407155E+02  0.50400001928E-02 0. -1.
</event>
<event>
 5   0  0.1656051E-03  0.7999352E+03  0.7818609E-02  0.9560111E-01
        1   -1    0    0  501    0  0.00000000000E+00  0.00000000000E+00  0.74986204471E+03  0.74986204472E+03  0.50400001928E-02 0. -1.
       -1   -1    0    0    0  501  0.00000000000E+00  0.00000000000E+00 -0.21333801724E+03  0.21333801730E+03  0.50400001928E-02 0.  1.
    10030    2    1    2    0    0  0.00000000000E+00  0.00000000000E+00  0.53652402746E+03  0.96320006203E+03  0.79993520203E+03 0.  0.
        3    1    3    3  502    0  0.95797782104E+02  0.80989346276E+02 -0.18903767975E+03  0.22687385004E+03  0.10100000352E+00 0.  1.
       -3    1    3    3    0  502 -0.95797782104E+02 -0.80989346276E+02  0.72556170722E+03  0.73632621198E+03  0.10100000352E+00 0. -1.
</event>
<event>
 5   0  0.2873212E-03  0.7997901E+03  0.7818609E-02  0.9560321E-01
        2   -1    0    0  501    0  0.00000000000E+00  0.00000000000E+00  0.73883019905E+03  0.73883019905E+03  0.25500000920E-02 0. -1.
       -2   -1    0    0    0  501  0.00000000000E+00  0.00000000000E+00 -0.21644490857E+03  0.21644490858E+03  0.25500000920E-02 0.  1.
    10030    2    1    2    0    0  0.00000000000E+00  0.00000000000E+00  0.52238529048E+03  0.95527510763E+03  0.79979005968E+03 0.  0.
        2    1    3    3  502    0 -0.10669468678E+03 -0.61982456795E+02  0.71552367412E+03  0.72608519429E+03  0.25500000920E-02 0. -1.
       -2    1    3    3    0  502  0.10669468678E+03  0.61982456795E+02 -0.19313838364E+03  0.22918991334E+03  0.25500000920E-02 0.  1.
</event>
<event>
 5   0  0.2763587E-03  0.8001288E+03  0.7818609E-02  0.9559831E-01
        2   -1    0    0  501    0  0.00000000000E+00  0.00000000000E+00  0.16349160961E+04  0.16349160961E+04  0.25500000920E-02 0. -1.
       -2   -1    0    0    0  501  0.00000000000E+00  0.00000000000E+00 -0.97895868962E+02  0.97895868995E+02  0.25500000920E-02 0.  1.
    10030    2    1    2    0    0  0.00000000000E+00  0.00000000000E+00  0.15370202271E+04  0.17328119651E+04  0.80012881947E+03 0.  0.
        3    1    3    3  502    0 -0.68404327782E+02 -0.15278462987E+03  0.15554228314E+04  0.15644048357E+04  0.10100000352E+00 0. -1.
       -3    1    3    3    0  502  0.68404327782E+02  0.15278462987E+03 -0.18402604309E+02  0.16840712939E+03  0.10100000352E+00 0.  1.
</event>
<event>
 5   0  0.2910501E-03  0.8002518E+03  0.7818609E-02  0.9559653E-01
        2   -1    0    0  501    0  0.00000000000E+00  0.00000000000E+00  0.27996806702E+03  0.27996806703E+03  0.25500000920E-02 0. -1.
       -2   -1    0    0    0  501  0.00000000000E+00  0.00000000000E+00 -0.57185355060E+03  0.57185355060E+03  0.25500000920E-02 0.  1.
    10030    2    1    2    0    0  0.00000000000E+00  0.00000000000E+00 -0.29188548358E+03  0.85182161763E+03  0.80025179334E+03 0.  0.
        1    1    3    3  502    0 -0.15231768838E+03  0.36492952858E+03 -0.21092162195E+03  0.44817649387E+03  0.50400001928E-02 0.  1.
       -1    1    3    3    0  502  0.15231768838E+03 -0.36492952858E+03 -0.80963861636E+02  0.40364512377E+03  0.50400001928E-02 0. -1.
</event>
<event>
 5   0  0.2690809E-03  0.7985966E+03  0.7818609E-02  0.9562051E-01
       -2   -1    0    0    0  501  0.00000000000E+00  0.00000000000E+00  0.32610837071E+03  0.32610837072E+03  0.25500000920E-02 0.  1.
        2   -1    0    0  501    0  0.00000000000E+00  0.00000000000E+00 -0.48891455514E+03  0.48891455514E+03  0.25500000920E-02 0. -1.
    10030    2    1    2    0    0  0.00000000000E+00  0.00000000000E+00 -0.16280618443E+03  0.81502292586E+03  0.79859659152E+03 0.  0.
        5    1    3    3  502    0 -0.37583901379E+03  0.94643253549E+02  0.16511604426E+02  0.38795235894E+03  0.46999998093E+01 0.  1.
       -5    1    3    3    0  502  0.37583901379E+03 -0.94643253549E+02 -0.17931778885E+03  0.42707056692E+03  0.46999998093E+01 0. -1.
</event>
<event>
 5   0  0.1712793E-03  0.8000112E+03  0.7818609E-02  0.9560001E-01
       -1   -1    0    0    0  501  0.00000000000E+00  0.00000000000E+00  0.45890902966E+03  0.45890902968E+03  0.50400001928E-02 0.  1.
        1   -1    0    0  501    0  0.00000000000E+00  0.00000000000E+00 -0.34866274665E+03  0.34866274669E+03  0.50400001928E-02 0. -1.
    10030    2    1    2    0    0  0.00000000000E+00  0.00000000000E+00  0.11024628300E+03  0.80757177637E+03  0.80001120684E+03 0.  0.
        4    1    3    3  502    0  0.42900884669E+01 -0.27758541725E+03  0.34582177624E+03  0.44347083619E+03  0.12699999809E+01 0.  1.
       -4    1    3    3    0  502 -0.42900884669E+01  0.27758541725E+03 -0.23557549323E+03  0.36410094018E+03  0.12699999809E+01 0. -1.
</event>
<event>
 5   0  0.1640035E-03  0.7994471E+03  0.7818609E-02  0.9560818E-01
        1   -1    0    0  501    0  0.00000000000E+00  0.00000000000E+00  0.51309117640E+03  0.51309117642E+03  0.50400001928E-02 0.  1.
       -1   -1    0    0    0  501  0.00000000000E+00  0.00000000000E+00 -0.31140451139E+03  0.31140451143E+03  0.50400001928E-02 0. -1.
    10030    2    1    2    0    0  0.00000000000E+00  0.00000000000E+00  0.20168666501E+03  0.82449568786E+03  0.79944707670E+03 0.  0.
        5    1    3    3  502    0  0.14940258607E+01  0.31007005172E+03 -0.15927160121E+03  0.34861899265E+03  0.46999998093E+01 0.  1.
       -5    1    3    3    0  502 -0.14940258607E+01 -0.31007005172E+03  0.36095826622E+03  0.47587669520E+03  0.46999998093E+01 0. -1.
</event>
<event>
 5   0  0.1095350E-03  0.8011143E+03  0.7818609E-02  0.9558406E-01
        3   -1    0    0  501    0  0.00000000000E+00  0.00000000000E+00  0.18369054515E+03  0.18369057292E+03  0.10100000352E+00 0.  1.
       -3   -1    0    0    0  501  0.00000000000E+00  0.00000000000E+00 -0.87345825018E+03  0.87345825602E+03  0.10100000352E+00 0. -1.
    10030    2    1    2    0    0  0.00000000000E+00  0.00000000000E+00 -0.68976770503E+03  0.10571488289E+04  0.80111432369E+03 0.  0.
        1    1    3    3  502    0 -0.17272900001E+03  0.34583683459E+03 -0.48333235960E+03  0.61890919646E+03  0.50400001928E-02 0. -1.
       -1    1    3    3    0  502  0.17272900001E+03 -0.34583683459E+03 -0.20643534544E+03  0.43823963248E+03  0.50400001928E-02 0.  1.
</event>
<event>
 5   0  0.2768834E-03  0.7991060E+03  0.7818609E-02  0.9561312E-01
        2   -1    0    0  501    0  0.00000000000E+00  0.00000000000E+00  0.16204316917E+03  0.16204316919E+03  0.25500000920E-02 0. -1.
       -2   -1    0    0    0  501  0.00000000000E+00  0.00000000000E+00 -0.98518573013E+03  0.98518573014E+03  0.25500000920E-02 0.  1.
    10030    2    1    2    0    0  0.00000000000E+00  0.00000000000E+00 -0.82314256096E+03  0.11472288993E+04  0.79910604539E+03 0.  0.
        4    1    3    3  502    0  0.17638060539E+03  0.34203842700E+03 -0.25734446696E+03  0.46295592779E+03  0.12699999809E+01 0. -1.
       -4    1    3    3    0  502 -0.17638060539E+03 -0.34203842700E+03 -0.56579809400E+03  0.68427297154E+03  0.12699999809E+01 0.  1.
</event>
<event>
 5   0  0.1712793E-03  0.7989694E+03  0.7818609E-02  0.9561510E-01
       -1   -1    0    0    0  501  0.00000000000E+00  0.00000000000E+00  0.19575455900E+03  0.19575455906E+03  0.50400001928E-02 0. -1.
        1   -1    0    0  501    0  0.00000000000E+00  0.00000000000E+00 -0.81524543617E+03  0.81524543618E+03  0.50400001928E-02 0.  1.
    10030    2    1    2    0    0  0.00000000000E+00  0.00000000000E+00 -0.61949087717E+03  0.10109999952E+04  0.79896936330E+03 0.  0.
        4    1    3    3  502    0  0.36237459654E+03 -0.90084089499E+02 -0.48939335947E+03  0.61557937311E+03  0.12699999809E+01 0.  1.
       -4    1    3    3    0  502 -0.36237459654E+03  0.90084089499E+02 -0.13009751770E+03  0.39542062214E+03  0.12699999809E+01 0. -1.
</event>
<event>
 5   0  0.1095350E-03  0.7993162E+03  0.7818609E-02  0.9561007E-01
        3   -1    0    0  501    0  0.00000000000E+00  0.00000000000E+00  0.41967720278E+03  0.41967721493E+03  0.10100000352E+00 0.  1.
       -3   -1    0    0    0  501  0.00000000000E+00  0.00000000000E+00 -0.38059392265E+03  0.38059393605E+03  0.10100000352E+00 0. -1.
    10030    2    1    2    0    0  0.00000000000E+00  0.00000000000E+00  0.39083280134E+02  0.80027115098E+03  0.79931621547E+03 0.  0.
        1    1    3    3  502    0  0.36469154615E+03 -0.26852679822E+01  0.18319783360E+03  0.40812814257E+03  0.50400001928E-02 0.  1.
       -1    1    3    3    0  502 -0.36469154615E+03  0.26852679822E+01 -0.14411455347E+03  0.39214300841E+03  0.50400001928E-02 0. -1.
</event>
<event>
 5   0  0.1617491E-03  0.8021672E+03  0.7818609E-02  0.9556885E-01
       -1   -1    0    0    0  501  0.00000000000E+00  0.00000000000E+00  0.36818366341E+03  0.36818366344E+03  0.50400001928E-02 0.  1.
        1   -1    0    0  501    0  0.00000000000E+00  0.00000000000E+00 -0.43692337578E+03  0.43692337581E+03  0.50400001928E-02 0. -1.
    10030    2    1    2    0    0  0.00000000000E+00  0.00000000000E+00 -0.68739712372E+02  0.80510703926E+03  0.80216718744E+03 0.  0.
        1    1    3    3  502    0  0.55327375131E+02 -0.15661769707E+01  0.36433212319E+03  0.36851250639E+03  0.50400001928E-02 0.  1.
       -1    1    3    3    0  502 -0.55327375131E+02  0.15661769707E+01 -0.43307183556E+03  0.43659453287E+03  0.50400001928E-02 0. -1.
</event>
<event>
 5   0  0.2910501E-03  0.7995260E+03  0.7818609E-02  0.9560703E-01
       -2   -1    0    0    0  501  0.00000000000E+00  0.00000000000E+00  0.98644556097E+02  0.98644556130E+02  0.25500000920E-02 0.  1.
        2   -1    0    0  501    0  0.00000000000E+00  0.00000000000E+00 -0.16200635683E+04  0.16200635683E+04  0.25500000920E-02 0. -1.
    10030    2    1    2    0    0  0.00000000000E+00  0.00000000000E+00 -0.15214190122E+04  0.17187081244E+04  0.79952598850E+03 0.  0.
        1    1    3    3  502    0  0.37214823501E+03 -0.14448938658E+03 -0.71567120873E+03  0.81948567448E+03  0.50400001928E-02 0.  1.
       -1    1    3    3    0  502 -0.37214823501E+03  0.14448938658E+03 -0.80574780344E+03  0.89922244992E+03  0.50400001928E-02 0. -1.
</event>
<event>
 5   0  0.1640035E-03  0.8014238E+03  0.7818609E-02  0.9557958E-01
       -1   -1    0    0    0  501  0.00000000000E+00  0.00000000000E+00  0.10470527698E+03  0.10470527710E+03  0.50400001928E-02 0.  1.
        1   -1    0    0  501    0  0.00000000000E+00  0.00000000000E+00 -0.15335428882E+04  0.15335428882E+04  0.50400001928E-02 0. -1.
    10030    2    1    2    0    0  0.00000000000E+00  0.00000000000E+00 -0.14288376112E+04  0.16382481653E+04  0.80142381541E+03 0.  0.
        5    1    3    3  502    0 -0.19289531897E+03 -0.35041959768E+03 -0.66667767338E+03  0.77748550385E+03  0.46999998093E+01 0.  1.
       -5    1    3    3    0  502  0.19289531897E+03  0.35041959768E+03 -0.76215993784E+03  0.86076266146E+03  0.46999998093E+01 0. -1.
</event>
<event>
 5   0  0.2768834E-03  0.8035162E+03  0.7818609E-02  0.9554941E-01
        2   -1    0    0  501    0  0.00000000000E+00  0.00000000000E+00  0.10644849656E+04  0.10644849657E+04  0.25500000920E-02 0. -1.
       -2   -1    0    0    0  501  0.00000000000E+00  0.00000000000E+00 -0.15163160104E+03  0.15163160106E+03  0.25500000920E-02 0.  1.
    10030    2    1    2    0    0  0.00000000000E+00  0.00000000000E+00  0.91285336461E+03  0.12161165667E+04  0.80351617194E+03 0.  0.
        4    1    3    3  502    0 -0.18714260314E+03 -0.47920766445E+02 -0.76721045693E+02  0.20786169805E+03  0.12699999809E+01 0.  1.
       -4    1    3    3    0  502  0.18714260314E+03  0.47920766445E+02  0.98957441030E+03  0.10082548687E+04  0.12699999809E+01 0. -1.
</event>
<event>
 5   0  0.2910501E-03  0.8017745E+03  0.7818609E-02  0.9557452E-01
       -2   -1    0    0    0  501  0.00000000000E+00  0.00000000000E+00  0.42228171675E+03  0.42228171676E+03  0.25500000920E-02 0. -1.
        2   -1    0    0  501    0  0.00000000000E+00  0.00000000000E+00 -0.38057668676E+03  0.38057668677E+03  0.25500000920E-02 0.  1.
    10030    2    1    2    0    0  0.00000000000E+00  0.00000000000E+00  0.41705029987E+02  0.80285840353E+03  0.80177447365E+03 0.  0.
        1    1    3    3  502    0 -0.28610278248E+03 -0.22421470628E+03  0.19014775169E+03  0.41022335886E+03  0.50400001928E-02 0. -1.
       -1    1    3    3    0  502  0.28610278248E+03  0.22421470628E+03 -0.14844272171E+03  0.39263504467E+03  0.50400001928E-02 0.  1.
</event>
<event>
 5   0  0.2763587E-03  0.7987089E+03  0.7818609E-02  0.9561888E-01
       -2   -1    0    0    0  501  0.00000000000E+00  0.00000000000E+00  0.91281504680E+02  0.91281504716E+02  0.25500000920E-02 0.  1.
        2   -1    0    0  501    0  0.00000000000E+00  0.00000000000E+00 -0.17471665411E+04  0.17471665411E+04  0.25500000920E-02 0. -1.
    10030    2    1    2    0    0  0.00000000000E+00  0.00000000000E+00 -0.16558850364E+04  0.18384480458E+04  0.79870893530E+03 0.  0.
        3    1    3    3  502    0 -0.58881307120E+02  0.29295437942E+02 -0.17346160837E+04  0.17358623791E+04  0.10100000352E+00 0. -1.
       -3    1    3    3    0  502  0.58881307120E+02 -0.29295437942E+02  0.78731047292E+02  0.10258566674E+03  0.10100000352E+00 0.  1.
</event>
<event>
 5   0  0.2873212E-03  0.7974811E+03  0.7818609E-02  0.9563670E-01
       -2   -1    0    0    0  501  0.00000000000E+00  0.00000000000E+00  0.11508113551E+03  0.11508113554E+03  0.25500000920E-02 0. -1.
        2   -1    0    0  501    0  0.00000000000E+00  0.00000000000E+00 -0.13815820825E+04  0.13815820825E+04  0.25500000920E-02 0.  1.
    10030    2    1    2    0    0  0.00000000000E+00  0.00000000000E+00 -0.12665009470E+04  0.14966632181E+04  0.79748112175E+03 0.  0.
        2    1    3    3  502    0  0.28951370893E+03 -0.14124843489E+03 -0.10742828402E+04  0.11215404267E+04  0.25500000920E-02 0.  1.
       -2    1    3    3    0  502 -0.28951370893E+03  0.14124843489E+03 -0.19221810688E+03  0.37512279141E+03  0.25500000920E-02 0. -1.
</event>
<event>
 5   0  0.2910501E-03  0.8007075E+03  0.7818609E-02  0.9558994E-01
       -2   -1    0    0    0  501  0.00000000000E+00  0.00000000000E+00  0.55926630067E+03  0.55926630068E+03  0.25500000920E-02 0.  1.
        2   -1    0    0  501    0  0.00000000000E+00  0.00000000000E+00 -0.28659537525E+03  0.28659537527E+03  0.25500000920E-02 0. -1.
    10030    2    1    2    0    0  0.00000000000E+00  0.00000000000E+00  0.27267092542E+03  0.84586167594E+03  0.80070752542E+03 0.  0.
        1    1    3    3  502    0 -0.17051804131E+03 -0.94429089081E+02  0.50575571259E+03  0.54201669357E+03  0.50400001928E-02 0.  1.
       -1    1    3    3    0  502  0.17051804131E+03  0.94429089081E+02 -0.23308478717E+03  0.30384498237E+03  0.50400001928E-02 0. -1.
</event>
<event>
 5   0  0.2690809E-03  0.8117351E+03  0.7818609E-02  0.9543185E-01
       -2   -1    0    0    0  501  0.00000000000E+00  0.00000000000E+00  0.27633610119E+03  0.27633610120E+03  0.25500000920E-02 0. -1.
        2   -1    0    0  501    0  0.00000000000E+00  0.00000000000E+00 -0.59611636534E+03  0.59611636534E+03  0.25500000920E-02 0.  1.
    10030    2    1    2    0    0  0.00000000000E+00  0.00000000000E+00 -0.31978026415E+03  0.87245246654E+03  0.81173511015E+03 0.  0.
        5    1    3    3  502    0  0.31029545308E+03 -0.18381748482E+02 -0.44033912415E+03  0.53901928642E+03  0.46999998093E+01 0.  1.
       -5    1    3    3    0  502 -0.31029545308E+03  0.18381748482E+02  0.12055886001E+03  0.33343318012E+03  0.46999998093E+01 0. -1.
</event>
<event>
 5   0  0.2873212E-03  0.7994848E+03  0.7818609E-02  0.9560763E-01
        2   -1    0    0  501    0  0.00000000000E+00  0.00000000000E+00  0.65029691470E+03  0.65029691471E+03  0.25500000920E-02 0. -1.
       -2   -1    0    0    0  501  0.00000000000E+00  0.00000000000E+00 -0.24572463190E+03  0.24572463192E+03  0.25500000920E-02 0.  1.
    10030    2    1    2    0    0  0.00000000000E+00  0.00000000000E+00  0.40457228280E+03  0.89602154662E+03  0.79948475908E+03 0.  0.
        2    1    3    3  502    0 -0.22591301711E+03  0.29282863073E+02 -0.16585857277E+03  0.28178581145E+03  0.25500000920E-02 0.  1.
       -2    1    3    3    0  502  0.22591301711E+03 -0.29282863073E+02  0.57043085557E+03  0.61423573517E+03  0.25500000920E-02 0. -1.
</event>
<event>
 5   0  0.1656051E-03  0.7995507E+03  0.7818609E-02  0.9560668E-01
       -1   -1    0    0    0  501  0.00000000000E+00  0.00000000000E+00  0.29570074664E+03  0.29570074668E+03  0.50400001928E-02 0.  1.
        1   -1    0    0  501    0  0.00000000000E+00  0.00000000000E+00 -0.54047990624E+03  0.54047990627E+03  0.50400001928E-02 0. -1.
    10030    2    1    2    0    0  0.00000000000E+00  0.00000000000E+00 -0.24477915961E+03  0.83618065295E+03  0.79955065342E+03 0.  0.
        3    1    3    3  502    0 -0.23030317647E+03  0.29817481035E+03  0.17423293881E+02  0.37716223563E+03  0.10100000352E+00 0.  1.
       -3    1    3    3    0  502  0.23030317647E+03 -0.29817481035E+03 -0.26220245349E+03  0.45901841731E+03  0.10100000352E+00 0. -1.
</event>
<event>
 5   0  0.1617491E-03  0.8009372E+03  0.7818609E-02  0.9558662E-01
       -1   -1    0    0    0  501  0.00000000000E+00  0.00000000000E+00  0.64924901505E+03  0.64924901506E+03  0.50400001928E-02 0.  1.
        1   -1    0    0  501    0  0.00000000000E+00  0.00000000000E+00 -0.24701631694E+03  0.24701631699E+03  0.50400001928E-02 0. -1.
    10030    2    1    2    0    0  0.00000000000E+00  0.00000000000E+00  0.40223269811E+03  0.89626533205E+03  0.80093720229E+03 0.  0.
        1    1    3    3  502    0 -0.20126316506E+03 -0.14798081542E+03 -0.14913877859E+03  0.29094253496E+03  0.50400001928E-02 0. -1.
       -1    1    3    3    0  502  0.20126316506E+03  0.14798081542E+03  0.55137147670E+03  0.60532279710E+03  0.50400001928E-02 0.  1.
</event>
<event>
 5   0  0.2768834E-03  0.7987839E+03  0.7818609E-02  0.9561779E-01
        2   -1    0    0  501    0  0.00000000000E+00  0.00000000000E+00  0.48232672597E+03  0.48232672598E+03  0.25500000920E-02 0. -1.
       -2   -1    0    0    0  501  0.00000000000E+00  0.00000000000E+00 -0.33071757508E+03  0.33071757509E+03  0.25500000920E-02 0.  1.
    10030    2    1    2    0    0  0.00000000000E+00  0.00000000000E+00  0.15160915089E+03  0.81304430107E+03  0.79878388871E+03 0.  0.
        4    1    3    3  502    0 -0.25677085979E+03 -0.11560007142E+03  0.36408815878E+03  0.46027866691E+03  0.12699999809E+01 0. -1.
       -4    1    3    3    0  502  0.25677085979E+03  0.11560007142E+03 -0.21247900789E+03  0.35276563416E+03  0.12699999809E+01 0.  1.
</event>
<event>
 5   0  0.2690809E-03  0.8012866E+03  0.7818609E-02  0.9558157E-01
        2   -1    0    0  501    0  0.00000000000E+00  0.00000000000E+00  0.57771572679E+03  0.57771572679E+03  0.25500000920E-02 0.  1.
       -2   -1    0    0    0  501  0.00000000000E+00  0.00000000000E+00 -0.27784436308E+03  0.27784436309E+03  0.25500000920E-02 0. -1.
    10030    2    1    2    0    0  0.00000000000E+00  0.00000000000E+00  0.29987136371E+03  0.85556008988E+03  0.80128661079E+03 0.  0.
        5    1    3    3  502    0 -0.15843070164E+02 -0.39768548481E+03  0.19872792721E+03  0.44488158734E+03  0.46999998093E+01 0.  1.
       -5    1    3    3    0  502  0.15843070164E+02  0.39768548481E+03  0.10114343650E+03  0.41067850254E+03  0.46999998093E+01 0. -1.
</event>
<event>
 5   0  0.2690809E-03  0.8015440E+03  0.7818609E-02  0.9557785E-01
       -2   -1    0    0    0  501  0.00000000000E+00  0.00000000000E+00  0.10212949610E+03  0.10212949613E+03  0.25500000920E-02 0. -1.
        2   -1    0    0  501    0  0.00000000000E+00  0.00000000000E+00 -0.15726914833E+04  0.15726914833E+04  0.25500000920E-02 0.  1.
    10030    2    1    2    0    0  0.00000000000E+00  0.00000000000E+00 -0.14705619872E+04  0.16748209795E+04  0.80154398193E+03 0.  0.
        5    1    3    3  502    0  0.21034899877E+03 -0.68779358596E+02 -0.14333682403E+04  0.14503599221E+04  0.46999998093E+01 0.  1.
       -5    1    3    3    0  502 -0.21034899877E+03  0.68779358596E+02 -0.37193746941E+02  0.22446105734E+03  0.46999998093E+01 0. -1.
</event>
<event>
 5   0  0.1712793E-03  0.8004604E+03  0.7818609E-02  0.9559351E-01
       -1   -1    0    0    0  501  0.00000000000E+00  0.00000000000E+00  0.12646043479E+03  0.12646043489E+03  0.50400001928E-02 0.  1.
        1   -1    0    0  501    0  0.00000000000E+00  0.00000000000E+00 -0.12666746064E+04  0.12666746064E+04  0.50400001928E-02 0. -1.
    10030    2    1    2    0    0  0.00000000000E+00  0.00000000000E+00 -0.11402141716E+04  0.13931350413E+04  0.80046042136E+03 0.  0.
        4    1    3    3  502    0 -0.15144920142E+03 -0.32834833391E+03 -0.86869450211E+03  0.94094699101E+03  0.12699999809E+01 0. -1.
       -4    1    3    3    0  502  0.15144920142E+03  0.32834833391E+03 -0.27151966945E+03  0.45218805025E+03  0.12699999809E+01 0.  1.
</event>
<event>
 5   0  0.1640035E-03  0.8006424E+03  0.7818609E-02  0.9559088E-01
        1   -1    0    0  501    0  0.00000000000E+00  0.00000000000E+00  0.87757000589E+03  0.87757000590E+03  0.50400001928E-02 0.  1.
       -1   -1    0    0    0  501  0.00000000000E+00  0.00000000000E+00 -0.18261458238E+03  0.18261458245E+03  0.50400001928E-02 0. -1.
    10030    2    1    2    0    0  0.00000000000E+00  0.00000000000E+00  0.69495542351E+03  0.10601845883E+04  0.80064244248E+03 0.  0.
        5    1    3    3  502    0 -0.26846844335E+03  0.25700639070E+03  0.15059312652E+03  0.40103362664E+03  0.46999998093E+01 0.  1.
       -5    1    3    3    0  502  0.26846844335E+03 -0.25700639070E+03  0.54436229699E+03  0.65915096171E+03  0.46999998093E+01 0. -1.
</event>
<event>
 5   0  0.2910501E-03  0.8007967E+03  0.7818609E-02  0.9558865E-01
       -2   -1    0    0    0  501  0.00000000000E+00  0.00000000000E+00  0.24257355538E+03  0.24257355540E+03  0.25500000920E-02 0. -1.
        2   -1    0    0  501    0  0.00000000000E+00  0.00000000000E+00 -0.66090811824E+03  0.66090811825E+03  0.25500000920E-02 0.  1.
    10030    2    1    2    0    0  0.00000000000E+00  0.00000000000E+00 -0.41833456286E+03  0.90348167364E+03  0.80079668339E+03 0.  0.
        1    1    3    3  502    0 -0.11311120470E+03  0.37301561950E+03 -0.31247282396E+03  0.49957388119E+03  0.50400001928E-02 0.  1.
       -1    1    3    3    0  502  0.11311120470E+03 -0.37301561950E+03 -0.10586173889E+03  0.40390779246E+03  0.50400001928E-02 0. -1.
</event>
<event>
 5   0  0.2768834E-03  0.8003402E+03  0.7818609E-02  0.9559525E-01
       -2   -1    0    0    0  501  0.00000000000E+00  0.00000000000E+00  0.98002643940E+02  0.98002643973E+02  0.25500000920E-02 0.  1.
        2   -1    0    0  501    0  0.00000000000E+00  0.00000000000E+00 -0.16339978493E+04  0.16339978493E+04  0.25500000920E-02 0. -1.
    10030    2    1    2    0    0  0.00000000000E+00  0.00000000000E+00 -0.15359952053E+04  0.17320004932E+04  0.80034020129E+03 0.  0.
        4    1    3    3  502    0 -0.14898403245E+03 -0.35263631941E+03 -0.51575567308E+03  0.64230377775E+03  0.12699999809E+01 0.  1.
       -4    1    3    3    0  502  0.14898403245E+03  0.35263631941E+03 -0.10202395322E+04  0.10896967155E+04  0.12699999809E+01 0. -1.
</event>
<event>
 5   0  0.2873212E-03  0.8023178E+03  0.7818609E-02  0.9556668E-01
       -2   -1    0    0    0  501  0.00000000000E+00  0.00000000000E+00  0.12580114492E+03  0.12580114495E+03  0.25500000920E-02 0.  1.
        2   -1    0    0  501    0  0.00000000000E+00  0.00000000000E+00 -0.12792289145E+04  0.12792289145E+04  0.25500000920E-02 0. -1.
    10030    2    1    2    0    0  0.00000000000E+00  0.00000000000E+00 -0.11534277696E+04  0.14050300595E+04  0.80231779759E+03 0.  0.
        2    1    3    3  502    0 -0.11369793143E+03 -0.36435630176E+03 -0.79294255172E+03  0.88002308184E+03  0.25500000920E-02 0.  1.
       -2    1    3    3    0  502  0.11369793143E+03  0.36435630176E+03 -0.36048521790E+03  0.52500697765E+03  0.25500000920E-02 0. -1.
</event>
<event>
 5   0  0.2873212E-03  0.8011394E+03  0.7818609E-02  0.9558369E-01
        2   -1    0    0  501    0  0.00000000000E+00  0.00000000000E+00  0.50590121003E+03  0.50590121004E+03  0.25500000920E-02 0.  1.
       -2   -1    0    0    0  501  0.00000000000E+00  0.00000000000E+00 -0.31716878965E+03  0.31716878966E+03  0.25500000920E-02 0. -1.
    10030    2    1    2    0    0  0.00000000000E+00  0.00000000000E+00  0.18873242038E+03  0.82306999970E+03  0.80113937483E+03 0.  0.
        2    1    3    3  502    0  0.76980735278E+01 -0.31701109428E+03  0.34581232799E+03  0.46919234907E+03  0.25500000920E-02 0.  1.
       -2    1    3    3    0  502 -0.76980735278E+01  0.31701109428E+03 -0.15707990761E+03  0.35387765063E+03  0.25500000920E-02 0. -1.
</event>
<event>
 5   0  0.1095350E-03  0.8004815E+03  0.7818609E-02  0.9559320E-01
        4   -1    0    0  501    0  0.00000000000E+00  0.00000000000E+00  0.11170670527E+04  0.11170677746E+04  0.12699999809E+01 0.  1.
       -4   -1    0    0    0  501  0.00000000000E+00  0.00000000000E+00 -0.14340111233E+03  0.14340673596E+03  0.12699999809E+01 0. -1.
    10030    2    1    2    0    0  0.00000000000E+00  0.00000000000E+00  0.97366594033E+03  0.12604745106E+04  0.80048149785E+03 0.  0.
        1    1    3    3  502    0 -0.22203113401E+03 -0.33233823155E+03  0.52009239059E+03  0.65592882190E+03  0.50400001928E-02 0. -1.
       -1    1    3    3    0  502  0.22203113401E+03  0.33233823155E+03  0.45357354975E+03  0.60454568866E+03  0.50400001928E-02 0.  1.
</event>
<event>
 5   0  0.1617491E-03  0.8002000E+03  0.7818609E-02  0.9559728E-01
       -1   -1    0    0    0  501  0.00000000000E+00  0.00000000000E+00  0.15322193194E+03  0.15322193202E+03  0.50400001928E-02 0. -1.
        1   -1    0    0  501    0  0.00000000000E+00  0.00000000000E+00 -0.10447590276E+04  0.10447590276E+04  0.50400001928E-02 0.  1.
    10030    2    1    2    0    0  0.00000000000E+00  0.00000000000E+00 -0.89153709569E+03  0.11979809597E+04  0.80019996670E+03 0.  0.
        1    1    3    3  502    0  0.27517047882E+03  0.19970747123E+03 -0.13003215184E+03  0.36401954208E+03  0.50400001928E-02 0. -1.
       -1    1    3    3    0  502 -0.27517047882E+03 -0.19970747123E+03 -0.76150494385E+03  0.83396141758E+03  0.50400001928E-02 0.  1.
</event>
<event>
 5   0  0.2690809E-03  0.7986329E+03  0.7818609E-02  0.9561998E-01
        2   -1    0    0  501    0  0.00000000000E+00  0.00000000000E+00  0.74288254305E+03  0.74288254305E+03  0.25500000920E-02 0. -1.
       -2   -1    0    0    0  501  0.00000000000E+00  0.00000000000E+00 -0.21464177698E+03  0.21464177699E+03  0.25500000920E-02 0.  1.
    10030    2    1    2    0    0  0.00000000000E+00  0.00000000000E+00  0.52824076607E+03  0.95752432005E+03  0.79863290475E+03 0.  0.
        5    1    3    3  502    0  0.24576582400E+03 -0.15755609553E+03  0.59072656021E+03  0.65894212373E+03  0.46999998093E+01 0. -1.
       -5    1    3    3    0  502 -0.24576582400E+03  0.15755609553E+03 -0.62485794144E+02  0.29858219631E+03  0.46999998093E+01 0.  1.
</event>
<event>
 5   0  0.2910501E-03  0.7991543E+03  0.7818609E-02  0.9561242E-01
       -2   -1    0    0    0  501  0.00000000000E+00  0.00000000000E+00  0.19118999200E+03  0.19118999202E+03  0.25500000920E-02 0.  1.
        2   -1    0    0  501    0  0.00000000000E+00  0.00000000000E+00 -0.83509557169E+03  0.83509557170E+03  0.25500000920E-02 0. -1.
    10030    2    1    2    0    0  0.00000000000E+00  0.00000000000E+00 -0.64390557969E+03  0.10262855637E+04  0.79915434225E+03 0.  0.
        1    1    3    3  502    0  0.29246460215E+03  0.19466480012E+03 -0.56639918479E+03  0.66651178870E+03  0.50400001928E-02 0. -1.
       -1    1    3    3    0  502 -0.29246460215E+03 -0.19466480012E+03 -0.77506394905E+02  0.35977377502E+03  0.50400001928E-02 0.  1.
</event>
<event>
 5   0  0.1712793E-03  0.8003885E+03  0.7818609E-02  0.9559455E-01
       -1   -1    0    0    0  501  0.00000000000E+00  0.00000000000E+00  0.53495818658E+03  0.53495818660E+03  0.50400001928E-02 0. -1.
        1   -1    0    0  501    0  0.00000000000E+00  0.00000000000E+00 -0.29937937434E+03  0.29937937439E+03  0.50400001928E-02 0.  1.
    10030    2    1    2    0    0  0.00000000000E+00  0.00000000000E+00  0.23557881223E+03  0.83433756099E+03  0.80038852372E+03 0.  0.
        4    1    3    3  502    0 -0.31555328032E+03  0.44788172509E+02  0.37007550096E+03  0.48840284851E+03  0.12699999809E+01 0. -1.
       -4    1    3    3    0  502  0.31555328032E+03 -0.44788172509E+02 -0.13449668873E+03  0.34593471248E+03  0.12699999809E+01 0.  1.
</event>
<event>
 5   0  0.1656051E-03  0.8001100E+03  0.7818609E-02  0.9559858E-01
        1   -1    0    0  501    0  0.00000000000E+00  0.00000000000E+00  0.74990917942E+03  0.74990917943E+03  0.50400001928E-02 0.  1.
       -1   -1    0    0    0  501  0.00000000000E+00  0.00000000000E+00 -0.21341784034E+03  0.21341784040E+03  0.50400001928E-02 0. -1.
    10030    2    1    2    0    0  0.00000000000E+00  0.00000000000E+00  0.53649133908E+03  0.96332701984E+03  0.80010998634E+03 0.  0.
        3    1    3    3  502    0  0.53009221203E+02 -0.35721303548E+03  0.60987902789E+02  0.36623853530E+03  0.10100000352E+00 0. -1.
       -3    1    3    3    0  502 -0.53009221203E+02  0.35721303548E+03  0.47550343629E+03  0.59708848454E+03  0.10100000352E+00 0.  1.
</event>
<event>
 5   0  0.2690809E-03  0.7972025E+03  0.7818609E-02  0.9564075E-01
       -2   -1    0    0    0  501  0.00000000000E+00  0.00000000000E+00  0.23284764530E+03  0.23284764532E+03  0.25500000920E-02 0.  1.
        2   -1    0    0  501    0  0.00000000000E+00  0.00000000000E+00 -0.68234729053E+03  0.68234729053E+03  0.25500000920E-02 0. -1.
    10030    2    1    2    0    0  0.00000000000E+00  0.00000000000E+00 -0.44949964523E+03  0.91519493585E+03  0.79720250849E+03 0.  0.
        5    1    3    3  502    0 -0.94990466547E+02  0.21032543644E+03  0.14831022811E+03  0.27436835041E+03  0.46999998093E+01 0.  1.
       -5    1    3    3    0  502  0.94990466547E+02 -0.21032543644E+03 -0.59780987333E+03  0.64082658544E+03  0.46999998093E+01 0. -1.
</event>
<event>
 5   0  0.1095350E-03  0.7981433E+03  0.7818609E-02  0.9562708E-01
        4   -1    0    0  501    0  0.00000000000E+00  0.00000000000E+00  0.27302909731E+03  0.27303205101E+03  0.12699999809E+01 0.  1.
       -4   -1    0    0    0  501  0.00000000000E+00  0.00000000000E+00 -0.58329440516E+03  0.58329578773E+03  0.12699999809E+01 0. -1.
    10030    2    1    2    0    0  0.00000000000E+00  0.00000000000E+00 -0.31026530785E+03  0.85632783874E+03  0.79814334938E+03 0.  0.
        2    1    3    3  502    0 -0.25320853752E+01 -0.25696018168E+03 -0.48271560830E+03  0.54685400696E+03  0.25500000920E-02 0. -1.
       -2    1    3    3    0  502  0.25320853752E+01  0.25696018168E+03  0.17245030045E+03  0.30947383178E+03  0.25500000920E-02 0.  1.
</event>
<event>
 5   0  0.2873212E-03  0.7989778E+03  0.7818609E-02  0.9561498E-01
        2   -1    0    0  501    0  0.00000000000E+00  0.00000000000E+00  0.17309080184E+03  0.17309080186E+03  0.25500000920E-02 0. -1.
       -2   -1    0    0    0  501  0.00000000000E+00  0.00000000000E+00 -0.92200955306E+03  0.92200955306E+03  0.25500000920E-02 0.  1.
    10030    2    1    2    0    0  0.00000000000E+00  0.00000000000E+00 -0.74891875122E+03  0.10951003549E+04  0.79897777905E+03 0.  0.
        2    1    3    3  502    0 -0.95644867160E+02  0.17320691455E+03 -0.85013361772E+03  0.87285493861E+03  0.25500000920E-02 0.  1.
       -2    1    3    3    0  502  0.95644867160E+02 -0.17320691455E+03  0.10121486651E+03  0.22224541631E+03  0.25500000920E-02 0. -1.
</event>
<event>
 5   0  0.2768834E-03  0.8010362E+03  0.7818609E-02  0.9558519E-01
       -2   -1    0    0    0  501  0.00000000000E+00  0.00000000000E+00  0.12576046695E+04  0.12576046695E+04  0.25500000920E-02 0. -1.
        2   -1    0    0  501    0  0.00000000000E+00  0.00000000000E+00 -0.12755577252E+03  0.12755577255E+03  0.25500000920E-02 0.  1.
    10030    2    1    2    0    0  0.00000000000E+00  0.00000000000E+00  0.11300488970E+04  0.13851604420E+04  0.80103616689E+03 0.  0.
        4    1    3    3  502    0  0.20855537531E+03 -0.32306192956E+02 -0.23603825537E+02  0.21236239817E+03  0.12699999809E+01 0.  1.
       -4    1    3    3    0  502 -0.20855537531E+03  0.32306192956E+02  0.11536527225E+04  0.11727980439E+04  0.12699999809E+01 0. -1.
</event>
<event>
 5   0  0.1617491E-03  0.7943400E+03  0.7818609E-02  0.9568246E-01
        1   -1    0    0  501    0  0.00000000000E+00  0.00000000000E+00  0.75500244381E+03  0.75500244383E+03  0.50400001928E-02 0.  1.
       -1   -1    0    0    0  501  0.00000000000E+00  0.00000000000E+00 -0.20893178793E+03  0.20893178800E+03  0.50400001928E-02 0. -1.
    10030    2    1    2    0    0  0.00000000000E+00  0.00000000000E+00  0.54607065588E+03  0.96393423183E+03  0.79434000408E+03 0.  0.
        1    1    3    3  502    0 -0.17498652131E+03 -0.21230896271E+03 -0.74562169837E+02  0.28505244339E+03  0.50400001928E-02 0. -1.
       -1    1    3    3    0  502  0.17498652131E+03  0.21230896271E+03  0.62063282572E+03  0.67888178844E+03  0.50400001928E-02 0.  1.
</event>
<event>
 5   0  0.1617491E-03  0.7925294E+03  0.7818609E-02  0.9570894E-01
       -1   -1    0    0    0  501  0.00000000000E+00  0.00000000000E+00  0.18378336713E+03  0.18378336720E+03  0.50400001928E-02 0. -1.
        1   -1    0    0  501    0  0.00000000000E+00  0.00000000000E+00 -0.85440644537E+03  0.85440644538E+03  0.50400001928E-02 0.  1.
    10030    2    1    2    0    0  0.00000000000E+00  0.00000000000E+00 -0.67062307824E+03  0.10381898126E+04  0.79252935206E+03 0.  0.
        1    1    3    3  502    0  0.35730136872E+03  0.17045227194E+03 -0.31234225357E+03  0.50425779963E+03  0.50400001928E-02 0.  1.
       -1    1    3    3    0  502 -0.35730136872E+03 -0.17045227194E+03 -0.35828082467E+03  0.53393201295E+03  0.50400001928E-02 0. -1.
</event>
<event>
 5   0  0.1656051E-03  0.8006042E+03  0.7818609E-02  0.9559143E-01
        1   -1    0    0  501    0  0.00000000000E+00  0.00000000000E+00  0.12122515889E+04  0.12122515889E+04  0.50400001928E-02 0.  1.
       -1   -1    0    0    0  501  0.00000000000E+00  0.00000000000E+00 -0.13218524855E+03  0.13218524864E+03  0.50400001928E-02 0. -1.
    10030    2    1    2    0    0  0.00000000000E+00  0.00000000000E+00  0.10800663404E+04  0.13444368376E+04  0.80060421597E+03 0.  0.
        3    1    3    3  502    0 -0.20838107783E+03  0.28350457676E+03  0.21945272154E+03  0.41467701387E+03  0.10100000352E+00 0.  1.
       -3    1    3    3    0  502  0.20838107783E+03 -0.28350457676E+03  0.86061361885E+03  0.92975982372E+03  0.10100000352E+00 0. -1.
</event>
<event>
 5   0  0.2910501E-03  0.8008294E+03  0.7818609E-02  0.9558817E-01
       -2   -1    0    0    0  501  0.00000000000E+00  0.00000000000E+00  0.15308849014E+03  0.15308849016E+03  0.25500000920E-02 0. -1.
        2   -1    0    0  501    0  0.00000000000E+00  0.00000000000E+00 -0.10473153280E+04  0.10473153280E+04  0.25500000920E-02 0.  1.
    10030    2    1    2    0    0  0.00000000000E+00  0.00000000000E+00 -0.89422683791E+03  0.12004038182E+04  0.80082937579E+03 0.  0.
        1    1    3    3  502    0 -0.35704086356E+03 -0.11439434952E+03 -0.23636458099E+03  0.44320701780E+03  0.50400001928E-02 0. -1.
       -1    1    3    3    0  502  0.35704086356E+03  0.11439434952E+03 -0.65786225691E+03  0.75719680041E+03  0.50400001928E-02 0.  1.
</event>
<event>
 5   0  0.1095350E-03  0.8010193E+03  0.7818609E-02  0.9558543E-01
        3   -1    0    0  501    0  0.00000000000E+00  0.00000000000E+00  0.24874036050E+03  0.24874038100E+03  0.10100000352E+00 0.  1.
       -3   -1    0    0    0  501  0.00000000000E+00  0.00000000000E+00 -0.64488115651E+03  0.64488116442E+03  0.10100000352E+00 0. -1.
    10030    2    1    2    0    0  0.00000000000E+00  0.00000000000E+00 -0.39614079602E+03  0.89362154543E+03  0.80101931074E+03 0.  0.
        4    1    3    3  502    0  0.27677980291E+03  0.13996587412E+03  0.84618104212E+02  0.32149547692E+03  0.12699999809E+01 0.  1.
       -4    1    3    3    0  502 -0.27677980291E+03 -0.13996587412E+03 -0.48075890023E+03  0.57212606851E+03  0.12699999809E+01 0. -1.
</event>
<event>
 5   0  0.2768834E-03  0.7997482E+03  0.7818609E-02  0.9560382E-01
       -2   -1    0    0    0  501  0.00000000000E+00  0.00000000000E+00  0.19912650349E+03  0.19912650350E+03  0.25500000920E-02 0.  1.
        2   -1    0    0  501    0  0.00000000000E+00  0.00000000000E+00 -0.80300358030E+03  0.80300358030E+03  0.25500000920E-02 0. -1.
    10030    2    1    2    0    0  0.00000000000E+00  0.00000000000E+00 -0.60387707681E+03  0.10021300838E+04  0.79974819847E+03 0.  0.
        4    1    3    3  502    0 -0.13361193049E+03  0.27408331982E+03 -0.62609997387E+03  0.69640261656E+03  0.12699999809E+01 0. -1.
       -4    1    3    3    0  502  0.13361193049E+03 -0.27408331982E+03  0.22222897055E+02  0.30572746724E+03  0.12699999809E+01 0.  1.
</event>
<event>
 5   0  0.1712793E-03  0.7994548E+03  0.7818609E-02  0.9560807E-01
        1   -1    0    0  501    0  0.00000000000E+00  0.00000000000E+00  0.13615878076E+04  0.13615878076E+04  0.50400001928E-02 0.  1.
       -1   -1    0    0    0  501  0.00000000000E+00  0.00000000000E+00 -0.11734975876E+03  0.11734975887E+03  0.50400001928E-02 0. -1.
    10030    2    1    2    0    0  0.00000000000E+00  0.00000000000E+00  0.12442380488E+04  0.14789375665E+04  0.79945481634E+03 0.  0.
        4    1    3    3  502    0  0.87558474050E+02  0.41441031454E+02 -0.95303228456E+02  0.13589762220E+03  0.12699999809E+01 0. -1.
       -4    1    3    3    0  502 -0.87558474050E+02 -0.41441031454E+02  0.13395412773E+04  0.13430399443E+04  0.12699999809E+01 0.  1.
</event>
<event>
 5   0  0.1640035E-03  0.8001463E+03  0.7818609E-02  0.9559805E-01
        1   -1    0    0  501    0  0.00000000000E+00  0.00000000000E+00  0.17379806920E+03  0.17379806927E+03  0.50400001928E-02 0. -1.
       -1   -1    0    0    0  501  0.00000000000E+00  0.00000000000E+00 -0.92094543777E+03  0.92094543779E+03  0.50400001928E-02 0.  1.
    10030    2    1    2    0    0  0.00000000000E+00  0.00000000000E+00 -0.74714736858E+03  0.10947435071E+04  0.80014633404E+03 0.  0.
        5    1    3    3  502    0  0.16911053147E+03 -0.33433764206E+03 -0.56539424235E+03  0.67828664298E+03  0.46999998093E+01 0.  1.
       -5    1    3    3    0  502 -0.16911053147E+03  0.33433764206E+03 -0.18175312622E+03  0.41645686408E+03  0.46999998093E+01 0. -1.
</event>
<event>
 5   0  0.2910501E-03  0.7993539E+03  0.7818609E-02  0.9560953E-01
        2   -1    0    0  501    0  0.00000000000E+00  0.00000000000E+00  0.25411956923E+03  0.25411956925E+03  0.25500000920E-02 0.  1.
       -2   -1    0    0    0  501  0.00000000000E+00  0.00000000000E+00 -0.62860827120E+03  0.62860827120E+03  0.25500000920E-02 0. -1.
    10030    2    1    2    0    0  0.00000000000E+00  0.00000000000E+00 -0.37448870196E+03  0.88272784045E+03  0.79935389685E+03 0.  0.
        1    1    3    3  502    0  0.68297826491E+02 -0.38917149739E+03 -0.25371024545E+03  0.46956142959E+03  0.50400001928E-02 0. -1.
       -1    1    3    3    0  502 -0.68297826491E+02  0.38917149739E+03 -0.12077845651E+03  0.41316641086E+03  0.50400001928E-02 0.  1.
</event>
<event>
 5   0  0.1656051E-03  0.8004478E+03  0.7818609E-02  0.9559369E-01
       -1   -1    0    0    0  501  0.00000000000E+00  0.00000000000E+00  0.22968705615E+03  0.22968705621E+03  0.50400001928E-02 0. -1.
        1   -1    0    0  501    0  0.00000000000E+00  0.00000000000E+00 -0.69738003159E+03  0.69738003161E+03  0.50400001928E-02 0.  1.
    10030    2    1    2    0    0  0.00000000000E+00  0.00000000000E+00 -0.46769297544E+03  0.92706708782E+03  0.80044779095E+03 0.  0.
        3    1    3    3  502    0 -0.63147413151E+02 -0.52909973550E+02 -0.68745337782E+03  0.69237216724E+03  0.10100000352E+00 0.  1.
       -3    1    3    3    0  502  0.63147413151E+02  0.52909973550E+02  0.21976040238E+03  0.23469492058E+03  0.10100000352E+00 0. -1.
</event>
<event>
 5   0  0.2873212E-03  0.8024503E+03  0.7818609E-02  0.9556477E-01
       -2   -1    0    0    0  501  0.00000000000E+00  0.00000000000E+00  0.29661876519E+03  0.29661876520E+03  0.25500000920E-02 0. -1.
        2   -1    0    0  501    0  0.00000000000E+00  0.00000000000E+00 -0.54272226089E+03  0.54272226090E+03  0.25500000920E-02 0.  1.
    10030    2    1    2    0    0  0.00000000000E+00  0.00000000000E+00 -0.24610349570E+03  0.83934102610E+03  0.80245026481E+03 0.  0.
        2    1    3    3  502    0 -0.30392655188E+03 -0.18415816728E+03 -0.31788370920E+03  0.47679726520E+03  0.25500000920E-02 0.  1.
       -2    1    3    3    0  502  0.30392655188E+03  0.18415816728E+03  0.71780213501E+02  0.36254376091E+03  0.25500000920E-02 0. -1.
</event>
<event>
 5   0  0.2873212E-03  0.8002068E+03  0.7818609E-02  0.9559718E-01
       -2   -1    0    0    0  501  0.00000000000E+00  0.00000000000E+00  0.13411629855E+03  0.13411629857E+03  0.25500000920E-02 0. -1.
        2   -1    0    0  501    0  0.00000000000E+00  0.00000000000E+00 -0.11936111650E+04  0.11936111650E+04  0.25500000920E-02 0.  1.
    10030    2    1    2    0    0  0.00000000000E+00  0.00000000000E+00 -0.10594948664E+04  0.13277274635E+04  0.80020675170E+03 0.  0.
        2    1    3    3  502    0 -0.33302129926E+02 -0.93695712719E+02 -0.11727817720E+04  0.11769898059E+04  0.25500000920E-02 0.  1.
       -2    1    3    3    0  502  0.33302129926E+02  0.93695712719E+02  0.11328690560E+03  0.15073765762E+03  0.25500000920E-02 0. -1.
</event>
<event>
 5   0  0.2768834E-03  0.7990144E+03  0.7818609E-02  0.9561445E-01
       -2   -1    0    0    0  501  0.00000000000E+00  0.00000000000E+00  0.70023949367E+03  0.70023949367E+03  0.25500000920E-02 0. -1.
        2   -1    0    0  501    0  0.00000000000E+00  0.00000000000E+00 -0.22793057222E+03  0.22793057223E+03  0.25500000920E-02 0.  1.
    10030    2    1    2    0    0  0.00000000000E+00  0.00000000000E+00  0.47230892145E+03  0.92817006591E+03  0.79901436405E+03 0.  0.
        4    1    3    3  502    0 -0.27696129176E+03  0.17565789676E+03 -0.28845796751E+02  0.32923691579E+03  0.12699999809E+01 0.  1.
       -4    1    3    3    0  502  0.27696129176E+03 -0.17565789676E+03  0.50115471820E+03  0.59893315011E+03  0.12699999809E+01 0. -1.
</event>
<event>
 5   0  0.2690809E-03  0.7986279E+03  0.7818609E-02  0.9562005E-01
       -2   -1    0    0    0  501  0.00000000000E+00  0.00000000000E+00  0.16235100247E+03  0.16235100249E+03  0.25500000920E-02 0.  1.
        2   -1    0    0  501    0  0.00000000000E+00  0.00000000000E+00 -0.98214123567E+03  0.98214123567E+03  0.25500000920E-02 0. -1.
    10030    2    1    2    0    0  0.00000000000E+00  0.00000000000E+00 -0.81979023320E+03  0.11444922382E+04  0.79862785875E+03 0.  0.
        5    1    3    3  502    0 -0.24689111165E+03  0.31297488723E+03 -0.44260634871E+03  0.59567690149E+03  0.46999998093E+01 0. -1.
       -5    1    3    3    0  502  0.24689111165E+03 -0.31297488723E+03 -0.37718388449E+03  0.54881533668E+03  0.46999998093E+01 0.  1.
</event>
<event>
 5   0  0.2910501E-03  0.7995298E+03  0.7818609E-02  0.9560698E-01
       -2   -1    0    0    0  501  0.00000000000E+00  0.00000000000E+00  0.20834750438E+03  0.20834750440E+03  0.25500000920E-02 0.  1.
        2   -1    0    0  501    0  0.00000000000E+00  0.00000000000E+00 -0.76704536450E+03  0.76704536451E+03  0.25500000920E-02 0. -1.
    10030    2    1    2    0    0  0.00000000000E+00  0.00000000000E+00 -0.55869786012E+03  0.97539286890E+03  0.79952983047E+03 0.  0.
        1    1    3    3  502    0  0.28601045047E+03  0.14803473438E+03 -0.56829034481E+03  0.65319995131E+03  0.50400001928E-02 0. -1.
       -1    1    3    3    0  502 -0.28601045047E+03 -0.14803473438E+03  0.95924846920E+01  0.32219291759E+03  0.50400001928E-02 0.  1.
</event>
<event>
 5   0  0.2690809E-03  0.7996565E+03  0.7818609E-02  0.9560514E-01
        2   -1    0    0  501    0  0.00000000000E+00  0.00000000000E+00  0.59569473581E+03  0.59569473582E+03  0.25500000920E-02 0. -1.
       -2   -1    0    0    0  501  0.00000000000E+00  0.00000000000E+00 -0.26836336477E+03  0.26836336478E+03  0.25500000920E-02 0.  1.
    10030    2    1    2    0    0  0.00000000000E+00  0.00000000000E+00  0.32733137104E+03  0.86405810060E+03  0.79965653548E+03 0.  0.
        5    1    3    3  502    0  0.13521550852E+03 -0.37604834190E+03  0.15065589565E+03  0.42710054798E+03  0.46999998093E+01 0.  1.
       -5    1    3    3    0  502 -0.13521550852E+03  0.37604834190E+03  0.17667547540E+03  0.43695755262E+03  0.46999998093E+01 0. -1.
</event>
<event>
 5   0  0.1712793E-03  0.7994991E+03  0.7818609E-02  0.9560742E-01
        1   -1    0    0  501    0  0.00000000000E+00  0.00000000000E+00  0.21020003895E+03  0.21020003901E+03  0.50400001928E-02 0.  1.
       -1   -1    0    0    0  501  0.00000000000E+00  0.00000000000E+00 -0.76022673139E+03  0.76022673141E+03  0.50400001928E-02 0. -1.
    10030    2    1    2    0    0  0.00000000000E+00  0.00000000000E+00 -0.55002669244E+03  0.97042677042E+03  0.79949906464E+03 0.  0.
        4    1    3    3  502    0 -0.13624696375E+02 -0.19563331712E+03  0.14779825084E+03  0.24556865225E+03  0.12699999809E+01 0.  1.
       -4    1    3    3    0  502  0.13624696375E+02  0.19563331712E+03 -0.69782494328E+03  0.72485811817E+03  0.12699999809E+01 0. -1.
</event>
<event>
 5   0  0.1640035E-03  0.7957282E+03  0.7818609E-02  0.9566221E-01
       -1   -1    0    0    0  501  0.00000000000E+00  0.00000000000E+00  0.99532092786E+02  0.99532092913E+02  0.50400001928E-02 0. -1.
        1   -1    0    0  501    0  0.00000000000E+00  0.00000000000E+00 -0.15904001111E+04  0.15904001111E+04  0.50400001928E-02 0.  1.
    10030    2    1    2    0    0  0.00000000000E+00  0.00000000000E+00 -0.14908680183E+04  0.16899322040E+04  0.79572822380E+03 0.  0.
        5    1    3    3  502    0  0.14288073531E+03  0.24639182866E+03 -0.15554232968E+03  0.32456023182E+03  0.46999998093E+01 0. -1.
       -5    1    3    3    0  502 -0.14288073531E+03 -0.24639182866E+03 -0.13353256886E+04  0.13653719722E+04  0.46999998093E+01 0.  1.
</event>
<event>
 5   0  0.2768834E-03  0.7999306E+03  0.7818609E-02  0.9560118E-01
        2   -1    0    0  501    0  0.00000000000E+00  0.00000000000E+00  0.37073223417E+03  0.37073223418E+03  0.25500000920E-02 0.  1.
       -2   -1    0    0    0  501  0.00000000000E+00  0.00000000000E+00 -0.43150342321E+03  0.43150342322E+03  0.25500000920E-02 0. -1.
    10030    2    1    2    0    0  0.00000000000E+00  0.00000000000E+00 -0.60771189042E+02  0.80223565740E+03  0.79993056736E+03 0.  0.
        4    1    3    3  502    0  0.72662332304E+02 -0.19143993177E+03 -0.37494739374E+03  0.42721917441E+03  0.12699999809E+01 0. -1.
       -4    1    3    3    0  502 -0.72662332304E+02  0.19143993177E+03  0.31417620470E+03  0.37501648299E+03  0.12699999809E+01 0.  1.
</event>
<event>
 5   0  0.2873212E-03  0.7997871E+03  0.7818609E-02  0.9560325E-01
       -2   -1    0    0    0  501  0.00000000000E+00  0.00000000000E+00  0.49986537902E+03  0.49986537903E+03  0.25500000920E-02 0.  1.
        2   -1    0    0  501    0  0.00000000000E+00  0.00000000000E+00 -0.31991581077E+03  0.31991581079E+03  0.25500000920E-02 0. -1.
    10030    2    1    2    0    0  0.00000000000E+00  0.00000000000E+00  0.17994956824E+03  0.81978118981E+03  0.79978706670E+03 0.  0.
        2    1    3    3  502    0  0.18848037695E+03  0.11619921356E+03 -0.25134802817E+03  0.33496707450E+03  0.25500000920E-02 0. -1.
       -2    1    3    3    0  502 -0.18848037695E+03 -0.11619921356E+03  0.43129759642E+03  0.48481411531E+03  0.25500000920E-02 0.  1.
</event>
<event>
 5   0  0.1640035E-03  0.7890647E+03  0.7818609E-02  0.9575982E-01
       -1   -1    0    0    0  501  0.00000000000E+00  0.00000000000E+00  0.30251309574E+03  0.30251309578E+03  0.50400001928E-02 0.  1.
        1   -1    0    0  501    0  0.00000000000E+00  0.00000000000E+00 -0.51454232673E+03  0.51454232675E+03  0.50400001928E-02 0. -1.
    10030    2    1    2    0    0  0.00000000000E+00  0.00000000000E+00 -0.21202923099E+03  0.81705542253E+03  0.78906474303E+03 0.  0.
        5    1    3    3  502    0 -0.38228173066E+03 -0.13221767730E+02 -0.20597702342E+03  0.43446836584E+03  0.46999998093E+01 0. -1.
       -5    1    3    3    0  502  0.38228173066E+03  0.13221767730E+02 -0.60522075673E+01  0.38258705670E+03  0.46999998093E+01 0.  1.
</event>
<event>
 5   0  0.1637228E-03  0.8018674E+03  0.7818609E-02  0.9557318E-01
       -1   -1    0    0    0  501  0.00000000000E+00  0.00000000000E+00  0.28161971331E+03  0.28161971336E+03  0.50400001928E-02 0.  1.
        1   -1    0    0  501    0  0.00000000000E+00  0.00000000000E+00 -0.57079750222E+03  0.57079750224E+03  0.50400001928E-02 0. -1.
    10030    2    1    2    0    0  0.00000000000E+00  0.00000000000E+00 -0.28917778890E+03  0.85241721560E+03  0.80186739294E+03 0.  0.
        2    1    3    3  502    0 -0.34171666169E+03 -0.13785737769E+03  0.23401367913E+02  0.36921884769E+03  0.25500000920E-02 0.  1.
       -2    1    3    3    0  502  0.34171666169E+03  0.13785737769E+03 -0.31257915682E+03  0.48319836791E+03  0.25500000920E-02 0. -1.
</event>
<event>
 5   0  0.2690809E-03  0.8085901E+03  0.7818609E-02  0.9547666E-01
        2   -1    0    0  501    0  0.00000000000E+00  0.00000000000E+00  0.24579034248E+04  0.24579034248E+04  0.25500000920E-02 0. -1.
       -2   -1    0    0    0  501  0.00000000000E+00  0.00000000000E+00 -0.66501592371E+02  0.66501592420E+02  0.25500000920E-02 0.  1.
    10030    2    1    2    0    0  0.00000000000E+00  0.00000000000E+00  0.23914018324E+04  0.25244050172E+04  0.80859011052E+03 0.  0.
        5    1    3    3  502    0 -0.19415656412E+03 -0.24897628294E+03  0.19839411166E+04  0.20089127420E+04  0.46999998093E+01 0. -1.
       -5    1    3    3    0  502  0.19415656412E+03  0.24897628294E+03  0.40746071579E+03  0.51549227518E+03  0.46999998093E+01 0.  1.
</event>
<event>
 5   0  0.1637228E-03  0.8014116E+03  0.7818609E-02  0.9557976E-01
        1   -1    0    0  501    0  0.00000000000E+00  0.00000000000E+00  0.14709549434E+04  0.14709549434E+04  0.50400001928E-02 0. -1.
       -1   -1    0    0    0  501  0.00000000000E+00  0.00000000000E+00 -0.10915707768E+03  0.10915707779E+03  0.50400001928E-02 0.  1.
    10030    2    1    2    0    0  0.00000000000E+00  0.00000000000E+00  0.13617978657E+04  0.15801120212E+04  0.80141161237E+03 0.  0.
        2    1    3    3  502    0  0.27915310100E+03  0.15092358379E+02  0.12469095804E+04  0.12778645213E+04  0.25500000920E-02 0. -1.
       -2    1    3    3    0  502 -0.27915310100E+03 -0.15092358379E+02  0.11488828529E+03  0.30224749988E+03  0.25500000920E-02 0.  1.
</event>
<event>
 5   0  0.1656051E-03  0.8013312E+03  0.7818609E-02  0.9558092E-01
       -1   -1    0    0    0  501  0.00000000000E+00  0.00000000000E+00  0.72149518593E+02  0.72149518769E+02  0.50400001928E-02 0.  1.
        1   -1    0    0  501    0  0.00000000000E+00  0.00000000000E+00 -0.22250035460E+04  0.22250035460E+04  0.50400001928E-02 0. -1.
    10030    2    1    2    0    0  0.00000000000E+00  0.00000000000E+00 -0.21528540274E+04  0.22971530648E+04  0.80133122969E+03 0.  0.
        3    1    3    3  502    0  0.14619570694E+03  0.74930891884E+02 -0.28835800984E+02  0.16679129745E+03  0.10100000352E+00 0.  1.
       -3    1    3    3    0  502 -0.14619570694E+03 -0.74930891884E+02 -0.21240182264E+04  0.21303617673E+04  0.10100000352E+00 0. -1.
</event>
<event>
 5   0  0.1617491E-03  0.7979419E+03  0.7818609E-02  0.9563001E-01
        1   -1    0    0  501    0  0.00000000000E+00  0.00000000000E+00  0.91762598416E+03  0.91762598418E+03  0.50400001928E-02 0. -1.
       -1   -1    0    0    0  501  0.00000000000E+00  0.00000000000E+00 -0.17346698709E+03  0.17346698717E+03  0.50400001928E-02 0.  1.
    10030    2    1    2    0    0  0.00000000000E+00  0.00000000000E+00  0.74415899707E+03  0.10910929713E+04  0.79794188961E+03 0.  0.
        1    1    3    3  502    0 -0.18606560194E+03  0.28881032535E+03  0.94712799855E+02  0.35637385810E+03  0.50400001928E-02 0.  1.
       -1    1    3    3    0  502  0.18606560194E+03 -0.28881032535E+03  0.64944619721E+03  0.73471911324E+03  0.50400001928E-02 0. -1.
</event>
<event>
 5   0  0.2910501E-03  0.8010545E+03  0.7818609E-02  0.9558492E-01
        2   -1    0    0  501    0  0.00000000000E+00  0.00000000000E+00  0.75739655690E+03  0.75739655690E+03  0.25500000920E-02 0.  1.
       -2   -1    0    0    0  501  0.00000000000E+00  0.00000000000E+00 -0.21180727007E+03  0.21180727008E+03  0.25500000920E-02 0. -1.
    10030    2    1    2    0    0  0.00000000000E+00  0.00000000000E+00  0.54558928683E+03  0.96920382698E+03  0.80105454767E+03 0.  0.
        1    1    3    3  502    0 -0.15524146426E+03  0.20139800546E+03  0.64720463538E+03  0.69536674418E+03  0.50400001928E-02 0.  1.
       -1    1    3    3    0  502  0.15524146426E+03 -0.20139800546E+03 -0.10161534855E+03  0.27383708280E+03  0.50400001928E-02 0. -1.
</event>
<event>
 5   0  0.1095350E-03  0.7999040E+03  0.7818609E-02  0.9560156E-01
        3   -1    0    0  501    0  0.00000000000E+00  0.00000000000E+00  0.29320250890E+03  0.29320252630E+03  0.10100000352E+00 0. -1.
       -3   -1    0    0    0  501  0.00000000000E+00  0.00000000000E+00 -0.54556694989E+03  0.54556695924E+03  0.10100000352E+00 0.  1.
    10030    2    1    2    0    0  0.00000000000E+00  0.00000000000E+00 -0.25236444099E+03  0.83876948553E+03  0.79990401848E+03 0.  0.
        4    1    3    3  502    0 -0.72176818113E+01  0.31993750854E+03 -0.37772940207E+03  0.49506890266E+03  0.12699999809E+01 0.  1.
       -4    1    3    3    0  502  0.72176818113E+01 -0.31993750854E+03  0.12536496108E+03  0.34370058287E+03  0.12699999809E+01 0. -1.
</event>
<event>
 5   0  0.2763587E-03  0.7997879E+03  0.7818609E-02  0.9560324E-01
       -2   -1    0    0    0  501  0.00000000000E+00  0.00000000000E+00  0.12769387281E+03  0.12769387283E+03  0.25500000920E-02 0. -1.
        2   -1    0    0  501    0  0.00000000000E+00  0.00000000000E+00 -0.12523323300E+04  0.12523323300E+04  0.25500000920E-02 0.  1.
    10030    2    1    2    0    0  0.00000000000E+00  0.00000000000E+00 -0.11246384572E+04  0.13800262028E+04  0.79978788507E+03 0.  0.
        3    1    3    3  502    0  0.18482078747E+03  0.61572774711E+02  0.40282706404E+02  0.19892872267E+03  0.10100000352E+00 0. -1.
       -3    1    3    3    0  502 -0.18482078747E+03 -0.61572774711E+02 -0.11649211636E+04  0.11810974801E+04  0.10100000352E+00 0.  1.
</event>
<event>
 5   0  0.2690809E-03  0.7991427E+03  0.7818609E-02  0.9561259E-01
       -2   -1    0    0    0  501  0.00000000000E+00  0.00000000000E+00  0.19691193940E+03  0.19691193942E+03  0.25500000920E-02 0. -1.
        2   -1    0    0  501    0  0.00000000000E+00  0.00000000000E+00 -0.81080545003E+03  0.81080545003E+03  0.25500000920E-02 0.  1.
    10030    2    1    2    0    0  0.00000000000E+00  0.00000000000E+00 -0.61389351062E+03  0.10077173895E+04  0.79914272481E+03 0.  0.
        5    1    3    3  502    0 -0.24779927370E+03 -0.18538536534E+03  0.11721614384E+02  0.30972842939E+03  0.46999998093E+01 0. -1.
       -5    1    3    3    0  502  0.24779927370E+03  0.18538536534E+03 -0.62561512501E+03  0.69798896006E+03  0.46999998093E+01 0.  1.
</event>
<event>
 5   0  0.2768834E-03  0.8002760E+03  0.7818609E-02  0.9559618E-01
       -2   -1    0    0    0  501  0.00000000000E+00  0.00000000000E+00  0.14985799519E+03  0.14985799521E+03  0.25500000920E-02 0. -1.
        2   -1    0    0  501    0  0.00000000000E+00  0.00000000000E+00 -0.10684142219E+04  0.10684142219E+04  0.25500000920E-02 0.  1.
    10030    2    1    2    0    0  0.00000000000E+00  0.00000000000E+00 -0.91855622667E+03  0.12182722171E+04  0.80027598573E+03 0.  0.
        4    1    3    3  502    0  0.39915976173E+02 -0.14131208894E+03 -0.10259115413E+04  0.10363679342E+04  0.12699999809E+01 0.  1.
       -4    1    3    3    0  502 -0.39915976173E+02  0.14131208894E+03  0.10735531463E+03  0.18190428284E+03  0.12699999809E+01 0. -1.
</event>
<event>
 5   0  0.2910501E-03  0.7954615E+03  0.7818609E-02  0.9566610E-01
        2   -1    0    0  501    0  0.00000000000E+00  0.00000000000E+00  0.14268702099E+04  0.14268702099E+04  0.25500000920E-02 0.  1.
       -2   -1    0    0    0  501  0.00000000000E+00  0.00000000000E+00 -0.11086485495E+03  0.11086485498E+03  0.25500000920E-02 0. -1.
    10030    2    1    2    0    0  0.00000000000E+00  0.00000000000E+00  0.13160053549E+04  0.15377350648E+04  0.79546152357E+03 0.  0.
        1    1    3    3  502    0  0.52225790214E+01 -0.25742828252E+03  0.71994144548E+02  0.26735697643E+03  0.50400001928E-02 0. -1.
       -1    1    3    3    0  502 -0.52225790214E+01  0.25742828252E+03  0.12440112104E+04  0.12703780884E+04  0.50400001928E-02 0.  1.
</event>
<event>
 5   0  0.1637228E-03  0.8003042E+03  0.7818609E-02  0.9559577E-01
        1   -1    0    0  501    0  0.00000000000E+00  0.00000000000E+00  0.11426568727E+03  0.11426568738E+03  0.50400001928E-02 0. -1.
       -1   -1    0    0    0  501  0.00000000000E+00  0.00000000000E+00 -0.14013105982E+04  0.14013105982E+04  0.50400001928E-02 0.  1.
    10030    2    1    2    0    0  0.00000000000E+00  0.00000000000E+00 -0.12870449110E+04  0.15155762856E+04  0.80030423884E+03 0.  0.
        2    1    3    3  502    0  0.75635499810E+02 -0.27914858737E+03 -0.11672293179E+04  0.12025260676E+04  0.25500000920E-02 0.  1.
       -2    1    3    3    0  502 -0.75635499810E+02  0.27914858737E+03 -0.11981559307E+03  0.31305021803E+03  0.25500000920E-02 0. -1.
</event>
<event>
 5   0  0.1656051E-03  0.7991275E+03  0.7818609E-02  0.9561281E-01
        1   -1    0    0  501    0  0.00000000000E+00  0.00000000000E+00  0.15847215513E+04  0.15847215513E+04  0.50400001928E-02 0.  1.
       -1   -1    0    0    0  501  0.00000000000E+00  0.00000000000E+00 -0.10074401065E+03  0.10074401077E+03  0.50400001928E-02 0. -1.
    10030    2    1    2    0    0  0.00000000000E+00  0.00000000000E+00  0.14839775406E+04  0.16854655621E+04  0.79912753662E+03 0.  0.
        3    1    3    3  502    0 -0.22023862198E+03  0.73763419729E+02  0.14277165793E+04  0.14464856494E+04  0.10100000352E+00 0.  1.
       -3    1    3    3    0  502  0.22023862198E+03 -0.73763419729E+02  0.56260961291E+02  0.23897991269E+03  0.10100000352E+00 0. -1.
</event>
<event>
 5   0  0.1095350E-03  0.8000245E+03  0.7818609E-02  0.9559982E-01
        3   -1    0    0  501    0  0.00000000000E+00  0.00000000000E+00  0.97135063941E+03  0.97135064466E+03  0.10100000352E+00 0. -1.
       -3   -1    0    0    0  501  0.00000000000E+00  0.00000000000E+00 -0.16472914886E+03  0.16472917982E+03  0.10100000352E+00 0.  1.
    10030    2    1    2    0    0  0.00000000000E+00  0.00000000000E+00  0.80662149055E+03  0.11360798245E+04  0.80002446124E+03 0.  0.
        3    1    3    3  502    0  0.31812137227E+03 -0.20268966446E+03  0.59237282145E+03  0.70227478765E+03  0.10100000352E+00 0. -1.
       -3    1    3    3    0  502 -0.31812137227E+03  0.20268966446E+03  0.21424866910E+03  0.43380503684E+03  0.10100000352E+00 0.  1.
</event>
<event>
 5   0  0.2763587E-03  0.8007644E+03  0.7818609E-02  0.9558911E-01
        2   -1    0    0  501    0  0.00000000000E+00  0.00000000000E+00  0.15266185299E+04  0.15266185299E+04  0.25500000920E-02 0.  1.
       -2   -1    0    0    0  501  0.00000000000E+00  0.00000000000E+00 -0.10500718919E+03  0.10500718922E+03  0.25500000920E-02 0. -1.
    10030    2    1    2    0    0  0.00000000000E+00  0.00000000000E+00  0.14216113407E+04  0.16316257191E+04  0.80076443682E+03 0.  0.
        3    1    3    3  502    0 -0.84734269327E+02  0.28558027704E+03  0.12559117551E+04  0.12907557235E+04  0.10100000352E+00 0.  1.
       -3    1    3    3    0  502  0.84734269327E+02 -0.28558027704E+03  0.16569958564E+03  0.34086999562E+03  0.10100000352E+00 0. -1.
</event>
<event>
 5   0  0.2763587E-03  0.8007649E+03  0.7818609E-02  0.9558911E-01
        2   -1    0    0  501    0  0.00000000000E+00  0.00000000000E+00  0.51872345059E+03  0.51872345060E+03  0.25500000920E-02 0.  1.
       -2   -1    0    0    0  501  0.00000000000E+00  0.00000000000E+00 -0.30903963820E+03  0.30903963821E+03  0.25500000920E-02 0. -1.
    10030    2    1    2    0    0  0.00000000000E+00  0.00000000000E+00  0.20968381239E+03  0.82776308881E+03  0.80076490309E+03 0.  0.
        3    1    3    3  502    0 -0.65278803007E+02 -0.15253024833E+03  0.48151639845E+03  0.50929839089E+03  0.10100000352E+00 0.  1.
       -3    1    3    3    0  502  0.65278803007E+02  0.15253024833E+03 -0.27183258606E+03  0.31846469792E+03  0.10100000352E+00 0. -1.
</event>
<event>
 5   0  0.1637228E-03  0.8008910E+03  0.7818609E-02  0.9558728E-01
       -1   -1    0    0    0  501  0.00000000000E+00  0.00000000000E+00  0.25666576297E+03  0.25666576302E+03  0.50400001928E-02 0.  1.
        1   -1    0    0  501    0  0.00000000000E+00  0.00000000000E+00 -0.62476823171E+03  0.62476823173E+03  0.50400001928E-02 0. -1.
    10030    2    1    2    0    0  0.00000000000E+00  0.00000000000E+00 -0.36810246874E+03  0.88143399475E+03  0.80089104104E+03 0.  0.
        2    1    3    3  502    0  0.37514236835E+02 -0.11495893931E+03 -0.60419354023E+03  0.61617587567E+03  0.25500000920E-02 0. -1.
       -2    1    3    3    0  502 -0.37514236835E+02  0.11495893931E+03  0.23609107149E+03  0.26525811908E+03  0.25500000920E-02 0.  1.
</event>
<event>
 5   0  0.1617491E-03  0.7993701E+03  0.7818609E-02  0.9560929E-01
        1   -1    0    0  501    0  0.00000000000E+00  0.00000000000E+00  0.10587211721E+04  0.10587211721E+04  0.50400001928E-02 0. -1.
       -1   -1    0    0    0  501  0.00000000000E+00  0.00000000000E+00 -0.15088781303E+03  0.15088781311E+03  0.50400001928E-02 0.  1.
    10030    2    1    2    0    0  0.00000000000E+00  0.00000000000E+00  0.90783335906E+03  0.12096089852E+04  0.79937005779E+03 0.  0.
        1    1    3    3  502    0  0.23113885507E+03  0.25794520162E+03  0.75575123057E+03  0.83133676684E+03  0.50400001928E-02 0. -1.
       -1    1    3    3    0  502 -0.23113885507E+03 -0.25794520162E+03  0.15208212848E+03  0.37827221837E+03  0.50400001928E-02 0.  1.
</event>
<event>
 5   0  0.2690809E-03  0.8016231E+03  0.7818609E-02  0.9557671E-01
        2   -1    0    0  501    0  0.00000000000E+00  0.00000000000E+00  0.20028781431E+04  0.20028781431E+04  0.25500000920E-02 0.  1.
       -2   -1    0    0    0  501  0.00000000000E+00  0.00000000000E+00 -0.80209530033E+02  0.80209530074E+02  0.25500000920E-02 0. -1.
    10030    2    1    2    0    0  0.00000000000E+00  0.00000000000E+00  0.19226686131E+04  0.20830876732E+04  0.80162313993E+03 0.  0.
        5    1    3    3  502    0 -0.12555392780E+03  0.21698816808E+03  0.14876072310E+03  0.29154673143E+03  0.46999998093E+01 0. -1.
       -5    1    3    3    0  502  0.12555392780E+03 -0.21698816808E+03  0.17739078900E+04  0.17915409417E+04  0.46999998093E+01 0.  1.
</event>
<event>
 5   0  0.1712793E-03  0.8004268E+03  0.7818609E-02  0.9559400E-01
       -1   -1    0    0    0  501  0.00000000000E+00  0.00000000000E+00  0.41930661423E+03  0.41930661426E+03  0.50400001928E-02 0. -1.
        1   -1    0    0  501    0  0.00000000000E+00  0.00000000000E+00 -0.38198962477E+03  0.38198962480E+03  0.50400001928E-02 0.  1.
    10030    2    1    2    0    0  0.00000000000E+00  0.00000000000E+00  0.37316989459E+02  0.80129623906E+03  0.80042682678E+03 0.  0.
        4    1    3    3  502    0  0.12036555398E+03 -0.35325074292E+03 -0.12605026869E+03  0.39390891980E+03  0.12699999809E+01 0.  1.
       -4    1    3    3    0  502 -0.12036555398E+03  0.35325074292E+03  0.16336725815E+03  0.40738731926E+03  0.12699999809E+01 0. -1.
</event>
<event>
 5   0  0.1617491E-03  0.8183019E+03  0.7818609E-02  0.9533897E-01
        1   -1    0    0  501    0  0.00000000000E+00  0.00000000000E+00  0.43333992486E+03  0.43333992489E+03  0.50400001928E-02 0. -1.
       -1   -1    0    0    0  501  0.00000000000E+00  0.00000000000E+00 -0.38631218663E+03  0.38631218666E+03  0.50400001928E-02 0.  1.
    10030    2    1    2    0    0  0.00000000000E+00  0.00000000000E+00  0.47027738226E+02  0.81965211155E+03  0.81830188549E+03 0.  0.
        1    1    3    3  502    0 -0.10224318151E+03  0.37294376679E+02  0.41857555700E+03  0.43249281571E+03  0.50400001928E-02 0. -1.
       -1    1    3    3    0  502  0.10224318151E+03 -0.37294376679E+02 -0.37154781877E+03  0.38715929584E+03  0.50400001928E-02 0.  1.
</event>
<event>
 5   0  0.2768834E-03  0.8000096E+03  0.7818609E-02  0.9560003E-01
        2   -1    0    0  501    0  0.00000000000E+00  0.00000000000E+00  0.11962783347E+04  0.11962783347E+04  0.25500000920E-02 0.  1.
       -2   -1    0    0    0  501  0.00000000000E+00  0.00000000000E+00 -0.13375136121E+03  0.13375136124E+03  0.25500000920E-02 0. -1.
    10030    2    1    2    0    0  0.00000000000E+00  0.00000000000E+00  0.10625269735E+04  0.13300296959E+04  0.80000963913E+03 0.  0.
        4    1    3    3  502    0  0.14419706573E+03  0.28768303025E+03  0.92625712572E+03  0.98056524286E+03  0.12699999809E+01 0.  1.
       -4    1    3    3    0  502 -0.14419706573E+03 -0.28768303025E+03  0.13626984776E+03  0.34946445308E+03  0.12699999809E+01 0. -1.
</event>
<event>
 5   0  0.1617491E-03  0.8040303E+03  0.7818609E-02  0.9554202E-01
       -1   -1    0    0    0  501  0.00000000000E+00  0.00000000000E+00  0.32372077095E+03  0.32372077099E+03  0.50400001928E-02 0. -1.
        1   -1    0    0  501    0  0.00000000000E+00  0.00000000000E+00 -0.49924558073E+03  0.49924558075E+03  0.50400001928E-02 0.  1.
    10030    2    1    2    0    0  0.00000000000E+00  0.00000000000E+00 -0.17552480978E+03  0.82296635174E+03  0.80403025892E+03 0.  0.
        1    1    3    3  502    0 -0.36765700137E+03  0.11762927334E+03  0.27166736515E+02  0.38697073300E+03  0.50400001928E-02 0. -1.
       -1    1    3    3    0  502  0.36765700137E+03 -0.11762927334E+03 -0.20269154629E+03  0.43599561874E+03  0.50400001928E-02 0.  1.
</event>
<event>
 5   0  0.1617491E-03  0.8001892E+03  0.7818609E-02  0.9559743E-01
       -1   -1    0    0    0  501  0.00000000000E+00  0.00000000000E+00  0.11241109173E+03  0.11241109184E+03  0.50400001928E-02 0. -1.
        1   -1    0    0  501    0  0.00000000000E+00  0.00000000000E+00 -0.14240204345E+04  0.14240204345E+04  0.50400001928E-02 0.  1.
    10030    2    1    2    0    0  0.00000000000E+00  0.00000000000E+00 -0.13116093428E+04  0.15364315263E+04  0.80018920707E+03 0.  0.
        1    1    3    3  502    0 -0.11876414014E+03 -0.96749601273E+02  0.53874762812E+02  0.16238194611E+03  0.50400001928E-02 0. -1.
       -1    1    3    3    0  502  0.11876414014E+03  0.96749601273E+02 -0.13654841056E+04  0.13740495802E+04  0.50400001928E-02 0.  1.
</event>
<event>
 5   0  0.1617491E-03  0.8003893E+03  0.7818609E-02  0.9559454E-01
        1   -1    0    0  501    0  0.00000000000E+00  0.00000000000E+00  0.13264870252E+04  0.13264870252E+04  0.50400001928E-02 0. -1.
       -1   -1    0    0    0  501  0.00000000000E+00  0.00000000000E+00 -0.12073676474E+03  0.12073676485E+03  0.50400001928E-02 0.  1.
    10030    2    1    2    0    0  0.00000000000E+00  0.00000000000E+00  0.12057502604E+04  0.14472237900E+04  0.80038928522E+03 0.  0.
        1    1    3    3  502    0 -0.38402155002E+02  0.24098924094E+03  0.11763899803E+04  0.12014341120E+04  0.50400001928E-02 0. -1.
       -1    1    3    3    0  502  0.38402155002E+02 -0.24098924094E+03  0.29360280177E+02  0.24578967805E+03  0.50400001928E-02 0.  1.
</event>
<event>
 5   0  0.1640035E-03  0.7998532E+03  0.7818609E-02  0.9560230E-01
       -1   -1    0    0    0  501  0.00000000000E+00  0.00000000000E+00  0.80017100176E+02  0.80017100334E+02  0.50400001928E-02 0. -1.
        1   -1    0    0  501    0  0.00000000000E+00  0.00000000000E+00 -0.19988386310E+04  0.19988386310E+04  0.50400001928E-02 0.  1.
    10030    2    1    2    0    0  0.00000000000E+00  0.00000000000E+00 -0.19188215308E+04  0.20788557313E+04  0.79985316438E+03 0.  0.
        5    1    3    3  502    0 -0.32639303269E+03  0.56407500412E+02 -0.37705629905E+03  0.50190413481E+03  0.46999998093E+01 0.  1.
       -5    1    3    3    0  502  0.32639303269E+03 -0.56407500412E+02 -0.15417652318E+04  0.15769515965E+04  0.46999998093E+01 0. -1.
</event>
<event>
 5   0  0.1640035E-03  0.7974626E+03  0.7818609E-02  0.9563697E-01
        1   -1    0    0  501    0  0.00000000000E+00  0.00000000000E+00  0.17120964779E+04  0.17120964779E+04  0.50400001928E-02 0. -1.
       -1   -1    0    0    0  501  0.00000000000E+00  0.00000000000E+00 -0.92860800194E+02  0.92860800331E+02  0.50400001928E-02 0.  1.
    10030    2    1    2    0    0  0.00000000000E+00  0.00000000000E+00  0.16192356777E+04  0.18049572782E+04  0.79746259869E+03 0.  0.
        5    1    3    3  502    0  0.21783173513E+03  0.44576323739E+02  0.15586783341E+04  0.15744643384E+04  0.46999998093E+01 0. -1.
       -5    1    3    3    0  502 -0.21783173513E+03 -0.44576323739E+02  0.60557343547E+02  0.23049293985E+03  0.46999998093E+01 0.  1.
</event>
<event>
 5   0  0.1637228E-03  0.8008479E+03  0.7818609E-02  0.9558791E-01
       -1   -1    0    0    0  501  0.00000000000E+00  0.00000000000E+00  0.25147218735E+03  0.25147218740E+03  0.50400001928E-02 0. -1.
        1   -1    0    0  501    0  0.00000000000E+00  0.00000000000E+00 -0.63760268312E+03  0.63760268314E+03  0.50400001928E-02 0.  1.
    10030    2    1    2    0    0  0.00000000000E+00  0.00000000000E+00 -0.38613049577E+03  0.88907487054E+03  0.80084790420E+03 0.  0.
        2    1    3    3  502    0 -0.17172238795E+03 -0.29146346181E+03 -0.43091009747E+03  0.54783486581E+03  0.25500000920E-02 0.  1.
       -2    1    3    3    0  502  0.17172238795E+03  0.29146346181E+03  0.44779601709E+02  0.34124000473E+03  0.25500000920E-02 0. -1.
</event>
<event>
 5   0  0.1637228E-03  0.7997695E+03  0.7818609E-02  0.9560351E-01
        1   -1    0    0  501    0  0.00000000000E+00  0.00000000000E+00  0.49895599275E+03  0.49895599277E+03  0.50400001928E-02 0.  1.
       -1   -1    0    0    0  501  0.00000000000E+00  0.00000000000E+00 -0.32048481315E+03  0.32048481319E+03  0.50400001928E-02 0. -1.
    10030    2    1    2    0    0  0.00000000000E+00  0.00000000000E+00  0.17847117960E+03  0.81944080597E+03  0.79976951213E+03 0.  0.
        2    1    3    3  502    0  0.23787863481E+03  0.12970526853E+03  0.39057509298E+03  0.47535103329E+03  0.25500000920E-02 0.  1.
       -2    1    3    3    0  502 -0.23787863481E+03 -0.12970526853E+03 -0.21210391339E+03  0.34408977268E+03  0.25500000920E-02 0. -1.
</event>
<event>
 5   0  0.1637228E-03  0.8002221E+03  0.7818609E-02  0.9559696E-01
       -1   -1    0    0    0  501  0.00000000000E+00  0.00000000000E+00  0.55343310155E+03  0.55343310157E+03  0.50400001928E-02 0. -1.
        1   -1    0    0  501    0  0.00000000000E+00  0.00000000000E+00 -0.28926507129E+03  0.28926507133E+03  0.50400001928E-02 0.  1.
    10030    2    1    2    0    0  0.00000000000E+00  0.00000000000E+00  0.26416803026E+03  0.84269817291E+03  0.80022213316E+03 0.  0.
        2    1    3    3  502    0 -0.19863848541E+03 -0.13130084635E+03  0.47069757270E+03  0.52749726548E+03  0.25500000920E-02 0. -1.
       -2    1    3    3    0  502  0.19863848541E+03  0.13130084635E+03 -0.20652954243E+03  0.31520090743E+03  0.25500000920E-02 0.  1.
</event>
<event>
 5   0  0.2690809E-03  0.8006866E+03  0.7818609E-02  0.9559024E-01
        2   -1    0    0  501    0  0.00000000000E+00  0.00000000000E+00  0.73642752502E+03  0.73642752503E+03  0.25500000920E-02 0. -1.
       -2   -1    0    0    0  501  0.00000000000E+00  0.00000000000E+00 -0.21763817293E+03  0.21763817294E+03  0.25500000920E-02 0.  1.
    10030    2    1    2    0    0  0.00000000000E+00  0.00000000000E+00  0.51878935210E+03  0.95406569797E+03  0.80068655802E+03 0.  0.
        5    1    3    3  502    0  0.87183113106E+02  0.15804312886E+03 -0.16636761054E+03  0.24551740799E+03  0.46999998093E+01 0.  1.
       -5    1    3    3    0  502 -0.87183113106E+02 -0.15804312886E+03  0.68515696263E+03  0.70854828998E+03  0.46999998093E+01 0. -1.
</event>
<event>
 5   0  0.1617491E-03  0.7993401E+03  0.7818609E-02  0.9560973E-01
       -1   -1    0    0    0  501  0.00000000000E+00  0.00000000000E+00  0.12962870962E+03  0.12962870972E+03  0.50400001928E-02 0. -1.
        1   -1    0    0  501    0  0.00000000000E+00  0.00000000000E+00 -0.12322590404E+04  0.12322590404E+04  0.50400001928E-02 0.  1.
    10030    2    1    2    0    0  0.00000000000E+00  0.00000000000E+00 -0.11026303308E+04  0.13618877501E+04  0.79934010132E+03 0.  0.
        1    1    3    3  502    0  0.23834155149E+03  0.22178394841E+03 -0.15634532425E+03  0.36116294851E+03  0.50400001928E-02 0. -1.
       -1    1    3    3    0  502 -0.23834155149E+03 -0.22178394841E+03 -0.94628500653E+03  0.10007248016E+04  0.50400001928E-02 0.  1.
</event>
<event>
 5   0  0.1640035E-03  0.8000836E+03  0.7818609E-02  0.9559896E-01
       -1   -1    0    0    0  501  0.00000000000E+00  0.00000000000E+00  0.13390603127E+03  0.13390603137E+03  0.50400001928E-02 0. -1.
        1   -1    0    0  501    0  0.00000000000E+00  0.00000000000E+00 -0.11951174676E+04  0.11951174676E+04  0.50400001928E-02 0.  1.
    10030    2    1    2    0    0  0.00000000000E+00  0.00000000000E+00 -0.10612114363E+04  0.13290234989E+04  0.80008358828E+03 0.  0.
        5    1    3    3  502    0  0.80429050116E+02  0.35210564564E+03 -0.81621995006E+03  0.89257174202E+03  0.46999998093E+01 0.  1.
       -5    1    3    3    0  502 -0.80429050116E+02 -0.35210564564E+03 -0.24499148623E+03  0.43645175691E+03  0.46999998093E+01 0. -1.
</event>
<event>
 5   0  0.2690809E-03  0.8003961E+03  0.7818609E-02  0.9559444E-01
       -2   -1    0    0    0  501  0.00000000000E+00  0.00000000000E+00  0.25581664813E+03  0.25581664815E+03  0.25500000920E-02 0.  1.
        2   -1    0    0  501    0  0.00000000000E+00  0.00000000000E+00 -0.62606742074E+03  0.62606742074E+03  0.25500000920E-02 0. -1.
    10030    2    1    2    0    0  0.00000000000E+00  0.00000000000E+00 -0.37025077260E+03  0.88188406889E+03  0.80039607467E+03 0.  0.
        5    1    3    3  502    0  0.35286037694E+03  0.13628165971E+03 -0.41242204362E+02  0.38053402714E+03  0.46999998093E+01 0.  1.
       -5    1    3    3    0  502 -0.35286037694E+03 -0.13628165971E+03 -0.32900856824E+03  0.50135004175E+03  0.46999998093E+01 0. -1.
</event>
<event>
 5   0  0.1712793E-03  0.7991707E+03  0.7818609E-02  0.9561218E-01
       -1   -1    0    0    0  501  0.00000000000E+00  0.00000000000E+00  0.38695897978E+03  0.38695897981E+03  0.50400001928E-02 0. -1.
        1   -1    0    0  501    0  0.00000000000E+00  0.00000000000E+00 -0.41262371057E+03  0.41262371061E+03  0.50400001928E-02 0.  1.
    10030    2    1    2    0    0  0.00000000000E+00  0.00000000000E+00 -0.25664730798E+02  0.79958269041E+03  0.79917069541E+03 0.  0.
        4    1    3    3  502    0 -0.26741473220E+03  0.27040490362E+03 -0.13552260417E+03  0.40372941439E+03  0.12699999809E+01 0.  1.
       -4    1    3    3    0  502  0.26741473220E+03 -0.27040490362E+03  0.10985787338E+03  0.39585327603E+03  0.12699999809E+01 0. -1.
</event>
<event>
 5   0  0.2768834E-03  0.8002951E+03  0.7818609E-02  0.9559590E-01
        2   -1    0    0  501    0  0.00000000000E+00  0.00000000000E+00  0.90728736806E+03  0.90728736806E+03  0.25500000920E-02 0. -1.
       -2   -1    0    0    0  501  0.00000000000E+00  0.00000000000E+00 -0.17647998667E+03  0.17647998669E+03  0.25500000920E-02 0.  1.
    10030    2    1    2    0    0  0.00000000000E+00  0.00000000000E+00  0.73080738139E+03  0.10837673548E+04  0.80029510215E+03 0.  0.
        4    1    3    3  502    0 -0.33898474128E+03  0.19986591153E+03  0.46361342038E+03  0.60810858724E+03  0.12699999809E+01 0. -1.
       -4    1    3    3    0  502  0.33898474128E+03 -0.19986591153E+03  0.26719396101E+03  0.47565876751E+03  0.12699999809E+01 0.  1.
</event>
<event>
 5   0  0.2910501E-03  0.7989990E+03  0.7818609E-02  0.9561467E-01
       -2   -1    0    0    0  501  0.00000000000E+00  0.00000000000E+00  0.24246101199E+03  0.24246101201E+03  0.25500000920E-02 0.  1.
        2   -1    0    0  501    0  0.00000000000E+00  0.00000000000E+00 -0.65824961510E+03  0.65824961510E+03  0.25500000920E-02 0. -1.
    10030    2    1    2    0    0  0.00000000000E+00  0.00000000000E+00 -0.41578860311E+03  0.90071062711E+03  0.79899904338E+03 0.  0.
        1    1    3    3  502    0 -0.20355795674E+03  0.10303537282E+03  0.16179737076E+03  0.27969719164E+03  0.50400001928E-02 0.  1.
       -1    1    3    3    0  502  0.20355795674E+03 -0.10303537282E+03 -0.57758597386E+03  0.62101343547E+03  0.50400001928E-02 0. -1.
</event>
<event>
 5   0  0.1656051E-03  0.8024231E+03  0.7818609E-02  0.9556516E-01
        1   -1    0    0  501    0  0.00000000000E+00  0.00000000000E+00  0.10467532708E+04  0.10467532708E+04  0.50400001928E-02 0.  1.
       -1   -1    0    0    0  501  0.00000000000E+00  0.00000000000E+00 -0.15378095124E+03  0.15378095133E+03  0.50400001928E-02 0. -1.
    10030    2    1    2    0    0  0.00000000000E+00  0.00000000000E+00  0.89297231959E+03  0.12005342222E+04  0.80242311473E+03 0.  0.
        3    1    3    3  502    0 -0.59531800404E+02  0.13778122284E+03  0.10031674426E+04  0.10143335885E+04  0.10100000352E+00 0.  1.
       -3    1    3    3    0  502  0.59531800404E+02 -0.13778122284E+03 -0.11019512305E+03  0.18620063365E+03  0.10100000352E+00 0. -1.
</event>
<event>
 5   0  0.2763587E-03  0.7995267E+03  0.7818609E-02  0.9560702E-01
        2   -1    0    0  501    0  0.00000000000E+00  0.00000000000E+00  0.10802694257E+04  0.10802694257E+04  0.25500000920E-02 0.  1.
       -2   -1    0    0    0  501  0.00000000000E+00  0.00000000000E+00 -0.14793600192E+03  0.14793600194E+03  0.25500000920E-02 0. -1.
    10030    2    1    2    0    0  0.00000000000E+00  0.00000000000E+00  0.93233342381E+03  0.12282054277E+04  0.79952670964E+03 0.  0.
        3    1    3    3  502    0 -0.14948169715E+03  0.92680791047E+02 -0.85306517666E+02  0.19547818029E+03  0.10100000352E+00 0. -1.
       -3    1    3    3    0  502  0.14948169715E+03 -0.92680791047E+02  0.10176399415E+04  0.10327272474E+04  0.10100000352E+00 0.  1.
</event>
<event>
 5   0  0.1712793E-03  0.7998954E+03  0.7818609E-02  0.9560168E-01
       -1   -1    0    0    0  501  0.00000000000E+00  0.00000000000E+00  0.27536283736E+03  0.27536283741E+03  0.50400001928E-02 0.  1.
        1   -1    0    0  501    0  0.00000000000E+00  0.00000000000E+00 -0.58089965726E+03  0.58089965728E+03  0.50400001928E-02 0. -1.
    10030    2    1    2    0    0  0.00000000000E+00  0.00000000000E+00 -0.30553681989E+03  0.85626249469E+03  0.79989543785E+03 0.  0.
        4    1    3    3  502    0 -0.20099023124E+03 -0.26163072698E+03  0.89235161974E+02  0.34177805282E+03  0.12699999809E+01 0.  1.
       -4    1    3    3    0  502  0.20099023124E+03  0.26163072698E+03 -0.39477198187E+03  0.51448444187E+03  0.12699999809E+01 0. -1.
</event>
<event>
 5   0  0.2873212E-03  0.8001593E+03  0.7818609E-02  0.9559787E-01
        2   -1    0    0  501    0  0.00000000000E+00  0.00000000000E+00  0.21407696139E+04  0.21407696139E+04  0.25500000920E-02 0.  1.
       -2   -1    0    0    0  501  0.00000000000E+00  0.00000000000E+00 -0.74769236130E+02  0.74769236174E+02  0.25500000920E-02 0. -1.
    10030    2    1    2    0    0  0.00000000000E+00  0.00000000000E+00  0.20660003777E+04  0.22155388500E+04  0.80015925617E+03 0.  0.
        2    1    3    3  502    0 -0.34705790626E+03  0.11930949054E+03  0.14741100086E+04  0.15191064025E+04  0.25500000920E-02 0.  1.
       -2    1    3    3    0  502  0.34705790626E+03 -0.11930949054E+03  0.59189036917E+03  0.69643244752E+03  0.25500000920E-02 0. -1.
</event>
<event>
 5   0  0.1712793E-03  0.7996718E+03  0.7818609E-02  0.9560492E-01
       -1   -1    0    0    0  501  0.00000000000E+00  0.00000000000E+00  0.38215436914E+03  0.38215436917E+03  0.50400001928E-02 0.  1.
        1   -1    0    0  501    0  0.00000000000E+00  0.00000000000E+00 -0.41833553250E+03  0.41833553253E+03  0.50400001928E-02 0. -1.
    10030    2    1    2    0    0  0.00000000000E+00  0.00000000000E+00 -0.36181163357E+02  0.80048990170E+03  0.79967181152E+03 0.  0.
        4    1    3    3  502    0 -0.44168977147E+01 -0.20254167434E+03  0.32697136464E+03  0.38464857340E+03  0.12699999809E+01 0.  1.
       -4    1    3    3    0  502  0.44168977147E+01  0.20254167434E+03 -0.36315252799E+03  0.41584132830E+03  0.12699999809E+01 0. -1.
</event>
<event>
 5   0  0.1712793E-03  0.7999827E+03  0.7818609E-02  0.9560042E-01
       -1   -1    0    0    0  501  0.00000000000E+00  0.00000000000E+00  0.10261610801E+03  0.10261610814E+03  0.50400001928E-02 0.  1.
        1   -1    0    0  501    0  0.00000000000E+00  0.00000000000E+00 -0.15591418954E+04  0.15591418954E+04  0.50400001928E-02 0. -1.
    10030    2    1    2    0    0  0.00000000000E+00  0.00000000000E+00 -0.14565257874E+04  0.16617580035E+04  0.79998268296E+03 0.  0.
        4    1    3    3  502    0 -0.15663036849E+03 -0.22610752531E+03 -0.12502590455E+03  0.30214363314E+03  0.12699999809E+01 0.  1.
       -4    1    3    3    0  502  0.15663036849E+03  0.22610752531E+03 -0.13314998828E+04  0.13596143704E+04  0.12699999809E+01 0. -1.
</event>
<event>
 5   0  0.1637228E-03  0.7896616E+03  0.7818609E-02  0.9575103E-01
       -1   -1    0    0    0  501  0.00000000000E+00  0.00000000000E+00  0.28261309127E+03  0.28261309132E+03  0.50400001928E-02 0. -1.
        1   -1    0    0  501    0  0.00000000000E+00  0.00000000000E+00 -0.55160696950E+03  0.55160696952E+03  0.50400001928E-02 0.  1.
    10030    2    1    2    0    0  0.00000000000E+00  0.00000000000E+00 -0.26899387823E+03  0.83422006084E+03  0.78966157522E+03 0.  0.
        2    1    3    3  502    0 -0.25478889476E+03 -0.17133817007E+03 -0.39673191040E+03  0.50166757733E+03  0.25500000920E-02 0.  1.
       -2    1    3    3    0  502  0.25478889476E+03  0.17133817007E+03  0.12773803217E+03  0.33255248350E+03  0.25500000920E-02 0. -1.
</event>
<event>
 5   0  0.2873212E-03  0.8003779E+03  0.7818609E-02  0.9559470E-01
       -2   -1    0    0    0  501  0.00000000000E+00  0.00000000000E+00  0.14632899425E+03  0.14632899428E+03  0.25500000920E-02 0. -1.
        2   -1    0    0  501    0  0.00000000000E+00  0.00000000000E+00 -0.10944597199E+04  0.10944597199E+04  0.25500000920E-02 0.  1.
    10030    2    1    2    0    0  0.00000000000E+00  0.00000000000E+00 -0.94813072569E+03  0.12407887142E+04  0.80037788597E+03 0.  0.
        2    1    3    3  502    0  0.24949608171E+03  0.20308513946E+03 -0.84307562012E+03  0.90236820085E+03  0.25500000920E-02 0.  1.
       -2    1    3    3    0  502 -0.24949608171E+03 -0.20308513946E+03 -0.10505510557E+03  0.33842051337E+03  0.25500000920E-02 0. -1.
</event>
<event>
 5   0  0.2910501E-03  0.7999680E+03  0.7818609E-02  0.9560063E-01
       -2   -1    0    0    0  501  0.00000000000E+00  0.00000000000E+00  0.25022025354E+03  0.25022025355E+03  0.25500000920E-02 0.  1.
        2   -1    0    0  501    0  0.00000000000E+00  0.00000000000E+00 -0.63938557028E+03  0.63938557028E+03  0.25500000920E-02 0. -1.
    10030    2    1    2    0    0  0.00000000000E+00  0.00000000000E+00 -0.38916531674E+03  0.88960582384E+03  0.79996804815E+03 0.  0.
        1    1    3    3  502    0 -0.17707318737E+03 -0.24943550783E+03  0.92003728980E+02  0.31943336148E+03  0.50400001928E-02 0.  1.
       -1    1    3    3    0  502  0.17707318737E+03  0.24943550783E+03 -0.48116904572E+03  0.57017246236E+03  0.50400001928E-02 0. -1.
</event>
<event>
 5   0  0.1095350E-03  0.7768315E+03  0.7818609E-02  0.9594172E-01
       -4   -1    0    0    0  501  0.00000000000E+00  0.00000000000E+00  0.33519924035E+03  0.33520164622E+03  0.12699999809E+01 0.  1.
        4   -1    0    0  501    0  0.00000000000E+00  0.00000000000E+00 -0.45007605269E+03  0.45007784449E+03  0.12699999809E+01 0. -1.
    10030    2    1    2    0    0  0.00000000000E+00  0.00000000000E+00 -0.11487681234E+03  0.78527949071E+03  0.77683151102E+03 0.  0.
        2    1    3    3  502    0  0.29640812794E+03  0.22001140479E+02 -0.31020761522E+03  0.42961679791E+03  0.25500000920E-02 0. -1.
       -2    1    3    3    0  502 -0.29640812794E+03 -0.22001140479E+02  0.19533080288E+03  0.35566269281E+03  0.25500000920E-02 0.  1.
</event>
<event>
 5   0  0.2910501E-03  0.7997628E+03  0.7818609E-02  0.9560360E-01
       -2   -1    0    0    0  501  0.00000000000E+00  0.00000000000E+00  0.83401595774E+03  0.83401595774E+03  0.25500000920E-02 0.  1.
        2   -1    0    0  501    0  0.00000000000E+00  0.00000000000E+00 -0.19172911540E+03  0.19172911541E+03  0.25500000920E-02 0. -1.
    10030    2    1    2    0    0  0.00000000000E+00  0.00000000000E+00  0.64228684234E+03  0.10257450732E+04  0.79976281938E+03 0.  0.
        1    1    3    3  502    0  0.21306853996E+03 -0.12649748563E+03  0.72368253305E+03  0.76492890210E+03  0.50400001928E-02 0.  1.
       -1    1    3    3    0  502 -0.21306853996E+03  0.12649748563E+03 -0.81395690715E+02  0.26081617106E+03  0.50400001928E-02 0. -1.
</event>
<event>
 5   0  0.1617491E-03  0.7986279E+03  0.7818609E-02  0.9562005E-01
        1   -1    0    0  501    0  0.00000000000E+00  0.00000000000E+00  0.45829622087E+03  0.45829622090E+03  0.50400001928E-02 0. -1.
       -1   -1    0    0    0  501  0.00000000000E+00  0.00000000000E+00 -0.34792267796E+03  0.34792267800E+03  0.50400001928E-02 0.  1.
    10030    2    1    2    0    0  0.00000000000E+00  0.00000000000E+00  0.11037354291E+03  0.80621889890E+03  0.79862794464E+03 0.  0.
        1    1    3    3  502    0 -0.63395743775E+02  0.32013015544E+03 -0.17710757040E+03  0.37130772718E+03  0.50400001928E-02 0.  1.
       -1    1    3    3    0  502  0.63395743775E+02 -0.32013015544E+03  0.28748111330E+03  0.43491117171E+03  0.50400001928E-02 0. -1.
</event>
<event>
 5   0  0.2690809E-03  0.8004195E+03  0.7818609E-02  0.9559410E-01
       -2   -1    0    0    0  501  0.00000000000E+00  0.00000000000E+00  0.15002015691E+03  0.15002015693E+03  0.25500000920E-02 0.  1.
        2   -1    0    0  501    0  0.00000000000E+00  0.00000000000E+00 -0.10676422258E+04  0.10676422258E+04  0.25500000920E-02 0. -1.
    10030    2    1    2    0    0  0.00000000000E+00  0.00000000000E+00 -0.91762206889E+03  0.12176623827E+04  0.80041952562E+03 0.  0.
        5    1    3    3  502    0 -0.35997197713E+03 -0.83291793671E+02 -0.69265519477E+03  0.78505455610E+03  0.46999998093E+01 0. -1.
       -5    1    3    3    0  502  0.35997197713E+03  0.83291793671E+02 -0.22496687412E+03  0.43260782663E+03  0.46999998093E+01 0.  1.
</event>
<event>
 5   0  0.1095350E-03  0.7990639E+03  0.7818609E-02  0.9561373E-01
       -3   -1    0    0    0  501  0.00000000000E+00  0.00000000000E+00  0.49974487741E+03  0.49974488761E+03  0.10100000352E+00 0.  1.
        3   -1    0    0  501    0  0.00000000000E+00  0.00000000000E+00 -0.31941447669E+03  0.31941449266E+03  0.10100000352E+00 0. -1.
    10030    2    1    2    0    0  0.00000000000E+00  0.00000000000E+00  0.18033040071E+03  0.81915938027E+03  0.79906385031E+03 0.  0.
        2    1    3    3  502    0  0.11503881853E+03  0.32204780749E+03  0.30194477209E+03  0.45620101433E+03  0.25500000920E-02 0.  1.
       -2    1    3    3    0  502 -0.11503881853E+03 -0.32204780749E+03 -0.12161437137E+03  0.36295836594E+03  0.25500000920E-02 0. -1.
</event>
<event>
 5   0  0.2768834E-03  0.7994665E+03  0.7818609E-02  0.9560790E-01
       -2   -1    0    0    0  501  0.00000000000E+00  0.00000000000E+00  0.91952000611E+02  0.91952000646E+02  0.25500000920E-02 0. -1.
        2   -1    0    0  501    0  0.00000000000E+00  0.00000000000E+00 -0.17377183318E+04  0.17377183318E+04  0.25500000920E-02 0.  1.
    10030    2    1    2    0    0  0.00000000000E+00  0.00000000000E+00 -0.16457663312E+04  0.18296703325E+04  0.79946651498E+03 0.  0.
        4    1    3    3  502    0 -0.12345543126E+02 -0.36196184080E+02 -0.17335171857E+04  0.17339394517E+04  0.12699999809E+01 0.  1.
       -4    1    3    3    0  502  0.12345543126E+02  0.36196184080E+02  0.87750854463E+02  0.95730880786E+02  0.12699999809E+01 0. -1.
</event>
<event>
 5   0  0.2768834E-03  0.8017601E+03  0.7818609E-02  0.9557473E-01
       -2   -1    0    0    0  501  0.00000000000E+00  0.00000000000E+00  0.70865434072E+02  0.70865434118E+02  0.25500000920E-02 0.  1.
        2   -1    0    0  501    0  0.00000000000E+00  0.00000000000E+00 -0.22677461284E+04  0.22677461284E+04  0.25500000920E-02 0. -1.
    10030    2    1    2    0    0  0.00000000000E+00  0.00000000000E+00 -0.21968806943E+04  0.23386115625E+04  0.80176009830E+03 0.  0.
        4    1    3    3  502    0  0.73079127864E+02  0.75108396493E+02  0.30199947126E+02  0.10906640115E+03  0.12699999809E+01 0.  1.
       -4    1    3    3    0  502 -0.73079127864E+02 -0.75108396493E+02 -0.22270806414E+04  0.22295451613E+04  0.12699999809E+01 0. -1.
</event>
<event>
 5   0  0.1637228E-03  0.8003799E+03  0.7818609E-02  0.9559467E-01
        1   -1    0    0  501    0  0.00000000000E+00  0.00000000000E+00  0.48390151170E+03  0.48390151173E+03  0.50400001928E-02 0. -1.
       -1   -1    0    0    0  501  0.00000000000E+00  0.00000000000E+00 -0.33095991863E+03  0.33095991867E+03  0.50400001928E-02 0.  1.
    10030    2    1    2    0    0  0.00000000000E+00  0.00000000000E+00  0.15294159307E+03  0.81486143039E+03  0.80037992219E+03 0.  0.
        2    1    3    3  502    0 -0.19596383048E+03 -0.19790839642E+03 -0.21610032362E+03  0.35251795146E+03  0.25500000920E-02 0.  1.
       -2    1    3    3    0  502  0.19596383048E+03  0.19790839642E+03  0.36904191669E+03  0.46234347893E+03  0.25500000920E-02 0. -1.
</event>
<event>
 5   0  0.1617491E-03  0.8143074E+03  0.7818609E-02  0.9539536E-01
       -1   -1    0    0    0  501  0.00000000000E+00  0.00000000000E+00  0.17074977318E+03  0.17074977325E+03  0.50400001928E-02 0. -1.
        1   -1    0    0  501    0  0.00000000000E+00  0.00000000000E+00 -0.97086002816E+03  0.97086002818E+03  0.50400001928E-02 0.  1.
    10030    2    1    2    0    0  0.00000000000E+00  0.00000000000E+00 -0.80011025498E+03  0.11416098014E+04  0.81430738581E+03 0.  0.
        1    1    3    3  502    0  0.94396712718E+02 -0.25864022863E+03 -0.82056369653E+03  0.86552312929E+03  0.50400001928E-02 0.  1.
       -1    1    3    3    0  502 -0.94396712718E+02  0.25864022863E+03  0.20453441547E+02  0.27608667214E+03  0.50400001928E-02 0. -1.
</event>
<event>
 5   0  0.1640035E-03  0.7993189E+03  0.7818609E-02  0.9561004E-01
        1   -1    0    0  501    0  0.00000000000E+00  0.00000000000E+00  0.12503420435E+04  0.12503420435E+04  0.50400001928E-02 0.  1.
       -1   -1    0    0    0  501  0.00000000000E+00  0.00000000000E+00 -0.12774718159E+03  0.12774718169E+03  0.50400001928E-02 0. -1.
    10030    2    1    2    0    0  0.00000000000E+00  0.00000000000E+00  0.11225948619E+04  0.13780892252E+04  0.79931889043E+03 0.  0.
        5    1    3    3  502    0 -0.12044327450E+03  0.21914375827E+03  0.10987430956E+04  0.11268491688E+04  0.46999998093E+01 0.  1.
       -5    1    3    3    0  502  0.12044327450E+03 -0.21914375827E+03  0.23851766297E+02  0.25124005635E+03  0.46999998093E+01 0. -1.
</event>
<event>
 5   0  0.2768834E-03  0.7995957E+03  0.7818609E-02  0.9560602E-01
        2   -1    0    0  501    0  0.00000000000E+00  0.00000000000E+00  0.77000881422E+03  0.77000881423E+03  0.25500000920E-02 0.  1.
       -2   -1    0    0    0  501  0.00000000000E+00  0.00000000000E+00 -0.20757987089E+03  0.20757987091E+03  0.25500000920E-02 0. -1.
    10030    2    1    2    0    0  0.00000000000E+00  0.00000000000E+00  0.56242894333E+03  0.97758868514E+03  0.79959572348E+03 0.  0.
        4    1    3    3  502    0  0.19452484791E+02 -0.11299777577E+03  0.74947299658E+03  0.75819409256E+03  0.12699999809E+01 0.  1.
       -4    1    3    3    0  502 -0.19452484791E+02  0.11299777577E+03 -0.18704405325E+03  0.21939459257E+03  0.12699999809E+01 0. -1.
</event>
<event>
 5   0  0.2690809E-03  0.8024865E+03  0.7818609E-02  0.9556425E-01
       -2   -1    0    0    0  501  0.00000000000E+00  0.00000000000E+00  0.11743898057E+03  0.11743898059E+03  0.25500000920E-02 0. -1.
        2   -1    0    0  501    0  0.00000000000E+00  0.00000000000E+00 -0.13708920456E+04  0.13708920456E+04  0.25500000920E-02 0.  1.
    10030    2    1    2    0    0  0.00000000000E+00  0.00000000000E+00 -0.12534530650E+04  0.14883310262E+04  0.80248654649E+03 0.  0.
        5    1    3    3  502    0  0.40892972805E+02  0.28296254863E+03 -0.10466984675E+03  0.30449615099E+03  0.46999998093E+01 0. -1.
       -5    1    3    3    0  502 -0.40892972805E+02 -0.28296254863E+03 -0.11487832183E+04  0.11838348752E+04  0.46999998093E+01 0.  1.
</event>
<event>
 5   0  0.2910501E-03  0.8003521E+03  0.7818609E-02  0.9559508E-01
       -2   -1    0    0    0  501  0.00000000000E+00  0.00000000000E+00  0.21138736290E+03  0.21138736291E+03  0.25500000920E-02 0.  1.
        2   -1    0    0  501    0  0.00000000000E+00  0.00000000000E+00 -0.75757075291E+03  0.75757075291E+03  0.25500000920E-02 0. -1.
    10030    2    1    2    0    0  0.00000000000E+00  0.00000000000E+00 -0.54618339001E+03  0.96895811583E+03  0.80035213169E+03 0.  0.
        1    1    3    3  502    0  0.15371077345E+03  0.14034159462E+02 -0.72008270411E+03  0.73643944781E+03  0.50400001928E-02 0. -1.
       -1    1    3    3    0  502 -0.15371077345E+03 -0.14034159462E+02  0.17389931410E+03  0.23251866802E+03  0.50400001928E-02 0.  1.
</event>
<event>
 5   0  0.2910501E-03  0.8011587E+03  0.7818609E-02  0.9558341E-01
        2   -1    0    0  501    0  0.00000000000E+00  0.00000000000E+00  0.28625190929E+03  0.28625190930E+03  0.25500000920E-02 0. -1.
       -2   -1    0    0    0  501  0.00000000000E+00  0.00000000000E+00 -0.56056856267E+03  0.56056856268E+03  0.25500000920E-02 0.  1.
    10030    2    1    2    0    0  0.00000000000E+00  0.00000000000E+00 -0.27431665338E+03  0.84682047198E+03  0.80115871427E+03 0.  0.
        1    1    3    3  502    0 -0.24886183099E+03 -0.18075312599E+03 -0.40841684179E+03  0.51128096010E+03  0.50400001928E-02 0.  1.
       -1    1    3    3    0  502  0.24886183099E+03  0.18075312599E+03  0.13410018841E+03  0.33553951188E+03  0.50400001928E-02 0. -1.
</event>
<event>
 5   0  0.1640035E-03  0.7996244E+03  0.7818609E-02  0.9560561E-01
       -1   -1    0    0    0  501  0.00000000000E+00  0.00000000000E+00  0.17297778765E+04  0.17297778765E+04  0.50400001928E-02 0. -1.
        1   -1    0    0  501    0  0.00000000000E+00  0.00000000000E+00 -0.92410598846E+02  0.92410598983E+02  0.50400001928E-02 0.  1.
    10030    2    1    2    0    0  0.00000000000E+00  0.00000000000E+00  0.16373672776E+04  0.18221884755E+04  0.79962443576E+03 0.  0.
        5    1    3    3  502    0  0.18123961234E+03 -0.17524740617E+03  0.15257315116E+04  0.15464275560E+04  0.46999998093E+01 0. -1.
       -5    1    3    3    0  502 -0.18123961234E+03  0.17524740617E+03  0.11163576602E+03  0.27576091946E+03  0.46999998093E+01 0.  1.
</event>
<event>
 5   0  0.1640035E-03  0.7999608E+03  0.7818609E-02  0.9560074E-01
        1   -1    0    0  501    0  0.00000000000E+00  0.00000000000E+00  0.91828049755E+03  0.91828049756E+03  0.50400001928E-02 0. -1.
       -1   -1    0    0    0  501  0.00000000000E+00  0.00000000000E+00 -0.17422163513E+03  0.17422163520E+03  0.50400001928E-02 0.  1.
    10030    2    1    2    0    0  0.00000000000E+00  0.00000000000E+00  0.74405886242E+03  0.10925021328E+04  0.79996082363E+03 0.  0.
        5    1    3    3  502    0 -0.45744620169E+02 -0.20914777450E+03 -0.89338647495E+02  0.23203199302E+03  0.46999998093E+01 0.  1.
       -5    1    3    3    0  502  0.45744620169E+02  0.20914777450E+03  0.83339750992E+03  0.86047013974E+03  0.46999998093E+01 0. -1.
</event>
<event>
 5   0  0.2768834E-03  0.7951094E+03  0.7818609E-02  0.9567123E-01
        2   -1    0    0  501    0  0.00000000000E+00  0.00000000000E+00  0.34475342914E+03  0.34475342915E+03  0.25500000920E-02 0. -1.
       -2   -1    0    0    0  501  0.00000000000E+00  0.00000000000E+00 -0.45844283125E+03  0.45844283126E+03  0.25500000920E-02 0.  1.
    10030    2    1    2    0    0  0.00000000000E+00  0.00000000000E+00 -0.11368940211E+03  0.80319626041E+03  0.79510939662E+03 0.  0.
        4    1    3    3  502    0 -0.33397778862E+03  0.18327653744E+03 -0.17165216420E+03  0.41784869372E+03  0.12699999809E+01 0. -1.
       -4    1    3    3    0  502  0.33397778862E+03 -0.18327653744E+03  0.57962762087E+02  0.38534756669E+03  0.12699999809E+01 0.  1.
</event>
<event>
 5   0  0.1712793E-03  0.7805152E+03  0.7818609E-02  0.9588657E-01
        1   -1    0    0  501    0  0.00000000000E+00  0.00000000000E+00  0.80291774527E+03  0.80291774529E+03  0.50400001928E-02 0. -1.
       -1   -1    0    0    0  501  0.00000000000E+00  0.00000000000E+00 -0.18968441107E+03  0.18968441114E+03  0.50400001928E-02 0.  1.
    10030    2    1    2    0    0  0.00000000000E+00  0.00000000000E+00  0.61323333421E+03  0.99260215643E+03  0.78051516242E+03 0.  0.
        4    1    3    3  502    0 -0.26988525794E+03 -0.24627266835E+03  0.48103848879E+03  0.60405953368E+03  0.12699999809E+01 0.  1.
       -4    1    3    3    0  502  0.26988525794E+03  0.24627266835E+03  0.13219484541E+03  0.38854262274E+03  0.12699999809E+01 0. -1.
</event>
<event>
 5   0  0.2768834E-03  0.7966028E+03  0.7818609E-02  0.9564947E-01
        2   -1    0    0  501    0  0.00000000000E+00  0.00000000000E+00  0.17329205216E+04  0.17329205216E+04  0.25500000920E-02 0.  1.
       -2   -1    0    0    0  501  0.00000000000E+00  0.00000000000E+00 -0.91547200535E+02  0.91547200570E+02  0.25500000920E-02 0. -1.
    10030    2    1    2    0    0  0.00000000000E+00  0.00000000000E+00  0.16413733211E+04  0.18244677222E+04  0.79660284342E+03 0.  0.
        4    1    3    3  502    0  0.30222197443E+03 -0.21811837842E+03  0.49899253143E+03  0.62282333623E+03  0.12699999809E+01 0. -1.
       -4    1    3    3    0  502 -0.30222197443E+03  0.21811837842E+03  0.11423807897E+04  0.12016443860E+04  0.12699999809E+01 0.  1.
</event>
<event>
 5   0  0.1656051E-03  0.8009136E+03  0.7818609E-02  0.9558696E-01
        1   -1    0    0  501    0  0.00000000000E+00  0.00000000000E+00  0.34581135687E+03  0.34581135691E+03  0.50400001928E-02 0.  1.
       -1   -1    0    0    0  501  0.00000000000E+00  0.00000000000E+00 -0.46373733471E+03  0.46373733474E+03  0.50400001928E-02 0. -1.
    10030    2    1    2    0    0  0.00000000000E+00  0.00000000000E+00 -0.11792597784E+03  0.80954869165E+03  0.80091357080E+03 0.  0.
        3    1    3    3  502    0 -0.32756070422E+03 -0.18262835400E+03  0.82966353874E+02  0.38409967028E+03  0.10100000352E+00 0.  1.
       -3    1    3    3    0  502  0.32756070422E+03  0.18262835400E+03 -0.20089233171E+03  0.42544902136E+03  0.10100000352E+00 0. -1.
</event>
<event>
 5   0  0.1712793E-03  0.7992544E+03  0.7818609E-02  0.9561097E-01
        1   -1    0    0  501    0  0.00000000000E+00  0.00000000000E+00  0.20028759949E+03  0.20028759955E+03  0.50400001928E-02 0.  1.
       -1   -1    0    0    0  501  0.00000000000E+00  0.00000000000E+00 -0.79736291620E+03  0.79736291622E+03  0.50400001928E-02 0. -1.
    10030    2    1    2    0    0  0.00000000000E+00  0.00000000000E+00 -0.59707531672E+03  0.99765051577E+03  0.79925441368E+03 0.  0.
        4    1    3    3  502    0  0.14069958811E+03 -0.23646967401E+03 -0.66027793362E+03  0.71532009852E+03  0.12699999809E+01 0. -1.
       -4    1    3    3    0  502 -0.14069958811E+03  0.23646967401E+03  0.63202616899E+02  0.28233041725E+03  0.12699999809E+01 0.  1.
</event>
<event>
 5   0  0.1637228E-03  0.8004618E+03  0.7818609E-02  0.9559349E-01
       -1   -1    0    0    0  501  0.00000000000E+00  0.00000000000E+00  0.29655794681E+03  0.29655794685E+03  0.50400001928E-02 0. -1.
        1   -1    0    0  501    0  0.00000000000E+00  0.00000000000E+00 -0.54014658029E+03  0.54014658031E+03  0.50400001928E-02 0.  1.
    10030    2    1    2    0    0  0.00000000000E+00  0.00000000000E+00 -0.24358863348E+03  0.83670452716E+03  0.80046176886E+03 0.  0.
        2    1    3    3  502    0  0.21826910686E+03  0.12558564563E+03 -0.44696058967E+03  0.51301747156E+03  0.25500000920E-02 0.  1.
       -2    1    3    3    0  502 -0.21826910686E+03 -0.12558564563E+03  0.20337195619E+03  0.32368705561E+03  0.25500000920E-02 0. -1.
</event>
<event>
 5   0  0.2910501E-03  0.7994139E+03  0.7818609E-02  0.9560866E-01
        2   -1    0    0  501    0  0.00000000000E+00  0.00000000000E+00  0.11160906149E+04  0.11160906149E+04  0.25500000920E-02 0.  1.
       -2   -1    0    0    0  501  0.00000000000E+00  0.00000000000E+00 -0.14314756048E+03  0.14314756050E+03  0.25500000920E-02 0. -1.
    10030    2    1    2    0    0  0.00000000000E+00  0.00000000000E+00  0.97294305438E+03  0.12592381754E+04  0.79941390733E+03 0.  0.
        1    1    3    3  502    0  0.15543554174E+03  0.59068027016E+02  0.10590230353E+04  0.10719976814E+04  0.50400001928E-02 0.  1.
       -1    1    3    3    0  502 -0.15543554174E+03 -0.59068027016E+02 -0.86079980951E+02  0.18724049401E+03  0.50400001928E-02 0. -1.
</event>
<event>
 5   0  0.1617491E-03  0.8001157E+03  0.7818609E-02  0.9559850E-01
        1   -1    0    0  501    0  0.00000000000E+00  0.00000000000E+00  0.55645361234E+03  0.55645361236E+03  0.50400001928E-02 0.  1.
       -1   -1    0    0    0  501  0.00000000000E+00  0.00000000000E+00 -0.28761839641E+03  0.28761839646E+03  0.50400001928E-02 0. -1.
    10030    2    1    2    0    0  0.00000000000E+00  0.00000000000E+00  0.26883521593E+03  0.84407200881E+03  0.80011573084E+03 0.  0.
        1    1    3    3  502    0  0.16547216887E+03  0.36370369407E+03  0.11372146994E+03  0.41544432659E+03  0.50400001928E-02 0.  1.
       -1    1    3    3    0  502 -0.16547216887E+03 -0.36370369407E+03  0.15511374598E+03  0.42862768222E+03  0.50400001928E-02 0. -1.
</event>
<event>
 5   0  0.2763587E-03  0.7985882E+03  0.7818609E-02  0.9562063E-01
        2   -1    0    0  501    0  0.00000000000E+00  0.00000000000E+00  0.50225184516E+03  0.50225184516E+03  0.25500000920E-02 0.  1.
       -2   -1    0    0    0  501  0.00000000000E+00  0.00000000000E+00 -0.31744192436E+03  0.31744192437E+03  0.25500000920E-02 0. -1.
    10030    2    1    2    0    0  0.00000000000E+00  0.00000000000E+00  0.18480992080E+03  0.81969376953E+03  0.79858823493E+03 0.  0.
        3    1    3    3  502    0  0.94900726592E+02 -0.32017584395E+03  0.31708982706E+03  0.46050481820E+03  0.10100000352E+00 0.  1.
       -3    1    3    3    0  502 -0.94900726592E+02  0.32017584395E+03 -0.13227990626E+03  0.35918895133E+03  0.10100000352E+00 0. -1.
</event>
<event>
 5   0  0.2873212E-03  0.7978715E+03  0.7818609E-02  0.9563103E-01
       -2   -1    0    0    0  501  0.00000000000E+00  0.00000000000E+00  0.21744394361E+03  0.21744394362E+03  0.25500000920E-02 0.  1.
        2   -1    0    0  501    0  0.00000000000E+00  0.00000000000E+00 -0.73191154845E+03  0.73191154845E+03  0.25500000920E-02 0. -1.
    10030    2    1    2    0    0  0.00000000000E+00  0.00000000000E+00 -0.51446760484E+03  0.94935549207E+03  0.79787150212E+03 0.  0.
        2    1    3    3  502    0  0.11758003301E+03 -0.37841760995E+03 -0.20238677672E+03  0.44495545741E+03  0.25500000920E-02 0.  1.
       -2    1    3    3    0  502 -0.11758003301E+03  0.37841760995E+03 -0.31208082812E+03  0.50440003466E+03  0.25500000920E-02 0. -1.
</event>
<event>
 5   0  0.2768834E-03  0.7986031E+03  0.7818609E-02  0.9562041E-01
        2   -1    0    0  501    0  0.00000000000E+00  0.00000000000E+00  0.97097688446E+03  0.97097688447E+03  0.25500000920E-02 0. -1.
       -2   -1    0    0    0  501  0.00000000000E+00  0.00000000000E+00 -0.16420754392E+03  0.16420754394E+03  0.25500000920E-02 0.  1.
    10030    2    1    2    0    0  0.00000000000E+00  0.00000000000E+00  0.80676934055E+03  0.11351844284E+04  0.79860310396E+03 0.  0.
        4    1    3    3  502    0  0.22769944192E+03 -0.17207618836E+03  0.80033395855E+03  0.84970189393E+03  0.12699999809E+01 0. -1.
       -4    1    3    3    0  502 -0.22769944192E+03  0.17207618836E+03  0.64353819978E+01  0.28548253447E+03  0.12699999809E+01 0.  1.
</event>
<event>
 5   0  0.1637228E-03  0.7997298E+03  0.7818609E-02  0.9560408E-01
        1   -1    0    0  501    0  0.00000000000E+00  0.00000000000E+00  0.40314865489E+03  0.40314865492E+03  0.50400001928E-02 0.  1.
       -1   -1    0    0    0  501  0.00000000000E+00  0.00000000000E+00 -0.39660785550E+03  0.39660785554E+03  0.50400001928E-02 0. -1.
    10030    2    1    2    0    0  0.00000000000E+00  0.00000000000E+00  0.65407993885E+01  0.79975651046E+03  0.79972976309E+03 0.  0.
        2    1    3    3  502    0 -0.39509123372E+03  0.49296464987E+02  0.40213468731E+02  0.40018039369E+03  0.25500000920E-02 0.  1.
       -2    1    3    3    0  502  0.39509123372E+03 -0.49296464987E+02 -0.33672669342E+02  0.39957611677E+03  0.25500000920E-02 0. -1.
</event>
<event>
 5   0  0.1617491E-03  0.7998057E+03  0.7818609E-02  0.9560298E-01
        1   -1    0    0  501    0  0.00000000000E+00  0.00000000000E+00  0.10123947852E+04  0.10123947853E+04  0.50400001928E-02 0. -1.
       -1   -1    0    0    0  501  0.00000000000E+00  0.00000000000E+00 -0.15796435984E+03  0.15796435992E+03  0.50400001928E-02 0.  1.
    10030    2    1    2    0    0  0.00000000000E+00  0.00000000000E+00  0.85443042541E+03  0.11703591452E+04  0.79980571193E+03 0.  0.
        1    1    3    3  502    0  0.33628839606E+03 -0.19805307138E+02  0.11187344406E+03  0.35496169234E+03  0.50400001928E-02 0.  1.
       -1    1    3    3    0  502 -0.33628839606E+03  0.19805307138E+02  0.74255698135E+03  0.81539745284E+03  0.50400001928E-02 0. -1.
</event>
<event>
 5   0  0.2768834E-03  0.8014938E+03  0.7818609E-02  0.9557857E-01
        2   -1    0    0  501    0  0.00000000000E+00  0.00000000000E+00  0.12528551851E+04  0.12528551852E+04  0.25500000920E-02 0.  1.
       -2   -1    0    0    0  501  0.00000000000E+00  0.00000000000E+00 -0.12818565567E+03  0.12818565570E+03  0.25500000920E-02 0. -1.
    10030    2    1    2    0    0  0.00000000000E+00  0.00000000000E+00  0.11246695295E+04  0.13810408408E+04  0.80149376389E+03 0.  0.
        4    1    3    3  502    0 -0.16178763432E+03  0.32743775817E+03  0.27812660839E+03  0.45907161455E+03  0.12699999809E+01 0. -1.
       -4    1    3    3    0  502  0.16178763432E+03 -0.32743775817E+03  0.84654292109E+03  0.92196922630E+03  0.12699999809E+01 0.  1.
</event>
<event>
 5   0  0.2690809E-03  0.8003507E+03  0.7818609E-02  0.9559510E-01
        2   -1    0    0  501    0  0.00000000000E+00  0.00000000000E+00  0.12981740005E+04  0.12981740005E+04  0.25500000920E-02 0.  1.
       -2   -1    0    0    0  501  0.00000000000E+00  0.00000000000E+00 -0.12335811192E+03  0.12335811195E+03  0.25500000920E-02 0. -1.
    10030    2    1    2    0    0  0.00000000000E+00  0.00000000000E+00  0.11748158885E+04  0.14215321124E+04  0.80035065732E+03 0.  0.
        5    1    3    3  502    0  0.23166204084E+03  0.19105846832E+03  0.10571534856E+04  0.10989841771E+04  0.46999998093E+01 0.  1.
       -5    1    3    3    0  502 -0.23166204084E+03 -0.19105846832E+03  0.11766240293E+03  0.32254793527E+03  0.46999998093E+01 0. -1.
</event>
<event>
 5   0  0.1095350E-03  0.8012666E+03  0.7818609E-02  0.9558186E-01
        4   -1    0    0  501    0  0.00000000000E+00  0.00000000000E+00  0.88004537028E+03  0.88004628666E+03  0.12699999809E+01 0. -1.
       -4   -1    0    0    0  501  0.00000000000E+00  0.00000000000E+00 -0.18238173456E+03  0.18238615628E+03  0.12699999809E+01 0.  1.
    10030    2    1    2    0    0  0.00000000000E+00  0.00000000000E+00  0.69766363572E+03  0.10624324429E+04  0.80126658934E+03 0.  0.
        5    1    3    3  502    0  0.34142068845E+03  0.28211928107E+02  0.73492370161E+02  0.35041007100E+03  0.46999998093E+01 0.  1.
       -5    1    3    3    0  502 -0.34142068845E+03 -0.28211928107E+02  0.62417126556E+03  0.71202237193E+03  0.46999998093E+01 0. -1.
</event>
<event>
 5   0  0.1095350E-03  0.8004873E+03  0.7818609E-02  0.9559312E-01
        3   -1    0    0  501    0  0.00000000000E+00  0.00000000000E+00  0.15590886488E+04  0.15590886521E+04  0.10100000352E+00 0. -1.
       -3   -1    0    0    0  501  0.00000000000E+00  0.00000000000E+00 -0.10274909519E+03  0.10274914483E+03  0.10100000352E+00 0.  1.
    10030    2    1    2    0    0  0.00000000000E+00  0.00000000000E+00  0.14563395537E+04  0.16618377969E+04  0.80048733146E+03 0.  0.
        4    1    3    3  502    0 -0.34426154249E+03 -0.12455701010E+03  0.39237241390E+03  0.53664530418E+03  0.12699999809E+01 0.  1.
       -4    1    3    3    0  502  0.34426154249E+03  0.12455701010E+03  0.10639671398E+04  0.11251924928E+04  0.12699999809E+01 0. -1.
</event>
<event>
 5   0  0.1656051E-03  0.8188992E+03  0.7818609E-02  0.9533057E-01
        1   -1    0    0  501    0  0.00000000000E+00  0.00000000000E+00  0.55353143106E+03  0.55353143108E+03  0.50400001928E-02 0.  1.
       -1   -1    0    0    0  501  0.00000000000E+00  0.00000000000E+00 -0.30287165610E+03  0.30287165614E+03  0.50400001928E-02 0. -1.
    10030    2    1    2    0    0  0.00000000000E+00  0.00000000000E+00  0.25065977496E+03  0.85640308722E+03  0.81889921542E+03 0.  0.
        3    1    3    3  502    0 -0.38961543673E+03 -0.12387077318E+03  0.10183282918E+03  0.42132421279E+03  0.10100000352E+00 0.  1.
       -3    1    3    3    0  502  0.38961543673E+03  0.12387077318E+03  0.14882694578E+03  0.43507887443E+03  0.10100000352E+00 0. -1.
</event>
<event>
 5   0  0.2873212E-03  0.7961881E+03  0.7818609E-02  0.9565551E-01
       -2   -1    0    0    0  501  0.00000000000E+00  0.00000000000E+00  0.23851421317E+03  0.23851421319E+03  0.25500000920E-02 0.  1.
        2   -1    0    0  501    0  0.00000000000E+00  0.00000000000E+00 -0.66444210710E+03  0.66444210711E+03  0.25500000920E-02 0. -1.
    10030    2    1    2    0    0  0.00000000000E+00  0.00000000000E+00 -0.42592789393E+03  0.90295632030E+03  0.79618813451E+03 0.  0.
        2    1    3    3  502    0 -0.31331954719E+02  0.24506676035E+03  0.14104848653E+03  0.28448916319E+03  0.25500000920E-02 0.  1.
       -2    1    3    3    0  502  0.31331954719E+02 -0.24506676035E+03 -0.56697638046E+03  0.61846715711E+03  0.25500000920E-02 0. -1.
</event>
<event>
 5   0  0.2768834E-03  0.7994087E+03  0.7818609E-02  0.9560873E-01
       -2   -1    0    0    0  501  0.00000000000E+00  0.00000000000E+00  0.27104876901E+03  0.27104876902E+03  0.25500000920E-02 0.  1.
        2   -1    0    0  501    0  0.00000000000E+00  0.00000000000E+00 -0.58942738096E+03  0.58942738096E+03  0.25500000920E-02 0. -1.
    10030    2    1    2    0    0  0.00000000000E+00  0.00000000000E+00 -0.31837861195E+03  0.86047614998E+03  0.79940869656E+03 0.  0.
        4    1    3    3  502    0 -0.14879399680E+02  0.14013630318E+03  0.24341879534E+03  0.28127193751E+03  0.12699999809E+01 0.  1.
       -4    1    3    3    0  502  0.14879399680E+02 -0.14013630318E+03 -0.56179740729E+03  0.57920421247E+03  0.12699999809E+01 0. -1.
</event>
<event>
 5   0  0.1617491E-03  0.8001053E+03  0.7818609E-02  0.9559865E-01
        1   -1    0    0  501    0  0.00000000000E+00  0.00000000000E+00  0.10437741920E+04  0.10437741920E+04  0.50400001928E-02 0. -1.
       -1   -1    0    0    0  501  0.00000000000E+00  0.00000000000E+00 -0.15333022417E+03  0.15333022425E+03  0.50400001928E-02 0.  1.
    10030    2    1    2    0    0  0.00000000000E+00  0.00000000000E+00  0.89044396779E+03  0.11971044162E+04  0.80010532029E+03 0.  0.
        1    1    3    3  502    0 -0.14412562105E+03  0.36550620725E+03  0.33250911693E+03  0.51471282775E+03  0.50400001928E-02 0.  1.
       -1    1    3    3    0  502  0.14412562105E+03 -0.36550620725E+03  0.55793485086E+03  0.68239158847E+03  0.50400001928E-02 0. -1.
</event>
<event>
 5   0  0.1617491E-03  0.8001720E+03  0.7818609E-02  0.9559768E-01
        1   -1    0    0  501    0  0.00000000000E+00  0.00000000000E+00  0.21149785144E+03  0.21149785150E+03  0.50400001928E-02 0.  1.
       -1   -1    0    0    0  501  0.00000000000E+00  0.00000000000E+00 -0.75683414149E+03  0.75683414150E+03  0.50400001928E-02 0. -1.
    10030    2    1    2    0    0  0.00000000000E+00  0.00000000000E+00 -0.54533629005E+03  0.96833199300E+03  0.80017196865E+03 0.  0.
        1    1    3    3  502    0  0.46096446714E+02 -0.37607254455E+03 -0.11715804930E+03  0.39658725359E+03  0.50400001928E-02 0.  1.
       -1    1    3    3    0  502 -0.46096446714E+02  0.37607254455E+03 -0.42817824075E+03  0.57174473941E+03  0.50400001928E-02 0. -1.
</event>
<event>
 5   0  0.2763587E-03  0.7971097E+03  0.7818609E-02  0.9564210E-01
        2   -1    0    0  501    0  0.00000000000E+00  0.00000000000E+00  0.11224796751E+04  0.11224796751E+04  0.25500000920E-02 0.  1.
       -2   -1    0    0    0  501  0.00000000000E+00  0.00000000000E+00 -0.14151343424E+03  0.14151343426E+03  0.25500000920E-02 0. -1.
    10030    2    1    2    0    0  0.00000000000E+00  0.00000000000E+00  0.98096624083E+03  0.12639931093E+04  0.79710966296E+03 0.  0.
        3    1    3    3  502    0 -0.25595822555E+03 -0.29316970584E+03  0.35423241230E+03  0.52625440785E+03  0.10100000352E+00 0. -1.
       -3    1    3    3    0  502  0.25595822555E+03  0.29316970584E+03  0.62673382853E+03  0.73773870149E+03  0.10100000352E+00 0.  1.
</event>
<event>
 5   0  0.1712793E-03  0.8023145E+03  0.7818609E-02  0.9556673E-01
       -1   -1    0    0    0  501  0.00000000000E+00  0.00000000000E+00  0.70596672428E+03  0.70596672429E+03  0.50400001928E-02 0. -1.
        1   -1    0    0  501    0  0.00000000000E+00  0.00000000000E+00 -0.22795289059E+03  0.22795289064E+03  0.50400001928E-02 0.  1.
    10030    2    1    2    0    0  0.00000000000E+00  0.00000000000E+00  0.47801383369E+03  0.93391961494E+03  0.80231454054E+03 0.  0.
        4    1    3    3  502    0 -0.24864774605E+03  0.13667296185E+03 -0.91094807477E+02  0.29800180699E+03  0.12699999809E+01 0.  1.
       -4    1    3    3    0  502  0.24864774605E+03 -0.13667296185E+03  0.56910864117E+03  0.63591780795E+03  0.12699999809E+01 0. -1.
</event>
<event>
 5   0  0.1617491E-03  0.8036331E+03  0.7818609E-02  0.9554773E-01
       -1   -1    0    0    0  501  0.00000000000E+00  0.00000000000E+00  0.25229585060E+03  0.25229585065E+03  0.50400001928E-02 0.  1.
        1   -1    0    0  501    0  0.00000000000E+00  0.00000000000E+00 -0.63994931326E+03  0.63994931328E+03  0.50400001928E-02 0. -1.
    10030    2    1    2    0    0  0.00000000000E+00  0.00000000000E+00 -0.38765346266E+03  0.89224516394E+03  0.80363314109E+03 0.  0.
        1    1    3    3  502    0 -0.23344431269E+03  0.24477659701E+03 -0.43464079127E+03  0.55074898732E+03  0.50400001928E-02 0. -1.
       -1    1    3    3    0  502  0.23344431269E+03 -0.24477659701E+03  0.46987328603E+02  0.34149617662E+03  0.50400001928E-02 0.  1.
</event>
<event>
 5   0  0.1095350E-03  0.8013382E+03  0.7818609E-02  0.9558082E-01
       -3   -1    0    0    0  501  0.00000000000E+00  0.00000000000E+00  0.29667573952E+03  0.29667575671E+03  0.10100000352E+00 0.  1.
        3   -1    0    0  501    0  0.00000000000E+00  0.00000000000E+00 -0.54111505186E+03  0.54111506129E+03  0.10100000352E+00 0. -1.
    10030    2    1    2    0    0  0.00000000000E+00  0.00000000000E+00 -0.24443931234E+03  0.83779081800E+03  0.80133817911E+03 0.  0.
        1    1    3    3  502    0 -0.40016332887E+03 -0.52209131599E+01 -0.14254015719E+03  0.42482425089E+03  0.50400001928E-02 0. -1.
       -1    1    3    3    0  502  0.40016332887E+03  0.52209131599E+01 -0.10189915515E+03  0.41296656711E+03  0.50400001928E-02 0.  1.
</event>
<event>
 5   0  0.1617491E-03  0.8007965E+03  0.7818609E-02  0.9558865E-01
        1   -1    0    0  501    0  0.00000000000E+00  0.00000000000E+00  0.15535870730E+04  0.15535870730E+04  0.50400001928E-02 0.  1.
       -1   -1    0    0    0  501  0.00000000000E+00  0.00000000000E+00 -0.10319264471E+03  0.10319264483E+03  0.50400001928E-02 0. -1.
    10030    2    1    2    0    0  0.00000000000E+00  0.00000000000E+00  0.14503944283E+04  0.16567797179E+04  0.80079650090E+03 0.  0.
        1    1    3    3  502    0  0.53609686977E+02 -0.14075016178E+03  0.14927455047E+04  0.15003245477E+04  0.50400001928E-02 0.  1.
       -1    1    3    3    0  502 -0.53609686977E+02  0.14075016178E+03 -0.42351076383E+02  0.15645517018E+03  0.50400001928E-02 0. -1.
</event>
<event>
 5   0  0.1656051E-03  0.7999219E+03  0.7818609E-02  0.9560130E-01
        1   -1    0    0  501    0  0.00000000000E+00  0.00000000000E+00  0.63195836989E+03  0.63195836991E+03  0.50400001928E-02 0. -1.
       -1   -1    0    0    0  501  0.00000000000E+00  0.00000000000E+00 -0.25313181938E+03  0.25313181943E+03  0.50400001928E-02 0.  1.
    10030    2    1    2    0    0  0.00000000000E+00  0.00000000000E+00  0.37882655051E+03  0.88509018934E+03  0.79992192612E+03 0.  0.
        3    1    3    3  502    0 -0.32374889320E+03  0.16048268666E+03 -0.30926568280E+00  0.36134214315E+03  0.10100000352E+00 0.  1.
       -3    1    3    3    0  502  0.32374889320E+03 -0.16048268666E+03  0.37913581619E+03  0.52374804619E+03  0.10100000352E+00 0. -1.
</event>
<event>
 5   0  0.2690809E-03  0.7998901E+03  0.7818609E-02  0.9560176E-01
       -2   -1    0    0    0  501  0.00000000000E+00  0.00000000000E+00  0.31060356908E+03  0.31060356909E+03  0.25500000920E-02 0. -1.
        2   -1    0    0  501    0  0.00000000000E+00  0.00000000000E+00 -0.51498461356E+03  0.51498461357E+03  0.25500000920E-02 0.  1.
    10030    2    1    2    0    0  0.00000000000E+00  0.00000000000E+00 -0.20438104447E+03  0.82558818266E+03  0.79989013996E+03 0.  0.
        5    1    3    3  502    0 -0.17670970460E+03  0.33458451808E+03  0.31432453334E+02  0.37971464096E+03  0.46999998093E+01 0.  1.
       -5    1    3    3    0  502  0.17670970460E+03 -0.33458451808E+03 -0.23581349781E+03  0.44587354170E+03  0.46999998093E+01 0. -1.
</event>
<event>
 5   0  0.1712793E-03  0.7995281E+03  0.7818609E-02  0.9560700E-01
        1   -1    0    0  501    0  0.00000000000E+00  0.00000000000E+00  0.50987471738E+03  0.50987471740E+03  0.50400001928E-02 0. -1.
       -1   -1    0    0    0  501  0.00000000000E+00  0.00000000000E+00 -0.31343248357E+03  0.31343248361E+03  0.50400001928E-02 0.  1.
    10030    2    1    2    0    0  0.00000000000E+00  0.00000000000E+00  0.19644223381E+03  0.82330720102E+03  0.79952810834E+03 0.  0.
        4    1    3    3  502    0 -0.13035549759E+03 -0.22007181738E+03  0.41458061413E+03  0.48713741292E+03  0.12699999809E+01 0. -1.
       -4    1    3    3    0  502  0.13035549759E+03  0.22007181738E+03 -0.21813838032E+03  0.33616978809E+03  0.12699999809E+01 0.  1.
</event>
<event>
 5   0  0.1617491E-03  0.8010326E+03  0.7818609E-02  0.9558524E-01
        1   -1    0    0  501    0  0.00000000000E+00  0.00000000000E+00  0.94491225033E+03  0.94491225034E+03  0.50400001928E-02 0.  1.
       -1   -1    0    0    0  501  0.00000000000E+00  0.00000000000E+00 -0.16976528533E+03  0.16976528541E+03  0.50400001928E-02 0. -1.
    10030    2    1    2    0    0  0.00000000000E+00  0.00000000000E+00  0.77514696500E+03  0.11146775357E+04  0.80103257821E+03 0.  0.
        1    1    3    3  502    0 -0.11517980831E+03  0.33162410433E+03  0.11928059829E+03  0.37076784646E+03  0.50400001928E-02 0. -1.
       -1    1    3    3    0  502  0.11517980831E+03 -0.33162410433E+03  0.65586636670E+03  0.74390968929E+03  0.50400001928E-02 0.  1.
</event>
<event>
 5   0  0.1617491E-03  0.8006333E+03  0.7818609E-02  0.9559101E-01
       -1   -1    0    0    0  501  0.00000000000E+00  0.00000000000E+00  0.28153410640E+03  0.28153410645E+03  0.50400001928E-02 0.  1.
        1   -1    0    0  501    0  0.00000000000E+00  0.00000000000E+00 -0.56921495093E+03  0.56921495095E+03  0.50400001928E-02 0. -1.
    10030    2    1    2    0    0  0.00000000000E+00  0.00000000000E+00 -0.28768084453E+03  0.85074905740E+03  0.80063330580E+03 0.  0.
        1    1    3    3  502    0  0.19143211879E+03 -0.70732861405E+02  0.22210603310E+03  0.30162971298E+03  0.50400001928E-02 0.  1.
       -1    1    3    3    0  502 -0.19143211879E+03  0.70732861405E+02 -0.50978687763E+03  0.54911934442E+03  0.50400001928E-02 0. -1.
</event>
<event>
 5   0  0.2690809E-03  0.7999473E+03  0.7818609E-02  0.9560093E-01
       -2   -1    0    0    0  501  0.00000000000E+00  0.00000000000E+00  0.17663962001E+03  0.17663962003E+03  0.25500000920E-02 0.  1.
        2   -1    0    0  501    0  0.00000000000E+00  0.00000000000E+00 -0.90567974047E+03  0.90567974048E+03  0.25500000920E-02 0. -1.
    10030    2    1    2    0    0  0.00000000000E+00  0.00000000000E+00 -0.72904012046E+03  0.10823193605E+04  0.79994731131E+03 0.  0.
        5    1    3    3  502    0  0.12787887778E+03 -0.94028252234E+02 -0.86120226333E+03  0.87572013107E+03  0.46999998093E+01 0. -1.
       -5    1    3    3    0  502 -0.12787887778E+03  0.94028252234E+02  0.13216214286E+03  0.20659922944E+03  0.46999998093E+01 0.  1.
</event>
<event>
 5   0  0.2768834E-03  0.7983816E+03  0.7818609E-02  0.9562363E-01
        2   -1    0    0  501    0  0.00000000000E+00  0.00000000000E+00  0.26107529557E+03  0.26107529559E+03  0.25500000920E-02 0.  1.
       -2   -1    0    0    0  501  0.00000000000E+00  0.00000000000E+00 -0.61037289423E+03  0.61037289423E+03  0.25500000920E-02 0. -1.
    10030    2    1    2    0    0  0.00000000000E+00  0.00000000000E+00 -0.34929759865E+03  0.87144818982E+03  0.79838157238E+03 0.  0.
        4    1    3    3  502    0  0.20836119358E+03  0.33772146285E+03 -0.22199475435E+03  0.45470150354E+03  0.12699999809E+01 0. -1.
       -4    1    3    3    0  502 -0.20836119358E+03 -0.33772146285E+03 -0.12730284430E+03  0.41674668628E+03  0.12699999809E+01 0.  1.
</event>
<event>
 5   0  0.1640035E-03  0.8004991E+03  0.7818609E-02  0.9559295E-01
       -1   -1    0    0    0  501  0.00000000000E+00  0.00000000000E+00  0.13999496894E+03  0.13999496903E+03  0.50400001928E-02 0. -1.
        1   -1    0    0  501    0  0.00000000000E+00  0.00000000000E+00 -0.11443248084E+04  0.11443248084E+04  0.50400001928E-02 0.  1.
    10030    2    1    2    0    0  0.00000000000E+00  0.00000000000E+00 -0.10043298394E+04  0.12843197774E+04  0.80049913446E+03 0.  0.
        5    1    3    3  502    0 -0.66937275058E+02 -0.79845098683E+02  0.11780967554E+03  0.15734372636E+03  0.46999998093E+01 0. -1.
       -5    1    3    3    0  502  0.66937275058E+02  0.79845098683E+02 -0.11221395150E+04  0.11269760510E+04  0.46999998093E+01 0.  1.
</event>
<event>
 5   0  0.2768834E-03  0.8006703E+03  0.7818609E-02  0.9559047E-01
        2   -1    0    0  501    0  0.00000000000E+00  0.00000000000E+00  0.57545346189E+03  0.57545346189E+03  0.25500000920E-02 0.  1.
       -2   -1    0    0    0  501  0.00000000000E+00  0.00000000000E+00 -0.27850774995E+03  0.27850774996E+03  0.25500000920E-02 0. -1.
    10030    2    1    2    0    0  0.00000000000E+00  0.00000000000E+00  0.29694571194E+03  0.85396121186E+03  0.80067034135E+03 0.  0.
        4    1    3    3  502    0 -0.61138194386E+02 -0.37533810272E+03  0.15046235085E+02  0.38058451395E+03  0.12699999809E+01 0.  1.
       -4    1    3    3    0  502  0.61138194386E+02  0.37533810272E+03  0.28189947685E+03  0.47337669791E+03  0.12699999809E+01 0. -1.
</event>
<event>
 5   0  0.1656051E-03  0.8127063E+03  0.7818609E-02  0.9541805E-01
        1   -1    0    0  501    0  0.00000000000E+00  0.00000000000E+00  0.19457277524E+03  0.19457277531E+03  0.50400001928E-02 0. -1.
       -1   -1    0    0    0  501  0.00000000000E+00  0.00000000000E+00 -0.84864331558E+03  0.84864331559E+03  0.50400001928E-02 0.  1.
    10030    2    1    2    0    0  0.00000000000E+00  0.00000000000E+00 -0.65407054034E+03  0.10432160909E+04  0.81270630647E+03 0.  0.
        3    1    3    3  502    0  0.15032399915E+03 -0.67898201949E+02 -0.80373733812E+03  0.82048838471E+03  0.10100000352E+00 0.  1.
       -3    1    3    3    0  502 -0.15032399915E+03  0.67898201949E+02  0.14966679778E+03  0.22272770620E+03  0.10100000352E+00 0. -1.
</event>
<event>
 5   0  0.2873212E-03  0.7998796E+03  0.7818609E-02  0.9560191E-01
       -2   -1    0    0    0  501  0.00000000000E+00  0.00000000000E+00  0.30782326421E+03  0.30782326422E+03  0.25500000920E-02 0.  1.
        2   -1    0    0  501    0  0.00000000000E+00  0.00000000000E+00 -0.51962228362E+03  0.51962228362E+03  0.25500000920E-02 0. -1.
    10030    2    1    2    0    0  0.00000000000E+00  0.00000000000E+00 -0.21179901941E+03  0.82744554784E+03  0.79987955970E+03 0.  0.
        2    1    3    3  502    0  0.18847892101E+02 -0.38882761128E+03 -0.11034865224E+02  0.38944052510E+03  0.25500000920E-02 0.  1.
       -2    1    3    3    0  502 -0.18847892101E+02  0.38882761128E+03 -0.20076415419E+03  0.43800502274E+03  0.25500000920E-02 0. -1.
</event>
<event>
 5   0  0.2910501E-03  0.8001856E+03  0.7818609E-02  0.9559748E-01
       -2   -1    0    0    0  501  0.00000000000E+00  0.00000000000E+00  0.46648429530E+03  0.46648429531E+03  0.25500000920E-02 0.  1.
        2   -1    0    0  501    0  0.00000000000E+00  0.00000000000E+00 -0.34315036812E+03  0.34315036813E+03  0.25500000920E-02 0. -1.
    10030    2    1    2    0    0  0.00000000000E+00  0.00000000000E+00  0.12333392719E+03  0.80963466344E+03  0.80018562262E+03 0.  0.
        1    1    3    3  502    0  0.27669463533E+03 -0.26804667891E+03 -0.47614517593E+02  0.38817017609E+03  0.50400001928E-02 0.  1.
       -1    1    3    3    0  502 -0.27669463533E+03  0.26804667891E+03  0.17094844478E+03  0.42146448735E+03  0.50400001928E-02 0. -1.
</event>
<event>
 5   0  0.1712793E-03  0.8012474E+03  0.7818609E-02  0.9558213E-01
       -1   -1    0    0    0  501  0.00000000000E+00  0.00000000000E+00  0.13723533965E+04  0.13723533965E+04  0.50400001928E-02 0. -1.
        1   -1    0    0  501    0  0.00000000000E+00  0.00000000000E+00 -0.11695190807E+03  0.11695190818E+03  0.50400001928E-02 0.  1.
    10030    2    1    2    0    0  0.00000000000E+00  0.00000000000E+00  0.12554014884E+04  0.14893053047E+04  0.80124739837E+03 0.  0.
        4    1    3    3  502    0 -0.39044970875E+03 -0.76440329860E+02  0.54044639797E+03  0.67110209437E+03  0.12699999809E+01 0. -1.
       -4    1    3    3    0  502  0.39044970875E+03  0.76440329860E+02  0.71495509043E+03  0.81820321029E+03  0.12699999809E+01 0.  1.
</event>
<event>
 5   0  0.2910501E-03  0.8014883E+03  0.7818609E-02  0.9557865E-01
       -2   -1    0    0    0  501  0.00000000000E+00  0.00000000000E+00  0.10048296540E+03  0.10048296543E+03  0.25500000920E-02 0.  1.
        2   -1    0    0  501    0  0.00000000000E+00  0.00000000000E+00 -0.15982396906E+04  0.15982396906E+04  0.25500000920E-02 0. -1.
    10030    2    1    2    0    0  0.00000000000E+00  0.00000000000E+00 -0.14977567252E+04  0.16987226560E+04  0.80148827456E+03 0.  0.
        1    1    3    3  502    0 -0.36931726908E+03 -0.42245397964E+02 -0.43155369876E+03  0.56957748712E+03  0.50400001928E-02 0.  1.
       -1    1    3    3    0  502  0.36931726908E+03  0.42245397964E+02 -0.10662030264E+04  0.11291451689E+04  0.50400001928E-02 0. -1.
</event>
<event>
 5   0  0.1095350E-03  0.7994527E+03  0.7818609E-02  0.9560810E-01
       -4   -1    0    0    0  501  0.00000000000E+00  0.00000000000E+00  0.65388557982E+03  0.65388681314E+03  0.12699999809E+01 0. -1.
        4   -1    0    0  501    0  0.00000000000E+00  0.00000000000E+00 -0.24435335595E+03  0.24435665627E+03  0.12699999809E+01 0.  1.
    10030    2    1    2    0    0  0.00000000000E+00  0.00000000000E+00  0.40953222387E+03  0.89824346941E+03  0.79945274279E+03 0.  0.
        3    1    3    3  502    0 -0.22024271926E+03  0.32131924396E+03  0.10409341302E+03  0.40322247056E+03  0.10100000352E+00 0.  1.
       -3    1    3    3    0  502  0.22024271926E+03 -0.32131924396E+03  0.30543881085E+03  0.49502099885E+03  0.10100000352E+00 0. -1.
</event>
<event>
 5   0  0.2768834E-03  0.8015465E+03  0.7818609E-02  0.9557781E-01
        2   -1    0    0  501    0  0.00000000000E+00  0.00000000000E+00  0.21902611677E+04  0.21902611677E+04  0.25500000920E-02 0.  1.
       -2   -1    0    0    0  501  0.00000000000E+00  0.00000000000E+00 -0.73333350935E+02  0.73333350979E+02  0.25500000920E-02 0. -1.
    10030    2    1    2    0    0  0.00000000000E+00  0.00000000000E+00  0.21169278168E+04  0.22635945187E+04  0.80154648250E+03 0.  0.
        4    1    3    3  502    0 -0.17209056161E+03  0.31003191787E+03  0.53102215074E+03  0.63853041350E+03  0.12699999809E+01 0. -1.
       -4    1    3    3    0  502  0.17209056161E+03 -0.31003191787E+03  0.15859056660E+04  0.16250641052E+04  0.12699999809E+01 0.  1.
</event>
<event>
 5   0  0.2763587E-03  0.7987875E+03  0.7818609E-02  0.9561774E-01
       -2   -1    0    0    0  501  0.00000000000E+00  0.00000000000E+00  0.17545362658E+03  0.17545362660E+03  0.25500000920E-02 0. -1.
        2   -1    0    0  501    0  0.00000000000E+00  0.00000000000E+00 -0.90915971293E+03  0.90915971293E+03  0.25500000920E-02 0.  1.
    10030    2    1    2    0    0  0.00000000000E+00  0.00000000000E+00 -0.73370608635E+03  0.10846133395E+04  0.79878750313E+03 0.  0.
        3    1    3    3  502    0 -0.22807444607E+03  0.29458704785E+03 -0.17142119451E+03  0.41010330143E+03  0.10100000352E+00 0.  1.
       -3    1    3    3    0  502  0.22807444607E+03 -0.29458704785E+03 -0.56228489184E+03  0.67451003811E+03  0.10100000352E+00 0. -1.
</event>
<event>
 5   0  0.1637228E-03  0.7986696E+03  0.7818609E-02  0.9561945E-01
       -1   -1    0    0    0  501  0.00000000000E+00  0.00000000000E+00  0.22912200526E+03  0.22912200532E+03  0.50400001928E-02 0.  1.
        1   -1    0    0  501    0  0.00000000000E+00  0.00000000000E+00 -0.69599729158E+03  0.69599729160E+03  0.50400001928E-02 0. -1.
    10030    2    1    2    0    0  0.00000000000E+00  0.00000000000E+00 -0.46687528632E+03  0.92511929691E+03  0.79866963167E+03 0.  0.
        2    1    3    3  502    0 -0.13901826065E+03 -0.10498334537E+03 -0.64966299651E+03  0.67261399676E+03  0.25500000920E-02 0. -1.
       -2    1    3    3    0  502  0.13901826065E+03  0.10498334537E+03  0.18278771019E+03  0.25250530015E+03  0.25500000920E-02 0.  1.
</event>
<event>
 5   0  0.1712793E-03  0.7985991E+03  0.7818609E-02  0.9562047E-01
        1   -1    0    0  501    0  0.00000000000E+00  0.00000000000E+00  0.45797609701E+03  0.45797609704E+03  0.50400001928E-02 0. -1.
       -1   -1    0    0    0  501  0.00000000000E+00  0.00000000000E+00 -0.34814074516E+03  0.34814074520E+03  0.50400001928E-02 0.  1.
    10030    2    1    2    0    0  0.00000000000E+00  0.00000000000E+00  0.10983535185E+03  0.80611684223E+03  0.79859912273E+03 0.  0.
        4    1    3    3  502    0 -0.79709722616E+02 -0.38881186430E+03  0.10800166688E+02  0.39704730474E+03  0.12699999809E+01 0. -1.
       -4    1    3    3    0  502  0.79709722616E+02  0.38881186430E+03  0.99035185159E+02  0.40906953749E+03  0.12699999809E+01 0.  1.
</event>
<event>
 5   0  0.1656051E-03  0.7985699E+03  0.7818609E-02  0.9562089E-01
        1   -1    0    0  501    0  0.00000000000E+00  0.00000000000E+00  0.82781481069E+03  0.82781481070E+03  0.50400001928E-02 0.  1.
       -1   -1    0    0    0  501  0.00000000000E+00  0.00000000000E+00 -0.19258951997E+03  0.19258952003E+03  0.50400001928E-02 0. -1.
    10030    2    1    2    0    0  0.00000000000E+00  0.00000000000E+00  0.63522529072E+03  0.10204043307E+04  0.79856986433E+03 0.  0.
        3    1    3    3  502    0 -0.27846823669E+03 -0.21333650032E+03  0.56130367230E+03  0.66190546451E+03  0.10100000352E+00 0.  1.
       -3    1    3    3    0  502  0.27846823669E+03  0.21333650032E+03  0.73921618419E+02  0.35849886622E+03  0.10100000352E+00 0. -1.
</event>
<event>
 5   0  0.1656051E-03  0.8004393E+03  0.7818609E-02  0.9559382E-01
        1   -1    0    0  501    0  0.00000000000E+00  0.00000000000E+00  0.81608010583E+03  0.81608010585E+03  0.50400001928E-02 0. -1.
       -1   -1    0    0    0  501  0.00000000000E+00  0.00000000000E+00 -0.19627454514E+03  0.19627454521E+03  0.50400001928E-02 0.  1.
    10030    2    1    2    0    0  0.00000000000E+00  0.00000000000E+00  0.61980556069E+03  0.10123546511E+04  0.80043925844E+03 0.  0.
        3    1    3    3  502    0 -0.32322146770E+03  0.23232403778E+03  0.25731042667E+03  0.47397810244E+03  0.10100000352E+00 0. -1.
       -3    1    3    3    0  502  0.32322146770E+03 -0.23232403778E+03  0.36249513402E+03  0.53837654862E+03  0.10100000352E+00 0.  1.
</event>
<event>
 5   0  0.2763587E-03  0.8021193E+03  0.7818609E-02  0.9556955E-01
       -2   -1    0    0    0  501  0.00000000000E+00  0.00000000000E+00  0.32069254302E+03  0.32069254303E+03  0.25500000920E-02 0.  1.
        2   -1    0    0  501    0  0.00000000000E+00  0.00000000000E+00 -0.50156711387E+03  0.50156711387E+03  0.25500000920E-02 0. -1.
    10030    2    1    2    0    0  0.00000000000E+00  0.00000000000E+00 -0.18087457084E+03  0.82225965691E+03  0.80211927604E+03 0.  0.
        3    1    3    3  502    0 -0.34719703162E+03 -0.75083607809E+02  0.10042439340E+03  0.36914549424E+03  0.10100000352E+00 0.  1.
       -3    1    3    3    0  502  0.34719703162E+03  0.75083607809E+02 -0.28129896424E+03  0.45311416267E+03  0.10100000352E+00 0. -1.
</event>
<event>
 5   0  0.2690809E-03  0.8004776E+03  0.7818609E-02  0.9559326E-01
        2   -1    0    0  501    0  0.00000000000E+00  0.00000000000E+00  0.29615380298E+03  0.29615380299E+03  0.25500000920E-02 0.  1.
       -2   -1    0    0    0  501  0.00000000000E+00  0.00000000000E+00 -0.54090502007E+03  0.54090502007E+03  0.25500000920E-02 0. -1.
    10030    2    1    2    0    0  0.00000000000E+00  0.00000000000E+00 -0.24475121709E+03  0.83705882306E+03  0.80047755434E+03 0.  0.
        5    1    3    3  502    0  0.14667565667E+03 -0.34504418263E+03 -0.26877258715E+03  0.46133505159E+03  0.46999998093E+01 0. -1.
       -5    1    3    3    0  502 -0.14667565667E+03  0.34504418263E+03  0.24021370059E+02  0.37572377147E+03  0.46999998093E+01 0.  1.
</event>
<event>
 5   0  0.2873212E-03  0.7997180E+03  0.7818609E-02  0.9560425E-01
       -2   -1    0    0    0  501  0.00000000000E+00  0.00000000000E+00  0.79609128609E+02  0.79609128650E+02  0.25500000920E-02 0. -1.
        2   -1    0    0  501    0  0.00000000000E+00  0.00000000000E+00 -0.20084032653E+04  0.20084032654E+04  0.25500000920E-02 0.  1.
    10030    2    1    2    0    0  0.00000000000E+00  0.00000000000E+00 -0.19287941367E+04  0.20880123940E+04  0.79971803504E+03 0.  0.
        2    1    3    3  502    0 -0.31521850545E+03  0.22164994948E+03 -0.68567643690E+03  0.78653898976E+03  0.25500000920E-02 0. -1.
       -2    1    3    3    0  502  0.31521850545E+03 -0.22164994948E+03 -0.12431176998E+04  0.13014734042E+04  0.25500000920E-02 0.  1.
</event>
<event>
 5   0  0.1617491E-03  0.7989356E+03  0.7818609E-02  0.9561559E-01
       -1   -1    0    0    0  501  0.00000000000E+00  0.00000000000E+00  0.21251231758E+03  0.21251231764E+03  0.50400001928E-02 0. -1.
        1   -1    0    0  501    0  0.00000000000E+00  0.00000000000E+00 -0.75089533993E+03  0.75089533995E+03  0.50400001928E-02 0.  1.
    10030    2    1    2    0    0  0.00000000000E+00  0.00000000000E+00 -0.53838302236E+03  0.96340765759E+03  0.79893556432E+03 0.  0.
        1    1    3    3  502    0 -0.11074286345E+03 -0.25105526384E+03 -0.61926981310E+03  0.67733878432E+03  0.50400001928E-02 0.  1.
       -1    1    3    3    0  502  0.11074286345E+03  0.25105526384E+03  0.80886790744E+02  0.28606887326E+03  0.50400001928E-02 0. -1.
</event>
<event>
 5   0  0.2873212E-03  0.8013389E+03  0.7818609E-02  0.9558081E-01
       -2   -1    0    0    0  501  0.00000000000E+00  0.00000000000E+00  0.13419417022E+03  0.13419417024E+03  0.25500000920E-02 0. -1.
        2   -1    0    0  501    0  0.00000000000E+00  0.00000000000E+00 -0.11962963622E+04  0.11962963622E+04  0.25500000920E-02 0.  1.
    10030    2    1    2    0    0  0.00000000000E+00  0.00000000000E+00 -0.10621021920E+04  0.13304905324E+04  0.80133887383E+03 0.  0.
        2    1    3    3  502    0  0.72299201673E+02  0.39402732550E+03 -0.51916028819E+03  0.65575308817E+03  0.25500000920E-02 0. -1.
       -2    1    3    3    0  502 -0.72299201673E+02 -0.39402732550E+03 -0.54294190377E+03  0.67473744425E+03  0.25500000920E-02 0.  1.
</event>
<event>
 5   0  0.1617491E-03  0.8048323E+03  0.7818609E-02  0.9553049E-01
        1   -1    0    0  501    0  0.00000000000E+00  0.00000000000E+00  0.26510286127E+03  0.26510286132E+03  0.50400001928E-02 0. -1.
       -1   -1    0    0    0  501  0.00000000000E+00  0.00000000000E+00 -0.61085261581E+03  0.61085261583E+03  0.50400001928E-02 0.  1.
    10030    2    1    2    0    0  0.00000000000E+00  0.00000000000E+00 -0.34574975454E+03  0.87595547715E+03  0.80483234601E+03 0.  0.
        1    1    3    3  502    0  0.36389746242E+03 -0.38352946127E+02  0.93953237594E+01  0.36603358284E+03  0.50400001928E-02 0. -1.
       -1    1    3    3    0  502 -0.36389746242E+03  0.38352946127E+02 -0.35514507830E+03  0.50992189431E+03  0.50400001928E-02 0.  1.
</event>
<event>
 5   0  0.1640035E-03  0.7976505E+03  0.7818609E-02  0.9563424E-01
       -1   -1    0    0    0  501  0.00000000000E+00  0.00000000000E+00  0.16493055254E+03  0.16493055262E+03  0.50400001928E-02 0.  1.
        1   -1    0    0  501    0  0.00000000000E+00  0.00000000000E+00 -0.96441540251E+03  0.96441540253E+03  0.50400001928E-02 0. -1.
    10030    2    1    2    0    0  0.00000000000E+00  0.00000000000E+00 -0.79948484997E+03  0.11293459551E+04  0.79765046297E+03 0.  0.
        5    1    3    3  502    0  0.53413285099E+02 -0.39121053060E+03 -0.32039447783E+03  0.50850110098E+03  0.46999998093E+01 0.  1.
       -5    1    3    3    0  502 -0.53413285099E+02  0.39121053060E+03 -0.47909037213E+03  0.62084485417E+03  0.46999998093E+01 0. -1.
</event>
<event>
 5   0  0.2768834E-03  0.7998816E+03  0.7818609E-02  0.9560188E-01
       -2   -1    0    0    0  501  0.00000000000E+00  0.00000000000E+00  0.16309588292E+03  0.16309588294E+03  0.25500000920E-02 0.  1.
        2   -1    0    0  501    0  0.00000000000E+00  0.00000000000E+00 -0.98072769390E+03  0.98072769390E+03  0.25500000920E-02 0. -1.
    10030    2    1    2    0    0  0.00000000000E+00  0.00000000000E+00 -0.81763181098E+03  0.11438235768E+04  0.79988161413E+03 0.  0.
        4    1    3    3  502    0  0.15315946098E+03 -0.19503313256E+03 -0.85751259385E+03  0.89265066224E+03  0.12699999809E+01 0. -1.
       -4    1    3    3    0  502 -0.15315946098E+03  0.19503313256E+03  0.39880782878E+02  0.25117291460E+03  0.12699999809E+01 0.  1.
</event>
<event>
 5   0  0.1617491E-03  0.8011603E+03  0.7818609E-02  0.9558339E-01
        1   -1    0    0  501    0  0.00000000000E+00  0.00000000000E+00  0.48057242524E+03  0.48057242527E+03  0.50400001928E-02 0.  1.
       -1   -1    0    0    0  501  0.00000000000E+00  0.00000000000E+00 -0.33390275925E+03  0.33390275929E+03  0.50400001928E-02 0. -1.
    10030    2    1    2    0    0  0.00000000000E+00  0.00000000000E+00  0.14666966599E+03  0.81447518456E+03  0.80116030564E+03 0.  0.
        1    1    3    3  502    0  0.32697619438E+03 -0.13245051733E+03  0.26624594976E+03  0.44197678335E+03  0.50400001928E-02 0.  1.
       -1    1    3    3    0  502 -0.32697619438E+03  0.13245051733E+03 -0.11957628377E+03  0.37249840120E+03  0.50400001928E-02 0. -1.
</event>
<event>
 5   0  0.1640035E-03  0.7998939E+03  0.7818609E-02  0.9560171E-01
       -1   -1    0    0    0  501  0.00000000000E+00  0.00000000000E+00  0.28209936010E+03  0.28209936014E+03  0.50400001928E-02 0. -1.
        1   -1    0    0  501    0  0.00000000000E+00  0.00000000000E+00 -0.56702566381E+03  0.56702566383E+03  0.50400001928E-02 0.  1.
    10030    2    1    2    0    0  0.00000000000E+00  0.00000000000E+00 -0.28492630371E+03  0.84912502397E+03  0.79989393534E+03 0.  0.
        5    1    3    3  502    0 -0.33578849908E+03 -0.89694098656E+02 -0.35246854447E+03  0.49503041552E+03  0.46999998093E+01 0.  1.
       -5    1    3    3    0  502  0.33578849908E+03  0.89694098656E+02  0.67542240760E+02  0.35409460845E+03  0.46999998093E+01 0. -1.
</event>
<event>
 5   0  0.1617491E-03  0.7982849E+03  0.7818609E-02  0.9562503E-01
        1   -1    0    0  501    0  0.00000000000E+00  0.00000000000E+00  0.18821300600E+03  0.18821300606E+03  0.50400001928E-02 0.  1.
       -1   -1    0    0    0  501  0.00000000000E+00  0.00000000000E+00 -0.84645954681E+03  0.84645954683E+03  0.50400001928E-02 0. -1.
    10030    2    1    2    0    0  0.00000000000E+00  0.00000000000E+00 -0.65824654082E+03  0.10346725529E+04  0.79828490103E+03 0.  0.
        1    1    3    3  502    0  0.34577997351E+02  0.62402306410E+00 -0.84451398248E+03  0.84522180163E+03  0.50400001928E-02 0. -1.
       -1    1    3    3    0  502 -0.34577997351E+02 -0.62402306410E+00  0.18626744167E+03  0.18945075127E+03  0.50400001928E-02 0.  1.
</event>
<event>
 5   0  0.1637228E-03  0.8006050E+03  0.7818609E-02  0.9559142E-01
        1   -1    0    0  501    0  0.00000000000E+00  0.00000000000E+00  0.19797308516E+03  0.19797308523E+03  0.50400001928E-02 0.  1.
       -1   -1    0    0    0  501  0.00000000000E+00  0.00000000000E+00 -0.80941347296E+03  0.80941347297E+03  0.50400001928E-02 0. -1.
    10030    2    1    2    0    0  0.00000000000E+00  0.00000000000E+00 -0.61144038780E+03  0.10073865582E+04  0.80060497739E+03 0.  0.
        2    1    3    3  502    0 -0.33178802067E+03  0.22381828064E+03 -0.29564065587E+03  0.49757543229E+03  0.25500000920E-02 0. -1.
       -2    1    3    3    0  502  0.33178802067E+03 -0.22381828064E+03 -0.31579973193E+03  0.50981112591E+03  0.25500000920E-02 0.  1.
</event>
<event>
 5   0  0.1637228E-03  0.8016634E+03  0.7818609E-02  0.9557612E-01
       -1   -1    0    0    0  501  0.00000000000E+00  0.00000000000E+00  0.75376411412E+02  0.75376411581E+02  0.50400001928E-02 0. -1.
        1   -1    0    0  501    0  0.00000000000E+00  0.00000000000E+00 -0.21315164840E+04  0.21315164840E+04  0.50400001928E-02 0.  1.
    10030    2    1    2    0    0  0.00000000000E+00  0.00000000000E+00 -0.20561400726E+04  0.22068928956E+04  0.80166342968E+03 0.  0.
        2    1    3    3  502    0  0.79062756491E+02 -0.11710026519E+03 -0.20606896189E+04  0.20655278010E+04  0.25500000920E-02 0.  1.
       -2    1    3    3    0  502 -0.79062756491E+02  0.11710026519E+03  0.45495463019E+01  0.14136509452E+03  0.25500000920E-02 0. -1.
</event>
<event>
 5   0  0.1640035E-03  0.7972044E+03  0.7818609E-02  0.9564072E-01
       -1   -1    0    0    0  501  0.00000000000E+00  0.00000000000E+00  0.79564157922E+03  0.79564157924E+03  0.50400001928E-02 0. -1.
        1   -1    0    0  501    0  0.00000000000E+00  0.00000000000E+00 -0.19969258113E+03  0.19969258120E+03  0.50400001928E-02 0.  1.
    10030    2    1    2    0    0  0.00000000000E+00  0.00000000000E+00  0.59594899809E+03  0.99533416043E+03  0.79720441707E+03 0.  0.
        5    1    3    3  502    0 -0.48131074200E+02 -0.36945397217E+03  0.47475864996E+03  0.60351528859E+03  0.46999998093E+01 0. -1.
       -5    1    3    3    0  502  0.48131074200E+02  0.36945397217E+03  0.12119034813E+03  0.39181887184E+03  0.46999998093E+01 0.  1.
</event>
<event>
 5   0  0.2910501E-03  0.7974892E+03  0.7818609E-02  0.9563658E-01
        2   -1    0    0  501    0  0.00000000000E+00  0.00000000000E+00  0.96281454345E+03  0.96281454345E+03  0.25500000920E-02 0.  1.
       -2   -1    0    0    0  501  0.00000000000E+00  0.00000000000E+00 -0.16513799714E+03  0.16513799716E+03  0.25500000920E-02 0. -1.
    10030    2    1    2    0    0  0.00000000000E+00  0.00000000000E+00  0.79767654631E+03  0.11279525406E+04  0.79748922334E+03 0.  0.
        1    1    3    3  502    0  0.36804793232E+03 -0.54616243136E+02  0.60161834897E+03  0.70738027421E+03  0.50400001928E-02 0.  1.
       -1    1    3    3    0  502 -0.36804793232E+03  0.54616243136E+02  0.19605819734E+03  0.42057226640E+03  0.50400001928E-02 0. -1.
</event>
<event>
 5   0  0.1637228E-03  0.7998720E+03  0.7818609E-02  0.9560202E-01
       -1   -1    0    0    0  501  0.00000000000E+00  0.00000000000E+00  0.19588082576E+03  0.19588082583E+03  0.50400001928E-02 0. -1.
        1   -1    0    0  501    0  0.00000000000E+00  0.00000000000E+00 -0.81656181447E+03  0.81656181448E+03  0.50400001928E-02 0.  1.
    10030    2    1    2    0    0  0.00000000000E+00  0.00000000000E+00 -0.62068098870E+03  0.10124426403E+04  0.79987199612E+03 0.  0.
        2    1    3    3  502    0 -0.11101063920E+03 -0.34752256539E+02  0.17399551284E+03  0.20929768237E+03  0.25500000920E-02 0. -1.
       -2    1    3    3    0  502  0.11101063920E+03  0.34752256539E+02 -0.79467650154E+03  0.80314495794E+03  0.25500000920E-02 0.  1.
</event>
<event>
 5   0  0.2763587E-03  0.7999657E+03  0.7818609E-02  0.9560067E-01
       -2   -1    0    0    0  501  0.00000000000E+00  0.00000000000E+00  0.37569343928E+03  0.37569343929E+03  0.25500000920E-02 0.  1.
        2   -1    0    0  501    0  0.00000000000E+00  0.00000000000E+00 -0.42584259902E+03  0.42584259903E+03  0.25500000920E-02 0. -1.
    10030    2    1    2    0    0  0.00000000000E+00  0.00000000000E+00 -0.50149159741E+02  0.80153603832E+03  0.79996567583E+03 0.  0.
        3    1    3    3  502    0  0.19598112187E+02  0.17849202512E+03 -0.38318739912E+03  0.42317382017E+03  0.10100000352E+00 0. -1.
       -3    1    3    3    0  502 -0.19598112187E+02 -0.17849202512E+03  0.33303823938E+03  0.37836221815E+03  0.10100000352E+00 0.  1.
</event>
<event>
 5   0  0.1712793E-03  0.8056808E+03  0.7818609E-02  0.9551831E-01
        1   -1    0    0  501    0  0.00000000000E+00  0.00000000000E+00  0.90438309141E+03  0.90438309142E+03  0.50400001928E-02 0.  1.
       -1   -1    0    0    0  501  0.00000000000E+00  0.00000000000E+00 -0.17943764407E+03  0.17943764414E+03  0.50400001928E-02 0. -1.
    10030    2    1    2    0    0  0.00000000000E+00  0.00000000000E+00  0.72494544734E+03  0.10838207356E+04  0.80568075887E+03 0.  0.
        4    1    3    3  502    0  0.17244900462E+03  0.25270576793E+03  0.99320160294E+01  0.30610312345E+03  0.12699999809E+01 0. -1.
       -4    1    3    3    0  502 -0.17244900462E+03 -0.25270576793E+03  0.71501343131E+03  0.77771761212E+03  0.12699999809E+01 0.  1.
</event>
<event>
 5   0  0.2910501E-03  0.7987834E+03  0.7818609E-02  0.9561780E-01
       -2   -1    0    0    0  501  0.00000000000E+00  0.00000000000E+00  0.10912306421E+03  0.10912306424E+03  0.25500000920E-02 0.  1.
        2   -1    0    0  501    0  0.00000000000E+00  0.00000000000E+00 -0.14617781528E+04  0.14617781528E+04  0.25500000920E-02 0. -1.
    10030    2    1    2    0    0  0.00000000000E+00  0.00000000000E+00 -0.13526550886E+04  0.15709012171E+04  0.79878335299E+03 0.  0.
        1    1    3    3  502    0 -0.19203004027E+03  0.15910289314E+03 -0.62804560362E+02  0.25716469392E+03  0.50400001928E-02 0.  1.
       -1    1    3    3    0  502  0.19203004027E+03 -0.15910289314E+03 -0.12898505282E+04  0.13137365231E+04  0.50400001928E-02 0. -1.
</event>
<event>
 5   0  0.1656051E-03  0.8007410E+03  0.7818609E-02  0.9558945E-01
        1   -1    0    0  501    0  0.00000000000E+00  0.00000000000E+00  0.86354818927E+03  0.86354818928E+03  0.50400001928E-02 0.  1.
       -1   -1    0    0    0  501  0.00000000000E+00  0.00000000000E+00 -0.18562547712E+03  0.18562547719E+03  0.50400001928E-02 0. -1.
    10030    2    1    2    0    0  0.00000000000E+00  0.00000000000E+00  0.67792271215E+03  0.10491736665E+04  0.80074101854E+03 0.  0.
        3    1    3    3  502    0  0.78604762748E+02  0.38510363769E+03  0.43885917121E+03  0.58913572532E+03  0.10100000352E+00 0. -1.
       -3    1    3    3    0  502 -0.78604762748E+02 -0.38510363769E+03  0.23906354094E+03  0.46003794115E+03  0.10100000352E+00 0.  1.
</event>
<event>
 5   0  0.2768834E-03  0.8031789E+03  0.7818609E-02  0.9555427E-01
        2   -1    0    0  501    0  0.00000000000E+00  0.00000000000E+00  0.66416129062E+03  0.66416129063E+03  0.25500000920E-02 0.  1.
       -2   -1    0    0    0  501  0.00000000000E+00  0.00000000000E+00 -0.24282367199E+03  0.24282367200E+03  0.25500000920E-02 0. -1.
    10030    2    1    2    0    0  0.00000000000E+00  0.00000000000E+00  0.42133761863E+03  0.90698496263E+03  0.80317889263E+03 0.  0.
        4    1    3    3  502    0  0.26748513143E+03  0.28929356850E+03  0.29838284271E+03  0.49423981834E+03  0.12699999809E+01 0. -1.
       -4    1    3    3    0  502 -0.26748513143E+03 -0.28929356850E+03  0.12295477593E+03  0.41274514429E+03  0.12699999809E+01 0.  1.
</event>
<event>
 5   0  0.1095350E-03  0.7994073E+03  0.7818609E-02  0.9560875E-01
       -3   -1    0    0    0  501  0.00000000000E+00  0.00000000000E+00  0.30079671846E+03  0.30079673542E+03  0.10100000352E+00 0.  1.
        3   -1    0    0  501    0  0.00000000000E+00  0.00000000000E+00 -0.53113273659E+03  0.53113274620E+03  0.10100000352E+00 0. -1.
    10030    2    1    2    0    0  0.00000000000E+00  0.00000000000E+00 -0.23033601813E+03  0.83192948162E+03  0.79940726863E+03 0.  0.
        4    1    3    3  502    0  0.27555926647E+02  0.13522021919E+03 -0.50555249292E+03  0.52405035328E+03  0.12699999809E+01 0. -1.
       -4    1    3    3    0  502 -0.27555926647E+02 -0.13522021919E+03  0.27521647479E+03  0.30787912834E+03  0.12699999809E+01 0.  1.
</event>
<event>
 5   0  0.2768834E-03  0.8005124E+03  0.7818609E-02  0.9559276E-01
        2   -1    0    0  501    0  0.00000000000E+00  0.00000000000E+00  0.17450582933E+04  0.17450582933E+04  0.25500000920E-02 0.  1.
       -2   -1    0    0    0  501  0.00000000000E+00  0.00000000000E+00 -0.91804965297E+02  0.91804965332E+02  0.25500000920E-02 0. -1.
    10030    2    1    2    0    0  0.00000000000E+00  0.00000000000E+00  0.16532533280E+04  0.18368632586E+04  0.80051237615E+03 0.  0.
        4    1    3    3  502    0 -0.19888350086E+03 -0.27335437364E+03  0.13183703159E+04  0.13610213677E+04  0.12699999809E+01 0.  1.
       -4    1    3    3    0  502  0.19888350086E+03  0.27335437364E+03  0.33488301210E+03  0.47584189097E+03  0.12699999809E+01 0. -1.
</event>
<event>
 5   0  0.2690809E-03  0.7997750E+03  0.7818609E-02  0.9560343E-01
       -2   -1    0    0    0  501  0.00000000000E+00  0.00000000000E+00  0.78362690308E+02  0.78362690350E+02  0.25500000920E-02 0. -1.
        2   -1    0    0  501    0  0.00000000000E+00  0.00000000000E+00 -0.20406393980E+04  0.20406393980E+04  0.25500000920E-02 0.  1.
    10030    2    1    2    0    0  0.00000000000E+00  0.00000000000E+00 -0.19622767077E+04  0.21190020883E+04  0.79977495140E+03 0.  0.
        5    1    3    3  502    0  0.10527236714E+03 -0.15086755489E+03 -0.40493398122E+02  0.18842795889E+03  0.46999998093E+01 0. -1.
       -5    1    3    3    0  502 -0.10527236714E+03  0.15086755489E+03 -0.19217833096E+04  0.19305741295E+04  0.46999998093E+01 0.  1.
</event>
<event>
 5   0  0.2873212E-03  0.7996894E+03  0.7818609E-02  0.9560467E-01
       -2   -1    0    0    0  501  0.00000000000E+00  0.00000000000E+00  0.14507427419E+03  0.14507427421E+03  0.25500000920E-02 0. -1.
        2   -1    0    0  501    0  0.00000000000E+00  0.00000000000E+00 -0.11020270732E+04  0.11020270732E+04  0.25500000920E-02 0.  1.
    10030    2    1    2    0    0  0.00000000000E+00  0.00000000000E+00 -0.95695279903E+03  0.12471013474E+04  0.79968938420E+03 0.  0.
        2    1    3    3  502    0  0.30928858927E+03 -0.18354501433E+03 -0.75095133874E+03  0.83263204171E+03  0.25500000920E-02 0.  1.
       -2    1    3    3    0  502 -0.30928858927E+03  0.18354501433E+03 -0.20600146030E+03  0.41446930572E+03  0.25500000920E-02 0. -1.
</event>
<event>
 5   0  0.2763587E-03  0.7994402E+03  0.7818609E-02  0.9560828E-01
        2   -1    0    0  501    0  0.00000000000E+00  0.00000000000E+00  0.91540627403E+03  0.91540627403E+03  0.25500000920E-02 0.  1.
       -2   -1    0    0    0  501  0.00000000000E+00  0.00000000000E+00 -0.17454125512E+03  0.17454125514E+03  0.25500000920E-02 0. -1.
    10030    2    1    2    0    0  0.00000000000E+00  0.00000000000E+00  0.74086501890E+03  0.10899475292E+04  0.79944020421E+03 0.  0.
        3    1    3    3  502    0 -0.21044370898E+02  0.14546080878E+03 -0.13636381714E+03  0.20049142940E+03  0.10100000352E+00 0. -1.
       -3    1    3    3    0  502  0.21044370898E+02 -0.14546080878E+03  0.87722883604E+03  0.88945609977E+03  0.10100000352E+00 0.  1.
</event>
<event>
 5   0  0.2763587E-03  0.8000294E+03  0.7818609E-02  0.9559975E-01
        2   -1    0    0  501    0  0.00000000000E+00  0.00000000000E+00  0.19718058443E+04  0.19718058443E+04  0.25500000920E-02 0.  1.
       -2   -1    0    0    0  501  0.00000000000E+00  0.00000000000E+00 -0.81149853664E+02  0.81149853704E+02  0.25500000920E-02 0. -1.
    10030    2    1    2    0    0  0.00000000000E+00  0.00000000000E+00  0.18906559907E+04  0.20529556980E+04  0.80002938887E+03 0.  0.
        3    1    3    3  502    0 -0.59423446335E+02  0.16244330602E+03  0.19777281086E+02  0.17409803184E+03  0.10100000352E+00 0. -1.
       -3    1    3    3    0  502  0.59423446335E+02 -0.16244330602E+03  0.18708787096E+04  0.18788576662E+04  0.10100000352E+00 0.  1.
</event>
<event>
 5   0  0.2873212E-03  0.7999857E+03  0.7818609E-02  0.9560038E-01
        2   -1    0    0  501    0  0.00000000000E+00  0.00000000000E+00  0.29766938719E+03  0.29766938720E+03  0.25500000920E-02 0. -1.
       -2   -1    0    0    0  501  0.00000000000E+00  0.00000000000E+00 -0.53748986632E+03  0.53748986632E+03  0.25500000920E-02 0.  1.
    10030    2    1    2    0    0  0.00000000000E+00  0.00000000000E+00 -0.23982047912E+03  0.83515925353E+03  0.79998569771E+03 0.  0.
        2    1    3    3  502    0  0.10932221841E+03 -0.56631252309E+02 -0.51721620456E+03  0.53166817512E+03  0.25500000920E-02 0.  1.
       -2    1    3    3    0  502 -0.10932221841E+03  0.56631252309E+02  0.27739572543E+03  0.30349107840E+03  0.25500000920E-02 0. -1.
</event>
<event>
 5   0  0.1095350E-03  0.7977708E+03  0.7818609E-02  0.9563249E-01
        3   -1    0    0  501    0  0.00000000000E+00  0.00000000000E+00  0.26838550803E+03  0.26838552703E+03  0.10100000352E+00 0. -1.
       -3   -1    0    0    0  501  0.00000000000E+00  0.00000000000E+00 -0.59283964318E+03  0.59283965179E+03  0.10100000352E+00 0.  1.
    10030    2    1    2    0    0  0.00000000000E+00  0.00000000000E+00 -0.32445413516E+03  0.86122517882E+03  0.79777084605E+03 0.  0.
        2    1    3    3  502    0  0.70842411296E+02  0.99825625448E+01 -0.58585698612E+03  0.59020903669E+03  0.25500000920E-02 0.  1.
       -2    1    3    3    0  502 -0.70842411296E+02 -0.99825625448E+01  0.26140285097E+03  0.27101614213E+03  0.25500000920E-02 0. -1.
</event>
<event>
 5   0  0.1095350E-03  0.7983893E+03  0.7818609E-02  0.9562351E-01
        4   -1    0    0  501    0  0.00000000000E+00  0.00000000000E+00  0.69150178472E+03  0.69150295095E+03  0.12699999809E+01 0.  1.
       -4   -1    0    0    0  501  0.00000000000E+00  0.00000000000E+00 -0.23044658934E+03  0.23045008882E+03  0.12699999809E+01 0. -1.
    10030    2    1    2    0    0  0.00000000000E+00  0.00000000000E+00  0.46105519538E+03  0.92195303977E+03  0.79838932504E+03 0.  0.
        2    1    3    3  502    0  0.26255065173E+02  0.31581584027E+03  0.51084672848E+03  0.60116000650E+03  0.25500000920E-02 0.  1.
       -2    1    3    3    0  502 -0.26255065173E+02 -0.31581584027E+03 -0.49791533097E+02  0.32079303326E+03  0.25500000920E-02 0. -1.
</event>
<event>
 5   0  0.2763587E-03  0.8022615E+03  0.7818609E-02  0.9556749E-01
        2   -1    0    0  501    0  0.00000000000E+00  0.00000000000E+00  0.15406830508E+03  0.15406830510E+03  0.25500000920E-02 0.  1.
       -2   -1    0    0    0  501  0.00000000000E+00  0.00000000000E+00 -0.10443801791E+04  0.10443801791E+04  0.25500000920E-02 0. -1.
    10030    2    1    2    0    0  0.00000000000E+00  0.00000000000E+00 -0.89031187398E+03  0.11984484842E+04  0.80226151362E+03 0.  0.
        3    1    3    3  502    0  0.10038155710E+03 -0.30847483835E+03 -0.79762785244E+03  0.86107106797E+03  0.10100000352E+00 0. -1.
       -3    1    3    3    0  502 -0.10038155710E+03  0.30847483835E+03 -0.92684021537E+02  0.33737741619E+03  0.10100000352E+00 0.  1.
</event>
<event>
 5   0  0.1712793E-03  0.7926761E+03  0.7818609E-02  0.9570679E-01
       -1   -1    0    0    0  501  0.00000000000E+00  0.00000000000E+00  0.26491305593E+03  0.26491305598E+03  0.50400001928E-02 0. -1.
        1   -1    0    0  501    0  0.00000000000E+00  0.00000000000E+00 -0.59296377175E+03  0.59296377177E+03  0.50400001928E-02 0.  1.
    10030    2    1    2    0    0  0.00000000000E+00  0.00000000000E+00 -0.32805071582E+03  0.85787682775E+03  0.79267608734E+03 0.  0.
        4    1    3    3  502    0 -0.32712585848E+03  0.11894401809E+03 -0.36914952982E+03  0.50737756650E+03  0.12699999809E+01 0.  1.
       -4    1    3    3    0  502  0.32712585848E+03 -0.11894401809E+03  0.41098814000E+02  0.35049926125E+03  0.12699999809E+01 0. -1.
</event>
<event>
 5   0  0.2910501E-03  0.8008451E+03  0.7818609E-02  0.9558795E-01
        2   -1    0    0  501    0  0.00000000000E+00  0.00000000000E+00  0.33447628607E+03  0.33447628608E+03  0.25500000920E-02 0. -1.
       -2   -1    0    0    0  501  0.00000000000E+00  0.00000000000E+00 -0.47937098221E+03  0.47937098221E+03  0.25500000920E-02 0.  1.
    10030    2    1    2    0    0  0.00000000000E+00  0.00000000000E+00 -0.14489469613E+03  0.81384726830E+03  0.80084511808E+03 0.  0.
        1    1    3    3  502    0 -0.89983035937E+02 -0.89933013397E+02 -0.45828687852E+03  0.47561723760E+03  0.50400001928E-02 0.  1.
       -1    1    3    3    0  502  0.89983035937E+02  0.89933013397E+02  0.31339218239E+03  0.33823003069E+03  0.50400001928E-02 0. -1.
</event>
<event>
 5   0  0.2873212E-03  0.8013025E+03  0.7818609E-02  0.9558134E-01
       -2   -1    0    0    0  501  0.00000000000E+00  0.00000000000E+00  0.11178537835E+03  0.11178537838E+03  0.25500000920E-02 0. -1.
        2   -1    0    0  501    0  0.00000000000E+00  0.00000000000E+00 -0.14359785797E+04  0.14359785797E+04  0.25500000920E-02 0.  1.
    10030    2    1    2    0    0  0.00000000000E+00  0.00000000000E+00 -0.13241932014E+04  0.15477639581E+04  0.80130246191E+03 0.  0.
        2    1    3    3  502    0 -0.28121384987E+03 -0.13995521417E+03 -0.18171358425E+03  0.36288912637E+03  0.25500000920E-02 0. -1.
       -2    1    3    3    0  502  0.28121384987E+03  0.13995521417E+03 -0.11424796171E+04  0.11848748317E+04  0.25500000920E-02 0.  1.
</event>
<event>
 5   0  0.1637228E-03  0.8002685E+03  0.7818609E-02  0.9559629E-01
        1   -1    0    0  501    0  0.00000000000E+00  0.00000000000E+00  0.33917842122E+03  0.33917842126E+03  0.50400001928E-02 0. -1.
       -1   -1    0    0    0  501  0.00000000000E+00  0.00000000000E+00 -0.47204481132E+03  0.47204481135E+03  0.50400001928E-02 0.  1.
    10030    2    1    2    0    0  0.00000000000E+00  0.00000000000E+00 -0.13286639010E+03  0.81122323261E+03  0.80026848964E+03 0.  0.
        2    1    3    3  502    0  0.23204594037E+03 -0.22332544205E+03 -0.30714500665E+03  0.44503665762E+03  0.25500000920E-02 0.  1.
       -2    1    3    3    0  502 -0.23204594037E+03  0.22332544205E+03  0.17427861655E+03  0.36618657499E+03  0.25500000920E-02 0. -1.
</event>
<event>
 5   0  0.2690809E-03  0.8028280E+03  0.7818609E-02  0.9555933E-01
        2   -1    0    0  501    0  0.00000000000E+00  0.00000000000E+00  0.40057398252E+03  0.40057398253E+03  0.25500000920E-02 0.  1.
       -2   -1    0    0    0  501  0.00000000000E+00  0.00000000000E+00 -0.40225578266E+03  0.40225578267E+03  0.25500000920E-02 0. -1.
    10030    2    1    2    0    0  0.00000000000E+00  0.00000000000E+00 -0.16818001377E+01  0.80282976520E+03  0.80282800365E+03 0.  0.
        5    1    3    3  502    0  0.10824185340E+03 -0.19733173281E+03 -0.33318933767E+03  0.40211109950E+03  0.46999998093E+01 0. -1.
       -5    1    3    3    0  502 -0.10824185340E+03  0.19733173281E+03  0.33150753753E+03  0.40071866570E+03  0.46999998093E+01 0.  1.
</event>
<event>
 5   0  0.1656051E-03  0.7995914E+03  0.7818609E-02  0.9560609E-01
        1   -1    0    0  501    0  0.00000000000E+00  0.00000000000E+00  0.85219748150E+03  0.85219748151E+03  0.50400001928E-02 0.  1.
       -1   -1    0    0    0  501  0.00000000000E+00  0.00000000000E+00 -0.18755815869E+03  0.18755815876E+03  0.50400001928E-02 0. -1.
    10030    2    1    2    0    0  0.00000000000E+00  0.00000000000E+00  0.66463932281E+03  0.10397556403E+04  0.79959137192E+03 0.  0.
        3    1    3    3  502    0 -0.30466345917E+03  0.14981832405E+03  0.60685008454E+03  0.69536493216E+03  0.10100000352E+00 0.  1.
       -3    1    3    3    0  502  0.30466345917E+03 -0.14981832405E+03  0.57789238269E+02  0.34439070811E+03  0.10100000352E+00 0. -1.
</event>
<event>
 5   0  0.1656051E-03  0.7993690E+03  0.7818609E-02  0.9560931E-01
        1   -1    0    0  501    0  0.00000000000E+00  0.00000000000E+00  0.10758715655E+03  0.10758715666E+03  0.50400001928E-02 0.  1.
       -1   -1    0    0    0  501  0.00000000000E+00  0.00000000000E+00 -0.14848211856E+04  0.14848211856E+04  0.50400001928E-02 0. -1.
    10030    2    1    2    0    0  0.00000000000E+00  0.00000000000E+00 -0.13772340290E+04  0.15924083422E+04  0.79936897472E+03 0.  0.
        3    1    3    3  502    0  0.12728391887E+03  0.15256967603E+02 -0.14427553576E+04  0.14484395062E+04  0.10100000352E+00 0. -1.
       -3    1    3    3    0  502 -0.12728391887E+03 -0.15256967603E+02  0.65521328541E+02  0.14396883607E+03  0.10100000352E+00 0.  1.
</event>
<event>
 5   0  0.1712793E-03  0.7998401E+03  0.7818609E-02  0.9560249E-01
        1   -1    0    0  501    0  0.00000000000E+00  0.00000000000E+00  0.73278921580E+03  0.73278921582E+03  0.50400001928E-02 0.  1.
       -1   -1    0    0    0  501  0.00000000000E+00  0.00000000000E+00 -0.21825655581E+03  0.21825655587E+03  0.50400001928E-02 0. -1.
    10030    2    1    2    0    0  0.00000000000E+00  0.00000000000E+00  0.51453265999E+03  0.95104577169E+03  0.79984011005E+03 0.  0.
        4    1    3    3  502    0 -0.39835152866E+03 -0.28091324990E+02  0.28280657599E+03  0.48934061271E+03  0.12699999809E+01 0.  1.
       -4    1    3    3    0  502  0.39835152866E+03  0.28091324990E+02  0.23172608400E+03  0.46170515898E+03  0.12699999809E+01 0. -1.
</event>
<event>
 5   0  0.2768834E-03  0.8011358E+03  0.7818609E-02  0.9558375E-01
        2   -1    0    0  501    0  0.00000000000E+00  0.00000000000E+00  0.13804693155E+03  0.13804693157E+03  0.25500000920E-02 0.  1.
       -2   -1    0    0    0  501  0.00000000000E+00  0.00000000000E+00 -0.11623193955E+04  0.11623193955E+04  0.25500000920E-02 0. -1.
    10030    2    1    2    0    0  0.00000000000E+00  0.00000000000E+00 -0.10242724640E+04  0.13003663271E+04  0.80113575890E+03 0.  0.
        4    1    3    3  502    0  0.32312294627E+03  0.28661405400E+02 -0.89357074255E+03  0.95063147403E+03  0.12699999809E+01 0. -1.
       -4    1    3    3    0  502 -0.32312294627E+03 -0.28661405400E+02 -0.13070172142E+03  0.34973485306E+03  0.12699999809E+01 0.  1.
</event>
<event>
 5   0  0.2873212E-03  0.8001050E+03  0.7818609E-02  0.9559865E-01
        2   -1    0    0  501    0  0.00000000000E+00  0.00000000000E+00  0.81274595144E+03  0.81274595144E+03  0.25500000920E-02 0. -1.
       -2   -1    0    0    0  501  0.00000000000E+00  0.00000000000E+00 -0.19691516872E+03  0.19691516873E+03  0.25500000920E-02 0.  1.
    10030    2    1    2    0    0  0.00000000000E+00  0.00000000000E+00  0.61583078272E+03  0.10096611202E+04  0.80010500851E+03 0.  0.
        2    1    3    3  502    0 -0.12342732398E+03 -0.41353163114E+02 -0.16944331262E+03  0.21367130037E+03  0.25500000920E-02 0.  1.
       -2    1    3    3    0  502  0.12342732398E+03  0.41353163114E+02  0.78527409535E+03  0.79598981980E+03  0.25500000920E-02 0. -1.
</event>
<event>
 5   0  0.2768834E-03  0.8045105E+03  0.7818609E-02  0.9553511E-01
       -2   -1    0    0    0  501  0.00000000000E+00  0.00000000000E+00  0.18953596764E+03  0.18953596765E+03  0.25500000920E-02 0. -1.
        2   -1    0    0  501    0  0.00000000000E+00  0.00000000000E+00 -0.85371279370E+03  0.85371279371E+03  0.25500000920E-02 0.  1.
    10030    2    1    2    0    0  0.00000000000E+00  0.00000000000E+00 -0.66417682607E+03  0.10432487614E+04  0.80451048582E+03 0.  0.
        4    1    3    3  502    0  0.33942178252E+03  0.44577189597E+01 -0.61196008370E+03  0.69980266836E+03  0.12699999809E+01 0.  1.
       -4    1    3    3    0  502 -0.33942178252E+03 -0.44577189597E+01 -0.52216742368E+02  0.34344609300E+03  0.12699999809E+01 0. -1.
</event>
<event>
 5   0  0.2910501E-03  0.8079683E+03  0.7818609E-02  0.9548554E-01
        2   -1    0    0  501    0  0.00000000000E+00  0.00000000000E+00  0.90120017118E+03  0.90120017118E+03  0.25500000920E-02 0. -1.
       -2   -1    0    0    0  501  0.00000000000E+00  0.00000000000E+00 -0.18109539187E+03  0.18109539189E+03  0.25500000920E-02 0.  1.
    10030    2    1    2    0    0  0.00000000000E+00  0.00000000000E+00  0.72010477931E+03  0.10822955631E+04  0.80796831166E+03 0.  0.
        1    1    3    3  502    0  0.83846693851E+02  0.39076573871E+03  0.28108765626E+03  0.48860863801E+03  0.50400001928E-02 0. -1.
       -1    1    3    3    0  502 -0.83846693851E+02 -0.39076573871E+03  0.43901712306E+03  0.59368692505E+03  0.50400001928E-02 0.  1.
</event>
<event>
 5   0  0.2763587E-03  0.7991453E+03  0.7818609E-02  0.9561255E-01
       -2   -1    0    0    0  501  0.00000000000E+00  0.00000000000E+00  0.27330213261E+03  0.27330213262E+03  0.25500000920E-02 0.  1.
        2   -1    0    0  501    0  0.00000000000E+00  0.00000000000E+00 -0.58418243509E+03  0.58418243509E+03  0.25500000920E-02 0. -1.
    10030    2    1    2    0    0  0.00000000000E+00  0.00000000000E+00 -0.31088030248E+03  0.85748456771E+03  0.79914530681E+03 0.  0.
        3    1    3    3  502    0  0.36052579630E+03 -0.41322220124E+02 -0.33489768459E+03  0.49380446031E+03  0.10100000352E+00 0. -1.
       -3    1    3    3    0  502 -0.36052579630E+03  0.41322220124E+02  0.24017382112E+02  0.36368010740E+03  0.10100000352E+00 0.  1.
</event>
<event>
 5   0  0.1617491E-03  0.8003494E+03  0.7818609E-02  0.9559512E-01
       -1   -1    0    0    0  501  0.00000000000E+00  0.00000000000E+00  0.17928620034E+03  0.17928620041E+03  0.50400001928E-02 0. -1.
        1   -1    0    0  501    0  0.00000000000E+00  0.00000000000E+00 -0.89320751135E+03  0.89320751137E+03  0.50400001928E-02 0.  1.
    10030    2    1    2    0    0  0.00000000000E+00  0.00000000000E+00 -0.71392131101E+03  0.10724937118E+04  0.80034937589E+03 0.  0.
        1    1    3    3  502    0 -0.16492450720E+03  0.24346751995E+02 -0.84445779188E+03  0.86075653915E+03  0.50400001928E-02 0.  1.
       -1    1    3    3    0  502  0.16492450720E+03 -0.24346751995E+02  0.13053648087E+03  0.21173717262E+03  0.50400001928E-02 0. -1.
</event>
<event>
 5   0  0.2873212E-03  0.8010537E+03  0.7818609E-02  0.9558493E-01
       -2   -1    0    0    0  501  0.00000000000E+00  0.00000000000E+00  0.54133275465E+03  0.54133275466E+03  0.25500000920E-02 0. -1.
        2   -1    0    0  501    0  0.00000000000E+00  0.00000000000E+00 -0.29634590369E+03  0.29634590370E+03  0.25500000920E-02 0.  1.
    10030    2    1    2    0    0  0.00000000000E+00  0.00000000000E+00  0.24498685097E+03  0.83767865836E+03  0.80105366707E+03 0.  0.
        2    1    3    3  502    0 -0.47911478398E+01 -0.13374101161E+03 -0.27227440541E+03  0.30338583542E+03  0.25500000920E-02 0.  1.
       -2    1    3    3    0  502  0.47911478398E+01  0.13374101161E+03  0.51726125638E+03  0.53429282294E+03  0.25500000920E-02 0. -1.
</event>
<event>
 5   0  0.1637228E-03  0.7984475E+03  0.7818609E-02  0.9562267E-01
        1   -1    0    0  501    0  0.00000000000E+00  0.00000000000E+00  0.29163212988E+03  0.29163212993E+03  0.50400001928E-02 0. -1.
       -1   -1    0    0    0  501  0.00000000000E+00  0.00000000000E+00 -0.54650907271E+03  0.54650907274E+03  0.50400001928E-02 0.  1.
    10030    2    1    2    0    0  0.00000000000E+00  0.00000000000E+00 -0.25487694283E+03  0.83814120266E+03  0.79844750586E+03 0.  0.
        2    1    3    3  502    0  0.12965514463E+03  0.79584324279E+02 -0.51488871772E+03  0.53689339057E+03  0.25500000920E-02 0.  1.
       -2    1    3    3    0  502 -0.12965514463E+03 -0.79584324279E+02  0.26001177489E+03  0.30124781209E+03  0.25500000920E-02 0. -1.
</event>
<event>
 5   0  0.2768834E-03  0.8001225E+03  0.7818609E-02  0.9559840E-01
       -2   -1    0    0    0  501  0.00000000000E+00  0.00000000000E+00  0.95350644887E+02  0.95350644921E+02  0.25500000920E-02 0. -1.
        2   -1    0    0  501    0  0.00000000000E+00  0.00000000000E+00 -0.16785307619E+04  0.16785307620E+04  0.25500000920E-02 0.  1.
    10030    2    1    2    0    0  0.00000000000E+00  0.00000000000E+00 -0.15831801171E+04  0.17738814069E+04  0.80012246724E+03 0.  0.
        4    1    3    3  502    0  0.43282361947E+02  0.35993885715E+03 -0.11666390603E+04  0.12216700265E+04  0.12699999809E+01 0.  1.
       -4    1    3    3    0  502 -0.43282361947E+02 -0.35993885715E+03 -0.41654105677E+03  0.55221138038E+03  0.12699999809E+01 0. -1.
</event>
<event>
 5   0  0.2768834E-03  0.8030963E+03  0.7818609E-02  0.9555546E-01
        2   -1    0    0  501    0  0.00000000000E+00  0.00000000000E+00  0.28665758296E+03  0.28665758297E+03  0.25500000920E-02 0. -1.
       -2   -1    0    0    0  501  0.00000000000E+00  0.00000000000E+00 -0.56248607024E+03  0.56248607024E+03  0.25500000920E-02 0.  1.
    10030    2    1    2    0    0  0.00000000000E+00  0.00000000000E+00 -0.27582848728E+03  0.84914365321E+03  0.80309625164E+03 0.  0.
        4    1    3    3  502    0 -0.25010883173E+03 -0.88658095191E+01 -0.46993543197E+03  0.53242272059E+03  0.12699999809E+01 0.  1.
       -4    1    3    3    0  502  0.25010883173E+03  0.88658095191E+01  0.19410694469E+03  0.31672093262E+03  0.12699999809E+01 0. -1.
</event>
<event>
 5   0  0.1617491E-03  0.8005457E+03  0.7818609E-02  0.9559228E-01
        1   -1    0    0  501    0  0.00000000000E+00  0.00000000000E+00  0.13779503021E+04  0.13779503022E+04  0.50400001928E-02 0.  1.
       -1   -1    0    0    0  501  0.00000000000E+00  0.00000000000E+00 -0.11627295275E+03  0.11627295286E+03  0.50400001928E-02 0. -1.
    10030    2    1    2    0    0  0.00000000000E+00  0.00000000000E+00  0.12616773494E+04  0.14942232550E+04  0.80054569005E+03 0.  0.
        1    1    3    3  502    0  0.25107860831E+03 -0.25181716735E+03  0.28785838962E+03  0.45750935053E+03  0.50400001928E-02 0. -1.
       -1    1    3    3    0  502 -0.25107860831E+03  0.25181716735E+03  0.97381895977E+03  0.10367139045E+04  0.50400001928E-02 0.  1.
</event>
<event>
 5   0  0.1656051E-03  0.8001087E+03  0.7818609E-02  0.9559860E-01
       -1   -1    0    0    0  501  0.00000000000E+00  0.00000000000E+00  0.27078470712E+03  0.27078470717E+03  0.50400001928E-02 0.  1.
        1   -1    0    0  501    0  0.00000000000E+00  0.00000000000E+00 -0.59103585969E+03  0.59103585971E+03  0.50400001928E-02 0. -1.
    10030    2    1    2    0    0  0.00000000000E+00  0.00000000000E+00 -0.32025115257E+03  0.86182056688E+03  0.80010867311E+03 0.  0.
        3    1    3    3  502    0 -0.11758933704E+03  0.31961753693E+03 -0.38622229608E+03  0.51492746508E+03  0.10100000352E+00 0. -1.
       -3    1    3    3    0  502  0.11758933704E+03 -0.31961753693E+03  0.65971143515E+02  0.34689310180E+03  0.10100000352E+00 0.  1.
</event>
<event>
 5   0  0.2763587E-03  0.7996285E+03  0.7818609E-02  0.9560555E-01
        2   -1    0    0  501    0  0.00000000000E+00  0.00000000000E+00  0.57286811091E+03  0.57286811092E+03  0.25500000920E-02 0. -1.
       -2   -1    0    0    0  501  0.00000000000E+00  0.00000000000E+00 -0.27903704775E+03  0.27903704776E+03  0.25500000920E-02 0.  1.
    10030    2    1    2    0    0  0.00000000000E+00  0.00000000000E+00  0.29383106317E+03  0.85190515868E+03  0.79962847979E+03 0.  0.
        3    1    3    3  502    0  0.17292639745E+03 -0.30944194801E+03 -0.50088512684E+02  0.35800380924E+03  0.10100000352E+00 0.  1.
       -3    1    3    3    0  502 -0.17292639745E+03  0.30944194801E+03  0.34391957585E+03  0.49390134944E+03  0.10100000352E+00 0. -1.
</event>
<event>
 5   0  0.1640035E-03  0.7996275E+03  0.7818609E-02  0.9560556E-01
       -1   -1    0    0    0  501  0.00000000000E+00  0.00000000000E+00  0.52456772995E+03  0.52456772998E+03  0.50400001928E-02 0. -1.
        1   -1    0    0  501    0  0.00000000000E+00  0.00000000000E+00 -0.30472909555E+03  0.30472909559E+03  0.50400001928E-02 0.  1.
    10030    2    1    2    0    0  0.00000000000E+00  0.00000000000E+00  0.21983863440E+03  0.82929682557E+03  0.79962753813E+03 0.  0.
        5    1    3    3  502    0  0.12987550842E+02 -0.38145315253E+03  0.23330319572E+03  0.44735629557E+03  0.46999998093E+01 0. -1.
       -5    1    3    3    0  502 -0.12987550842E+02  0.38145315253E+03 -0.13464561319E+02  0.38194053001E+03  0.46999998093E+01 0.  1.
</event>
<event>
 5   0  0.1712793E-03  0.8004355E+03  0.7818609E-02  0.9559387E-01
        1   -1    0    0  501    0  0.00000000000E+00  0.00000000000E+00  0.53847138702E+03  0.53847138704E+03  0.50400001928E-02 0. -1.
       -1   -1    0    0    0  501  0.00000000000E+00  0.00000000000E+00 -0.29746101954E+03  0.29746101958E+03  0.50400001928E-02 0.  1.
    10030    2    1    2    0    0  0.00000000000E+00  0.00000000000E+00  0.24101036748E+03  0.83593240662E+03  0.80043550097E+03 0.  0.
        4    1    3    3  502    0 -0.24064451062E+03  0.16972520583E+03  0.40355252182E+03  0.49957249399E+03  0.12699999809E+01 0. -1.
       -4    1    3    3    0  502  0.24064451062E+03 -0.16972520583E+03 -0.16254215434E+03  0.33635991263E+03  0.12699999809E+01 0.  1.
</event>
<event>
 5   0  0.2768834E-03  0.8000919E+03  0.7818609E-02  0.9559884E-01
       -2   -1    0    0    0  501  0.00000000000E+00  0.00000000000E+00  0.31726546392E+03  0.31726546393E+03  0.25500000920E-02 0.  1.
        2   -1    0    0  501    0  0.00000000000E+00  0.00000000000E+00 -0.50442542987E+03  0.50442542988E+03  0.25500000920E-02 0. -1.
    10030    2    1    2    0    0  0.00000000000E+00  0.00000000000E+00 -0.18715996596E+03  0.82169089381E+03  0.80009191479E+03 0.  0.
        4    1    3    3  502    0 -0.16342282911E+03 -0.34382440677E+03  0.32673294172E+02  0.38208821078E+03  0.12699999809E+01 0.  1.
       -4    1    3    3    0  502  0.16342282911E+03  0.34382440677E+03 -0.21983326013E+03  0.43960268303E+03  0.12699999809E+01 0. -1.
</event>
<event>
 5   0  0.2910501E-03  0.8016844E+03  0.7818609E-02  0.9557582E-01
       -2   -1    0    0    0  501  0.00000000000E+00  0.00000000000E+00  0.43742367087E+03  0.43742367088E+03  0.25500000920E-02 0.  1.
        2   -1    0    0  501    0  0.00000000000E+00  0.00000000000E+00 -0.36732001760E+03  0.36732001761E+03  0.25500000920E-02 0. -1.
    10030    2    1    2    0    0  0.00000000000E+00  0.00000000000E+00  0.70103653274E+02  0.80474368849E+03  0.80168440297E+03 0.  0.
        1    1    3    3  502    0 -0.96134705621E+02 -0.38392349522E+03 -0.28714902228E+02  0.39681693190E+03  0.50400001928E-02 0. -1.
       -1    1    3    3    0  502  0.96134705621E+02  0.38392349522E+03  0.98818555502E+02  0.40792675659E+03  0.50400001928E-02 0.  1.
</event>
<event>
 5   0  0.1637228E-03  0.8013372E+03  0.7818609E-02  0.9558084E-01
       -1   -1    0    0    0  501  0.00000000000E+00  0.00000000000E+00  0.94709120540E+02  0.94709120674E+02  0.50400001928E-02 0.  1.
        1   -1    0    0  501    0  0.00000000000E+00  0.00000000000E+00 -0.16950354191E+04  0.16950354191E+04  0.50400001928E-02 0. -1.
    10030    2    1    2    0    0  0.00000000000E+00  0.00000000000E+00 -0.16003262985E+04  0.17897445398E+04  0.80133716737E+03 0.  0.
        2    1    3    3  502    0 -0.99279441403E+02 -0.37665354366E+03 -0.59051611755E+03  0.70741330531E+03  0.25500000920E-02 0.  1.
       -2    1    3    3    0  502  0.99279441403E+02  0.37665354366E+03 -0.10098101810E+04  0.10823312345E+04  0.25500000920E-02 0. -1.
</event>
<event>
 5   0  0.2873212E-03  0.8008634E+03  0.7818609E-02  0.9558768E-01
        2   -1    0    0  501    0  0.00000000000E+00  0.00000000000E+00  0.17832069248E+03  0.17832069250E+03  0.25500000920E-02 0. -1.
       -2   -1    0    0    0  501  0.00000000000E+00  0.00000000000E+00 -0.89919766063E+03  0.89919766063E+03  0.25500000920E-02 0.  1.
    10030    2    1    2    0    0  0.00000000000E+00  0.00000000000E+00 -0.72087696815E+03  0.10775183531E+04  0.80086340791E+03 0.  0.
        2    1    3    3  502    0  0.19597710721E+03  0.21861068493E+03  0.59279082130E+01  0.29365421540E+03  0.25500000920E-02 0. -1.
       -2    1    3    3    0  502 -0.19597710721E+03 -0.21861068493E+03 -0.72680487636E+03  0.78386413774E+03  0.25500000920E-02 0.  1.
</event>
<event>
 5   0  0.1095350E-03  0.7989019E+03  0.7818609E-02  0.9561608E-01
        3   -1    0    0  501    0  0.00000000000E+00  0.00000000000E+00  0.15780952734E+03  0.15780955966E+03  0.10100000352E+00 0. -1.
       -3   -1    0    0    0  501  0.00000000000E+00  0.00000000000E+00 -0.10110988287E+04  0.10110988338E+04  0.10100000352E+00 0.  1.
    10030    2    1    2    0    0  0.00000000000E+00  0.00000000000E+00 -0.85328930140E+03  0.11689083934E+04  0.79890187156E+03 0.  0.
        3    1    3    3  502    0  0.16207535421E+03 -0.36066668868E+03 -0.34371963462E+03  0.52391991582E+03  0.10100000352E+00 0. -1.
       -3    1    3    3    0  502 -0.16207535421E+03  0.36066668868E+03 -0.50956966678E+03  0.64498847762E+03  0.10100000352E+00 0.  1.
</event>
<event>
 5   0  0.2910501E-03  0.8012389E+03  0.7818609E-02  0.9558226E-01
       -2   -1    0    0    0  501  0.00000000000E+00  0.00000000000E+00  0.12723689480E+03  0.12723689482E+03  0.25500000920E-02 0. -1.
        2   -1    0    0  501    0  0.00000000000E+00  0.00000000000E+00 -0.12613946340E+04  0.12613946340E+04  0.25500000920E-02 0.  1.
    10030    2    1    2    0    0  0.00000000000E+00  0.00000000000E+00 -0.11341577392E+04  0.13886315288E+04  0.80123888163E+03 0.  0.
        1    1    3    3  502    0  0.13715791454E+03  0.37163071311E+03 -0.46346501600E+03  0.60968967642E+03  0.50400001928E-02 0. -1.
       -1    1    3    3    0  502 -0.13715791454E+03 -0.37163071311E+03 -0.67069272317E+03  0.77894185238E+03  0.50400001928E-02 0.  1.
</event>
<event>
 5   0  0.2763587E-03  0.8009842E+03  0.7818609E-02  0.9558594E-01
        2   -1    0    0  501    0  0.00000000000E+00  0.00000000000E+00  0.22268016120E+04  0.22268016120E+04  0.25500000920E-02 0. -1.
       -2   -1    0    0    0  501  0.00000000000E+00  0.00000000000E+00 -0.72028825280E+02  0.72028825325E+02  0.25500000920E-02 0.  1.
    10030    2    1    2    0    0  0.00000000000E+00  0.00000000000E+00  0.21547727868E+04  0.22988304374E+04  0.80098415540E+03 0.  0.
        3    1    3    3  502    0 -0.10218628956E+03 -0.50666429777E+02  0.21792030066E+04  0.21821858030E+04  0.10100000352E+00 0. -1.
       -3    1    3    3    0  502  0.10218628956E+03  0.50666429777E+02 -0.24430219805E+02  0.11664463435E+03  0.10100000352E+00 0.  1.
</event>
<event>
 5   0  0.2873212E-03  0.7958553E+03  0.7818609E-02  0.9566036E-01
        2   -1    0    0  501    0  0.00000000000E+00  0.00000000000E+00  0.89294925234E+03  0.89294925234E+03  0.25500000920E-02 0. -1.
       -2   -1    0    0    0  501  0.00000000000E+00  0.00000000000E+00 -0.17732971148E+03  0.17732971149E+03  0.25500000920E-02 0.  1.
    10030    2    1    2    0    0  0.00000000000E+00  0.00000000000E+00  0.71561954086E+03  0.10702789638E+04  0.79585534688E+03 0.  0.
        2    1    3    3  502    0  0.34038595453E+03  0.87964091759E+02  0.10713177107E+03  0.36752890480E+03  0.25500000920E-02 0.  1.
       -2    1    3    3    0  502 -0.34038595453E+03 -0.87964091759E+02  0.60848776979E+03  0.70275005904E+03  0.25500000920E-02 0. -1.
</event>
<event>
 5   0  0.1640035E-03  0.8001943E+03  0.7818609E-02  0.9559736E-01
        1   -1    0    0  501    0  0.00000000000E+00  0.00000000000E+00  0.36967936744E+03  0.36967936748E+03  0.50400001928E-02 0. -1.
       -1   -1    0    0    0  501  0.00000000000E+00  0.00000000000E+00 -0.43301770053E+03  0.43301770056E+03  0.50400001928E-02 0.  1.
    10030    2    1    2    0    0  0.00000000000E+00  0.00000000000E+00 -0.63338333087E+02  0.80269706804E+03  0.80019425054E+03 0.  0.
        5    1    3    3  502    0  0.38042987312E+03 -0.11367181096E+03 -0.80888411809E+02  0.40523227183E+03  0.46999998093E+01 0.  1.
       -5    1    3    3    0  502 -0.38042987312E+03  0.11367181096E+03  0.17550078722E+02  0.39746479621E+03  0.46999998093E+01 0. -1.
</event>
<event>
 5   0  0.2768834E-03  0.8032724E+03  0.7818609E-02  0.9555292E-01
       -2   -1    0    0    0  501  0.00000000000E+00  0.00000000000E+00  0.35916028135E+03  0.35916028136E+03  0.25500000920E-02 0. -1.
        2   -1    0    0  501    0  0.00000000000E+00  0.00000000000E+00 -0.44913556388E+03  0.44913556389E+03  0.25500000920E-02 0.  1.
    10030    2    1    2    0    0  0.00000000000E+00  0.00000000000E+00 -0.89975282528E+02  0.80829584525E+03  0.80327244568E+03 0.  0.
        4    1    3    3  502    0 -0.33252586494E+03 -0.12893432353E+03 -0.23083844964E+03  0.42483586639E+03  0.12699999809E+01 0.  1.
       -4    1    3    3    0  502  0.33252586494E+03  0.12893432353E+03  0.14086316711E+03  0.38345997886E+03  0.12699999809E+01 0. -1.
</event>
<event>
 5   0  0.1656051E-03  0.7932632E+03  0.7818609E-02  0.9569820E-01
       -1   -1    0    0    0  501  0.00000000000E+00  0.00000000000E+00  0.14665052621E+03  0.14665052629E+03  0.50400001928E-02 0.  1.
        1   -1    0    0  501    0  0.00000000000E+00  0.00000000000E+00 -0.10727313017E+04  0.10727313017E+04  0.50400001928E-02 0. -1.
    10030    2    1    2    0    0  0.00000000000E+00  0.00000000000E+00 -0.92608077551E+03  0.12193818280E+04  0.79326315920E+03 0.  0.
        3    1    3    3  502    0 -0.12707599355E+03  0.97497981195E+02 -0.10208081061E+04  0.10332973261E+04  0.10100000352E+00 0. -1.
       -3    1    3    3    0  502  0.12707599355E+03 -0.97497981195E+02  0.94727330617E+02  0.18608450188E+03  0.10100000352E+00 0.  1.
</event>
<event>
 5   0  0.1617491E-03  0.7985545E+03  0.7818609E-02  0.9562112E-01
       -1   -1    0    0    0  501  0.00000000000E+00  0.00000000000E+00  0.42697962932E+03  0.42697962935E+03  0.50400001928E-02 0. -1.
        1   -1    0    0  501    0  0.00000000000E+00  0.00000000000E+00 -0.37337221328E+03  0.37337221331E+03  0.50400001928E-02 0.  1.
    10030    2    1    2    0    0  0.00000000000E+00  0.00000000000E+00  0.53607416038E+02  0.80035184266E+03  0.79855451723E+03 0.  0.
        1    1    3    3  502    0  0.53906465070E+02  0.29185272207E+02 -0.36862788762E+03  0.37368998735E+03  0.50400001928E-02 0.  1.
       -1    1    3    3    0  502 -0.53906465070E+02 -0.29185272207E+02  0.42223530366E+03  0.42666185531E+03  0.50400001928E-02 0. -1.
</event>
<event>
 5   0  0.2763587E-03  0.7985259E+03  0.7818609E-02  0.9562153E-01
       -2   -1    0    0    0  501  0.00000000000E+00  0.00000000000E+00  0.32282282150E+03  0.32282282151E+03  0.25500000920E-02 0. -1.
        2   -1    0    0  501    0  0.00000000000E+00  0.00000000000E+00 -0.49380310868E+03  0.49380310869E+03  0.25500000920E-02 0.  1.
    10030    2    1    2    0    0  0.00000000000E+00  0.00000000000E+00 -0.17098028718E+03  0.81662593021E+03  0.79852592399E+03 0.  0.
        3    1    3    3  502    0 -0.45573747960E+02  0.38303183264E+03 -0.19088215096E+03  0.43037931766E+03  0.10100000352E+00 0.  1.
       -3    1    3    3    0  502  0.45573747960E+02 -0.38303183264E+03  0.19901863777E+02  0.38624661254E+03  0.10100000352E+00 0. -1.
</event>
<event>
 5   0  0.1640035E-03  0.7998032E+03  0.7818609E-02  0.9560302E-01
        1   -1    0    0  501    0  0.00000000000E+00  0.00000000000E+00  0.44312129713E+03  0.44312129716E+03  0.50400001928E-02 0. -1.
       -1   -1    0    0    0  501  0.00000000000E+00  0.00000000000E+00 -0.36089728102E+03  0.36089728105E+03  0.50400001928E-02 0.  1.
    10030    2    1    2    0    0  0.00000000000E+00  0.00000000000E+00  0.82224016118E+02  0.80401857821E+03  0.79980315409E+03 0.  0.
        5    1    3    3  502    0 -0.17723519372E+03 -0.13917517811E+03  0.37318186357E+03  0.43596884911E+03  0.46999998093E+01 0. -1.
       -5    1    3    3    0  502  0.17723519372E+03  0.13917517811E+03 -0.29095784746E+03  0.36804972910E+03  0.46999998093E+01 0.  1.
</event>
<event>
 5   0  0.1656051E-03  0.7997302E+03  0.7818609E-02  0.9560408E-01
       -1   -1    0    0    0  501  0.00000000000E+00  0.00000000000E+00  0.24470047027E+03  0.24470047033E+03  0.50400001928E-02 0. -1.
        1   -1    0    0  501    0  0.00000000000E+00  0.00000000000E+00 -0.65341966121E+03  0.65341966123E+03  0.50400001928E-02 0.  1.
    10030    2    1    2    0    0  0.00000000000E+00  0.00000000000E+00 -0.40871919093E+03  0.89812013155E+03  0.79973020055E+03 0.  0.
        3    1    3    3  502    0 -0.10867128824E+03  0.33823800137E+03 -0.41045205692E+03  0.54284923845E+03  0.10100000352E+00 0.  1.
       -3    1    3    3    0  502  0.10867128824E+03 -0.33823800137E+03  0.17328659836E+01  0.35527089310E+03  0.10100000352E+00 0. -1.
</event>
<event>
 5   0  0.1712793E-03  0.7989033E+03  0.7818609E-02  0.9561606E-01
       -1   -1    0    0    0  501  0.00000000000E+00  0.00000000000E+00  0.27747746020E+03  0.27747746025E+03  0.50400001928E-02 0.  1.
        1   -1    0    0  501    0  0.00000000000E+00  0.00000000000E+00 -0.57504349537E+03  0.57504349539E+03  0.50400001928E-02 0. -1.
    10030    2    1    2    0    0  0.00000000000E+00  0.00000000000E+00 -0.29756603517E+03  0.85252095564E+03  0.79890326981E+03 0.  0.
        4    1    3    3  502    0  0.25671805864E+03 -0.28994594640E+03 -0.25326859723E+03  0.46273038447E+03  0.12699999809E+01 0. -1.
       -4    1    3    3    0  502 -0.25671805864E+03  0.28994594640E+03 -0.44297437937E+02  0.38979057117E+03  0.12699999809E+01 0.  1.
</event>
<event>
 5   0  0.1640035E-03  0.8060038E+03  0.7818609E-02  0.9551367E-01
        1   -1    0    0  501    0  0.00000000000E+00  0.00000000000E+00  0.24527688105E+04  0.24527688105E+04  0.50400001928E-02 0.  1.
       -1   -1    0    0    0  501  0.00000000000E+00  0.00000000000E+00 -0.66215182289E+02  0.66215182481E+02  0.50400001928E-02 0. -1.
    10030    2    1    2    0    0  0.00000000000E+00  0.00000000000E+00  0.23865536282E+04  0.25189839930E+04  0.80600380681E+03 0.  0.
        5    1    3    3  502    0  0.25665449325E+03  0.24371299313E+03  0.17954168691E+04  0.18299757855E+04  0.46999998093E+01 0.  1.
       -5    1    3    3    0  502 -0.25665449325E+03 -0.24371299313E+03  0.59113675915E+03  0.68900820746E+03  0.46999998093E+01 0. -1.
</event>
<event>
 5   0  0.1712793E-03  0.8013768E+03  0.7818609E-02  0.9558026E-01
        1   -1    0    0  501    0  0.00000000000E+00  0.00000000000E+00  0.11580166386E+04  0.11580166386E+04  0.50400001928E-02 0.  1.
       -1   -1    0    0    0  501  0.00000000000E+00  0.00000000000E+00 -0.13864324893E+03  0.13864324902E+03  0.50400001928E-02 0. -1.
    10030    2    1    2    0    0  0.00000000000E+00  0.00000000000E+00  0.10193733897E+04  0.12966598876E+04  0.80137678818E+03 0.  0.
        4    1    3    3  502    0 -0.55900708993E+02 -0.33649834070E+03  0.16953802273E+03  0.38092095848E+03  0.12699999809E+01 0. -1.
       -4    1    3    3    0  502  0.55900708993E+02  0.33649834070E+03  0.84983536695E+03  0.91573892916E+03  0.12699999809E+01 0.  1.
</event>
<event>
 5   0  0.2763587E-03  0.7993982E+03  0.7818609E-02  0.9560889E-01
       -2   -1    0    0    0  501  0.00000000000E+00  0.00000000000E+00  0.16365266671E+03  0.16365266673E+03  0.25500000920E-02 0. -1.
        2   -1    0    0  501    0  0.00000000000E+00  0.00000000000E+00 -0.97620999565E+03  0.97620999565E+03  0.25500000920E-02 0.  1.
    10030    2    1    2    0    0  0.00000000000E+00  0.00000000000E+00 -0.81255732893E+03  0.11398626624E+04  0.79939819632E+03 0.  0.
        3    1    3    3  502    0  0.34613384352E+03 -0.94402766747E+02 -0.15506567181E+03  0.39085277634E+03  0.10100000352E+00 0. -1.
       -3    1    3    3    0  502 -0.34613384352E+03  0.94402766747E+02 -0.65749165712E+03  0.74900988604E+03  0.10100000352E+00 0.  1.
</event>
<event>
 5   0  0.1712793E-03  0.8003986E+03  0.7818609E-02  0.9559440E-01
       -1   -1    0    0    0  501  0.00000000000E+00  0.00000000000E+00  0.26878926310E+03  0.26878926315E+03  0.50400001928E-02 0.  1.
        1   -1    0    0  501    0  0.00000000000E+00  0.00000000000E+00 -0.59585521692E+03  0.59585521694E+03  0.50400001928E-02 0. -1.
    10030    2    1    2    0    0  0.00000000000E+00  0.00000000000E+00 -0.32706595382E+03  0.86464448009E+03  0.80039861244E+03 0.  0.
        4    1    3    3  502    0 -0.33343233264E+03  0.95781874794E+02 -0.37906345897E+03  0.51385017935E+03  0.12699999809E+01 0. -1.
       -4    1    3    3    0  502  0.33343233264E+03 -0.95781874794E+02  0.51997505154E+02  0.35079430074E+03  0.12699999809E+01 0.  1.
</event>
<event>
 5   0  0.2763587E-03  0.8003779E+03  0.7818609E-02  0.9559470E-01
        2   -1    0    0  501    0  0.00000000000E+00  0.00000000000E+00  0.95155636738E+03  0.95155636739E+03  0.25500000920E-02 0. -1.
       -2   -1    0    0    0  501  0.00000000000E+00  0.00000000000E+00 -0.16830449238E+03  0.16830449240E+03  0.25500000920E-02 0.  1.
    10030    2    1    2    0    0  0.00000000000E+00  0.00000000000E+00  0.78325187500E+03  0.11198608598E+04  0.80037793922E+03 0.  0.
        3    1    3    3  502    0  0.37760781844E+03  0.16372588161E+02  0.57563330124E+03  0.68862866182E+03  0.10100000352E+00 0. -1.
       -3    1    3    3    0  502 -0.37760781844E+03 -0.16372588161E+02  0.20761857376E+03  0.43123219796E+03  0.10100000352E+00 0.  1.
</event>
<event>
 5   0  0.2768834E-03  0.8003489E+03  0.7818609E-02  0.9559512E-01
       -2   -1    0    0    0  501  0.00000000000E+00  0.00000000000E+00  0.20620212046E+03  0.20620212047E+03  0.25500000920E-02 0. -1.
        2   -1    0    0  501    0  0.00000000000E+00  0.00000000000E+00 -0.77661471048E+03  0.77661471048E+03  0.25500000920E-02 0.  1.
    10030    2    1    2    0    0  0.00000000000E+00  0.00000000000E+00 -0.57041259002E+03  0.98281683095E+03  0.80034892413E+03 0.  0.
        4    1    3    3  502    0  0.29911264981E+03  0.12986116930E+03 -0.57005044774E+03  0.65672781762E+03  0.12699999809E+01 0.  1.
       -4    1    3    3    0  502 -0.29911264981E+03 -0.12986116930E+03 -0.36214227995E+00  0.32608901333E+03  0.12699999809E+01 0. -1.
</event>
<event>
 5   0  0.1712793E-03  0.7994192E+03  0.7818609E-02  0.9560858E-01
        1   -1    0    0  501    0  0.00000000000E+00  0.00000000000E+00  0.68212587353E+03  0.68212587355E+03  0.50400001928E-02 0. -1.
       -1   -1    0    0    0  501  0.00000000000E+00  0.00000000000E+00 -0.23422033559E+03  0.23422033565E+03  0.50400001928E-02 0.  1.
    10030    2    1    2    0    0  0.00000000000E+00  0.00000000000E+00  0.44790553794E+03  0.91634620920E+03  0.79941916677E+03 0.  0.
        4    1    3    3  502    0 -0.14569324191E+03  0.31823594801E+03  0.26746350588E+01  0.35001343677E+03  0.12699999809E+01 0.  1.
       -4    1    3    3    0  502  0.14569324191E+03 -0.31823594801E+03  0.44523090288E+03  0.56633277243E+03  0.12699999809E+01 0. -1.
</event>
<event>
 5   0  0.1617491E-03  0.8008342E+03  0.7818609E-02  0.9558810E-01
       -1   -1    0    0    0  501  0.00000000000E+00  0.00000000000E+00  0.45429552073E+03  0.45429552076E+03  0.50400001928E-02 0.  1.
        1   -1    0    0  501    0  0.00000000000E+00  0.00000000000E+00 -0.35292852616E+03  0.35292852620E+03  0.50400001928E-02 0. -1.
    10030    2    1    2    0    0  0.00000000000E+00  0.00000000000E+00  0.10136699457E+03  0.80722404695E+03  0.80083418658E+03 0.  0.
        1    1    3    3  502    0  0.19046095897E+03  0.31222212161E+03 -0.11363816167E+03  0.38297736477E+03  0.50400001928E-02 0. -1.
       -1    1    3    3    0  502 -0.19046095897E+03 -0.31222212161E+03  0.21500515623E+03  0.42424668218E+03  0.50400001928E-02 0.  1.
</event>
<event>
 5   0  0.2873212E-03  0.8000619E+03  0.7818609E-02  0.9559927E-01
       -2   -1    0    0    0  501  0.00000000000E+00  0.00000000000E+00  0.17217223925E+03  0.17217223927E+03  0.25500000920E-02 0.  1.
        2   -1    0    0  501    0  0.00000000000E+00  0.00000000000E+00 -0.92944588877E+03  0.92944588878E+03  0.25500000920E-02 0. -1.
    10030    2    1    2    0    0  0.00000000000E+00  0.00000000000E+00 -0.75727364952E+03  0.11016181280E+04  0.80006194747E+03 0.  0.
        2    1    3    3  502    0  0.66439627916E+02 -0.81032302588E+02  0.15293894466E+03  0.18539357870E+03  0.25500000920E-02 0.  1.
       -2    1    3    3    0  502 -0.66439627916E+02  0.81032302588E+02 -0.91021259418E+03  0.91622454935E+03  0.25500000920E-02 0. -1.
</event>
<event>
 5   0  0.2763587E-03  0.8008215E+03  0.7818609E-02  0.9558829E-01
       -2   -1    0    0    0  501  0.00000000000E+00  0.00000000000E+00  0.17991661637E+03  0.17991661639E+03  0.25500000920E-02 0.  1.
        2   -1    0    0  501    0  0.00000000000E+00  0.00000000000E+00 -0.89112824558E+03  0.89112824558E+03  0.25500000920E-02 0. -1.
    10030    2    1    2    0    0  0.00000000000E+00  0.00000000000E+00 -0.71121162921E+03  0.10710448620E+04  0.80082152495E+03 0.  0.
        3    1    3    3  502    0  0.19531860714E+03  0.33808718837E+03 -0.47430221546E+03  0.61434103479E+03  0.10100000352E+00 0.  1.
       -3    1    3    3    0  502 -0.19531860714E+03 -0.33808718837E+03 -0.23690941375E+03  0.45670382718E+03  0.10100000352E+00 0. -1.
</event>
<event>
 5   0  0.1712793E-03  0.7988310E+03  0.7818609E-02  0.9561711E-01
        1   -1    0    0  501    0  0.00000000000E+00  0.00000000000E+00  0.53408189361E+03  0.53408189363E+03  0.50400001928E-02 0.  1.
       -1   -1    0    0    0  501  0.00000000000E+00  0.00000000000E+00 -0.29870466521E+03  0.29870466525E+03  0.50400001928E-02 0. -1.
    10030    2    1    2    0    0  0.00000000000E+00  0.00000000000E+00  0.23537722840E+03  0.83278655888E+03  0.79883102907E+03 0.  0.
        4    1    3    3  502    0  0.35670135839E+03 -0.17810003872E+03  0.14270133051E+03  0.42346282659E+03  0.12699999809E+01 0.  1.
       -4    1    3    3    0  502 -0.35670135839E+03  0.17810003872E+03  0.92675897889E+02  0.40932373230E+03  0.12699999809E+01 0. -1.
</event>
<event>
 5   0  0.1637228E-03  0.8007871E+03  0.7818609E-02  0.9558879E-01
       -1   -1    0    0    0  501  0.00000000000E+00  0.00000000000E+00  0.11651591653E+03  0.11651591664E+03  0.50400001928E-02 0. -1.
        1   -1    0    0  501    0  0.00000000000E+00  0.00000000000E+00 -0.13759063873E+04  0.13759063873E+04  0.50400001928E-02 0.  1.
    10030    2    1    2    0    0  0.00000000000E+00  0.00000000000E+00 -0.12593904707E+04  0.14924223039E+04  0.80078709744E+03 0.  0.
        2    1    3    3  502    0  0.11505918591E+03 -0.15335516566E+03 -0.12848005185E+04  0.12990260950E+04  0.25500000920E-02 0.  1.
       -2    1    3    3    0  502 -0.11505918591E+03  0.15335516566E+03  0.25410047765E+02  0.19339620893E+03  0.25500000920E-02 0. -1.
</event>
<event>
 5   0  0.1617491E-03  0.8006262E+03  0.7818609E-02  0.9559111E-01
       -1   -1    0    0    0  501  0.00000000000E+00  0.00000000000E+00  0.42181007146E+03  0.42181007149E+03  0.50400001928E-02 0.  1.
        1   -1    0    0  501    0  0.00000000000E+00  0.00000000000E+00 -0.37991169477E+03  0.37991169481E+03  0.50400001928E-02 0. -1.
    10030    2    1    2    0    0  0.00000000000E+00  0.00000000000E+00  0.41898376686E+02  0.80172176629E+03  0.80062620278E+03 0.  0.
        1    1    3    3  502    0  0.17554593336E+03 -0.31474005196E+03 -0.15356752866E+03  0.39174055306E+03  0.50400001928E-02 0.  1.
       -1    1    3    3    0  502 -0.17554593336E+03  0.31474005196E+03  0.19546590535E+03  0.40998121323E+03  0.50400001928E-02 0. -1.
</event>
<event>
 5   0  0.2873212E-03  0.7996588E+03  0.7818609E-02  0.9560511E-01
        2   -1    0    0  501    0  0.00000000000E+00  0.00000000000E+00  0.25085779298E+03  0.25085779300E+03  0.25500000920E-02 0.  1.
       -2   -1    0    0    0  501  0.00000000000E+00  0.00000000000E+00 -0.63726757247E+03  0.63726757247E+03  0.25500000920E-02 0. -1.
    10030    2    1    2    0    0  0.00000000000E+00  0.00000000000E+00 -0.38640977948E+03  0.88812536547E+03  0.79965876917E+03 0.  0.
        2    1    3    3  502    0 -0.20647547158E+03  0.18379967289E+03  0.12762911308E+03  0.30447270918E+03  0.25500000920E-02 0.  1.
       -2    1    3    3    0  502  0.20647547158E+03 -0.18379967289E+03 -0.51403889256E+03  0.58365265629E+03  0.25500000920E-02 0. -1.
</event>
<event>
 5   0  0.1095350E-03  0.8007941E+03  0.7818609E-02  0.9558868E-01
       -3   -1    0    0    0  501  0.00000000000E+00  0.00000000000E+00  0.22943171731E+03  0.22943173954E+03  0.10100000352E+00 0.  1.
        3   -1    0    0  501    0  0.00000000000E+00  0.00000000000E+00 -0.69876040336E+03  0.69876041066E+03  0.10100000352E+00 0. -1.
    10030    2    1    2    0    0  0.00000000000E+00  0.00000000000E+00 -0.46932868605E+03  0.92819215020E+03  0.80079413843E+03 0.  0.
        5    1    3    3  502    0  0.32504585227E+03  0.95364246588E+02 -0.48203311868E+03  0.58917498513E+03  0.46999998093E+01 0. -1.
       -5    1    3    3    0  502 -0.32504585227E+03 -0.95364246588E+02  0.12704432623E+02  0.33901716507E+03  0.46999998093E+01 0.  1.
</event>
<event>
 5   0  0.1640035E-03  0.8239046E+03  0.7818609E-02  0.9526046E-01
       -1   -1    0    0    0  501  0.00000000000E+00  0.00000000000E+00  0.93131207896E+03  0.93131207898E+03  0.50400001928E-02 0. -1.
        1   -1    0    0  501    0  0.00000000000E+00  0.00000000000E+00 -0.18222108208E+03  0.18222108215E+03  0.50400001928E-02 0.  1.
    10030    2    1    2    0    0  0.00000000000E+00  0.00000000000E+00  0.74909099689E+03  0.11135331611E+04  0.82390459358E+03 0.  0.
        5    1    3    3  502    0 -0.14383955151E+03 -0.38596980351E+03  0.38060467710E+03  0.56084268385E+03  0.46999998093E+01 0. -1.
       -5    1    3    3    0  502  0.14383955151E+03  0.38596980351E+03  0.36848631978E+03  0.55269047727E+03  0.46999998093E+01 0.  1.
</event>
<event>
 5   0  0.1656051E-03  0.7998997E+03  0.7818609E-02  0.9560162E-01
        1   -1    0    0  501    0  0.00000000000E+00  0.00000000000E+00  0.62245097230E+03  0.62245097232E+03  0.50400001928E-02 0. -1.
       -1   -1    0    0    0  501  0.00000000000E+00  0.00000000000E+00 -0.25698391634E+03  0.25698391639E+03  0.50400001928E-02 0.  1.
    10030    2    1    2    0    0  0.00000000000E+00  0.00000000000E+00  0.36546705596E+03  0.87943488871E+03  0.79989971527E+03 0.  0.
        3    1    3    3  502    0 -0.27911871010E+03  0.49625563865E+02  0.49290168048E+03  0.56861412903E+03  0.10100000352E+00 0. -1.
       -3    1    3    3    0  502  0.27911871010E+03 -0.49625563865E+02 -0.12743462451E+03  0.31082075967E+03  0.10100000352E+00 0.  1.
</event>
<event>
 5   0  0.2763587E-03  0.8015538E+03  0.7818609E-02  0.9557771E-01
       -2   -1    0    0    0  501  0.00000000000E+00  0.00000000000E+00  0.30038921570E+03  0.30038921571E+03  0.25500000920E-02 0.  1.
        2   -1    0    0  501    0  0.00000000000E+00  0.00000000000E+00 -0.53471338720E+03  0.53471338721E+03  0.25500000920E-02 0. -1.
    10030    2    1    2    0    0  0.00000000000E+00  0.00000000000E+00 -0.23432417150E+03  0.83510260292E+03  0.80155382854E+03 0.  0.
        3    1    3    3  502    0  0.37713288905E+03 -0.65031534850E+02 -0.24115508473E+03  0.45234290270E+03  0.10100000352E+00 0.  1.
       -3    1    3    3    0  502 -0.37713288905E+03  0.65031534850E+02  0.68309132318E+01  0.38275970021E+03  0.10100000352E+00 0. -1.
</event>
<event>
 5   0  0.2763587E-03  0.7997542E+03  0.7818609E-02  0.9560373E-01
        2   -1    0    0  501    0  0.00000000000E+00  0.00000000000E+00  0.10724609576E+04  0.10724609576E+04  0.25500000920E-02 0. -1.
       -2   -1    0    0    0  501  0.00000000000E+00  0.00000000000E+00 -0.14909791549E+03  0.14909791552E+03  0.25500000920E-02 0.  1.
    10030    2    1    2    0    0  0.00000000000E+00  0.00000000000E+00  0.92336304210E+03  0.12215588731E+04  0.79975419534E+03 0.  0.
        3    1    3    3  502    0  0.35906800485E+03 -0.77910250574E+02  0.70271292360E+03  0.79297244747E+03  0.10100000352E+00 0. -1.
       -3    1    3    3    0  502 -0.35906800485E+03  0.77910250574E+02  0.22065011851E+03  0.42858642565E+03  0.10100000352E+00 0.  1.
</event>
<event>
 5   0  0.1617491E-03  0.8019316E+03  0.7818609E-02  0.9557225E-01
        1   -1    0    0  501    0  0.00000000000E+00  0.00000000000E+00  0.83990784805E+03  0.83990784807E+03  0.50400001928E-02 0. -1.
       -1   -1    0    0    0  501  0.00000000000E+00  0.00000000000E+00 -0.19141812594E+03  0.19141812601E+03  0.50400001928E-02 0.  1.
    10030    2    1    2    0    0  0.00000000000E+00  0.00000000000E+00  0.64848972211E+03  0.10313259741E+04  0.80193163370E+03 0.  0.
        1    1    3    3  502    0 -0.82796216673E+02 -0.37755562276E+03  0.46137762203E+03  0.60189099670E+03  0.50400001928E-02 0.  1.
       -1    1    3    3    0  502  0.82796216673E+02  0.37755562276E+03  0.18711210009E+03  0.42943497738E+03  0.50400001928E-02 0. -1.
</event>
<event>
 5   0  0.2910501E-03  0.8010996E+03  0.7818609E-02  0.9558427E-01
       -2   -1    0    0    0  501  0.00000000000E+00  0.00000000000E+00  0.80225398305E+02  0.80225398345E+02  0.25500000920E-02 0.  1.
        2   -1    0    0  501    0  0.00000000000E+00  0.00000000000E+00 -0.19998671239E+04  0.19998671239E+04  0.25500000920E-02 0. -1.
    10030    2    1    2    0    0  0.00000000000E+00  0.00000000000E+00 -0.19196417256E+04  0.20800925222E+04  0.80109958586E+03 0.  0.
        1    1    3    3  502    0 -0.34243609100E+03 -0.64445968195E+02 -0.14727579920E+04  0.15134172796E+04  0.50400001928E-02 0. -1.
       -1    1    3    3    0  502  0.34243609100E+03  0.64445968195E+02 -0.44688373363E+03  0.56667524266E+03  0.50400001928E-02 0.  1.
</event>
<event>
 5   0  0.1637228E-03  0.8050029E+03  0.7818609E-02  0.9552804E-01
       -1   -1    0    0    0  501  0.00000000000E+00  0.00000000000E+00  0.13132861697E+03  0.13132861707E+03  0.50400001928E-02 0. -1.
        1   -1    0    0  501    0  0.00000000000E+00  0.00000000000E+00 -0.12336033038E+04  0.12336033038E+04  0.50400001928E-02 0.  1.
    10030    2    1    2    0    0  0.00000000000E+00  0.00000000000E+00 -0.11022746868E+04  0.13649319209E+04  0.80500289651E+03 0.  0.
        2    1    3    3  502    0  0.50631504042E+02  0.18902587322E+03  0.45240317752E+02  0.20085073140E+03  0.25500000920E-02 0. -1.
       -2    1    3    3    0  502 -0.50631504042E+02 -0.18902587322E+03 -0.11475150046E+04  0.11640811895E+04  0.25500000920E-02 0.  1.
</event>
<event>
 5   0  0.1617491E-03  0.8011556E+03  0.7818609E-02  0.9558346E-01
        1   -1    0    0  501    0  0.00000000000E+00  0.00000000000E+00  0.44275459602E+03  0.44275459605E+03  0.50400001928E-02 0. -1.
       -1   -1    0    0    0  501  0.00000000000E+00  0.00000000000E+00 -0.36241878182E+03  0.36241878186E+03  0.50400001928E-02 0.  1.
    10030    2    1    2    0    0  0.00000000000E+00  0.00000000000E+00  0.80335814202E+02  0.80517337791E+03  0.80115561874E+03 0.  0.
        1    1    3    3  502    0 -0.53878503616E+02 -0.36562155988E+03 -0.11514044301E+03  0.38709086768E+03  0.50400001928E-02 0.  1.
       -1    1    3    3    0  502  0.53878503616E+02  0.36562155988E+03  0.19547625722E+03  0.41808251023E+03  0.50400001928E-02 0. -1.
</event>
<event>
 5   0  0.1095350E-03  0.8004583E+03  0.7818609E-02  0.9559354E-01
       -4   -1    0    0    0  501  0.00000000000E+00  0.00000000000E+00  0.19081682328E+03  0.19082104954E+03  0.12699999809E+01 0.  1.
        4   -1    0    0  501    0  0.00000000000E+00  0.00000000000E+00 -0.83944739739E+03  0.83944835808E+03  0.12699999809E+01 0. -1.
    10030    2    1    2    0    0  0.00000000000E+00  0.00000000000E+00 -0.64863057411E+03  0.10302694076E+04  0.80045826288E+03 0.  0.
        4    1    3    3  502    0 -0.37584082388E+02  0.19082496857E+03 -0.77453343358E+03  0.79858023048E+03  0.12699999809E+01 0. -1.
       -4    1    3    3    0  502  0.37584082388E+02 -0.19082496857E+03  0.12590285947E+03  0.23168917714E+03  0.12699999809E+01 0.  1.
</event>
<event>
 5   0  0.2763587E-03  0.8002705E+03  0.7818609E-02  0.9559626E-01
       -2   -1    0    0    0  501  0.00000000000E+00  0.00000000000E+00  0.22577096076E+03  0.22577096078E+03  0.25500000920E-02 0. -1.
        2   -1    0    0  501    0  0.00000000000E+00  0.00000000000E+00 -0.70916219271E+03  0.70916219272E+03  0.25500000920E-02 0.  1.
    10030    2    1    2    0    0  0.00000000000E+00  0.00000000000E+00 -0.48339123195E+03  0.93493315349E+03  0.80027052824E+03 0.  0.
        3    1    3    3  502    0  0.20887489831E+03 -0.28949688894E+02  0.15558779378E+03  0.26205796956E+03  0.10100000352E+00 0. -1.
       -3    1    3    3    0  502 -0.20887489831E+03  0.28949688894E+02 -0.63897902573E+03  0.67287518394E+03  0.10100000352E+00 0.  1.
</event>
<event>
 5   0  0.1637228E-03  0.8008388E+03  0.7818609E-02  0.9558804E-01
       -1   -1    0    0    0  501  0.00000000000E+00  0.00000000000E+00  0.14550888697E+03  0.14550888706E+03  0.50400001928E-02 0.  1.
        1   -1    0    0  501    0  0.00000000000E+00  0.00000000000E+00 -0.11018962691E+04  0.11018962691E+04  0.50400001928E-02 0. -1.
    10030    2    1    2    0    0  0.00000000000E+00  0.00000000000E+00 -0.95638738211E+03  0.12474051561E+04  0.80083880958E+03 0.  0.
        2    1    3    3  502    0 -0.13004063669E+03  0.37276296834E+03 -0.37402022518E+03  0.54383262739E+03  0.25500000920E-02 0.  1.
       -2    1    3    3    0  502  0.13004063669E+03 -0.37276296834E+03 -0.58236715692E+03  0.70357252876E+03  0.25500000920E-02 0. -1.
</event>
<event>
 5   0  0.1637228E-03  0.8008493E+03  0.7818609E-02  0.9558789E-01
       -1   -1    0    0    0  501  0.00000000000E+00  0.00000000000E+00  0.11396139099E+03  0.11396139110E+03  0.50400001928E-02 0.  1.
        1   -1    0    0  501    0  0.00000000000E+00  0.00000000000E+00 -0.14069667980E+04  0.14069667980E+04  0.50400001928E-02 0. -1.
    10030    2    1    2    0    0  0.00000000000E+00  0.00000000000E+00 -0.12930054070E+04  0.15209281891E+04  0.80084928286E+03 0.  0.
        2    1    3    3  502    0  0.27999029005E+03  0.12216749059E+03 -0.11381589259E+04  0.11784418522E+04  0.25500000920E-02 0. -1.
       -2    1    3    3    0  502 -0.27999029005E+03 -0.12216749059E+03 -0.15484648110E+03  0.34248633695E+03  0.25500000920E-02 0.  1.
</event>
<event>
 5   0  0.2873212E-03  0.7981967E+03  0.7818609E-02  0.9562631E-01
       -2   -1    0    0    0  501  0.00000000000E+00  0.00000000000E+00  0.32845539674E+03  0.32845539675E+03  0.25500000920E-02 0. -1.
        2   -1    0    0  501    0  0.00000000000E+00  0.00000000000E+00 -0.48493495926E+03  0.48493495926E+03  0.25500000920E-02 0.  1.
    10030    2    1    2    0    0  0.00000000000E+00  0.00000000000E+00 -0.15647956252E+03  0.81339035601E+03  0.79819672874E+03 0.  0.
        2    1    3    3  502    0  0.11314617621E+02  0.33040667471E+03 -0.30606398319E+03  0.45052386516E+03  0.25500000920E-02 0. -1.
       -2    1    3    3    0  502 -0.11314617621E+02 -0.33040667471E+03  0.14958442067E+03  0.36286649085E+03  0.25500000920E-02 0.  1.
</event>
<event>
 5   0  0.1095350E-03  0.8033298E+03  0.7818609E-02  0.9555210E-01
        3   -1    0    0  501    0  0.00000000000E+00  0.00000000000E+00  0.22338708504E+03  0.22338710787E+03  0.10100000352E+00 0. -1.
       -3   -1    0    0    0  501  0.00000000000E+00  0.00000000000E+00 -0.72222029114E+03  0.72222029820E+03  0.10100000352E+00 0.  1.
    10030    2    1    2    0    0  0.00000000000E+00  0.00000000000E+00 -0.49883320610E+03  0.94560740607E+03  0.80332981950E+03 0.  0.
        1    1    3    3  502    0 -0.38668927847E+02 -0.23012356491E+03 -0.63424791163E+03  0.67581251434E+03  0.50400001928E-02 0.  1.
       -1    1    3    3    0  502  0.38668927847E+02  0.23012356491E+03  0.13541470553E+03  0.26979489173E+03  0.50400001928E-02 0. -1.
</event>
<event>
 5   0  0.1656051E-03  0.8003066E+03  0.7818609E-02  0.9559573E-01
       -1   -1    0    0    0  501  0.00000000000E+00  0.00000000000E+00  0.12481688103E+03  0.12481688113E+03  0.50400001928E-02 0. -1.
        1   -1    0    0  501    0  0.00000000000E+00  0.00000000000E+00 -0.12828607061E+04  0.12828607061E+04  0.50400001928E-02 0.  1.
    10030    2    1    2    0    0  0.00000000000E+00  0.00000000000E+00 -0.11580438251E+04  0.14076775872E+04  0.80030662176E+03 0.  0.
        3    1    3    3  502    0 -0.16545928959E+03  0.33105527982E+03 -0.31140952256E+03  0.48368406605E+03  0.10100000352E+00 0. -1.
       -3    1    3    3    0  502  0.16545928959E+03 -0.33105527982E+03 -0.84663430250E+03  0.92399352118E+03  0.10100000352E+00 0.  1.
</event>
<event>
 5   0  0.2690809E-03  0.7972662E+03  0.7818609E-02  0.9563983E-01
        2   -1    0    0  501    0  0.00000000000E+00  0.00000000000E+00  0.18228542636E+04  0.18228542637E+04  0.25500000920E-02 0. -1.
       -2   -1    0    0    0  501  0.00000000000E+00  0.00000000000E+00 -0.87175566953E+02  0.87175566990E+02  0.25500000920E-02 0.  1.
    10030    2    1    2    0    0  0.00000000000E+00  0.00000000000E+00  0.17356786967E+04  0.19100298306E+04  0.79726621387E+03 0.  0.
        5    1    3    3  502    0  0.27420886681E+02  0.89631357413E+02 -0.60331604831E+02  0.11156916150E+03  0.46999998093E+01 0.  1.
       -5    1    3    3    0  502 -0.27420886681E+02 -0.89631357413E+02  0.17960103015E+04  0.17984606691E+04  0.46999998093E+01 0. -1.
</event>
<event>
 5   0  0.1656051E-03  0.8005005E+03  0.7818609E-02  0.9559293E-01
       -1   -1    0    0    0  501  0.00000000000E+00  0.00000000000E+00  0.34643525027E+03  0.34643525031E+03  0.50400001928E-02 0.  1.
        1   -1    0    0  501    0  0.00000000000E+00  0.00000000000E+00 -0.46242488605E+03  0.46242488608E+03  0.50400001928E-02 0. -1.
    10030    2    1    2    0    0  0.00000000000E+00  0.00000000000E+00 -0.11598963578E+03  0.80886013639E+03  0.80050054630E+03 0.  0.
        3    1    3    3  502    0  0.14400001862E+03  0.30034885739E+03  0.16625712247E+03  0.37227259162E+03  0.10100000352E+00 0.  1.
       -3    1    3    3    0  502 -0.14400001862E+03 -0.30034885739E+03 -0.28224675825E+03  0.43658754476E+03  0.10100000352E+00 0. -1.
</event>
<event>
 5   0  0.2873212E-03  0.7993423E+03  0.7818609E-02  0.9560970E-01
        2   -1    0    0  501    0  0.00000000000E+00  0.00000000000E+00  0.11974830399E+04  0.11974830399E+04  0.25500000920E-02 0.  1.
       -2   -1    0    0    0  501  0.00000000000E+00  0.00000000000E+00 -0.13339397447E+03  0.13339397450E+03  0.25500000920E-02 0. -1.
    10030    2    1    2    0    0  0.00000000000E+00  0.00000000000E+00  0.10640890654E+04  0.13308770144E+04  0.79934228480E+03 0.  0.
        2    1    3    3  502    0  0.31407821020E+03 -0.24710655666E+03  0.52288728527E+03  0.65811692393E+03  0.25500000920E-02 0. -1.
       -2    1    3    3    0  502 -0.31407821020E+03  0.24710655666E+03  0.54120178013E+03  0.67276009044E+03  0.25500000920E-02 0.  1.
</event>
<event>
 5   0  0.2873212E-03  0.7993603E+03  0.7818609E-02  0.9560944E-01
       -2   -1    0    0    0  501  0.00000000000E+00  0.00000000000E+00  0.30107830050E+03  0.30107830051E+03  0.25500000920E-02 0. -1.
        2   -1    0    0  501    0  0.00000000000E+00  0.00000000000E+00 -0.53057363917E+03  0.53057363918E+03  0.25500000920E-02 0.  1.
    10030    2    1    2    0    0  0.00000000000E+00  0.00000000000E+00 -0.22949533867E+03  0.83165193968E+03  0.79936026815E+03 0.  0.
        2    1    3    3  502    0  0.27078952975E+03  0.69183702871E+02 -0.41200065159E+03  0.49785328268E+03  0.25500000920E-02 0.  1.
       -2    1    3    3    0  502 -0.27078952975E+03 -0.69183702871E+02  0.18250531291E+03  0.33379865700E+03  0.25500000920E-02 0. -1.
</event>
<event>
 5   0  0.1617491E-03  0.8007675E+03  0.7818609E-02  0.9558907E-01
       -1   -1    0    0    0  501  0.00000000000E+00  0.00000000000E+00  0.25278801416E+03  0.25278801421E+03  0.50400001928E-02 0. -1.
        1   -1    0    0  501    0  0.00000000000E+00  0.00000000000E+00 -0.63415648749E+03  0.63415648751E+03  0.50400001928E-02 0.  1.
    10030    2    1    2    0    0  0.00000000000E+00  0.00000000000E+00 -0.38136847333E+03  0.88694450172E+03  0.80076752974E+03 0.  0.
        1    1    3    3  502    0 -0.37225735315E+02  0.26448685994E+03  0.13969075148E+03  0.30141758497E+03  0.50400001928E-02 0. -1.
       -1    1    3    3    0  502  0.37225735315E+02 -0.26448685994E+03 -0.52105922481E+03  0.58552691675E+03  0.50400001928E-02 0.  1.
</event>
<event>
 5   0  0.2763587E-03  0.7997083E+03  0.7818609E-02  0.9560439E-01
        2   -1    0    0  501    0  0.00000000000E+00  0.00000000000E+00  0.13503322701E+03  0.13503322703E+03  0.25500000920E-02 0. -1.
       -2   -1    0    0    0  501  0.00000000000E+00  0.00000000000E+00 -0.11840294883E+04  0.11840294883E+04  0.25500000920E-02 0.  1.
    10030    2    1    2    0    0  0.00000000000E+00  0.00000000000E+00 -0.10489962613E+04  0.13190627154E+04  0.79970825356E+03 0.  0.
        3    1    3    3  502    0 -0.35409417696E+03 -0.12778598525E+03 -0.30215296970E+03  0.48270940687E+03  0.10100000352E+00 0. -1.
       -3    1    3    3    0  502  0.35409417696E+03  0.12778598525E+03 -0.74684329162E+03  0.83635330849E+03  0.10100000352E+00 0.  1.
</event>
<event>
 5   0  0.2873212E-03  0.7996487E+03  0.7818609E-02  0.9560526E-01
        2   -1    0    0  501    0  0.00000000000E+00  0.00000000000E+00  0.65338145287E+03  0.65338145287E+03  0.25500000920E-02 0. -1.
       -2   -1    0    0    0  501  0.00000000000E+00  0.00000000000E+00 -0.24466489557E+03  0.24466489558E+03  0.25500000920E-02 0.  1.
    10030    2    1    2    0    0  0.00000000000E+00  0.00000000000E+00  0.40871655730E+03  0.89804634845E+03  0.79964868521E+03 0.  0.
        2    1    3    3  502    0  0.17512284587E+03  0.35388324790E+03  0.13370291522E+03  0.41686668593E+03  0.25500000920E-02 0. -1.
       -2    1    3    3    0  502 -0.17512284587E+03 -0.35388324790E+03  0.27501364208E+03  0.48117966253E+03  0.25500000920E-02 0.  1.
</event>
<event>
 5   0  0.1656051E-03  0.7960308E+03  0.7818609E-02  0.9565780E-01
       -1   -1    0    0    0  501  0.00000000000E+00  0.00000000000E+00  0.23084759934E+03  0.23084759939E+03  0.50400001928E-02 0.  1.
        1   -1    0    0  501    0  0.00000000000E+00  0.00000000000E+00 -0.68623740422E+03  0.68623740424E+03  0.50400001928E-02 0. -1.
    10030    2    1    2    0    0  0.00000000000E+00  0.00000000000E+00 -0.45538980489E+03  0.91708500363E+03  0.79603079682E+03 0.  0.
        3    1    3    3  502    0  0.16403979965E+02 -0.32252947966E+02 -0.68433848316E+03  0.68529447170E+03  0.10100000352E+00 0. -1.
       -3    1    3    3    0  502 -0.16403979965E+02  0.32252947966E+02  0.22894867827E+03  0.23179053193E+03  0.10100000352E+00 0.  1.
</event>
<event>
 5   0  0.1656051E-03  0.8009369E+03  0.7818609E-02  0.9558662E-01
       -1   -1    0    0    0  501  0.00000000000E+00  0.00000000000E+00  0.28032547745E+03  0.28032547750E+03  0.50400001928E-02 0.  1.
        1   -1    0    0  501    0  0.00000000000E+00  0.00000000000E+00 -0.57210276904E+03  0.57210276906E+03  0.50400001928E-02 0. -1.
    10030    2    1    2    0    0  0.00000000000E+00  0.00000000000E+00 -0.29177729159E+03  0.85242824656E+03  0.80093690616E+03 0.  0.
        3    1    3    3  502    0 -0.31883615490E+03 -0.17474165829E+03  0.32784604834E+02  0.36505613449E+03  0.10100000352E+00 0.  1.
       -3    1    3    3    0  502  0.31883615490E+03  0.17474165829E+03 -0.32456189642E+03  0.48737211207E+03  0.10100000352E+00 0. -1.
</event>
<event>
 5   0  0.1712793E-03  0.7992499E+03  0.7818609E-02  0.9561103E-01
       -1   -1    0    0    0  501  0.00000000000E+00  0.00000000000E+00  0.13960551354E+03  0.13960551363E+03  0.50400001928E-02 0.  1.
        1   -1    0    0  501    0  0.00000000000E+00  0.00000000000E+00 -0.11439383791E+04  0.11439383792E+04  0.50400001928E-02 0. -1.
    10030    2    1    2    0    0  0.00000000000E+00  0.00000000000E+00 -0.10043328656E+04  0.12835438928E+04  0.79924991071E+03 0.  0.
        4    1    3    3  502    0 -0.59394096484E+00  0.69112302602E+02  0.12993118784E+03  0.14717537026E+03  0.12699999809E+01 0.  1.
       -4    1    3    3    0  502  0.59394096484E+00 -0.69112302602E+02 -0.11342640534E+04  0.11363685225E+04  0.12699999809E+01 0. -1.
</event>
<event>
 5   0  0.2763587E-03  0.8010115E+03  0.7818609E-02  0.9558554E-01
        2   -1    0    0  501    0  0.00000000000E+00  0.00000000000E+00  0.18377177842E+03  0.18377177844E+03  0.25500000920E-02 0.  1.
       -2   -1    0    0    0  501  0.00000000000E+00  0.00000000000E+00 -0.87284817363E+03  0.87284817364E+03  0.25500000920E-02 0. -1.
    10030    2    1    2    0    0  0.00000000000E+00  0.00000000000E+00 -0.68907639522E+03  0.10566199521E+04  0.80101151345E+03 0.  0.
        3    1    3    3  502    0 -0.40395919551E+02 -0.15822229993E+03 -0.82693968372E+03  0.84290887836E+03  0.10100000352E+00 0. -1.
       -3    1    3    3    0  502  0.40395919551E+02  0.15822229993E+03  0.13786328850E+03  0.21371107371E+03  0.10100000352E+00 0.  1.
</event>
<event>
 5   0  0.2873212E-03  0.8001977E+03  0.7818609E-02  0.9559731E-01
       -2   -1    0    0    0  501  0.00000000000E+00  0.00000000000E+00  0.47860497636E+03  0.47860497637E+03  0.25500000920E-02 0.  1.
        2   -1    0    0  501    0  0.00000000000E+00  0.00000000000E+00 -0.33447019521E+03  0.33447019522E+03  0.25500000920E-02 0. -1.
    10030    2    1    2    0    0  0.00000000000E+00  0.00000000000E+00  0.14413478115E+03  0.81307517159E+03  0.80019772526E+03 0.  0.
        2    1    3    3  502    0  0.24838222554E+03 -0.63922177056E+02 -0.23995637913E+03  0.35122476930E+03  0.25500000920E-02 0. -1.
       -2    1    3    3    0  502 -0.24838222554E+03  0.63922177056E+02  0.38409116028E+03  0.46185040229E+03  0.25500000920E-02 0.  1.
</event>
<event>
 5   0  0.2768834E-03  0.8000201E+03  0.7818609E-02  0.9559988E-01
        2   -1    0    0  501    0  0.00000000000E+00  0.00000000000E+00  0.87358952237E+03  0.87358952237E+03  0.25500000920E-02 0. -1.
       -2   -1    0    0    0  501  0.00000000000E+00  0.00000000000E+00 -0.18316157550E+03  0.18316157552E+03  0.25500000920E-02 0.  1.
    10030    2    1    2    0    0  0.00000000000E+00  0.00000000000E+00  0.69042794686E+03  0.10567510979E+04  0.80002008293E+03 0.  0.
        4    1    3    3  502    0  0.25294969604E+03  0.59552910203E+02 -0.56472395131E+02  0.26593390561E+03  0.12699999809E+01 0.  1.
       -4    1    3    3    0  502 -0.25294969604E+03 -0.59552910203E+02  0.74690034199E+03  0.79081719228E+03  0.12699999809E+01 0. -1.
</event>
<event>
 5   0  0.1637228E-03  0.8000444E+03  0.7818609E-02  0.9559953E-01
       -1   -1    0    0    0  501  0.00000000000E+00  0.00000000000E+00  0.67292942513E+02  0.67292942702E+02  0.50400001928E-02 0. -1.
        1   -1    0    0  501    0  0.00000000000E+00  0.00000000000E+00 -0.23779276261E+04  0.23779276261E+04  0.50400001928E-02 0.  1.
    10030    2    1    2    0    0  0.00000000000E+00  0.00000000000E+00 -0.23106346836E+04  0.24452205688E+04  0.80004436697E+03 0.  0.
        2    1    3    3  502    0  0.31566723465E+02 -0.25052963347E+03 -0.21035574192E+04  0.21186588615E+04  0.25500000920E-02 0.  1.
       -2    1    3    3    0  502 -0.31566723465E+02  0.25052963347E+03 -0.20707726434E+03  0.32656170732E+03  0.25500000920E-02 0. -1.
</event>
<event>
 5   0  0.1095350E-03  0.8054089E+03  0.7818609E-02  0.9552221E-01
        3   -1    0    0  501    0  0.00000000000E+00  0.00000000000E+00  0.44806226529E+03  0.44806227667E+03  0.10100000352E+00 0. -1.
       -3   -1    0    0    0  501  0.00000000000E+00  0.00000000000E+00 -0.36193826586E+03  0.36193827995E+03  0.10100000352E+00 0.  1.
    10030    2    1    2    0    0  0.00000000000E+00  0.00000000000E+00  0.86123999429E+02  0.81000055662E+03  0.80540893864E+03 0.  0.
        2    1    3    3  502    0 -0.76057458601E+02 -0.48690260672E+01 -0.35461923520E+03  0.36271648212E+03  0.25500000920E-02 0.  1.
       -2    1    3    3    0  502  0.76057458601E+02  0.48690260672E+01  0.44074323463E+03  0.44728407450E+03  0.25500000920E-02 0. -1.
</event>
<event>
 5   0  0.2763587E-03  0.7950471E+03  0.7818609E-02  0.9567214E-01
        2   -1    0    0  501    0  0.00000000000E+00  0.00000000000E+00  0.18431977916E+03  0.18431977917E+03  0.25500000920E-02 0.  1.
       -2   -1    0    0    0  501  0.00000000000E+00  0.00000000000E+00 -0.85734130827E+03  0.85734130828E+03  0.25500000920E-02 0. -1.
    10030    2    1    2    0    0  0.00000000000E+00  0.00000000000E+00 -0.67302152912E+03  0.10416610875E+04  0.79504706933E+03 0.  0.
        3    1    3    3  502    0 -0.27696031694E+02  0.28161197158E+03  0.29293564040E+02  0.28448285679E+03  0.10100000352E+00 0.  1.
       -3    1    3    3    0  502  0.27696031694E+02 -0.28161197158E+03 -0.70231509316E+03  0.75717823066E+03  0.10100000352E+00 0. -1.
</event>
<event>
 5   0  0.2873212E-03  0.7999253E+03  0.7818609E-02  0.9560125E-01
        2   -1    0    0  501    0  0.00000000000E+00  0.00000000000E+00  0.11735917437E+04  0.11735917437E+04  0.25500000920E-02 0. -1.
       -2   -1    0    0    0  501  0.00000000000E+00  0.00000000000E+00 -0.13630814424E+03  0.13630814426E+03  0.25500000920E-02 0.  1.
    10030    2    1    2    0    0  0.00000000000E+00  0.00000000000E+00  0.10372835994E+04  0.13098998879E+04  0.79992527823E+03 0.  0.
        2    1    3    3  502    0  0.41290403343E+02 -0.26423530048E+03  0.31646091654E+02  0.26930775435E+03  0.25500000920E-02 0.  1.
       -2    1    3    3    0  502 -0.41290403343E+02  0.26423530048E+03  0.10056375078E+04  0.10405921336E+04  0.25500000920E-02 0. -1.
</event>
<event>
 5   0  0.1617491E-03  0.8010566E+03  0.7818609E-02  0.9558489E-01
        1   -1    0    0  501    0  0.00000000000E+00  0.00000000000E+00  0.15573666286E+03  0.15573666294E+03  0.50400001928E-02 0.  1.
       -1   -1    0    0    0  501  0.00000000000E+00  0.00000000000E+00 -0.10300909817E+04  0.10300909817E+04  0.50400001928E-02 0. -1.
    10030    2    1    2    0    0  0.00000000000E+00  0.00000000000E+00 -0.87435431881E+03  0.11858276446E+04  0.80105663215E+03 0.  0.
        1    1    3    3  502    0 -0.69764967836E+02  0.32441129556E+03 -0.76922362084E+03  0.83774388587E+03  0.50400001928E-02 0. -1.
       -1    1    3    3    0  502  0.69764967836E+02 -0.32441129556E+03 -0.10513069797E+03  0.34808375874E+03  0.50400001928E-02 0.  1.
</event>
<event>
 5   0  0.1656051E-03  0.8018680E+03  0.7818609E-02  0.9557317E-01
        1   -1    0    0  501    0  0.00000000000E+00  0.00000000000E+00  0.18003192735E+04  0.18003192735E+04  0.50400001928E-02 0.  1.
       -1   -1    0    0    0  501  0.00000000000E+00  0.00000000000E+00 -0.89288638463E+02  0.89288638605E+02  0.50400001928E-02 0. -1.
    10030    2    1    2    0    0  0.00000000000E+00  0.00000000000E+00  0.17110306350E+04  0.18896079121E+04  0.80186796137E+03 0.  0.
        3    1    3    3  502    0  0.11670147743E+03 -0.17275945005E+03  0.48491520439E+02  0.21404789224E+03  0.10100000352E+00 0. -1.
       -3    1    3    3    0  502 -0.11670147743E+03  0.17275945005E+03  0.16625391146E+04  0.16755600199E+04  0.10100000352E+00 0.  1.
</event>
<event>
 5   0  0.1712793E-03  0.7995031E+03  0.7818609E-02  0.9560737E-01
       -1   -1    0    0    0  501  0.00000000000E+00  0.00000000000E+00  0.15286374109E+03  0.15286374117E+03  0.50400001928E-02 0.  1.
        1   -1    0    0  501    0  0.00000000000E+00  0.00000000000E+00 -0.10453839223E+04  0.10453839223E+04  0.50400001928E-02 0. -1.
    10030    2    1    2    0    0  0.00000000000E+00  0.00000000000E+00 -0.89252018116E+03  0.11982476634E+04  0.79950308889E+03 0.  0.
        4    1    3    3  502    0  0.23464469758E+03 -0.32201612695E+03 -0.39776097121E+03  0.56299904372E+03  0.12699999809E+01 0. -1.
       -4    1    3    3    0  502 -0.23464469758E+03  0.32201612695E+03 -0.49475920995E+03  0.63524861971E+03  0.12699999809E+01 0.  1.
</event>
<event>
 5   0  0.1095350E-03  0.8011918E+03  0.7818609E-02  0.9558294E-01
        3   -1    0    0  501    0  0.00000000000E+00  0.00000000000E+00  0.15500473659E+04  0.15500473692E+04  0.10100000352E+00 0.  1.
       -3   -1    0    0    0  501  0.00000000000E+00  0.00000000000E+00 -0.10353039475E+03  0.10353044401E+03  0.10100000352E+00 0. -1.
    10030    2    1    2    0    0  0.00000000000E+00  0.00000000000E+00  0.14465169711E+04  0.16535778132E+04  0.80119176011E+03 0.  0.
        4    1    3    3  502    0 -0.15549372497E+03 -0.22430884012E+03  0.11806578478E+03  0.29737837295E+03  0.12699999809E+01 0. -1.
       -4    1    3    3    0  502  0.15549372497E+03  0.22430884012E+03  0.13284511863E+04  0.13561994402E+04  0.12699999809E+01 0.  1.
</event>
<event>
 5   0  0.1617491E-03  0.8002589E+03  0.7818609E-02  0.9559642E-01
        1   -1    0    0  501    0  0.00000000000E+00  0.00000000000E+00  0.52038443047E+03  0.52038443049E+03  0.50400001928E-02 0.  1.
       -1   -1    0    0    0  501  0.00000000000E+00  0.00000000000E+00 -0.30766407850E+03  0.30766407854E+03  0.50400001928E-02 0. -1.
    10030    2    1    2    0    0  0.00000000000E+00  0.00000000000E+00  0.21272035196E+03  0.82804850904E+03  0.80025894883E+03 0.  0.
        1    1    3    3  502    0 -0.63078840221E+01 -0.39142106435E+03  0.19201995028E+03  0.43602970123E+03  0.50400001928E-02 0.  1.
       -1    1    3    3    0  502  0.63078840221E+01  0.39142106435E+03  0.20700401681E+02  0.39201880781E+03  0.50400001928E-02 0. -1.
</event>
<event>
 5   0  0.2763587E-03  0.7999260E+03  0.7818609E-02  0.9560124E-01
        2   -1    0    0  501    0  0.00000000000E+00  0.00000000000E+00  0.11807085781E+04  0.11807085781E+04  0.25500000920E-02 0. -1.
       -2   -1    0    0    0  501  0.00000000000E+00  0.00000000000E+00 -0.13548676176E+03  0.13548676179E+03  0.25500000920E-02 0.  1.
    10030    2    1    2    0    0  0.00000000000E+00  0.00000000000E+00  0.10452218163E+04  0.13161953399E+04  0.79992595120E+03 0.  0.
        3    1    3    3  502    0 -0.85986838795E+02 -0.15873933171E+03 -0.64633052373E+02  0.19175336643E+03  0.10100000352E+00 0.  1.
       -3    1    3    3    0  502  0.85986838795E+02  0.15873933171E+03  0.11098548687E+04  0.11244419734E+04  0.10100000352E+00 0. -1.
</event>
<event>
 5   0  0.1637228E-03  0.7990996E+03  0.7818609E-02  0.9561321E-01
        1   -1    0    0  501    0  0.00000000000E+00  0.00000000000E+00  0.13751527589E+03  0.13751527599E+03  0.50400001928E-02 0.  1.
       -1   -1    0    0    0  501  0.00000000000E+00  0.00000000000E+00 -0.11608896000E+04  0.11608896000E+04  0.50400001928E-02 0. -1.
    10030    2    1    2    0    0  0.00000000000E+00  0.00000000000E+00 -0.10233743241E+04  0.12984048760E+04  0.79909962757E+03 0.  0.
        2    1    3    3  502    0 -0.40403770636E+02 -0.36881222229E+03 -0.27076665697E+03  0.45931416539E+03  0.25500000920E-02 0.  1.
       -2    1    3    3    0  502  0.40403770636E+02  0.36881222229E+03 -0.75260766717E+03  0.83909071064E+03  0.25500000920E-02 0. -1.
</event>
<event>
 5   0  0.2910501E-03  0.8009376E+03  0.7818609E-02  0.9558661E-01
       -2   -1    0    0    0  501  0.00000000000E+00  0.00000000000E+00  0.88020496933E+02  0.88020496970E+02  0.25500000920E-02 0. -1.
        2   -1    0    0  501    0  0.00000000000E+00  0.00000000000E+00 -0.18220218874E+04  0.18220218874E+04  0.25500000920E-02 0.  1.
    10030    2    1    2    0    0  0.00000000000E+00  0.00000000000E+00 -0.17340013905E+04  0.19100423844E+04  0.80093763050E+03 0.  0.
        1    1    3    3  502    0  0.14241744095E+03  0.33196117287E+03 -0.12793247535E+04  0.13293429854E+04  0.50400001928E-02 0.  1.
       -1    1    3    3    0  502 -0.14241744095E+03 -0.33196117287E+03 -0.45467663694E+03  0.58069939899E+03  0.50400001928E-02 0. -1.
</event>
<event>
 5   0  0.1637228E-03  0.7987824E+03  0.7818609E-02  0.9561781E-01
       -1   -1    0    0    0  501  0.00000000000E+00  0.00000000000E+00  0.15203203081E+03  0.15203203090E+03  0.50400001928E-02 0.  1.
        1   -1    0    0  501    0  0.00000000000E+00  0.00000000000E+00 -0.10492086631E+04  0.10492086631E+04  0.50400001928E-02 0. -1.
    10030    2    1    2    0    0  0.00000000000E+00  0.00000000000E+00 -0.89717663229E+03  0.12012406940E+04  0.79878238302E+03 0.  0.
        2    1    3    3  502    0 -0.58597583604E+02 -0.21632361051E+03 -0.94572903735E+03  0.97192231858E+03  0.25500000920E-02 0. -1.
       -2    1    3    3    0  502  0.58597583604E+02  0.21632361051E+03  0.48552405053E+02  0.22931837543E+03  0.25500000920E-02 0.  1.
</event>
<event>
 5   0  0.1656051E-03  0.8003042E+03  0.7818609E-02  0.9559577E-01
        1   -1    0    0  501    0  0.00000000000E+00  0.00000000000E+00  0.23323565398E+03  0.23323565404E+03  0.50400001928E-02 0.  1.
       -1   -1    0    0    0  501  0.00000000000E+00  0.00000000000E+00 -0.68652331776E+03  0.68652331778E+03  0.50400001928E-02 0. -1.
    10030    2    1    2    0    0  0.00000000000E+00  0.00000000000E+00 -0.45328766377E+03  0.91975897182E+03  0.80030422972E+03 0.  0.
        3    1    3    3  502    0  0.15893421543E+03  0.39523971113E+01 -0.64866861220E+03  0.66786726595E+03  0.10100000352E+00 0. -1.
       -3    1    3    3    0  502 -0.15893421543E+03 -0.39523971113E+01  0.19538094842E+03  0.25189170587E+03  0.10100000352E+00 0.  1.
</event>
<event>
 5   0  0.2910501E-03  0.7986558E+03  0.7818609E-02  0.9561965E-01
        2   -1    0    0  501    0  0.00000000000E+00  0.00000000000E+00  0.42361862266E+03  0.42361862267E+03  0.25500000920E-02 0. -1.
       -2   -1    0    0    0  501  0.00000000000E+00  0.00000000000E+00 -0.37643004135E+03  0.37643004136E+03  0.25500000920E-02 0.  1.
    10030    2    1    2    0    0  0.00000000000E+00  0.00000000000E+00  0.47188581317E+02  0.80004866403E+03  0.79865580985E+03 0.  0.
        1    1    3    3  502    0 -0.34306711697E+03 -0.74218807649E+02 -0.16715654170E+03  0.38877343995E+03  0.50400001928E-02 0.  1.
       -1    1    3    3    0  502  0.34306711697E+03  0.74218807649E+02  0.21434512302E+03  0.41127522408E+03  0.50400001928E-02 0. -1.
</event>
<event>
 5   0  0.1712793E-03  0.7997024E+03  0.7818609E-02  0.9560448E-01
        1   -1    0    0  501    0  0.00000000000E+00  0.00000000000E+00  0.25218311298E+03  0.25218311303E+03  0.50400001928E-02 0. -1.
       -1   -1    0    0    0  501  0.00000000000E+00  0.00000000000E+00 -0.63398767721E+03  0.63398767723E+03  0.50400001928E-02 0.  1.
    10030    2    1    2    0    0  0.00000000000E+00  0.00000000000E+00 -0.38180456423E+03  0.88617079026E+03  0.79970240980E+03 0.  0.
        4    1    3    3  502    0  0.86369542001E+02  0.29943436283E+03  0.86701977746E+02  0.32348026412E+03  0.12699999809E+01 0. -1.
       -4    1    3    3    0  502 -0.86369542001E+02 -0.29943436283E+03 -0.46850654198E+03  0.56269052614E+03  0.12699999809E+01 0.  1.
</event>
<event>
 5   0  0.2873212E-03  0.7971389E+03  0.7818609E-02  0.9564168E-01
       -2   -1    0    0    0  501  0.00000000000E+00  0.00000000000E+00  0.63542910976E+02  0.63542911027E+02  0.25500000920E-02 0. -1.
        2   -1    0    0  501    0  0.00000000000E+00  0.00000000000E+00 -0.25000054386E+04  0.25000054386E+04  0.25500000920E-02 0.  1.
    10030    2    1    2    0    0  0.00000000000E+00  0.00000000000E+00 -0.24364625276E+04  0.25635483496E+04  0.79713894169E+03 0.  0.
        2    1    3    3  502    0 -0.22846068543E+03 -0.23065900253E+03 -0.47466273351E+03  0.57506744893E+03  0.25500000920E-02 0. -1.
       -2    1    3    3    0  502  0.22846068543E+03  0.23065900253E+03 -0.19617997941E+04  0.19884809007E+04  0.25500000920E-02 0.  1.
</event>
<event>
 5   0  0.1656051E-03  0.7988752E+03  0.7818609E-02  0.9561647E-01
       -1   -1    0    0    0  501  0.00000000000E+00  0.00000000000E+00  0.27546455872E+03  0.27546455877E+03  0.50400001928E-02 0. -1.
        1   -1    0    0  501    0  0.00000000000E+00  0.00000000000E+00 -0.57920482698E+03  0.57920482700E+03  0.50400001928E-02 0.  1.
    10030    2    1    2    0    0  0.00000000000E+00  0.00000000000E+00 -0.30374026826E+03  0.85466938577E+03  0.79887521454E+03 0.  0.
        3    1    3    3  502    0  0.74895685649E+02  0.47927444385E+02 -0.56848215759E+03  0.57539410612E+03  0.10100000352E+00 0.  1.
       -3    1    3    3    0  502 -0.74895685649E+02 -0.47927444385E+02  0.26474188933E+03  0.27927527965E+03  0.10100000352E+00 0. -1.
</event>
<event>
 5   0  0.2763587E-03  0.8012613E+03  0.7818609E-02  0.9558193E-01
        2   -1    0    0  501    0  0.00000000000E+00  0.00000000000E+00  0.83682839034E+03  0.83682839034E+03  0.25500000920E-02 0. -1.
       -2   -1    0    0    0  501  0.00000000000E+00  0.00000000000E+00 -0.19180147219E+03  0.19180147221E+03  0.25500000920E-02 0.  1.
    10030    2    1    2    0    0  0.00000000000E+00  0.00000000000E+00  0.64502691815E+03  0.10286298626E+04  0.80126129883E+03 0.  0.
        3    1    3    3  502    0  0.35664084829E+03 -0.16769374357E+03  0.41500698681E+03  0.57231520651E+03  0.10100000352E+00 0. -1.
       -3    1    3    3    0  502 -0.35664084829E+03  0.16769374357E+03  0.23001993134E+03  0.45631465604E+03  0.10100000352E+00 0.  1.
</event>
<event>
 5   0  0.1637228E-03  0.8001163E+03  0.7818609E-02  0.9559849E-01
        1   -1    0    0  501    0  0.00000000000E+00  0.00000000000E+00  0.30017855552E+03  0.30017855556E+03  0.50400001928E-02 0. -1.
       -1   -1    0    0    0  501  0.00000000000E+00  0.00000000000E+00 -0.53317104103E+03  0.53317104106E+03  0.50400001928E-02 0.  1.
    10030    2    1    2    0    0  0.00000000000E+00  0.00000000000E+00 -0.23299248551E+03  0.83334959662E+03  0.80011627397E+03 0.  0.
        2    1    3    3  502    0 -0.38903009568E+03  0.81361838849E+01 -0.21328567257E+03  0.44373572198E+03  0.25500000920E-02 0.  1.
       -2    1    3    3    0  502  0.38903009568E+03 -0.81361838849E+01 -0.19706812943E+02  0.38961387464E+03  0.25500000920E-02 0. -1.
</event>
<event>
 5   0  0.2873212E-03  0.7993853E+03  0.7818609E-02  0.9560907E-01
       -2   -1    0    0    0  501  0.00000000000E+00  0.00000000000E+00  0.14622569848E+03  0.14622569850E+03  0.25500000920E-02 0.  1.
        2   -1    0    0  501    0  0.00000000000E+00  0.00000000000E+00 -0.10925181412E+04  0.10925181412E+04  0.25500000920E-02 0. -1.
    10030    2    1    2    0    0  0.00000000000E+00  0.00000000000E+00 -0.94629244273E+03  0.12387438397E+04  0.79938533465E+03 0.  0.
        2    1    3    3  502    0  0.34404223456E+03  0.20263160216E+03 -0.50127953429E+03  0.64086332151E+03  0.25500000920E-02 0. -1.
       -2    1    3    3    0  502 -0.34404223456E+03 -0.20263160216E+03 -0.44501290843E+03  0.59788051819E+03  0.25500000920E-02 0.  1.
</event>
<event>
 5   0  0.2910501E-03  0.8003453E+03  0.7818609E-02  0.9559517E-01
        2   -1    0    0  501    0  0.00000000000E+00  0.00000000000E+00  0.89339187107E+03  0.89339187108E+03  0.25500000920E-02 0. -1.
       -2   -1    0    0    0  501  0.00000000000E+00  0.00000000000E+00 -0.17924738372E+03  0.17924738373E+03  0.25500000920E-02 0.  1.
    10030    2    1    2    0    0  0.00000000000E+00  0.00000000000E+00  0.71414448736E+03  0.10726392548E+04  0.80034531431E+03 0.  0.
        1    1    3    3  502    0  0.16603685148E+02 -0.37548695123E+03  0.17295879883E+03  0.41374011048E+03  0.50400001928E-02 0.  1.
       -1    1    3    3    0  502 -0.16603685148E+02  0.37548695123E+03  0.54118568853E+03  0.65889914433E+03  0.50400001928E-02 0. -1.
</event>
<event>
 5   0  0.1656051E-03  0.8028007E+03  0.7818609E-02  0.9555972E-01
       -1   -1    0    0    0  501  0.00000000000E+00  0.00000000000E+00  0.22932502020E+03  0.22932502026E+03  0.50400001928E-02 0. -1.
        1   -1    0    0  501    0  0.00000000000E+00  0.00000000000E+00 -0.70259345296E+03  0.70259345298E+03  0.50400001928E-02 0.  1.
    10030    2    1    2    0    0  0.00000000000E+00  0.00000000000E+00 -0.47326843276E+03  0.93191847323E+03  0.80280074197E+03 0.  0.
        3    1    3    3  502    0 -0.51262647646E+02  0.39506841415E+03 -0.29368465633E+03  0.49493191296E+03  0.10100000352E+00 0. -1.
       -3    1    3    3    0  502  0.51262647646E+02 -0.39506841415E+03 -0.17958377643E+03  0.43698656027E+03  0.10100000352E+00 0.  1.
</event>
<event>
 5   0  0.1637228E-03  0.8001740E+03  0.7818609E-02  0.9559765E-01
       -1   -1    0    0    0  501  0.00000000000E+00  0.00000000000E+00  0.25424686318E+03  0.25424686323E+03  0.50400001928E-02 0. -1.
        1   -1    0    0  501    0  0.00000000000E+00  0.00000000000E+00 -0.62958336099E+03  0.62958336101E+03  0.50400001928E-02 0.  1.
    10030    2    1    2    0    0  0.00000000000E+00  0.00000000000E+00 -0.37533649781E+03  0.88383022424E+03  0.80017396777E+03 0.  0.
        2    1    3    3  502    0  0.28783899967E+03  0.18965103111E+03  0.36668578050E+02  0.34664591149E+03  0.25500000920E-02 0. -1.
       -2    1    3    3    0  502 -0.28783899967E+03 -0.18965103111E+03 -0.41200507586E+03  0.53718431275E+03  0.25500000920E-02 0.  1.
</event>
<event>
 5   0  0.2873212E-03  0.7998379E+03  0.7818609E-02  0.9560252E-01
        2   -1    0    0  501    0  0.00000000000E+00  0.00000000000E+00  0.91119026800E+03  0.91119026800E+03  0.25500000920E-02 0.  1.
       -2   -1    0    0    0  501  0.00000000000E+00  0.00000000000E+00 -0.17552333650E+03  0.17552333652E+03  0.25500000920E-02 0. -1.
    10030    2    1    2    0    0  0.00000000000E+00  0.00000000000E+00  0.73566693150E+03  0.10867136045E+04  0.79983787367E+03 0.  0.
        2    1    3    3  502    0 -0.30288442435E+03  0.17122106516E+03  0.63573403299E+03  0.72471607432E+03  0.25500000920E-02 0.  1.
       -2    1    3    3    0  502  0.30288442435E+03 -0.17122106516E+03  0.99932898508E+02  0.36199753021E+03  0.25500000920E-02 0. -1.
</event>
<event>
 5   0  0.2768834E-03  0.7928011E+03  0.7818609E-02  0.9570496E-01
       -2   -1    0    0    0  501  0.00000000000E+00  0.00000000000E+00  0.22774692131E+03  0.22774692132E+03  0.25500000920E-02 0.  1.
        2   -1    0    0  501    0  0.00000000000E+00  0.00000000000E+00 -0.68994734661E+03  0.68994734661E+03  0.25500000920E-02 0. -1.
    10030    2    1    2    0    0  0.00000000000E+00  0.00000000000E+00 -0.46220042530E+03  0.91769426793E+03  0.79280106978E+03 0.  0.
        4    1    3    3  502    0 -0.19896948842E+03 -0.29490407360E+03 -0.43350159855E+03  0.56078740963E+03  0.12699999809E+01 0. -1.
       -4    1    3    3    0  502  0.19896948842E+03  0.29490407360E+03 -0.28698826751E+02  0.35690685831E+03  0.12699999809E+01 0.  1.
</event>
<event>
 5   0  0.2763587E-03  0.7993432E+03  0.7818609E-02  0.9560968E-01
       -2   -1    0    0    0  501  0.00000000000E+00  0.00000000000E+00  0.23851539532E+03  0.23851539534E+03  0.25500000920E-02 0.  1.
        2   -1    0    0  501    0  0.00000000000E+00  0.00000000000E+00 -0.66971522803E+03  0.66971522804E+03  0.25500000920E-02 0. -1.
    10030    2    1    2    0    0  0.00000000000E+00  0.00000000000E+00 -0.43119983271E+03  0.90823062338E+03  0.79934321133E+03 0.  0.
        3    1    3    3  502    0 -0.63891471981E+02  0.38679716564E+03 -0.12727222894E+03  0.41218005532E+03  0.10100000352E+00 0. -1.
       -3    1    3    3    0  502  0.63891471981E+02 -0.38679716564E+03 -0.30392760377E+03  0.49605056806E+03  0.10100000352E+00 0.  1.
</event>
<event>
 5   0  0.2690809E-03  0.8036045E+03  0.7818609E-02  0.9554814E-01
        2   -1    0    0  501    0  0.00000000000E+00  0.00000000000E+00  0.13087810053E+04  0.13087810053E+04  0.25500000920E-02 0. -1.
       -2   -1    0    0    0  501  0.00000000000E+00  0.00000000000E+00 -0.12335526635E+03  0.12335526638E+03  0.25500000920E-02 0.  1.
    10030    2    1    2    0    0  0.00000000000E+00  0.00000000000E+00  0.11854257390E+04  0.14321362717E+04  0.80360445376E+03 0.  0.
        5    1    3    3  502    0 -0.35018612577E+03 -0.84077398995E+01  0.94340053319E+03  0.10063437131E+04  0.46999998093E+01 0. -1.
       -5    1    3    3    0  502  0.35018612577E+03  0.84077398995E+01  0.24202520577E+03  0.42579255864E+03  0.46999998093E+01 0.  1.
</event>
<event>
 5   0  0.1712793E-03  0.7998901E+03  0.7818609E-02  0.9560176E-01
        1   -1    0    0  501    0  0.00000000000E+00  0.00000000000E+00  0.84786722843E+03  0.84786722844E+03  0.50400001928E-02 0.  1.
       -1   -1    0    0    0  501  0.00000000000E+00  0.00000000000E+00 -0.18865696051E+03  0.18865696058E+03  0.50400001928E-02 0. -1.
    10030    2    1    2    0    0  0.00000000000E+00  0.00000000000E+00  0.65921026792E+03  0.10365241890E+04  0.79989012814E+03 0.  0.
        4    1    3    3  502    0  0.31961893714E+03  0.18491006157E+03  0.13050827692E+03  0.39164016532E+03  0.12699999809E+01 0. -1.
       -4    1    3    3    0  502 -0.31961893714E+03 -0.18491006157E+03  0.52870199100E+03  0.64488402370E+03  0.12699999809E+01 0.  1.
</event>
<event>
 5   0  0.1656051E-03  0.7992456E+03  0.7818609E-02  0.9561110E-01
        1   -1    0    0  501    0  0.00000000000E+00  0.00000000000E+00  0.86971928878E+03  0.86971928879E+03  0.50400001928E-02 0.  1.
       -1   -1    0    0    0  501  0.00000000000E+00  0.00000000000E+00 -0.18362058287E+03  0.18362058294E+03  0.50400001928E-02 0. -1.
    10030    2    1    2    0    0  0.00000000000E+00  0.00000000000E+00  0.68609870591E+03  0.10533398717E+04  0.79924555121E+03 0.  0.
        3    1    3    3  502    0  0.13552467614E+03  0.17356814071E+03 -0.96443138275E+02  0.24040408988E+03  0.10100000352E+00 0. -1.
       -3    1    3    3    0  502 -0.13552467614E+03 -0.17356814071E+03  0.78254184418E+03  0.81293578185E+03  0.10100000352E+00 0.  1.
</event>
<event>
 5   0  0.1617491E-03  0.8018002E+03  0.7818609E-02  0.9557415E-01
       -1   -1    0    0    0  501  0.00000000000E+00  0.00000000000E+00  0.17364206844E+03  0.17364206852E+03  0.50400001928E-02 0. -1.
        1   -1    0    0  501    0  0.00000000000E+00  0.00000000000E+00 -0.92558718345E+03  0.92558718347E+03  0.50400001928E-02 0.  1.
    10030    2    1    2    0    0  0.00000000000E+00  0.00000000000E+00 -0.75194511501E+03  0.10992292520E+04  0.80180015742E+03 0.  0.
        1    1    3    3  502    0  0.20997740890E+03  0.30021949586E+03 -0.59914148622E+03  0.70227685315E+03  0.50400001928E-02 0.  1.
       -1    1    3    3    0  502 -0.20997740890E+03 -0.30021949586E+03 -0.15280362879E+03  0.39695239883E+03  0.50400001928E-02 0. -1.
</event>
<event>
 5   0  0.2768834E-03  0.7940402E+03  0.7818609E-02  0.9568684E-01
       -2   -1    0    0    0  501  0.00000000000E+00  0.00000000000E+00  0.83675877123E+02  0.83675877162E+02  0.25500000920E-02 0.  1.
        2   -1    0    0  501    0  0.00000000000E+00  0.00000000000E+00 -0.18837564783E+04  0.18837564783E+04  0.25500000920E-02 0. -1.
    10030    2    1    2    0    0  0.00000000000E+00  0.00000000000E+00 -0.18000806012E+04  0.19674323554E+04  0.79404023990E+03 0.  0.
        4    1    3    3  502    0 -0.17151959072E+03  0.11685729394E+03 -0.61444845850E+02  0.21645248700E+03  0.12699999809E+01 0.  1.
       -4    1    3    3    0  502  0.17151959072E+03 -0.11685729394E+03 -0.17386357553E+04  0.17509798684E+04  0.12699999809E+01 0. -1.
</event>
<event>
 5   0  0.2768834E-03  0.8068889E+03  0.7818609E-02  0.9550099E-01
        2   -1    0    0  501    0  0.00000000000E+00  0.00000000000E+00  0.69218799613E+03  0.69218799614E+03  0.25500000920E-02 0.  1.
       -2   -1    0    0    0  501  0.00000000000E+00  0.00000000000E+00 -0.23514916963E+03  0.23514916965E+03  0.25500000920E-02 0. -1.
    10030    2    1    2    0    0  0.00000000000E+00  0.00000000000E+00  0.45703882650E+03  0.92733716578E+03  0.80688892056E+03 0.  0.
        4    1    3    3  502    0 -0.91687957743E+02 -0.39142491474E+03  0.26741984944E+03  0.48284069242E+03  0.12699999809E+01 0.  1.
       -4    1    3    3    0  502  0.91687957743E+02  0.39142491474E+03  0.18961897706E+03  0.44449647337E+03  0.12699999809E+01 0. -1.
</event>
<event>
 5   0  0.1640035E-03  0.7998856E+03  0.7818609E-02  0.9560183E-01
       -1   -1    0    0    0  501  0.00000000000E+00  0.00000000000E+00  0.80992690581E+03  0.80992690583E+03  0.50400001928E-02 0.  1.
        1   -1    0    0  501    0  0.00000000000E+00  0.00000000000E+00 -0.19749219486E+03  0.19749219492E+03  0.50400001928E-02 0. -1.
    10030    2    1    2    0    0  0.00000000000E+00  0.00000000000E+00  0.61243471095E+03  0.10074191007E+04  0.79988559768E+03 0.  0.
        5    1    3    3  502    0 -0.61065550435E+02 -0.21248065666E+03 -0.11349485041E+03  0.24855623503E+03  0.46999998093E+01 0. -1.
       -5    1    3    3    0  502  0.61065550435E+02  0.21248065666E+03  0.72592956136E+03  0.75886286572E+03  0.46999998093E+01 0.  1.
</event>
<event>
 5   0  0.2873212E-03  0.7951367E+03  0.7818609E-02  0.9567083E-01
        2   -1    0    0  501    0  0.00000000000E+00  0.00000000000E+00  0.20570760323E+03  0.20570760324E+03  0.25500000920E-02 0. -1.
       -2   -1    0    0    0  501  0.00000000000E+00  0.00000000000E+00 -0.76837504968E+03  0.76837504969E+03  0.25500000920E-02 0.  1.
    10030    2    1    2    0    0  0.00000000000E+00  0.00000000000E+00 -0.56266744646E+03  0.97408265293E+03  0.79513669230E+03 0.  0.
        2    1    3    3  502    0  0.27592688897E+03  0.19334713072E+03 -0.22787596057E+02  0.33769518142E+03  0.25500000920E-02 0. -1.
       -2    1    3    3    0  502 -0.27592688897E+03 -0.19334713072E+03 -0.53987985040E+03  0.63638747151E+03  0.25500000920E-02 0.  1.
</event>
<event>
 5   0  0.1637228E-03  0.8005116E+03  0.7818609E-02  0.9559277E-01
       -1   -1    0    0    0  501  0.00000000000E+00  0.00000000000E+00  0.23252436840E+03  0.23252436845E+03  0.50400001928E-02 0. -1.
        1   -1    0    0  501    0  0.00000000000E+00  0.00000000000E+00 -0.68898022244E+03  0.68898022246E+03  0.50400001928E-02 0.  1.
    10030    2    1    2    0    0  0.00000000000E+00  0.00000000000E+00 -0.45645585404E+03  0.92150459091E+03  0.80051156417E+03 0.  0.
        2    1    3    3  502    0  0.17552571471E+03  0.92134937684E+02 -0.62849958452E+03  0.65902188963E+03  0.25500000920E-02 0.  1.
       -2    1    3    3    0  502 -0.17552571471E+03 -0.92134937684E+02  0.17204373048E+03  0.26248270128E+03  0.25500000920E-02 0. -1.
</event>
<event>
 5   0  0.1656051E-03  0.7977624E+03  0.7818609E-02  0.9563262E-01
        1   -1    0    0  501    0  0.00000000000E+00  0.00000000000E+00  0.66507702017E+03  0.66507702019E+03  0.50400001928E-02 0. -1.
       -1   -1    0    0    0  501  0.00000000000E+00  0.00000000000E+00 -0.23922973714E+03  0.23922973719E+03  0.50400001928E-02 0.  1.
    10030    2    1    2    0    0  0.00000000000E+00  0.00000000000E+00  0.42584728303E+03  0.90430675738E+03  0.79776237250E+03 0.  0.
        3    1    3    3  502    0  0.23763443528E+03 -0.17352481941E+03  0.51819545280E+03  0.59590899078E+03  0.10100000352E+00 0. -1.
       -3    1    3    3    0  502 -0.23763443528E+03  0.17352481941E+03 -0.92348169773E+02  0.30839776660E+03  0.10100000352E+00 0.  1.
</event>
<event>
 5   0  0.2690809E-03  0.8001439E+03  0.7818609E-02  0.9559809E-01
       -2   -1    0    0    0  501  0.00000000000E+00  0.00000000000E+00  0.40454706762E+03  0.40454706763E+03  0.25500000920E-02 0.  1.
        2   -1    0    0  501    0  0.00000000000E+00  0.00000000000E+00 -0.39564637739E+03  0.39564637740E+03  0.25500000920E-02 0. -1.
    10030    2    1    2    0    0  0.00000000000E+00  0.00000000000E+00  0.89006902343E+01  0.80019344503E+03  0.80014394154E+03 0.  0.
        5    1    3    3  502    0  0.50096615457E+02  0.44764021142E+02 -0.38993683478E+03  0.39570988563E+03  0.46999998093E+01 0. -1.
       -5    1    3    3    0  502 -0.50096615457E+02 -0.44764021142E+02  0.39883752501E+03  0.40448355940E+03  0.46999998093E+01 0.  1.
</event>
<event>
 5   0  0.2910501E-03  0.8006004E+03  0.7818609E-02  0.9559148E-01
        2   -1    0    0  501    0  0.00000000000E+00  0.00000000000E+00  0.21197298634E+04  0.21197298634E+04  0.25500000920E-02 0. -1.
       -2   -1    0    0    0  501  0.00000000000E+00  0.00000000000E+00 -0.75594658338E+02  0.75594658381E+02  0.25500000920E-02 0.  1.
    10030    2    1    2    0    0  0.00000000000E+00  0.00000000000E+00  0.20441352050E+04  0.21953245218E+04  0.80060041179E+03 0.  0.
        1    1    3    3  502    0  0.12424878568E+03  0.90075470151E+02  0.20358612127E+04  0.20416371441E+04  0.50400001928E-02 0. -1.
       -1    1    3    3    0  502 -0.12424878568E+03 -0.90075470151E+02  0.82739923777E+01  0.15368737763E+03  0.50400001928E-02 0.  1.
</event>
<event>
 5   0  0.1712793E-03  0.7997461E+03  0.7818609E-02  0.9560385E-01
        1   -1    0    0  501    0  0.00000000000E+00  0.00000000000E+00  0.91609175493E+03  0.91609175494E+03  0.50400001928E-02 0. -1.
       -1   -1    0    0    0  501  0.00000000000E+00  0.00000000000E+00 -0.17454414022E+03  0.17454414030E+03  0.50400001928E-02 0.  1.
    10030    2    1    2    0    0  0.00000000000E+00  0.00000000000E+00  0.74154761471E+03  0.10906358952E+04  0.79974607915E+03 0.  0.
        4    1    3    3  502    0  0.29462790381E+03  0.58445691904E+02  0.73074454506E+03  0.79007006249E+03  0.12699999809E+01 0.  1.
       -4    1    3    3    0  502 -0.29462790381E+03 -0.58445691904E+02  0.10803069647E+02  0.30056583275E+03  0.12699999809E+01 0. -1.
</event>
<event>
 5   0  0.1712793E-03  0.7997165E+03  0.7818609E-02  0.9560428E-01
       -1   -1    0    0    0  501  0.00000000000E+00  0.00000000000E+00  0.19496532577E+03  0.19496532583E+03  0.50400001928E-02 0.  1.
        1   -1    0    0  501    0  0.00000000000E+00  0.00000000000E+00 -0.82007716120E+03  0.82007716121E+03  0.50400001928E-02 0. -1.
    10030    2    1    2    0    0  0.00000000000E+00  0.00000000000E+00 -0.62511183543E+03  0.10150424870E+04  0.79971647708E+03 0.  0.
        4    1    3    3  502    0  0.36495217604E+03  0.78117322102E+02 -0.13041661226E+03  0.39535112553E+03  0.12699999809E+01 0.  1.
       -4    1    3    3    0  502 -0.36495217604E+03 -0.78117322102E+02 -0.49469522317E+03  0.61969136151E+03  0.12699999809E+01 0. -1.
</event>
<event>
 5   0  0.1656051E-03  0.8021170E+03  0.7818609E-02  0.9556958E-01
       -1   -1    0    0    0  501  0.00000000000E+00  0.00000000000E+00  0.13629915365E+03  0.13629915374E+03  0.50400001928E-02 0. -1.
        1   -1    0    0  501    0  0.00000000000E+00  0.00000000000E+00 -0.11801093663E+04  0.11801093663E+04  0.50400001928E-02 0.  1.
    10030    2    1    2    0    0  0.00000000000E+00  0.00000000000E+00 -0.10438102126E+04  0.13164085200E+04  0.80211696879E+03 0.  0.
        3    1    3    3  502    0 -0.18011092694E+02 -0.36442351611E+03 -0.79514351860E+03  0.87486120266E+03  0.10100000352E+00 0.  1.
       -3    1    3    3    0  502  0.18011092694E+02  0.36442351611E+03 -0.24866669402E+03  0.44154731736E+03  0.10100000352E+00 0. -1.
</event>
<event>
 5   0  0.2768834E-03  0.8010248E+03  0.7818609E-02  0.9558535E-01
       -2   -1    0    0    0  501  0.00000000000E+00  0.00000000000E+00  0.62299185982E+02  0.62299186034E+02  0.25500000920E-02 0. -1.
        2   -1    0    0  501    0  0.00000000000E+00  0.00000000000E+00 -0.25748358880E+04  0.25748358880E+04  0.25500000920E-02 0.  1.
    10030    2    1    2    0    0  0.00000000000E+00  0.00000000000E+00 -0.25125367020E+04  0.26371350741E+04  0.80102479345E+03 0.  0.
        4    1    3    3  502    0 -0.38897095334E+03 -0.92430453576E+02 -0.11778907365E+04  0.12438930787E+04  0.12699999809E+01 0.  1.
       -4    1    3    3    0  502  0.38897095334E+03  0.92430453576E+02 -0.13346459655E+04  0.13932419953E+04  0.12699999809E+01 0. -1.
</event>
<event>
 5   0  0.1640035E-03  0.8011506E+03  0.7818609E-02  0.9558353E-01
       -1   -1    0    0    0  501  0.00000000000E+00  0.00000000000E+00  0.39818453066E+03  0.39818453070E+03  0.50400001928E-02 0.  1.
        1   -1    0    0  501    0  0.00000000000E+00  0.00000000000E+00 -0.40298046912E+03  0.40298046916E+03  0.50400001928E-02 0. -1.
    10030    2    1    2    0    0  0.00000000000E+00  0.00000000000E+00 -0.47959384618E+01  0.80116499985E+03  0.80115064499E+03 0.  0.
        5    1    3    3  502    0  0.31696227404E+03  0.82657961580E+02  0.22812964641E+03  0.39920251421E+03  0.46999998093E+01 0.  1.
       -5    1    3    3    0  502 -0.31696227404E+03 -0.82657961580E+02 -0.23292558487E+03  0.40196248564E+03  0.46999998093E+01 0. -1.
</event>
<event>
 5   0  0.2763587E-03  0.7993570E+03  0.7818609E-02  0.9560948E-01
        2   -1    0    0  501    0  0.00000000000E+00  0.00000000000E+00  0.23296837679E+04  0.23296837679E+04  0.25500000920E-02 0.  1.
       -2   -1    0    0    0  501  0.00000000000E+00  0.00000000000E+00 -0.68568493887E+02  0.68568493934E+02  0.25500000920E-02 0. -1.
    10030    2    1    2    0    0  0.00000000000E+00  0.00000000000E+00  0.22611152740E+04  0.23982522618E+04  0.79935700974E+03 0.  0.
        3    1    3    3  502    0 -0.11947830343E+03 -0.73879517225E+02  0.79369046902E+01  0.14069915676E+03  0.10100000352E+00 0. -1.
       -3    1    3    3    0  502  0.11947830343E+03  0.73879517225E+02  0.22531783693E+04  0.22575531051E+04  0.10100000352E+00 0.  1.
</event>
<event>
 5   0  0.2763587E-03  0.8092863E+03  0.7818609E-02  0.9546672E-01
        2   -1    0    0  501    0  0.00000000000E+00  0.00000000000E+00  0.17229113968E+04  0.17229113968E+04  0.25500000920E-02 0.  1.
       -2   -1    0    0    0  501  0.00000000000E+00  0.00000000000E+00 -0.95034527596E+02  0.95034527631E+02  0.25500000920E-02 0. -1.
    10030    2    1    2    0    0  0.00000000000E+00  0.00000000000E+00  0.16278768692E+04  0.18179459244E+04  0.80928627992E+03 0.  0.
        3    1    3    3  502    0  0.41157447587E+02  0.39733825927E+03  0.95890128140E+03  0.10387797194E+04  0.10100000352E+00 0. -1.
       -3    1    3    3    0  502 -0.41157447587E+02 -0.39733825927E+03  0.66897558777E+03  0.77916620499E+03  0.10100000352E+00 0.  1.
</event>
<event>
 5   0  0.1640035E-03  0.7983333E+03  0.7818609E-02  0.9562433E-01
       -1   -1    0    0    0  501  0.00000000000E+00  0.00000000000E+00  0.15887509227E+03  0.15887509235E+03  0.50400001928E-02 0. -1.
        1   -1    0    0  501    0  0.00000000000E+00  0.00000000000E+00 -0.10028885133E+04  0.10028885133E+04  0.50400001928E-02 0.  1.
    10030    2    1    2    0    0  0.00000000000E+00  0.00000000000E+00 -0.84401342100E+03  0.11617636056E+04  0.79833327661E+03 0.  0.
        5    1    3    3  502    0  0.38547248942E+03 -0.42411657282E+02 -0.55947938781E+03  0.68075477535E+03  0.46999998093E+01 0.  1.
       -5    1    3    3    0  502 -0.38547248942E+03  0.42411657282E+02 -0.28453403318E+03  0.48100883028E+03  0.46999998093E+01 0. -1.
</event>
<event>
 5   0  0.1095350E-03  0.8006025E+03  0.7818609E-02  0.9559145E-01
        3   -1    0    0  501    0  0.00000000000E+00  0.00000000000E+00  0.17037935011E+03  0.17037938005E+03  0.10100000352E+00 0. -1.
       -3   -1    0    0    0  501  0.00000000000E+00  0.00000000000E+00 -0.94049595831E+03  0.94049596373E+03  0.10100000352E+00 0.  1.
    10030    2    1    2    0    0  0.00000000000E+00  0.00000000000E+00 -0.77011660819E+03  0.11108753438E+04  0.80060254758E+03 0.  0.
        3    1    3    3  502    0  0.25069925984E+03  0.15027169075E+03 -0.55454896406E+01  0.29233963567E+03  0.10100000352E+00 0. -1.
       -3    1    3    3    0  502 -0.25069925984E+03 -0.15027169075E+03 -0.76457111855E+03  0.81853570811E+03  0.10100000352E+00 0.  1.
</event>
<event>
 5   0  0.1640035E-03  0.8021822E+03  0.7818609E-02  0.9556864E-01
        1   -1    0    0  501    0  0.00000000000E+00  0.00000000000E+00  0.90297421725E+03  0.90297421727E+03  0.50400001928E-02 0. -1.
       -1   -1    0    0    0  501  0.00000000000E+00  0.00000000000E+00 -0.17816022324E+03  0.17816022331E+03  0.50400001928E-02 0.  1.
    10030    2    1    2    0    0  0.00000000000E+00  0.00000000000E+00  0.72481399401E+03  0.10811344406E+04  0.80218224405E+03 0.  0.
        5    1    3    3  502    0  0.39411571622E+03  0.92332979699E+01  0.46180736878E+03  0.60720720304E+03  0.46999998093E+01 0. -1.
       -5    1    3    3    0  502 -0.39411571622E+03 -0.92332979699E+01  0.26300662524E+03  0.47392723754E+03  0.46999998093E+01 0.  1.
</event>
<event>
 5   0  0.2763587E-03  0.8026199E+03  0.7818609E-02  0.9556233E-01
       -2   -1    0    0    0  501  0.00000000000E+00  0.00000000000E+00  0.52386513057E+03  0.52386513057E+03  0.25500000920E-02 0. -1.
        2   -1    0    0  501    0  0.00000000000E+00  0.00000000000E+00 -0.30742581929E+03  0.30742581930E+03  0.25500000920E-02 0.  1.
    10030    2    1    2    0    0  0.00000000000E+00  0.00000000000E+00  0.21643931128E+03  0.83129094988E+03  0.80261987758E+03 0.  0.
        3    1    3    3  502    0  0.20322255391E+03  0.17531909431E+03  0.41722856130E+03  0.49610066903E+03  0.10100000352E+00 0. -1.
       -3    1    3    3    0  502 -0.20322255391E+03 -0.17531909431E+03 -0.20078925003E+03  0.33519028085E+03  0.10100000352E+00 0.  1.
</event>
<event>
 5   0  0.1095350E-03  0.8079656E+03  0.7818609E-02  0.9548558E-01
       -3   -1    0    0    0  501  0.00000000000E+00  0.00000000000E+00  0.35338332560E+03  0.35338334003E+03  0.10100000352E+00 0. -1.
        3   -1    0    0  501    0  0.00000000000E+00  0.00000000000E+00 -0.46182740275E+03  0.46182741379E+03  0.10100000352E+00 0.  1.
    10030    2    1    2    0    0  0.00000000000E+00  0.00000000000E+00 -0.10844407715E+03  0.81521075382E+03  0.80796562753E+03 0.  0.
        2    1    3    3  502    0 -0.11209473019E+02 -0.25961027382E+02 -0.46082763500E+03  0.46169441887E+03  0.25500000920E-02 0.  1.
       -2    1    3    3    0  502  0.11209473019E+02  0.25961027382E+02  0.35238355785E+03  0.35351633495E+03  0.25500000920E-02 0. -1.
</event>
<event>
 5   0  0.2873212E-03  0.7954178E+03  0.7818609E-02  0.9566673E-01
       -2   -1    0    0    0  501  0.00000000000E+00  0.00000000000E+00  0.19359895133E+03  0.19359895135E+03  0.25500000920E-02 0. -1.
        2   -1    0    0  501    0  0.00000000000E+00  0.00000000000E+00 -0.81701041799E+03  0.81701041799E+03  0.25500000920E-02 0.  1.
    10030    2    1    2    0    0  0.00000000000E+00  0.00000000000E+00 -0.62341146665E+03  0.10106093693E+04  0.79541777743E+03 0.  0.
        2    1    3    3  502    0 -0.34918938092E+01  0.18298132546E+03  0.13691872088E+03  0.22856310928E+03  0.25500000920E-02 0. -1.
       -2    1    3    3    0  502  0.34918938092E+01 -0.18298132546E+03 -0.76033018753E+03  0.78204626006E+03  0.25500000920E-02 0.  1.
</event>
<event>
 5   0  0.2910501E-03  0.8017859E+03  0.7818609E-02  0.9557436E-01
       -2   -1    0    0    0  501  0.00000000000E+00  0.00000000000E+00  0.84225549403E+03  0.84225549403E+03  0.25500000920E-02 0.  1.
        2   -1    0    0  501    0  0.00000000000E+00  0.00000000000E+00 -0.19081521138E+03  0.19081521140E+03  0.25500000920E-02 0. -1.
    10030    2    1    2    0    0  0.00000000000E+00  0.00000000000E+00  0.65144028265E+03  0.10330707054E+04  0.80178590693E+03 0.  0.
        1    1    3    3  502    0 -0.90015597062E+02  0.15851438495E+03 -0.13432674513E+03  0.22643606699E+03  0.50400001928E-02 0. -1.
       -1    1    3    3    0  502  0.90015597062E+02 -0.15851438495E+03  0.78576702778E+03  0.80663463844E+03  0.50400001928E-02 0.  1.
</event>
<event>
 5   0  0.1617491E-03  0.8006898E+03  0.7818609E-02  0.9559019E-01
       -1   -1    0    0    0  501  0.00000000000E+00  0.00000000000E+00  0.15045738611E+03  0.15045738619E+03  0.50400001928E-02 0. -1.
        1   -1    0    0  501    0  0.00000000000E+00  0.00000000000E+00 -0.10652587922E+04  0.10652587922E+04  0.50400001928E-02 0.  1.
    10030    2    1    2    0    0  0.00000000000E+00  0.00000000000E+00 -0.91480140609E+03  0.12157161784E+04  0.80068983623E+03 0.  0.
        1    1    3    3  502    0 -0.38940651008E+03  0.89068997121E+02 -0.41707645829E+03  0.57751492485E+03  0.50400001928E-02 0.  1.
       -1    1    3    3    0  502  0.38940651008E+03 -0.89068997121E+02 -0.49772494780E+03  0.63820125355E+03  0.50400001928E-02 0. -1.
</event>
<event>
 5   0  0.2768834E-03  0.8020377E+03  0.7818609E-02  0.9557072E-01
       -2   -1    0    0    0  501  0.00000000000E+00  0.00000000000E+00  0.15736671699E+03  0.15736671701E+03  0.25500000920E-02 0.  1.
        2   -1    0    0  501    0  0.00000000000E+00  0.00000000000E+00 -0.10219194251E+04  0.10219194251E+04  0.25500000920E-02 0. -1.
    10030    2    1    2    0    0  0.00000000000E+00  0.00000000000E+00 -0.86455270815E+03  0.11792861421E+04  0.80203766737E+03 0.  0.
        4    1    3    3  502    0 -0.37820795723E+03  0.81376545392E+02 -0.27700794246E+03  0.47581342367E+03  0.12699999809E+01 0.  1.
       -4    1    3    3    0  502  0.37820795723E+03 -0.81376545392E+02 -0.58754476569E+03  0.70347271848E+03  0.12699999809E+01 0. -1.
</event>
<event>
 5   0  0.2768834E-03  0.7916441E+03  0.7818609E-02  0.9572191E-01
       -2   -1    0    0    0  501  0.00000000000E+00  0.00000000000E+00  0.16777446261E+04  0.16777446261E+04  0.25500000920E-02 0. -1.
        2   -1    0    0  501    0  0.00000000000E+00  0.00000000000E+00 -0.93384342691E+02  0.93384342726E+02  0.25500000920E-02 0.  1.
    10030    2    1    2    0    0  0.00000000000E+00  0.00000000000E+00  0.15843602834E+04  0.17711289689E+04  0.79164405928E+03 0.  0.
        4    1    3    3  502    0  0.23005478261E+03  0.14533556595E+03  0.14908065324E+03  0.31028097557E+03  0.12699999809E+01 0.  1.
       -4    1    3    3    0  502 -0.23005478261E+03 -0.14533556595E+03  0.14352796302E+04  0.14608479933E+04  0.12699999809E+01 0. -1.
</event>
<event>
 5   0  0.2690809E-03  0.7986189E+03  0.7818609E-02  0.9562018E-01
       -2   -1    0    0    0  501  0.00000000000E+00  0.00000000000E+00  0.94363404870E+02  0.94363404905E+02  0.25500000920E-02 0.  1.
        2   -1    0    0  501    0  0.00000000000E+00  0.00000000000E+00 -0.16897232137E+04  0.16897232137E+04  0.25500000920E-02 0. -1.
    10030    2    1    2    0    0  0.00000000000E+00  0.00000000000E+00 -0.15953598088E+04  0.17840866186E+04  0.79861889726E+03 0.  0.
        5    1    3    3  502    0 -0.14327071089E+03 -0.96889793878E+02 -0.16016336291E+04  0.16109520479E+04  0.46999998093E+01 0. -1.
       -5    1    3    3    0  502  0.14327071089E+03  0.96889793878E+02  0.62738202733E+01  0.17313457071E+03  0.46999998093E+01 0.  1.
</event>
<event>
 5   0  0.1712793E-03  0.7992171E+03  0.7818609E-02  0.9561151E-01
       -1   -1    0    0    0  501  0.00000000000E+00  0.00000000000E+00  0.77932127893E+03  0.77932127895E+03  0.50400001928E-02 0. -1.
        1   -1    0    0  501    0  0.00000000000E+00  0.00000000000E+00 -0.20490521820E+03  0.20490521826E+03  0.50400001928E-02 0.  1.
    10030    2    1    2    0    0  0.00000000000E+00  0.00000000000E+00  0.57441606073E+03  0.98422649721E+03  0.79921710879E+03 0.  0.
        4    1    3    3  502    0  0.22177035746E+03 -0.30395191094E+03  0.45296346182E+03  0.58885173537E+03  0.12699999809E+01 0.  1.
       -4    1    3    3    0  502 -0.22177035746E+03  0.30395191094E+03  0.12145259891E+03  0.39537476183E+03  0.12699999809E+01 0. -1.
</event>
<event>
 5   0  0.1637228E-03  0.7995267E+03  0.7818609E-02  0.9560702E-01
       -1   -1    0    0    0  501  0.00000000000E+00  0.00000000000E+00  0.11103489186E+03  0.11103489197E+03  0.50400001928E-02 0.  1.
        1   -1    0    0  501    0  0.00000000000E+00  0.00000000000E+00 -0.14392840466E+04  0.14392840467E+04  0.50400001928E-02 0. -1.
    10030    2    1    2    0    0  0.00000000000E+00  0.00000000000E+00 -0.13282491548E+04  0.15503189386E+04  0.79952673143E+03 0.  0.
        2    1    3    3  502    0  0.73690803322E+01  0.10175486017E+03 -0.14136163013E+04  0.14172929839E+04  0.25500000920E-02 0. -1.
       -2    1    3    3    0  502 -0.73690803322E+01 -0.10175486017E+03  0.85367146529E+02  0.13302595471E+03  0.25500000920E-02 0.  1.
</event>
<event>
 5   0  0.2763587E-03  0.8005287E+03  0.7818609E-02  0.9559252E-01
        2   -1    0    0  501    0  0.00000000000E+00  0.00000000000E+00  0.10438662582E+04  0.10438662583E+04  0.25500000920E-02 0.  1.
       -2   -1    0    0    0  501  0.00000000000E+00  0.00000000000E+00 -0.15347898725E+03  0.15347898727E+03  0.25500000920E-02 0. -1.
    10030    2    1    2    0    0  0.00000000000E+00  0.00000000000E+00  0.89038727099E+03  0.11973452455E+04  0.80052866571E+03 0.  0.
        3    1    3    3  502    0  0.14564227741E+03  0.25739675731E+03  0.41781145059E+02  0.29868116433E+03  0.10100000352E+00 0. -1.
       -3    1    3    3    0  502 -0.14564227741E+03 -0.25739675731E+03  0.84860612594E+03  0.89866408119E+03  0.10100000352E+00 0.  1.
</event>
<event>
 5   0  0.2910501E-03  0.8020277E+03  0.7818609E-02  0.9557087E-01
        2   -1    0    0  501    0  0.00000000000E+00  0.00000000000E+00  0.36580068885E+03  0.36580068886E+03  0.25500000920E-02 0.  1.
       -2   -1    0    0    0  501  0.00000000000E+00  0.00000000000E+00 -0.43961669581E+03  0.43961669582E+03  0.25500000920E-02 0. -1.
    10030    2    1    2    0    0  0.00000000000E+00  0.00000000000E+00 -0.73816006959E+02  0.80541738468E+03  0.80202765580E+03 0.  0.
        1    1    3    3  502    0 -0.20674425814E+03  0.24111142109E+03  0.20894128493E+03  0.38017675656E+03  0.50400001928E-02 0.  1.
       -1    1    3    3    0  502  0.20674425814E+03 -0.24111142109E+03 -0.28275729189E+03  0.42524062812E+03  0.50400001928E-02 0. -1.
</event>
<event>
 5   0  0.2768834E-03  0.7999746E+03  0.7818609E-02  0.9560054E-01
       -2   -1    0    0    0  501  0.00000000000E+00  0.00000000000E+00  0.75580585456E+03  0.75580585457E+03  0.25500000920E-02 0. -1.
        2   -1    0    0  501    0  0.00000000000E+00  0.00000000000E+00 -0.21168115388E+03  0.21168115390E+03  0.25500000920E-02 0.  1.
    10030    2    1    2    0    0  0.00000000000E+00  0.00000000000E+00  0.54412470068E+03  0.96748700847E+03  0.79997463814E+03 0.  0.
        4    1    3    3  502    0  0.73356634909E+02 -0.26283526213E+03  0.62574571300E+03  0.68265868569E+03  0.12699999809E+01 0. -1.
       -4    1    3    3    0  502 -0.73356634909E+02  0.26283526213E+03 -0.81621012322E+02  0.28482832278E+03  0.12699999809E+01 0.  1.
</event>
<event>
 5   0  0.1656051E-03  0.8049575E+03  0.7818609E-02  0.9552869E-01
       -1   -1    0    0    0  501  0.00000000000E+00  0.00000000000E+00  0.14007824261E+03  0.14007824270E+03  0.50400001928E-02 0. -1.
        1   -1    0    0  501    0  0.00000000000E+00  0.00000000000E+00 -0.11564188985E+04  0.11564188986E+04  0.50400001928E-02 0.  1.
    10030    2    1    2    0    0  0.00000000000E+00  0.00000000000E+00 -0.10163406559E+04  0.12964971413E+04  0.80495745751E+03 0.  0.
        3    1    3    3  502    0 -0.23333826205E+03  0.16117663828E+03 -0.96816110874E+03  0.10088412144E+04  0.10100000352E+00 0.  1.
       -3    1    3    3    0  502  0.23333826205E+03 -0.16117663828E+03 -0.48179547184E+02  0.28765592682E+03  0.10100000352E+00 0. -1.
</event>
<event>
 5   0  0.1617491E-03  0.8010594E+03  0.7818609E-02  0.9558485E-01
       -1   -1    0    0    0  501  0.00000000000E+00  0.00000000000E+00  0.10162328812E+04  0.10162328812E+04  0.50400001928E-02 0. -1.
        1   -1    0    0  501    0  0.00000000000E+00  0.00000000000E+00 -0.15786149440E+03  0.15786149449E+03  0.50400001928E-02 0.  1.
    10030    2    1    2    0    0  0.00000000000E+00  0.00000000000E+00  0.85837138679E+03  0.11740943757E+04  0.80105940190E+03 0.  0.
        1    1    3    3  502    0  0.27974017852E+03  0.18860248861E+03  0.11279434146E+03  0.35573589878E+03  0.50400001928E-02 0.  1.
       -1    1    3    3    0  502 -0.27974017852E+03 -0.18860248861E+03  0.74557704534E+03  0.81835847692E+03  0.50400001928E-02 0. -1.
</event>
<event>
 5   0  0.1637228E-03  0.7955633E+03  0.7818609E-02  0.9566461E-01
       -1   -1    0    0    0  501  0.00000000000E+00  0.00000000000E+00  0.70600837554E+02  0.70600837734E+02  0.50400001928E-02 0. -1.
        1   -1    0    0  501    0  0.00000000000E+00  0.00000000000E+00 -0.22411948971E+04  0.22411948971E+04  0.50400001928E-02 0.  1.
    10030    2    1    2    0    0  0.00000000000E+00  0.00000000000E+00 -0.21705940595E+04  0.23117957348E+04  0.79556328993E+03 0.  0.
        2    1    3    3  502    0  0.13676804601E+03  0.26435883050E+03 -0.18521311804E+04  0.18758947196E+04  0.25500000920E-02 0.  1.
       -2    1    3    3    0  502 -0.13676804601E+03 -0.26435883050E+03 -0.31846287915E+03  0.43590101523E+03  0.25500000920E-02 0. -1.
</event>
<event>
 5   0  0.2910501E-03  0.7992635E+03  0.7818609E-02  0.9561084E-01
        2   -1    0    0  501    0  0.00000000000E+00  0.00000000000E+00  0.11976749095E+04  0.11976749095E+04  0.25500000920E-02 0. -1.
       -2   -1    0    0    0  501  0.00000000000E+00  0.00000000000E+00 -0.13334633035E+03  0.13334633038E+03  0.25500000920E-02 0.  1.
    10030    2    1    2    0    0  0.00000000000E+00  0.00000000000E+00  0.10643285791E+04  0.13310212399E+04  0.79926354641E+03 0.  0.
        1    1    3    3  502    0 -0.12615208650E+03 -0.32328986652E+03  0.20213510688E+03  0.40160837663E+03  0.50400001928E-02 0.  1.
       -1    1    3    3    0  502  0.12615208650E+03  0.32328986652E+03  0.86219347225E+03  0.92941286323E+03  0.50400001928E-02 0. -1.
</event>
<event>
 5   0  0.2768834E-03  0.8024839E+03  0.7818609E-02  0.9556429E-01
       -2   -1    0    0    0  501  0.00000000000E+00  0.00000000000E+00  0.18745951007E+03  0.18745951009E+03  0.25500000920E-02 0.  1.
        2   -1    0    0  501    0  0.00000000000E+00  0.00000000000E+00 -0.85882609211E+03  0.85882609211E+03  0.25500000920E-02 0. -1.
    10030    2    1    2    0    0  0.00000000000E+00  0.00000000000E+00 -0.67136658203E+03  0.10462856022E+04  0.80248393997E+03 0.  0.
        4    1    3    3  502    0  0.13863574763E+03  0.91356169149E+02  0.14056877818E+03  0.21754772916E+03  0.12699999809E+01 0.  1.
       -4    1    3    3    0  502 -0.13863574763E+03 -0.91356169149E+02 -0.81193536021E+03  0.82873787305E+03  0.12699999809E+01 0. -1.
</event>
<event>
 5   0  0.1640035E-03  0.8002671E+03  0.7818609E-02  0.9559631E-01
       -1   -1    0    0    0  501  0.00000000000E+00  0.00000000000E+00  0.12874905783E+03  0.12874905793E+03  0.50400001928E-02 0.  1.
        1   -1    0    0  501    0  0.00000000000E+00  0.00000000000E+00 -0.12435576057E+04  0.12435576057E+04  0.50400001928E-02 0. -1.
    10030    2    1    2    0    0  0.00000000000E+00  0.00000000000E+00 -0.11148085479E+04  0.13723066637E+04  0.80026713084E+03 0.  0.
        5    1    3    3  502    0  0.26890814844E+03 -0.15667306867E+03 -0.98859218746E+03  0.10364336186E+04  0.46999998093E+01 0. -1.
       -5    1    3    3    0  502 -0.26890814844E+03  0.15667306867E+03 -0.12621636045E+03  0.33587304504E+03  0.46999998093E+01 0.  1.
</event>
<event>
 5   0  0.2910501E-03  0.8004664E+03  0.7818609E-02  0.9559342E-01
       -2   -1    0    0    0  501  0.00000000000E+00  0.00000000000E+00  0.18711961571E+03  0.18711961573E+03  0.25500000920E-02 0.  1.
        2   -1    0    0  501    0  0.00000000000E+00  0.00000000000E+00 -0.85606539438E+03  0.85606539438E+03  0.25500000920E-02 0. -1.
    10030    2    1    2    0    0  0.00000000000E+00  0.00000000000E+00 -0.66894577867E+03  0.10431850101E+04  0.80046643310E+03 0.  0.
        1    1    3    3  502    0  0.86443146339E+02 -0.75029911508E+02 -0.83427949964E+03  0.84209511856E+03  0.50400001928E-02 0. -1.
       -1    1    3    3    0  502 -0.86443146339E+02  0.75029911508E+02  0.16533372097E+03  0.20108989155E+03  0.50400001928E-02 0.  1.
</event>
<event>
 5   0  0.1656051E-03  0.8027784E+03  0.7818609E-02  0.9556004E-01
        1   -1    0    0  501    0  0.00000000000E+00  0.00000000000E+00  0.90034413669E+03  0.90034413671E+03  0.50400001928E-02 0. -1.
       -1   -1    0    0    0  501  0.00000000000E+00  0.00000000000E+00 -0.17894633784E+03  0.17894633791E+03  0.50400001928E-02 0.  1.
    10030    2    1    2    0    0  0.00000000000E+00  0.00000000000E+00  0.72139779885E+03  0.10792904746E+04  0.80277839060E+03 0.  0.
        3    1    3    3  502    0  0.78605605736E+02  0.24635400875E+03 -0.52034715886E+02  0.26377407139E+03  0.10100000352E+00 0.  1.
       -3    1    3    3    0  502 -0.78605605736E+02 -0.24635400875E+03  0.77343251474E+03  0.81551640323E+03  0.10100000352E+00 0. -1.
</event>
<event>
 5   0  0.1640035E-03  0.7995525E+03  0.7818609E-02  0.9560665E-01
       -1   -1    0    0    0  501  0.00000000000E+00  0.00000000000E+00  0.36806255020E+03  0.36806255024E+03  0.50400001928E-02 0. -1.
        1   -1    0    0  501    0  0.00000000000E+00  0.00000000000E+00 -0.43422251023E+03  0.43422251026E+03  0.50400001928E-02 0.  1.
    10030    2    1    2    0    0  0.00000000000E+00  0.00000000000E+00 -0.66159960024E+02  0.80228506049E+03  0.79955248607E+03 0.  0.
        5    1    3    3  502    0  0.16481043935E+03 -0.64542501562E+02 -0.39273310525E+03  0.43080111117E+03  0.46999998093E+01 0.  1.
       -5    1    3    3    0  502 -0.16481043935E+03  0.64542501562E+02  0.32657314522E+03  0.37148394933E+03  0.46999998093E+01 0. -1.
</event>
<event>
 5   0  0.1640035E-03  0.8003782E+03  0.7818609E-02  0.9559470E-01
       -1   -1    0    0    0  501  0.00000000000E+00  0.00000000000E+00  0.10483283897E+04  0.10483283897E+04  0.50400001928E-02 0.  1.
        1   -1    0    0  501    0  0.00000000000E+00  0.00000000000E+00 -0.15276827563E+03  0.15276827572E+03  0.50400001928E-02 0. -1.
    10030    2    1    2    0    0  0.00000000000E+00  0.00000000000E+00  0.89556011410E+03  0.12010966655E+04  0.80037821173E+03 0.  0.
        5    1    3    3  502    0  0.34258923179E+03  0.17262426510E+03  0.27692389887E+03  0.47315478905E+03  0.46999998093E+01 0. -1.
       -5    1    3    3    0  502 -0.34258923179E+03 -0.17262426510E+03  0.61863621524E+03  0.72794187641E+03  0.46999998093E+01 0.  1.
</event>
<event>
 5   0  0.1095350E-03  0.7976912E+03  0.7818609E-02  0.9563365E-01
       -4   -1    0    0    0  501  0.00000000000E+00  0.00000000000E+00  0.23892058013E+03  0.23892395549E+03  0.12699999809E+01 0. -1.
        4   -1    0    0  501    0  0.00000000000E+00  0.00000000000E+00 -0.66581003496E+03  0.66581124619E+03  0.12699999809E+01 0.  1.
    10030    2    1    2    0    0  0.00000000000E+00  0.00000000000E+00 -0.42688945484E+03  0.90473520169E+03  0.79769115485E+03 0.  0.
        2    1    3    3  502    0 -0.24820600919E+03  0.26625681917E+03 -0.39835244278E+03  0.53961429320E+03  0.25500000920E-02 0.  1.
       -2    1    3    3    0  502  0.24820600919E+03 -0.26625681917E+03 -0.28537012058E+02  0.36512090849E+03  0.25500000920E-02 0. -1.
</event>
<event>
 5   0  0.2690809E-03  0.7976958E+03  0.7818609E-02  0.9563358E-01
        2   -1    0    0  501    0  0.00000000000E+00  0.00000000000E+00  0.44963716467E+03  0.44963716468E+03  0.25500000920E-02 0. -1.
       -2   -1    0    0    0  501  0.00000000000E+00  0.00000000000E+00 -0.35379556084E+03  0.35379556085E+03  0.25500000920E-02 0.  1.
    10030    2    1    2    0    0  0.00000000000E+00  0.00000000000E+00  0.95841603828E+02  0.80343272553E+03  0.79769576370E+03 0.  0.
        5    1    3    3  502    0 -0.12317609042E+03 -0.33242541193E+03  0.23193269541E+03  0.42366716765E+03  0.46999998093E+01 0. -1.
       -5    1    3    3    0  502  0.12317609042E+03  0.33242541193E+03 -0.13609109158E+03  0.37976555788E+03  0.46999998093E+01 0.  1.
</event>
<event>
 5   0  0.2768834E-03  0.7990521E+03  0.7818609E-02  0.9561390E-01
       -2   -1    0    0    0  501  0.00000000000E+00  0.00000000000E+00  0.57053748875E+02  0.57053748932E+02  0.25500000920E-02 0. -1.
        2   -1    0    0  501    0  0.00000000000E+00  0.00000000000E+00 -0.27977310481E+04  0.27977310481E+04  0.25500000920E-02 0.  1.
    10030    2    1    2    0    0  0.00000000000E+00  0.00000000000E+00 -0.27406772992E+04  0.28547847970E+04  0.79905205017E+03 0.  0.
        4    1    3    3  502    0  0.33093676174E+03 -0.68821866922E+02 -0.60939373217E+03  0.69686291575E+03  0.12699999809E+01 0. -1.
       -4    1    3    3    0  502 -0.33093676174E+03  0.68821866922E+02 -0.21312835670E+04  0.21579218813E+04  0.12699999809E+01 0.  1.
</event>
<event>
 5   0  0.1617491E-03  0.7999404E+03  0.7818609E-02  0.9560103E-01
        1   -1    0    0  501    0  0.00000000000E+00  0.00000000000E+00  0.44660610164E+03  0.44660610167E+03  0.50400001928E-02 0. -1.
       -1   -1    0    0    0  501  0.00000000000E+00  0.00000000000E+00 -0.35820416182E+03  0.35820416185E+03  0.50400001928E-02 0.  1.
    10030    2    1    2    0    0  0.00000000000E+00  0.00000000000E+00  0.88401939829E+02  0.80481026352E+03  0.79994040860E+03 0.  0.
        1    1    3    3  502    0 -0.20359157864E+03 -0.22572386170E+03  0.30573613582E+03  0.43113266799E+03  0.50400001928E-02 0. -1.
       -1    1    3    3    0  502  0.20359157864E+03  0.22572386170E+03 -0.21733419599E+03  0.37367759554E+03  0.50400001928E-02 0.  1.
</event>
<event>
 5   0  0.2690809E-03  0.7997231E+03  0.7818609E-02  0.9560418E-01
       -2   -1    0    0    0  501  0.00000000000E+00  0.00000000000E+00  0.15836112302E+03  0.15836112304E+03  0.25500000920E-02 0. -1.
        2   -1    0    0  501    0  0.00000000000E+00  0.00000000000E+00 -0.10096497923E+04  0.10096497923E+04  0.25500000920E-02 0.  1.
    10030    2    1    2    0    0  0.00000000000E+00  0.00000000000E+00 -0.85128866926E+03  0.11680109153E+04  0.79972313952E+03 0.  0.
        5    1    3    3  502    0  0.38502799935E+03 -0.13388947783E+02 -0.58186773236E+03  0.69786672951E+03  0.46999998093E+01 0. -1.
       -5    1    3    3    0  502 -0.38502799935E+03  0.13388947783E+02 -0.26942093690E+03  0.47014418580E+03  0.46999998093E+01 0.  1.
</event>
<event>
 5   0  0.1640035E-03  0.7989738E+03  0.7818609E-02  0.9561504E-01
       -1   -1    0    0    0  501  0.00000000000E+00  0.00000000000E+00  0.17602404330E+03  0.17602404337E+03  0.50400001928E-02 0.  1.
        1   -1    0    0  501    0  0.00000000000E+00  0.00000000000E+00 -0.90663635762E+03  0.90663635763E+03  0.50400001928E-02 0. -1.
    10030    2    1    2    0    0  0.00000000000E+00  0.00000000000E+00 -0.73061231432E+03  0.10826604010E+04  0.79897383566E+03 0.  0.
        5    1    3    3  502    0 -0.23048840153E+03 -0.30815202819E+03 -0.22008573777E+03  0.44333102495E+03  0.46999998093E+01 0.  1.
       -5    1    3    3    0  502  0.23048840153E+03  0.30815202819E+03 -0.51052657655E+03  0.63932937605E+03  0.46999998093E+01 0. -1.
</event>
<event>
 5   0  0.2763587E-03  0.8026964E+03  0.7818609E-02  0.9556122E-01
        2   -1    0    0  501    0  0.00000000000E+00  0.00000000000E+00  0.11077464460E+04  0.11077464460E+04  0.25500000920E-02 0.  1.
       -2   -1    0    0    0  501  0.00000000000E+00  0.00000000000E+00 -0.14541269476E+03  0.14541269478E+03  0.25500000920E-02 0. -1.
    10030    2    1    2    0    0  0.00000000000E+00  0.00000000000E+00  0.96233375123E+03  0.12531591408E+04  0.80269644534E+03 0.  0.
        3    1    3    3  502    0  0.23770922390E+03  0.40255738007E+02 -0.19762950831E+02  0.24190242660E+03  0.10100000352E+00 0. -1.
       -3    1    3    3    0  502 -0.23770922390E+03 -0.40255738007E+02  0.98209670207E+03  0.10112567142E+04  0.10100000352E+00 0.  1.
</event>
<event>
 5   0  0.2690809E-03  0.8007936E+03  0.7818609E-02  0.9558869E-01
       -2   -1    0    0    0  501  0.00000000000E+00  0.00000000000E+00  0.16135950556E+03  0.16135950558E+03  0.25500000920E-02 0.  1.
        2   -1    0    0  501    0  0.00000000000E+00  0.00000000000E+00 -0.99354289974E+03  0.99354289975E+03  0.25500000920E-02 0. -1.
    10030    2    1    2    0    0  0.00000000000E+00  0.00000000000E+00 -0.83218339418E+03  0.11549024053E+04  0.80079358407E+03 0.  0.
        5    1    3    3  502    0  0.23962788740E+03 -0.17078401084E+03 -0.24549589507E+02  0.29531927658E+03  0.46999998093E+01 0.  1.
       -5    1    3    3    0  502 -0.23962788740E+03  0.17078401084E+03 -0.80763380467E+03  0.85958312875E+03  0.46999998093E+01 0. -1.
</event>
<event>
 5   0  0.1712793E-03  0.7997873E+03  0.7818609E-02  0.9560325E-01
       -1   -1    0    0    0  501  0.00000000000E+00  0.00000000000E+00  0.17052170610E+03  0.17052170618E+03  0.50400001928E-02 0. -1.
        1   -1    0    0  501    0  0.00000000000E+00  0.00000000000E+00 -0.93779802133E+03  0.93779802134E+03  0.50400001928E-02 0.  1.
    10030    2    1    2    0    0  0.00000000000E+00  0.00000000000E+00 -0.76727631522E+03  0.11083197275E+04  0.79978726828E+03 0.  0.
        4    1    3    3  502    0  0.39151127741E+03 -0.12146365015E+01 -0.49648045139E+03  0.63227921616E+03  0.12699999809E+01 0. -1.
       -4    1    3    3    0  502 -0.39151127741E+03  0.12146365015E+01 -0.27079586383E+03  0.47604051135E+03  0.12699999809E+01 0.  1.
</event>
<event>
 5   0  0.2763587E-03  0.7992520E+03  0.7818609E-02  0.9561100E-01
       -2   -1    0    0    0  501  0.00000000000E+00  0.00000000000E+00  0.16409938875E+03  0.16409938877E+03  0.25500000920E-02 0.  1.
        2   -1    0    0  501    0  0.00000000000E+00  0.00000000000E+00 -0.97319651546E+03  0.97319651546E+03  0.25500000920E-02 0. -1.
    10030    2    1    2    0    0  0.00000000000E+00  0.00000000000E+00 -0.80909712671E+03  0.11372959042E+04  0.79925203367E+03 0.  0.
        3    1    3    3  502    0 -0.17565036335E+03  0.12226365546E+03  0.75682908225E+02  0.22700080262E+03  0.10100000352E+00 0.  1.
       -3    1    3    3    0  502  0.17565036335E+03 -0.12226365546E+03 -0.88478003493E+03  0.91029510161E+03  0.10100000352E+00 0. -1.
</event>
<event>
 5   0  0.2873212E-03  0.7992397E+03  0.7818609E-02  0.9561118E-01
        2   -1    0    0  501    0  0.00000000000E+00  0.00000000000E+00  0.45146265558E+03  0.45146265559E+03  0.25500000920E-02 0.  1.
       -2   -1    0    0    0  501  0.00000000000E+00  0.00000000000E+00 -0.35373034126E+03  0.35373034126E+03  0.25500000920E-02 0. -1.
    10030    2    1    2    0    0  0.00000000000E+00  0.00000000000E+00  0.97732314325E+02  0.80519299685E+03  0.79923973682E+03 0.  0.
        2    1    3    3  502    0  0.18459672503E+03 -0.29796933956E+03  0.24221852325E+03  0.42606512557E+03  0.25500000920E-02 0.  1.
       -2    1    3    3    0  502 -0.18459672503E+03  0.29796933956E+03 -0.14448620893E+03  0.37912787129E+03  0.25500000920E-02 0. -1.
</event>
<event>
 5   0  0.2768834E-03  0.8006660E+03  0.7818609E-02  0.9559054E-01
       -2   -1    0    0    0  501  0.00000000000E+00  0.00000000000E+00  0.13398284335E+03  0.13398284338E+03  0.25500000920E-02 0.  1.
        2   -1    0    0  501    0  0.00000000000E+00  0.00000000000E+00 -0.11961718654E+04  0.11961718654E+04  0.25500000920E-02 0. -1.
    10030    2    1    2    0    0  0.00000000000E+00  0.00000000000E+00 -0.10621890220E+04  0.13301547087E+04  0.80066599197E+03 0.  0.
        4    1    3    3  502    0  0.11548597390E+03  0.35762133878E+03 -0.76030033446E+03  0.84810862724E+03  0.12699999809E+01 0. -1.
       -4    1    3    3    0  502 -0.11548597390E+03 -0.35762133878E+03 -0.30188868754E+03  0.48204608149E+03  0.12699999809E+01 0.  1.
</event>
<event>
 5   0  0.2690809E-03  0.8128630E+03  0.7818609E-02  0.9541583E-01
        2   -1    0    0  501    0  0.00000000000E+00  0.00000000000E+00  0.51129480707E+03  0.51129480707E+03  0.25500000920E-02 0.  1.
       -2   -1    0    0    0  501  0.00000000000E+00  0.00000000000E+00 -0.32307495050E+03  0.32307495051E+03  0.25500000920E-02 0. -1.
    10030    2    1    2    0    0  0.00000000000E+00  0.00000000000E+00  0.18821985657E+03  0.83436975758E+03  0.81286295153E+03 0.  0.
        5    1    3    3  502    0  0.20036314387E+03  0.30669849507E+03 -0.86485735119E+02  0.37644551887E+03  0.46999998093E+01 0. -1.
       -5    1    3    3    0  502 -0.20036314387E+03 -0.30669849507E+03  0.27470559169E+03  0.45792423871E+03  0.46999998093E+01 0.  1.
</event>
<event>
 5   0  0.2910501E-03  0.8000044E+03  0.7818609E-02  0.9560011E-01
       -2   -1    0    0    0  501  0.00000000000E+00  0.00000000000E+00  0.15380151689E+03  0.15380151691E+03  0.25500000920E-02 0.  1.
        2   -1    0    0  501    0  0.00000000000E+00  0.00000000000E+00 -0.10403133916E+04  0.10403133916E+04  0.25500000920E-02 0. -1.
    10030    2    1    2    0    0  0.00000000000E+00  0.00000000000E+00 -0.88651187474E+03  0.11941149085E+04  0.80000444420E+03 0.  0.
        1    1    3    3  502    0 -0.16985634391E+03  0.79259917545E+02 -0.97070449426E+03  0.98863568988E+03  0.50400001928E-02 0. -1.
       -1    1    3    3    0  502  0.16985634391E+03 -0.79259917545E+02  0.84192619517E+02  0.20547921867E+03  0.50400001928E-02 0.  1.
</event>
<event>
 5   0  0.2910501E-03  0.8023366E+03  0.7818609E-02  0.9556641E-01
        2   -1    0    0  501    0  0.00000000000E+00  0.00000000000E+00  0.16897774514E+04  0.16897774515E+04  0.25500000920E-02 0. -1.
       -2   -1    0    0    0  501  0.00000000000E+00  0.00000000000E+00 -0.95240944221E+02  0.95240944256E+02  0.25500000920E-02 0.  1.
    10030    2    1    2    0    0  0.00000000000E+00  0.00000000000E+00  0.15945365072E+04  0.17850183957E+04  0.80233658780E+03 0.  0.
        1    1    3    3  502    0  0.16065218236E+03 -0.11511708982E+02  0.16146857062E+04  0.16226988547E+04  0.50400001928E-02 0. -1.
       -1    1    3    3    0  502 -0.16065218236E+03  0.11511708982E+02 -0.20149199009E+02  0.16231954099E+03  0.50400001928E-02 0.  1.
</event>
<event>
 5   0  0.1617491E-03  0.7978083E+03  0.7818609E-02  0.9563195E-01
       -1   -1    0    0    0  501  0.00000000000E+00  0.00000000000E+00  0.14207381174E+03  0.14207381183E+03  0.50400001928E-02 0.  1.
        1   -1    0    0  501    0  0.00000000000E+00  0.00000000000E+00 -0.11200130695E+04  0.11200130695E+04  0.50400001928E-02 0. -1.
    10030    2    1    2    0    0  0.00000000000E+00  0.00000000000E+00 -0.97793925778E+03  0.12620868814E+04  0.79780831293E+03 0.  0.
        1    1    3    3  502    0 -0.31161530921E+03 -0.14749373360E+03 -0.17153078604E+03  0.38507312678E+03  0.50400001928E-02 0.  1.
       -1    1    3    3    0  502  0.31161530921E+03  0.14749373360E+03 -0.80640847175E+03  0.87701375458E+03  0.50400001928E-02 0. -1.
</event>
<event>
 5   0  0.1637228E-03  0.8027662E+03  0.7818609E-02  0.9556022E-01
        1   -1    0    0  501    0  0.00000000000E+00  0.00000000000E+00  0.40285605138E+03  0.40285605141E+03  0.50400001928E-02 0.  1.
       -1   -1    0    0    0  501  0.00000000000E+00  0.00000000000E+00 -0.39991553013E+03  0.39991553016E+03  0.50400001928E-02 0. -1.
    10030    2    1    2    0    0  0.00000000000E+00  0.00000000000E+00  0.29405212484E+01  0.80277158157E+03  0.80276619604E+03 0.  0.
        2    1    3    3  502    0  0.53383410064E+02 -0.10940861656E+03 -0.38100891573E+03  0.39998478436E+03  0.25500000920E-02 0. -1.
       -2    1    3    3    0  502 -0.53383410064E+02  0.10940861656E+03  0.38394943698E+03  0.40278679721E+03  0.25500000920E-02 0.  1.
</event>
<event>
 5   0  0.2910501E-03  0.7983907E+03  0.7818609E-02  0.9562349E-01
       -2   -1    0    0    0  501  0.00000000000E+00  0.00000000000E+00  0.98719177849E+02  0.98719177881E+02  0.25500000920E-02 0. -1.
        2   -1    0    0  501    0  0.00000000000E+00  0.00000000000E+00 -0.16142448218E+04  0.16142448218E+04  0.25500000920E-02 0.  1.
    10030    2    1    2    0    0  0.00000000000E+00  0.00000000000E+00 -0.15155256440E+04  0.17129639997E+04  0.79839068553E+03 0.  0.
        1    1    3    3  502    0  0.33391827508E+03 -0.16542738294E+03 -0.45065122960E+03  0.58476847061E+03  0.50400001928E-02 0. -1.
       -1    1    3    3    0  502 -0.33391827508E+03  0.16542738294E+03 -0.10648744144E+04  0.11281955291E+04  0.50400001928E-02 0.  1.
</event>
<event>
 5   0  0.1656051E-03  0.8044873E+03  0.7818609E-02  0.9553545E-01
        1   -1    0    0  501    0  0.00000000000E+00  0.00000000000E+00  0.23992470495E+03  0.23992470501E+03  0.50400001928E-02 0.  1.
       -1   -1    0    0    0  501  0.00000000000E+00  0.00000000000E+00 -0.67437800552E+03  0.67437800553E+03  0.50400001928E-02 0. -1.
    10030    2    1    2    0    0  0.00000000000E+00  0.00000000000E+00 -0.43445330056E+03  0.91430271054E+03  0.80448727531E+03 0.  0.
        3    1    3    3  502    0 -0.33644481795E+03  0.56216885599E+01  0.33251156956E+02  0.33813069743E+03  0.10100000352E+00 0.  1.
       -3    1    3    3    0  502  0.33644481795E+03 -0.56216885599E+01 -0.46770445752E+03  0.57617201311E+03  0.10100000352E+00 0. -1.
</event>
<event>
 5   0  0.2690809E-03  0.8042204E+03  0.7818609E-02  0.9553928E-01
       -2   -1    0    0    0  501  0.00000000000E+00  0.00000000000E+00  0.85250973630E+02  0.85250973668E+02  0.25500000920E-02 0.  1.
        2   -1    0    0  501    0  0.00000000000E+00  0.00000000000E+00 -0.18966660723E+04  0.18966660723E+04  0.25500000920E-02 0. -1.
    10030    2    1    2    0    0  0.00000000000E+00  0.00000000000E+00 -0.18114150987E+04  0.19819170460E+04  0.80422044081E+03 0.  0.
        5    1    3    3  502    0  0.19878126331E+03  0.32969975926E+03 -0.61985238492E+03  0.72969513564E+03  0.46999998093E+01 0.  1.
       -5    1    3    3    0  502 -0.19878126331E+03 -0.32969975926E+03 -0.11915627137E+04  0.12522219103E+04  0.46999998093E+01 0. -1.
</event>
<event>
 5   0  0.1656051E-03  0.7991498E+03  0.7818609E-02  0.9561249E-01
       -1   -1    0    0    0  501  0.00000000000E+00  0.00000000000E+00  0.12331680161E+03  0.12331680171E+03  0.50400001928E-02 0. -1.
        1   -1    0    0  501    0  0.00000000000E+00  0.00000000000E+00 -0.12947148724E+04  0.12947148724E+04  0.50400001928E-02 0.  1.
    10030    2    1    2    0    0  0.00000000000E+00  0.00000000000E+00 -0.11713980708E+04  0.14180316741E+04  0.79914979107E+03 0.  0.
        3    1    3    3  502    0 -0.95565992835E+02  0.37560016001E+03 -0.75820884775E+03  0.85152158293E+03  0.10100000352E+00 0. -1.
       -3    1    3    3    0  502  0.95565992835E+02 -0.37560016001E+03 -0.41318922302E+03  0.56651009118E+03  0.10100000352E+00 0.  1.
</event>
<event>
 5   0  0.2873212E-03  0.8000233E+03  0.7818609E-02  0.9559983E-01
        2   -1    0    0  501    0  0.00000000000E+00  0.00000000000E+00  0.23202599566E+04  0.23202599566E+04  0.25500000920E-02 0. -1.
       -2   -1    0    0    0  501  0.00000000000E+00  0.00000000000E+00 -0.68961809750E+02  0.68961809797E+02  0.25500000920E-02 0.  1.
    10030    2    1    2    0    0  0.00000000000E+00  0.00000000000E+00  0.22512981468E+04  0.23892217664E+04  0.80002331404E+03 0.  0.
        2    1    3    3  502    0 -0.13899451505E+03  0.50341151203E+02  0.22356877115E+04  0.22405698494E+04  0.25500000920E-02 0. -1.
       -2    1    3    3    0  502  0.13899451505E+03 -0.50341151203E+02  0.15610435322E+02  0.14865191696E+03  0.25500000920E-02 0.  1.
</event>
<event>
 5   0  0.1712793E-03  0.8006629E+03  0.7818609E-02  0.9559058E-01
        1   -1    0    0  501    0  0.00000000000E+00  0.00000000000E+00  0.41920149112E+03  0.41920149115E+03  0.50400001928E-02 0.  1.
       -1   -1    0    0    0  501  0.00000000000E+00  0.00000000000E+00 -0.38231082999E+03  0.38231083002E+03  0.50400001928E-02 0. -1.
    10030    2    1    2    0    0  0.00000000000E+00  0.00000000000E+00  0.36890661128E+02  0.80151232117E+03  0.80066290042E+03 0.  0.
        4    1    3    3  502    0 -0.27133141575E+03 -0.13335090924E+03 -0.24424581916E+03  0.38866545414E+03  0.12699999809E+01 0. -1.
       -4    1    3    3    0  502  0.27133141575E+03  0.13335090924E+03  0.28113648029E+03  0.41284686703E+03  0.12699999809E+01 0.  1.
</event>
<event>
 5   0  0.1640035E-03  0.7998391E+03  0.7818609E-02  0.9560250E-01
       -1   -1    0    0    0  501  0.00000000000E+00  0.00000000000E+00  0.29447770583E+03  0.29447770587E+03  0.50400001928E-02 0. -1.
        1   -1    0    0  501    0  0.00000000000E+00  0.00000000000E+00 -0.54311630387E+03  0.54311630390E+03  0.50400001928E-02 0.  1.
    10030    2    1    2    0    0  0.00000000000E+00  0.00000000000E+00 -0.24863859804E+03  0.83759400977E+03  0.79983909179E+03 0.  0.
        5    1    3    3  502    0 -0.94043793637E+02  0.32587132439E+03  0.97522716853E+02  0.35294351600E+03  0.46999998093E+01 0. -1.
       -5    1    3    3    0  502  0.94043793637E+02 -0.32587132439E+03 -0.34616131490E+03  0.48465049377E+03  0.46999998093E+01 0.  1.
</event>
<event>
 5   0  0.1617491E-03  0.8016798E+03  0.7818609E-02  0.9557589E-01
        1   -1    0    0  501    0  0.00000000000E+00  0.00000000000E+00  0.14927676734E+04  0.14927676734E+04  0.50400001928E-02 0. -1.
       -1   -1    0    0    0  501  0.00000000000E+00  0.00000000000E+00 -0.10763405259E+03  0.10763405271E+03  0.50400001928E-02 0.  1.
    10030    2    1    2    0    0  0.00000000000E+00  0.00000000000E+00  0.13851336208E+04  0.16004017262E+04  0.80167982230E+03 0.  0.
        1    1    3    3  502    0  0.24203402327E+03 -0.27370877418E+03  0.36347413889E+03  0.51537404974E+03  0.50400001928E-02 0.  1.
       -1    1    3    3    0  502 -0.24203402327E+03  0.27370877418E+03  0.10216594820E+04  0.10850276764E+04  0.50400001928E-02 0. -1.
</event>
<event>
 5   0  0.1637228E-03  0.7993860E+03  0.7818609E-02  0.9560906E-01
       -1   -1    0    0    0  501  0.00000000000E+00  0.00000000000E+00  0.18310743917E+03  0.18310743924E+03  0.50400001928E-02 0.  1.
        1   -1    0    0  501    0  0.00000000000E+00  0.00000000000E+00 -0.87246324487E+03  0.87246324489E+03  0.50400001928E-02 0. -1.
    10030    2    1    2    0    0  0.00000000000E+00  0.00000000000E+00 -0.68935580570E+03  0.10555706841E+04  0.79938604086E+03 0.  0.
        2    1    3    3  502    0 -0.16580696611E+03 -0.23914627027E+03 -0.70647798379E+03  0.76406415318E+03  0.25500000920E-02 0. -1.
       -2    1    3    3    0  502  0.16580696611E+03  0.23914627027E+03  0.17122178084E+02  0.29150653094E+03  0.25500000920E-02 0.  1.
</event>
<event>
 5   0  0.2763587E-03  0.8054056E+03  0.7818609E-02  0.9552225E-01
       -2   -1    0    0    0  501  0.00000000000E+00  0.00000000000E+00  0.13899132392E+03  0.13899132394E+03  0.25500000920E-02 0.  1.
        2   -1    0    0  501    0  0.00000000000E+00  0.00000000000E+00 -0.11667602560E+04  0.11667602560E+04  0.25500000920E-02 0. -1.
    10030    2    1    2    0    0  0.00000000000E+00  0.00000000000E+00 -0.10277689321E+04  0.13057515800E+04  0.80540561880E+03 0.  0.
        3    1    3    3  502    0 -0.22291980807E+03  0.32369124255E+03 -0.37161909647E+03  0.54089742502E+03  0.10100000352E+00 0. -1.
       -3    1    3    3    0  502  0.22291980807E+03 -0.32369124255E+03 -0.65614983565E+03  0.76485415496E+03  0.10100000352E+00 0.  1.
</event>
<event>
 5   0  0.2910501E-03  0.7984855E+03  0.7818609E-02  0.9562212E-01
        2   -1    0    0  501    0  0.00000000000E+00  0.00000000000E+00  0.86516576398E+03  0.86516576398E+03  0.25500000920E-02 0.  1.
       -2   -1    0    0    0  501  0.00000000000E+00  0.00000000000E+00 -0.18423612608E+03  0.18423612610E+03  0.25500000920E-02 0. -1.
    10030    2    1    2    0    0  0.00000000000E+00  0.00000000000E+00  0.68092963789E+03  0.10494018901E+04  0.79848553846E+03 0.  0.
        1    1    3    3  502    0  0.24703196910E+03 -0.28134797702E+03  0.15829522450E+03  0.40649582539E+03  0.50400001928E-02 0. -1.
       -1    1    3    3    0  502 -0.24703196910E+03  0.28134797702E+03  0.52263441339E+03  0.64290606469E+03  0.50400001928E-02 0.  1.
</event>
<event>
 5   0  0.1637228E-03  0.8006972E+03  0.7818609E-02  0.9559009E-01
        1   -1    0    0  501    0  0.00000000000E+00  0.00000000000E+00  0.16283677197E+04  0.16283677197E+04  0.50400001928E-02 0.  1.
       -1   -1    0    0    0  501  0.00000000000E+00  0.00000000000E+00 -0.98429238556E+02  0.98429238685E+02  0.50400001928E-02 0. -1.
    10030    2    1    2    0    0  0.00000000000E+00  0.00000000000E+00  0.15299384811E+04  0.17267969584E+04  0.80069718335E+03 0.  0.
        2    1    3    3  502    0 -0.17315086093E+03  0.32648568586E+03  0.10970102868E+04  0.11575861493E+04  0.25500000920E-02 0. -1.
       -2    1    3    3    0  502  0.17315086093E+03 -0.32648568586E+03  0.43292819434E+03  0.56921080908E+03  0.25500000920E-02 0.  1.
</event>
<event>
 5   0  0.1712793E-03  0.7984588E+03  0.7818609E-02  0.9562251E-01
       -1   -1    0    0    0  501  0.00000000000E+00  0.00000000000E+00  0.56843690075E+03  0.56843690077E+03  0.50400001928E-02 0.  1.
        1   -1    0    0  501    0  0.00000000000E+00  0.00000000000E+00 -0.28039015778E+03  0.28039015782E+03  0.50400001928E-02 0. -1.
    10030    2    1    2    0    0  0.00000000000E+00  0.00000000000E+00  0.28804674297E+03  0.84882705859E+03  0.79845879622E+03 0.  0.
        4    1    3    3  502    0 -0.30303068943E+03  0.16049152915E+03 -0.73317388968E+02  0.35065963852E+03  0.12699999809E+01 0. -1.
       -4    1    3    3    0  502  0.30303068943E+03 -0.16049152915E+03  0.36136413194E+03  0.49816742007E+03  0.12699999809E+01 0.  1.
</event>
<event>
 5   0  0.1656051E-03  0.7997464E+03  0.7818609E-02  0.9560384E-01
        1   -1    0    0  501    0  0.00000000000E+00  0.00000000000E+00  0.36718893184E+03  0.36718893187E+03  0.50400001928E-02 0.  1.
       -1   -1    0    0    0  501  0.00000000000E+00  0.00000000000E+00 -0.43546676026E+03  0.43546676029E+03  0.50400001928E-02 0. -1.
    10030    2    1    2    0    0  0.00000000000E+00  0.00000000000E+00 -0.68277828424E+02  0.80265569216E+03  0.79974639624E+03 0.  0.
        3    1    3    3  502    0  0.83545481271E+02  0.30977926696E+03 -0.27366064381E+03  0.42170273872E+03  0.10100000352E+00 0. -1.
       -3    1    3    3    0  502 -0.83545481271E+02 -0.30977926696E+03  0.20538281538E+03  0.38095295344E+03  0.10100000352E+00 0.  1.
</event>
<event>
 5   0  0.1712793E-03  0.7994808E+03  0.7818609E-02  0.9560769E-01
        1   -1    0    0  501    0  0.00000000000E+00  0.00000000000E+00  0.25990821101E+04  0.25990821101E+04  0.50400001928E-02 0.  1.
       -1   -1    0    0    0  501  0.00000000000E+00  0.00000000000E+00 -0.61480313079E+02  0.61480313285E+02  0.50400001928E-02 0. -1.
    10030    2    1    2    0    0  0.00000000000E+00  0.00000000000E+00  0.25376017970E+04  0.26605624233E+04  0.79948078682E+03 0.  0.
        4    1    3    3  502    0 -0.13030525785E+03  0.15901500569E+03  0.24096587716E+04  0.24184131659E+04  0.12699999809E+01 0.  1.
       -4    1    3    3    0  502  0.13030525785E+03 -0.15901500569E+03  0.12794302532E+03  0.24214925745E+03  0.12699999809E+01 0. -1.
</event>
<event>
 5   0  0.2873212E-03  0.7983913E+03  0.7818609E-02  0.9562349E-01
        2   -1    0    0  501    0  0.00000000000E+00  0.00000000000E+00  0.99944313419E+03  0.99944313420E+03  0.25500000920E-02 0. -1.
       -2   -1    0    0    0  501  0.00000000000E+00  0.00000000000E+00 -0.15944596424E+03  0.15944596426E+03  0.25500000920E-02 0.  1.
    10030    2    1    2    0    0  0.00000000000E+00  0.00000000000E+00  0.83999716995E+03  0.11588890985E+04  0.79839131822E+03 0.  0.
        2    1    3    3  502    0  0.12946979580E+03  0.37399013756E+03  0.34421086996E+03  0.52451136692E+03  0.25500000920E-02 0.  1.
       -2    1    3    3    0  502 -0.12946979580E+03 -0.37399013756E+03  0.49578629999E+03  0.63437773154E+03  0.25500000920E-02 0. -1.
</event>
<event>
 5   0  0.2910501E-03  0.7916098E+03  0.7818609E-02  0.9572242E-01
        2   -1    0    0  501    0  0.00000000000E+00  0.00000000000E+00  0.47710226734E+03  0.47710226735E+03  0.25500000920E-02 0. -1.
       -2   -1    0    0    0  501  0.00000000000E+00  0.00000000000E+00 -0.32836048567E+03  0.32836048568E+03  0.25500000920E-02 0.  1.
    10030    2    1    2    0    0  0.00000000000E+00  0.00000000000E+00  0.14874178167E+03  0.80546275303E+03  0.79160983375E+03 0.  0.
        1    1    3    3  502    0  0.19974075953E+03  0.31832393266E+03 -0.52041047903E+02  0.37938735853E+03  0.50400001928E-02 0. -1.
       -1    1    3    3    0  502 -0.19974075953E+03 -0.31832393266E+03  0.20078282958E+03  0.42607539450E+03  0.50400001928E-02 0.  1.
</event>
<event>
 5   0  0.1095350E-03  0.7998978E+03  0.7818609E-02  0.9560165E-01
       -3   -1    0    0    0  501  0.00000000000E+00  0.00000000000E+00  0.55225758729E+03  0.55225759653E+03  0.10100000352E+00 0.  1.
        3   -1    0    0  501    0  0.00000000000E+00  0.00000000000E+00 -0.28964581103E+03  0.28964582864E+03  0.10100000352E+00 0. -1.
    10030    2    1    2    0    0  0.00000000000E+00  0.00000000000E+00  0.26261177626E+03  0.84190342517E+03  0.79989776364E+03 0.  0.
        1    1    3    3  502    0 -0.36352228132E+03  0.78760041711E+02  0.28602009809E+03  0.46921113555E+03  0.50400001928E-02 0.  1.
       -1    1    3    3    0  502  0.36352228132E+03 -0.78760041711E+02 -0.23408321831E+02  0.37269228962E+03  0.50400001928E-02 0. -1.
</event>
<event>
 5   0  0.1617491E-03  0.7998493E+03  0.7818609E-02  0.9560235E-01
       -1   -1    0    0    0  501  0.00000000000E+00  0.00000000000E+00  0.15303224947E+03  0.15303224956E+03  0.50400001928E-02 0. -1.
        1   -1    0    0  501    0  0.00000000000E+00  0.00000000000E+00 -0.10451374202E+04  0.10451374202E+04  0.50400001928E-02 0.  1.
    10030    2    1    2    0    0  0.00000000000E+00  0.00000000000E+00 -0.89210517073E+03  0.11981696698E+04  0.79984931201E+03 0.  0.
        1    1    3    3  502    0  0.19679079794E+03  0.32349577376E+03 -0.63884390206E+03  0.74262888781E+03  0.50400001928E-02 0.  1.
       -1    1    3    3    0  502 -0.19679079794E+03 -0.32349577376E+03 -0.25326126867E+03  0.45554078195E+03  0.50400001928E-02 0. -1.
</event>
<event>
 5   0  0.2873212E-03  0.7998281E+03  0.7818609E-02  0.9560266E-01
        2   -1    0    0  501    0  0.00000000000E+00  0.00000000000E+00  0.47124600544E+03  0.47124600545E+03  0.25500000920E-02 0. -1.
       -2   -1    0    0    0  501  0.00000000000E+00  0.00000000000E+00 -0.33937948965E+03  0.33937948966E+03  0.25500000920E-02 0.  1.
    10030    2    1    2    0    0  0.00000000000E+00  0.00000000000E+00  0.13186651579E+03  0.81062549511E+03  0.79982805361E+03 0.  0.
        2    1    3    3  502    0  0.22680369269E+03 -0.25942006261E+03 -0.13976610092E+03  0.37185110847E+03  0.25500000920E-02 0.  1.
       -2    1    3    3    0  502 -0.22680369269E+03  0.25942006261E+03  0.27163261671E+03  0.43877438664E+03  0.25500000920E-02 0. -1.
</event>
<event>
 5   0  0.1617491E-03  0.8049183E+03  0.7818609E-02  0.9552925E-01
        1   -1    0    0  501    0  0.00000000000E+00  0.00000000000E+00  0.31259975735E+03  0.31259975739E+03  0.50400001928E-02 0.  1.
       -1   -1    0    0    0  501  0.00000000000E+00  0.00000000000E+00 -0.51814936060E+03  0.51814936062E+03  0.50400001928E-02 0. -1.
    10030    2    1    2    0    0  0.00000000000E+00  0.00000000000E+00 -0.20554960325E+03  0.83074911801E+03  0.80491829255E+03 0.  0.
        1    1    3    3  502    0  0.13889866046E+03  0.41159069927E+02 -0.49030610657E+03  0.51126019313E+03  0.50400001928E-02 0. -1.
       -1    1    3    3    0  502 -0.13889866046E+03 -0.41159069927E+02  0.28475650332E+03  0.31948892488E+03  0.50400001928E-02 0.  1.
</event>
<event>
 5   0  0.2910501E-03  0.7988035E+03  0.7818609E-02  0.9561751E-01
       -2   -1    0    0    0  501  0.00000000000E+00  0.00000000000E+00  0.77526415762E+02  0.77526415803E+02  0.25500000920E-02 0. -1.
        2   -1    0    0  501    0  0.00000000000E+00  0.00000000000E+00 -0.20576439144E+04  0.20576439144E+04  0.25500000920E-02 0.  1.
    10030    2    1    2    0    0  0.00000000000E+00  0.00000000000E+00 -0.19801174986E+04  0.21351703302E+04  0.79880349935E+03 0.  0.
        1    1    3    3  502    0 -0.18554182160E+02  0.80875452646E+02 -0.20343508573E+04  0.20360423638E+04  0.50400001928E-02 0.  1.
       -1    1    3    3    0  502  0.18554182160E+02 -0.80875452646E+02  0.54233358637E+02  0.99127966441E+02  0.50400001928E-02 0. -1.
</event>
<event>
 5   0  0.1656051E-03  0.8000473E+03  0.7818609E-02  0.9559949E-01
       -1   -1    0    0    0  501  0.00000000000E+00  0.00000000000E+00  0.43754664081E+03  0.43754664084E+03  0.50400001928E-02 0.  1.
        1   -1    0    0  501    0  0.00000000000E+00  0.00000000000E+00 -0.36571854093E+03  0.36571854097E+03  0.50400001928E-02 0. -1.
    10030    2    1    2    0    0  0.00000000000E+00  0.00000000000E+00  0.71828099880E+02  0.80326518181E+03  0.80004729634E+03 0.  0.
        3    1    3    3  502    0  0.96437879308E+02 -0.10784118292E+03  0.41036035866E+03  0.43511563918E+03  0.10100000352E+00 0.  1.
       -3    1    3    3    0  502 -0.96437879308E+02  0.10784118292E+03 -0.33853225878E+03  0.36814954263E+03  0.10100000352E+00 0. -1.
</event>
<event>
 5   0  0.2690809E-03  0.8131733E+03  0.7818609E-02  0.9541143E-01
       -2   -1    0    0    0  501  0.00000000000E+00  0.00000000000E+00  0.99432445577E+02  0.99432445609E+02  0.25500000920E-02 0. -1.
        2   -1    0    0  501    0  0.00000000000E+00  0.00000000000E+00 -0.16625629927E+04  0.16625629927E+04  0.25500000920E-02 0.  1.
    10030    2    1    2    0    0  0.00000000000E+00  0.00000000000E+00 -0.15631305471E+04  0.17619954383E+04  0.81317330088E+03 0.  0.
        5    1    3    3  502    0  0.74020186308E+02  0.35487174395E+03 -0.38274388040E+03  0.52718868597E+03  0.46999998093E+01 0.  1.
       -5    1    3    3    0  502 -0.74020186308E+02 -0.35487174395E+03 -0.11803866667E+04  0.12348067523E+04  0.46999998093E+01 0. -1.
</event>
<event>
 5   0  0.2910501E-03  0.8006212E+03  0.7818609E-02  0.9559118E-01
       -2   -1    0    0    0  501  0.00000000000E+00  0.00000000000E+00  0.13625732382E+03  0.13625732385E+03  0.25500000920E-02 0.  1.
        2   -1    0    0  501    0  0.00000000000E+00  0.00000000000E+00 -0.11760731617E+04  0.11760731617E+04  0.25500000920E-02 0. -1.
    10030    2    1    2    0    0  0.00000000000E+00  0.00000000000E+00 -0.10398158379E+04  0.13123304855E+04  0.80062121294E+03 0.  0.
        1    1    3    3  502    0  0.90653343263E+02  0.38457111963E+03 -0.62531887493E+03  0.73968687298E+03  0.50400001928E-02 0. -1.
       -1    1    3    3    0  502 -0.90653343263E+02 -0.38457111963E+03 -0.41449696294E+03  0.57264361256E+03  0.50400001928E-02 0.  1.
</event>
<event>
 5   0  0.1637228E-03  0.8009872E+03  0.7818609E-02  0.9558589E-01
        1   -1    0    0  501    0  0.00000000000E+00  0.00000000000E+00  0.36694280195E+03  0.36694280199E+03  0.50400001928E-02 0. -1.
       -1   -1    0    0    0  501  0.00000000000E+00  0.00000000000E+00 -0.43711205259E+03  0.43711205262E+03  0.50400001928E-02 0.  1.
    10030    2    1    2    0    0  0.00000000000E+00  0.00000000000E+00 -0.70169250635E+02  0.80405485460E+03  0.80098719433E+03 0.  0.
        2    1    3    3  502    0  0.64244686077E+02 -0.27818939962E+03  0.24684398506E+03  0.37742373365E+03  0.25500000920E-02 0. -1.
       -2    1    3    3    0  502 -0.64244686077E+02  0.27818939962E+03 -0.31701323570E+03  0.42663112095E+03  0.25500000920E-02 0.  1.
</event>
<event>
 5   0  0.2873212E-03  0.8001627E+03  0.7818609E-02  0.9559782E-01
       -2   -1    0    0    0  501  0.00000000000E+00  0.00000000000E+00  0.10435725331E+03  0.10435725334E+03  0.25500000920E-02 0. -1.
        2   -1    0    0  501    0  0.00000000000E+00  0.00000000000E+00 -0.15338184182E+04  0.15338184182E+04  0.25500000920E-02 0.  1.
    10030    2    1    2    0    0  0.00000000000E+00  0.00000000000E+00 -0.14294611649E+04  0.16381756715E+04  0.80016267652E+03 0.  0.
        2    1    3    3  502    0  0.37146097959E+03  0.13933015241E+03 -0.82049765608E+03  0.91137947879E+03  0.25500000920E-02 0.  1.
       -2    1    3    3    0  502 -0.37146097959E+03 -0.13933015241E+03 -0.60896350879E+03  0.72679619273E+03  0.25500000920E-02 0. -1.
</event>
<event>
 5   0  0.2910501E-03  0.7991054E+03  0.7818609E-02  0.9561313E-01
        2   -1    0    0  501    0  0.00000000000E+00  0.00000000000E+00  0.20109192599E+03  0.20109192601E+03  0.25500000920E-02 0. -1.
       -2   -1    0    0    0  501  0.00000000000E+00  0.00000000000E+00 -0.79387757463E+03  0.79387757464E+03  0.25500000920E-02 0.  1.
    10030    2    1    2    0    0  0.00000000000E+00  0.00000000000E+00 -0.59278564864E+03  0.99496950064E+03  0.79910542607E+03 0.  0.
        1    1    3    3  502    0 -0.94462942961E+02  0.90513540056E+02 -0.76645291489E+03  0.77753843590E+03  0.50400001928E-02 0.  1.
       -1    1    3    3    0  502  0.94462942961E+02 -0.90513540056E+02  0.17366726625E+03  0.21743106475E+03  0.50400001928E-02 0. -1.
</event>
<event>
 5   0  0.1637228E-03  0.7997576E+03  0.7818609E-02  0.9560368E-01
       -1   -1    0    0    0  501  0.00000000000E+00  0.00000000000E+00  0.95393913973E+02  0.95393914106E+02  0.50400001928E-02 0. -1.
        1   -1    0    0  501    0  0.00000000000E+00  0.00000000000E+00 -0.16762395173E+04  0.16762395173E+04  0.50400001928E-02 0.  1.
    10030    2    1    2    0    0  0.00000000000E+00  0.00000000000E+00 -0.15808456033E+04  0.17716334314E+04  0.79975758437E+03 0.  0.
        2    1    3    3  502    0 -0.68544627650E+02  0.30675417061E+03 -0.13380177361E+04  0.13744409589E+04  0.25500000920E-02 0.  1.
       -2    1    3    3    0  502  0.68544627650E+02 -0.30675417061E+03 -0.24282786721E+03  0.39719247257E+03  0.25500000920E-02 0. -1.
</event>
<event>
 5   0  0.1712793E-03  0.7996080E+03  0.7818609E-02  0.9560585E-01
       -1   -1    0    0    0  501  0.00000000000E+00  0.00000000000E+00  0.33474269901E+03  0.33474269905E+03  0.50400001928E-02 0.  1.
        1   -1    0    0  501    0  0.00000000000E+00  0.00000000000E+00 -0.47751073362E+03  0.47751073364E+03  0.50400001928E-02 0. -1.
    10030    2    1    2    0    0  0.00000000000E+00  0.00000000000E+00 -0.14276803461E+03  0.81225343269E+03  0.79960798346E+03 0.  0.
        4    1    3    3  502    0  0.13414167618E+02  0.14132787862E+03  0.30827538011E+03  0.33939480262E+03  0.12699999809E+01 0.  1.
       -4    1    3    3    0  502 -0.13414167618E+02 -0.14132787862E+03 -0.45104341472E+03  0.47285863007E+03  0.12699999809E+01 0. -1.
</event>
<event>
 5   0  0.2690809E-03  0.8000026E+03  0.7818609E-02  0.9560013E-01
        2   -1    0    0  501    0  0.00000000000E+00  0.00000000000E+00  0.23813716043E+03  0.23813716045E+03  0.25500000920E-02 0.  1.
       -2   -1    0    0    0  501  0.00000000000E+00  0.00000000000E+00 -0.67188602057E+03  0.67188602058E+03  0.25500000920E-02 0. -1.
    10030    2    1    2    0    0  0.00000000000E+00  0.00000000000E+00 -0.43374886014E+03  0.91002318103E+03  0.80000257270E+03 0.  0.
        5    1    3    3  502    0 -0.62331656478E+02 -0.24626065483E+03  0.13456271186E+03  0.28750436334E+03  0.46999998093E+01 0.  1.
       -5    1    3    3    0  502  0.62331656478E+02  0.24626065483E+03 -0.56831157200E+03  0.62251881769E+03  0.46999998093E+01 0. -1.
</event>
<event>
 5   0  0.1656051E-03  0.8014311E+03  0.7818609E-02  0.9557948E-01
        1   -1    0    0  501    0  0.00000000000E+00  0.00000000000E+00  0.58493452465E+03  0.58493452467E+03  0.50400001928E-02 0.  1.
       -1   -1    0    0    0  501  0.00000000000E+00  0.00000000000E+00 -0.27451438214E+03  0.27451438219E+03  0.50400001928E-02 0. -1.
    10030    2    1    2    0    0  0.00000000000E+00  0.00000000000E+00  0.31042014251E+03  0.85944890686E+03  0.80143106917E+03 0.  0.
        3    1    3    3  502    0  0.26632698789E+03  0.28188688437E+03  0.46995863565E+02  0.39063909361E+03  0.10100000352E+00 0. -1.
       -3    1    3    3    0  502 -0.26632698789E+03 -0.28188688437E+03  0.26342427895E+03  0.46880981325E+03  0.10100000352E+00 0.  1.
</event>
<event>
 5   0  0.1617491E-03  0.7950813E+03  0.7818609E-02  0.9567164E-01
        1   -1    0    0  501    0  0.00000000000E+00  0.00000000000E+00  0.13581553252E+03  0.13581553261E+03  0.50400001928E-02 0.  1.
       -1   -1    0    0    0  501  0.00000000000E+00  0.00000000000E+00 -0.11636265697E+04  0.11636265697E+04  0.50400001928E-02 0. -1.
    10030    2    1    2    0    0  0.00000000000E+00  0.00000000000E+00 -0.10278110372E+04  0.12994421023E+04  0.79508128460E+03 0.  0.
        1    1    3    3  502    0  0.16695814559E+03 -0.27514013818E+03 -0.89531367854E+03  0.95140091498E+03  0.50400001928E-02 0. -1.
       -1    1    3    3    0  502 -0.16695814559E+03  0.27514013818E+03 -0.13249735864E+03  0.34804118734E+03  0.50400001928E-02 0.  1.
</event>
<event>
 5   0  0.2763587E-03  0.7996442E+03  0.7818609E-02  0.9560532E-01
       -2   -1    0    0    0  501  0.00000000000E+00  0.00000000000E+00  0.20561990225E+03  0.20561990226E+03  0.25500000920E-02 0.  1.
        2   -1    0    0  501    0  0.00000000000E+00  0.00000000000E+00 -0.77744287024E+03  0.77744287024E+03  0.25500000920E-02 0. -1.
    10030    2    1    2    0    0  0.00000000000E+00  0.00000000000E+00 -0.57182296799E+03  0.98306277250E+03  0.79964423837E+03 0.  0.
        3    1    3    3  502    0 -0.29187074440E+03  0.30074967683E+02 -0.61980552943E+03  0.68574918129E+03  0.10100000352E+00 0. -1.
       -3    1    3    3    0  502  0.29187074440E+03 -0.30074967683E+02  0.47982561437E+02  0.29731359122E+03  0.10100000352E+00 0.  1.
</event>
<event>
 5   0  0.2690809E-03  0.8029600E+03  0.7818609E-02  0.9555743E-01
       -2   -1    0    0    0  501  0.00000000000E+00  0.00000000000E+00  0.19711771587E+03  0.19711771588E+03  0.25500000920E-02 0. -1.
        2   -1    0    0  501    0  0.00000000000E+00  0.00000000000E+00 -0.81771530202E+03  0.81771530203E+03  0.25500000920E-02 0.  1.
    10030    2    1    2    0    0  0.00000000000E+00  0.00000000000E+00 -0.62059758616E+03  0.10148330179E+04  0.80295995560E+03 0.  0.
        5    1    3    3  502    0  0.39051578608E+03  0.81907805475E+02 -0.25445061750E+03  0.47326385296E+03  0.46999998093E+01 0. -1.
       -5    1    3    3    0  502 -0.39051578608E+03 -0.81907805475E+02 -0.36614696865E+03  0.54156916495E+03  0.46999998093E+01 0.  1.
</event>
<event>
 5   0  0.1640035E-03  0.8007351E+03  0.7818609E-02  0.9558954E-01
       -1   -1    0    0    0  501  0.00000000000E+00  0.00000000000E+00  0.12156784978E+03  0.12156784989E+03  0.50400001928E-02 0. -1.
        1   -1    0    0  501    0  0.00000000000E+00  0.00000000000E+00 -0.13185571709E+04  0.13185571709E+04  0.50400001928E-02 0.  1.
    10030    2    1    2    0    0  0.00000000000E+00  0.00000000000E+00 -0.11969893211E+04  0.14401250208E+04  0.80073506271E+03 0.  0.
        5    1    3    3  502    0  0.23512837619E+02  0.38398421179E+03 -0.39923098105E+03  0.55444043383E+03  0.46999998093E+01 0. -1.
       -5    1    3    3    0  502 -0.23512837619E+02 -0.38398421179E+03 -0.79775834004E+03  0.88568458694E+03  0.46999998093E+01 0.  1.
</event>
<event>
 5   0  0.1637228E-03  0.7992028E+03  0.7818609E-02  0.9561172E-01
        1   -1    0    0  501    0  0.00000000000E+00  0.00000000000E+00  0.79571388577E+03  0.79571388579E+03  0.50400001928E-02 0.  1.
       -1   -1    0    0    0  501  0.00000000000E+00  0.00000000000E+00 -0.20067675500E+03  0.20067675506E+03  0.50400001928E-02 0. -1.
    10030    2    1    2    0    0  0.00000000000E+00  0.00000000000E+00  0.59503713077E+03  0.99639064085E+03  0.79920280416E+03 0.  0.
        2    1    3    3  502    0 -0.88613731668E+02  0.14571224368E+03  0.74806437702E+03  0.76725795113E+03  0.25500000920E-02 0.  1.
       -2    1    3    3    0  502  0.88613731668E+02 -0.14571224368E+03 -0.15302724625E+03  0.22913268972E+03  0.25500000920E-02 0. -1.
</event>
<event>
 5   0  0.2768834E-03  0.7944443E+03  0.7818609E-02  0.9568094E-01
       -2   -1    0    0    0  501  0.00000000000E+00  0.00000000000E+00  0.31282703693E+03  0.31282703694E+03  0.25500000920E-02 0.  1.
        2   -1    0    0  501    0  0.00000000000E+00  0.00000000000E+00 -0.50438557852E+03  0.50438557853E+03  0.25500000920E-02 0. -1.
    10030    2    1    2    0    0  0.00000000000E+00  0.00000000000E+00 -0.19155854160E+03  0.81721261547E+03  0.79444432405E+03 0.  0.
        4    1    3    3  502    0  0.15325713651E+03  0.11374508225E+03 -0.45412815012E+03  0.49260499719E+03  0.12699999809E+01 0. -1.
       -4    1    3    3    0  502 -0.15325713651E+03 -0.11374508225E+03  0.26256960852E+03  0.32460761828E+03  0.12699999809E+01 0.  1.
</event>
<event>
 5   0  0.2690809E-03  0.7982539E+03  0.7818609E-02  0.9562548E-01
        2   -1    0    0  501    0  0.00000000000E+00  0.00000000000E+00  0.17078699870E+04  0.17078699870E+04  0.25500000920E-02 0.  1.
       -2   -1    0    0    0  501  0.00000000000E+00  0.00000000000E+00 -0.93275441652E+02  0.93275441686E+02  0.25500000920E-02 0. -1.
    10030    2    1    2    0    0  0.00000000000E+00  0.00000000000E+00  0.16145945454E+04  0.18011454287E+04  0.79825391288E+03 0.  0.
        5    1    3    3  502    0  0.50250713913E+02  0.76324197166E+02  0.16838844376E+04  0.16863687042E+04  0.46999998093E+01 0.  1.
       -5    1    3    3    0  502 -0.50250713913E+02 -0.76324197166E+02 -0.69289892239E+02  0.11477672450E+03  0.46999998093E+01 0. -1.
</event>
<event>
 5   0  0.1617491E-03  0.7998640E+03  0.7818609E-02  0.9560214E-01
        1   -1    0    0  501    0  0.00000000000E+00  0.00000000000E+00  0.10281866779E+04  0.10281866780E+04  0.50400001928E-02 0. -1.
       -1   -1    0    0    0  501  0.00000000000E+00  0.00000000000E+00 -0.15556084522E+03  0.15556084530E+03  0.50400001928E-02 0.  1.
    10030    2    1    2    0    0  0.00000000000E+00  0.00000000000E+00  0.87262583272E+03  0.11837475233E+04  0.79986396023E+03 0.  0.
        1    1    3    3  502    0 -0.15143268654E+03  0.13260424900E+03 -0.75132611572E+02  0.21485030778E+03  0.50400001928E-02 0.  1.
       -1    1    3    3    0  502  0.15143268654E+03 -0.13260424900E+03  0.94775844429E+03  0.96889721548E+03  0.50400001928E-02 0. -1.
</event>
<event>
 5   0  0.2873212E-03  0.8007493E+03  0.7818609E-02  0.9558933E-01
       -2   -1    0    0    0  501  0.00000000000E+00  0.00000000000E+00  0.10055823583E+03  0.10055823587E+03  0.25500000920E-02 0.  1.
        2   -1    0    0  501    0  0.00000000000E+00  0.00000000000E+00 -0.15940997955E+04  0.15940997955E+04  0.25500000920E-02 0. -1.
    10030    2    1    2    0    0  0.00000000000E+00  0.00000000000E+00 -0.14935415596E+04  0.16946580313E+04  0.80074930710E+03 0.  0.
        2    1    3    3  502    0 -0.59981005766E+02  0.16279045783E+03 -0.15104190013E+04  0.15203499642E+04  0.25500000920E-02 0. -1.
       -2    1    3    3    0  502  0.59981005766E+02 -0.16279045783E+03  0.16877441681E+02  0.17430806710E+03  0.25500000920E-02 0.  1.
</event>
<event>
 5   0  0.1095350E-03  0.7995222E+03  0.7818609E-02  0.9560709E-01
       -3   -1    0    0    0  501  0.00000000000E+00  0.00000000000E+00  0.36643572547E+03  0.36643573938E+03  0.10100000352E+00 0.  1.
        3   -1    0    0  501    0  0.00000000000E+00  0.00000000000E+00 -0.43611717402E+03  0.43611718572E+03  0.10100000352E+00 0. -1.
    10030    2    1    2    0    0  0.00000000000E+00  0.00000000000E+00 -0.69681448559E+02  0.80255292510E+03  0.79952216562E+03 0.  0.
        5    1    3    3  502    0 -0.87816638845E+02  0.38849950355E+03 -0.68780237895E+02  0.40422325198E+03  0.46999998093E+01 0.  1.
       -5    1    3    3    0  502  0.87816638845E+02 -0.38849950355E+03 -0.90121066403E+00  0.39832967313E+03  0.46999998093E+01 0. -1.
</event>
<event>
 5   0  0.1637228E-03  0.8035828E+03  0.7818609E-02  0.9554846E-01
       -1   -1    0    0    0  501  0.00000000000E+00  0.00000000000E+00  0.15106266994E+03  0.15106267002E+03  0.50400001928E-02 0.  1.
        1   -1    0    0  501    0  0.00000000000E+00  0.00000000000E+00 -0.10686713479E+04  0.10686713479E+04  0.50400001928E-02 0. -1.
    10030    2    1    2    0    0  0.00000000000E+00  0.00000000000E+00 -0.91760867798E+03  0.12197340179E+04  0.80358284491E+03 0.  0.
        2    1    3    3  502    0  0.14500659189E+03 -0.11950430140E+03  0.80259878981E+02  0.20432777081E+03  0.25500000920E-02 0.  1.
       -2    1    3    3    0  502 -0.14500659189E+03  0.11950430140E+03 -0.99786855696E+03  0.10154062471E+04  0.25500000920E-02 0. -1.
</event>
<event>
 5   0  0.2910501E-03  0.8005215E+03  0.7818609E-02  0.9559263E-01
        2   -1    0    0  501    0  0.00000000000E+00  0.00000000000E+00  0.10632933301E+04  0.10632933301E+04  0.25500000920E-02 0. -1.
       -2   -1    0    0    0  501  0.00000000000E+00  0.00000000000E+00 -0.15067213491E+03  0.15067213493E+03  0.25500000920E-02 0.  1.
    10030    2    1    2    0    0  0.00000000000E+00  0.00000000000E+00  0.91262119519E+03  0.12139654650E+04  0.80052152026E+03 0.  0.
        1    1    3    3  502    0  0.14857019016E+03 -0.10910161267E+03  0.99509964939E+03  0.10120274579E+04  0.50400001928E-02 0. -1.
       -1    1    3    3    0  502 -0.14857019016E+03  0.10910161267E+03 -0.82478454208E+02  0.20193800714E+03  0.50400001928E-02 0.  1.
</event>
<event>
 5   0  0.1617491E-03  0.8004208E+03  0.7818609E-02  0.9559408E-01
       -1   -1    0    0    0  501  0.00000000000E+00  0.00000000000E+00  0.14888264078E+03  0.14888264086E+03  0.50400001928E-02 0. -1.
        1   -1    0    0  501    0  0.00000000000E+00  0.00000000000E+00 -0.10758028151E+04  0.10758028151E+04  0.50400001928E-02 0.  1.
    10030    2    1    2    0    0  0.00000000000E+00  0.00000000000E+00 -0.92692017436E+03  0.12246854560E+04  0.80042079967E+03 0.  0.
        1    1    3    3  502    0 -0.25007733650E+03  0.13697919079E+02  0.14156516581E+02  0.25085197668E+03  0.50400001928E-02 0. -1.
       -1    1    3    3    0  502  0.25007733650E+03 -0.13697919079E+02 -0.94107669094E+03  0.97383347933E+03  0.50400001928E-02 0.  1.
</event>
<event>
 5   0  0.1656051E-03  0.7995505E+03  0.7818609E-02  0.9560668E-01
       -1   -1    0    0    0  501  0.00000000000E+00  0.00000000000E+00  0.18175102052E+03  0.18175102059E+03  0.50400001928E-02 0.  1.
        1   -1    0    0  501    0  0.00000000000E+00  0.00000000000E+00 -0.87933620041E+03  0.87933620043E+03  0.50400001928E-02 0. -1.
    10030    2    1    2    0    0  0.00000000000E+00  0.00000000000E+00 -0.69758517990E+03  0.10610872210E+04  0.79955050334E+03 0.  0.
        3    1    3    3  502    0  0.25030644229E+03 -0.12642109337E+03  0.29338251469E+02  0.28195097287E+03  0.10100000352E+00 0.  1.
       -3    1    3    3    0  502 -0.25030644229E+03  0.12642109337E+03 -0.72692343137E+03  0.77913624814E+03  0.10100000352E+00 0. -1.
</event>
<event>
 5   0  0.2768834E-03  0.7990475E+03  0.7818609E-02  0.9561397E-01
       -2   -1    0    0    0  501  0.00000000000E+00  0.00000000000E+00  0.10955251185E+03  0.10955251188E+03  0.25500000920E-02 0. -1.
        2   -1    0    0  501    0  0.00000000000E+00  0.00000000000E+00 -0.14570109578E+04  0.14570109578E+04  0.25500000920E-02 0.  1.
    10030    2    1    2    0    0  0.00000000000E+00  0.00000000000E+00 -0.13474584460E+04  0.15665634697E+04  0.79904745853E+03 0.  0.
        4    1    3    3  502    0 -0.42460127048E-01  0.47873297690E+02  0.10390491220E+03  0.11441021857E+03  0.12699999809E+01 0. -1.
       -4    1    3    3    0  502  0.42460127048E-01 -0.47873297690E+02 -0.14513633582E+04  0.14521532511E+04  0.12699999809E+01 0.  1.
</event>
<event>
 5   0  0.2910501E-03  0.7997821E+03  0.7818609E-02  0.9560332E-01
       -2   -1    0    0    0  501  0.00000000000E+00  0.00000000000E+00  0.16066529247E+03  0.16066529250E+03  0.25500000920E-02 0. -1.
        2   -1    0    0  501    0  0.00000000000E+00  0.00000000000E+00 -0.99531683289E+03  0.99531683289E+03  0.25500000920E-02 0.  1.
    10030    2    1    2    0    0  0.00000000000E+00  0.00000000000E+00 -0.83465154042E+03  0.11559821254E+04  0.79978214552E+03 0.  0.
        1    1    3    3  502    0 -0.22827962716E+02 -0.39794884232E+01  0.15969409312E+03  0.16136652569E+03  0.50400001928E-02 0. -1.
       -1    1    3    3    0  502  0.22827962716E+02  0.39794884232E+01 -0.99434563354E+03  0.99461559970E+03  0.50400001928E-02 0.  1.
</event>
<event>
 5   0  0.1095350E-03  0.7993050E+03  0.7818609E-02  0.9561024E-01
       -4   -1    0    0    0  501  0.00000000000E+00  0.00000000000E+00  0.51760359682E+03  0.51760515487E+03  0.12699999809E+01 0. -1.
        4   -1    0    0  501    0  0.00000000000E+00  0.00000000000E+00 -0.30857664849E+03  0.30857926193E+03  0.12699999809E+01 0.  1.
    10030    2    1    2    0    0  0.00000000000E+00  0.00000000000E+00  0.20902694834E+03  0.82618441679E+03  0.79930496396E+03 0.  0.
        4    1    3    3  502    0  0.36622138618E+03 -0.11797979225E+03 -0.72100486247E+01  0.38482584734E+03  0.12699999809E+01 0.  1.
       -4    1    3    3    0  502 -0.36622138618E+03  0.11797979225E+03  0.21623699696E+03  0.44135856946E+03  0.12699999809E+01 0. -1.
</event>
<event>
 5   0  0.1712793E-03  0.7966329E+03  0.7818609E-02  0.9564904E-01
        1   -1    0    0  501    0  0.00000000000E+00  0.00000000000E+00  0.15521054140E+04  0.15521054140E+04  0.50400001928E-02 0. -1.
       -1   -1    0    0    0  501  0.00000000000E+00  0.00000000000E+00 -0.10221986379E+03  0.10221986391E+03  0.50400001928E-02 0.  1.
    10030    2    1    2    0    0  0.00000000000E+00  0.00000000000E+00  0.14498855502E+04  0.16543252779E+04  0.79663292453E+03 0.  0.
        4    1    3    3  502    0  0.29833531784E+03  0.72796218561E+02  0.12517367222E+04  0.12888559602E+04  0.12699999809E+01 0. -1.
       -4    1    3    3    0  502 -0.29833531784E+03 -0.72796218561E+02  0.19814882798E+03  0.36546931778E+03  0.12699999809E+01 0.  1.
</event>
<event>
 5   0  0.1640035E-03  0.7981560E+03  0.7818609E-02  0.9562690E-01
       -1   -1    0    0    0  501  0.00000000000E+00  0.00000000000E+00  0.10597000130E+03  0.10597000142E+03  0.50400001928E-02 0.  1.
        1   -1    0    0  501    0  0.00000000000E+00  0.00000000000E+00 -0.15029089626E+04  0.15029089627E+04  0.50400001928E-02 0. -1.
    10030    2    1    2    0    0  0.00000000000E+00  0.00000000000E+00 -0.13969389613E+04  0.16088789641E+04  0.79815603696E+03 0.  0.
        5    1    3    3  502    0 -0.22414632642E+03 -0.32267374619E+03 -0.55763752292E+03  0.68215952613E+03  0.46999998093E+01 0.  1.
       -5    1    3    3    0  502  0.22414632642E+03  0.32267374619E+03 -0.83930143842E+03  0.92671943795E+03  0.46999998093E+01 0. -1.
</event>
<event>
 5   0  0.2873212E-03  0.8005503E+03  0.7818609E-02  0.9559221E-01
       -2   -1    0    0    0  501  0.00000000000E+00  0.00000000000E+00  0.12914419563E+03  0.12914419565E+03  0.25500000920E-02 0.  1.
        2   -1    0    0  501    0  0.00000000000E+00  0.00000000000E+00 -0.12406301760E+04  0.12406301760E+04  0.25500000920E-02 0. -1.
    10030    2    1    2    0    0  0.00000000000E+00  0.00000000000E+00 -0.11114859804E+04  0.13697743717E+04  0.80055027617E+03 0.  0.
        2    1    3    3  502    0  0.22839573213E+03 -0.74817822029E+01  0.65614273807E+01  0.22861242280E+03  0.25500000920E-02 0.  1.
       -2    1    3    3    0  502 -0.22839573213E+03  0.74817822029E+01 -0.11180474078E+04  0.11411619489E+04  0.25500000920E-02 0. -1.
</event>
<event>
 5   0  0.1712793E-03  0.7999843E+03  0.7818609E-02  0.9560040E-01
       -1   -1    0    0    0  501  0.00000000000E+00  0.00000000000E+00  0.40328126996E+03  0.40328126999E+03  0.50400001928E-02 0. -1.
        1   -1    0    0  501    0  0.00000000000E+00  0.00000000000E+00 -0.39672981093E+03  0.39672981096E+03  0.50400001928E-02 0.  1.
    10030    2    1    2    0    0  0.00000000000E+00  0.00000000000E+00  0.65514590286E+01  0.80001108095E+03  0.79998425486E+03 0.  0.
        4    1    3    3  502    0  0.15315459958E+02  0.27309501942E+03  0.29513588226E+03  0.40239564466E+03  0.12699999809E+01 0. -1.
       -4    1    3    3    0  502 -0.15315459958E+02 -0.27309501942E+03 -0.28858442323E+03  0.39761543629E+03  0.12699999809E+01 0.  1.
</event>
<event>
 5   0  0.2690809E-03  0.7987711E+03  0.7818609E-02  0.9561798E-01
        2   -1    0    0  501    0  0.00000000000E+00  0.00000000000E+00  0.36083473798E+03  0.36083473799E+03  0.25500000920E-02 0. -1.
       -2   -1    0    0    0  501  0.00000000000E+00  0.00000000000E+00 -0.44205500452E+03  0.44205500453E+03  0.25500000920E-02 0.  1.
    10030    2    1    2    0    0  0.00000000000E+00  0.00000000000E+00 -0.81220266540E+02  0.80288974252E+03  0.79877106040E+03 0.  0.
        5    1    3    3  502    0  0.45800120211E+01  0.29401157665E+03 -0.31223104903E+03  0.42892202286E+03  0.46999998093E+01 0.  1.
       -5    1    3    3    0  502 -0.45800120211E+01 -0.29401157665E+03  0.23101078249E+03  0.37396771965E+03  0.46999998093E+01 0. -1.
</event>
<event>
 5   0  0.1640035E-03  0.8095149E+03  0.7818609E-02  0.9546346E-01
       -1   -1    0    0    0  501  0.00000000000E+00  0.00000000000E+00  0.16580676191E+03  0.16580676198E+03  0.50400001928E-02 0. -1.
        1   -1    0    0  501    0  0.00000000000E+00  0.00000000000E+00 -0.98806940076E+03  0.98806940077E+03  0.50400001928E-02 0.  1.
    10030    2    1    2    0    0  0.00000000000E+00  0.00000000000E+00 -0.82226263885E+03  0.11538761628E+04  0.80951488666E+03 0.  0.
        5    1    3    3  502    0  0.19554577897E+03 -0.32923335550E+03 -0.22433562881E+03  0.44382577483E+03  0.46999998093E+01 0. -1.
       -5    1    3    3    0  502 -0.19554577897E+03  0.32923335550E+03 -0.59792701004E+03  0.71005038792E+03  0.46999998093E+01 0.  1.
</event>
<event>
 5   0  0.1617491E-03  0.8000381E+03  0.7818609E-02  0.9559962E-01
        1   -1    0    0  501    0  0.00000000000E+00  0.00000000000E+00  0.19298765028E+04  0.19298765028E+04  0.50400001928E-02 0.  1.
       -1   -1    0    0    0  501  0.00000000000E+00  0.00000000000E+00 -0.82914762319E+02  0.82914762472E+02  0.50400001928E-02 0. -1.
    10030    2    1    2    0    0  0.00000000000E+00  0.00000000000E+00  0.18469617405E+04  0.20127912653E+04  0.80003812833E+03 0.  0.
        1    1    3    3  502    0  0.24986638611E+03  0.52470069173E+02  0.16982253403E+04  0.17173105792E+04  0.50400001928E-02 0.  1.
       -1    1    3    3    0  502 -0.24986638611E+03 -0.52470069173E+02  0.14873640019E+03  0.29548068606E+03  0.50400001928E-02 0. -1.
</event>
<event>
 5   0  0.2873212E-03  0.8005890E+03  0.7818609E-02  0.9559165E-01
        2   -1    0    0  501    0  0.00000000000E+00  0.00000000000E+00  0.80059126812E+03  0.80059126812E+03  0.25500000920E-02 0. -1.
       -2   -1    0    0    0  501  0.00000000000E+00  0.00000000000E+00 -0.20014665856E+03  0.20014665857E+03  0.25500000920E-02 0.  1.
    10030    2    1    2    0    0  0.00000000000E+00  0.00000000000E+00  0.60044460956E+03  0.10007379267E+04  0.80058895119E+03 0.  0.
        2    1    3    3  502    0 -0.33636369599E+03  0.25837131059E+02  0.30883603336E+02  0.33876524362E+03  0.25500000920E-02 0. -1.
       -2    1    3    3    0  502  0.33636369599E+03 -0.25837131059E+02  0.56956100622E+03  0.66197268307E+03  0.25500000920E-02 0.  1.
</event>
<event>
 5   0  0.1640035E-03  0.8007594E+03  0.7818609E-02  0.9558918E-01
       -1   -1    0    0    0  501  0.00000000000E+00  0.00000000000E+00  0.10162028852E+04  0.10162028852E+04  0.50400001928E-02 0.  1.
        1   -1    0    0  501    0  0.00000000000E+00  0.00000000000E+00 -0.15774795190E+03  0.15774795198E+03  0.50400001928E-02 0. -1.
    10030    2    1    2    0    0  0.00000000000E+00  0.00000000000E+00  0.85845493327E+03  0.11739508372E+04  0.80075944928E+03 0.  0.
        5    1    3    3  502    0 -0.33705296133E+03  0.57816555648E+02  0.73441313604E+03  0.81014331895E+03  0.46999998093E+01 0.  1.
       -5    1    3    3    0  502  0.33705296133E+03 -0.57816555648E+02  0.12404179722E+03  0.36380751821E+03  0.46999998093E+01 0. -1.
</event>
<event>
 5   0  0.2910501E-03  0.8003477E+03  0.7818609E-02  0.9559514E-01
        2   -1    0    0  501    0  0.00000000000E+00  0.00000000000E+00  0.22887809632E+03  0.22887809634E+03  0.25500000920E-02 0. -1.
       -2   -1    0    0    0  501  0.00000000000E+00  0.00000000000E+00 -0.69966995884E+03  0.69966995884E+03  0.25500000920E-02 0.  1.
    10030    2    1    2    0    0  0.00000000000E+00  0.00000000000E+00 -0.47079186251E+03  0.92854805518E+03  0.80034774503E+03 0.  0.
        1    1    3    3  502    0  0.74374332010E+02 -0.13633424293E+03 -0.66328179641E+03  0.68122045516E+03  0.50400001928E-02 0.  1.
       -1    1    3    3    0  502 -0.74374332010E+02  0.13633424293E+03  0.19248993389E+03  0.24732760002E+03  0.50400001928E-02 0. -1.
</event>
<event>
 5   0  0.1617491E-03  0.8013929E+03  0.7818609E-02  0.9558003E-01
        1   -1    0    0  501    0  0.00000000000E+00  0.00000000000E+00  0.85920217657E+03  0.85920217659E+03  0.50400001928E-02 0. -1.
       -1   -1    0    0    0  501  0.00000000000E+00  0.00000000000E+00 -0.18686830873E+03  0.18686830880E+03  0.50400001928E-02 0.  1.
    10030    2    1    2    0    0  0.00000000000E+00  0.00000000000E+00  0.67233386784E+03  0.10460704854E+04  0.80139293144E+03 0.  0.
        1    1    3    3  502    0 -0.33770619298E+02 -0.14375470400E+03 -0.15005521159E+03  0.21052894385E+03  0.50400001928E-02 0.  1.
       -1    1    3    3    0  502  0.33770619298E+02  0.14375470400E+03  0.82238907943E+03  0.83554154154E+03  0.50400001928E-02 0. -1.
</event>
<event>
 5   0  0.1637228E-03  0.8004692E+03  0.7818609E-02  0.9559338E-01
        1   -1    0    0  501    0  0.00000000000E+00  0.00000000000E+00  0.77456428822E+03  0.77456428824E+03  0.50400001928E-02 0.  1.
       -1   -1    0    0    0  501  0.00000000000E+00  0.00000000000E+00 -0.20681011840E+03  0.20681011846E+03  0.50400001928E-02 0. -1.
    10030    2    1    2    0    0  0.00000000000E+00  0.00000000000E+00  0.56775416982E+03  0.98137440670E+03  0.80046919290E+03 0.  0.
        2    1    3    3  502    0  0.23371710511E+03 -0.23855129898E+03  0.13441262154E+02  0.33423206758E+03  0.25500000920E-02 0. -1.
       -2    1    3    3    0  502 -0.23371710511E+03  0.23855129898E+03  0.55431290767E+03  0.64714233912E+03  0.25500000920E-02 0.  1.
</event>
<event>
 5   0  0.2768834E-03  0.7965309E+03  0.7818609E-02  0.9565052E-01
       -2   -1    0    0    0  501  0.00000000000E+00  0.00000000000E+00  0.33889240964E+03  0.33889240965E+03  0.25500000920E-02 0. -1.
        2   -1    0    0  501    0  0.00000000000E+00  0.00000000000E+00 -0.46804045323E+03  0.46804045324E+03  0.25500000920E-02 0.  1.
    10030    2    1    2    0    0  0.00000000000E+00  0.00000000000E+00 -0.12914804359E+03  0.80693286289E+03  0.79653087074E+03 0.  0.
        4    1    3    3  502    0  0.36355309583E+03 -0.32914004702E+02  0.96752450906E+02  0.37764644159E+03  0.12699999809E+01 0. -1.
       -4    1    3    3    0  502 -0.36355309583E+03  0.32914004702E+02 -0.22590049450E+03  0.42928642129E+03  0.12699999809E+01 0.  1.
</event>
<event>
 5   0  0.2873212E-03  0.8006190E+03  0.7818609E-02  0.9559122E-01
       -2   -1    0    0    0  501  0.00000000000E+00  0.00000000000E+00  0.80232444320E+03  0.80232444321E+03  0.25500000920E-02 0.  1.
        2   -1    0    0  501    0  0.00000000000E+00  0.00000000000E+00 -0.19972931372E+03  0.19972931374E+03  0.25500000920E-02 0. -1.
    10030    2    1    2    0    0  0.00000000000E+00  0.00000000000E+00  0.60259512948E+03  0.10020537569E+04  0.80061903658E+03 0.  0.
        2    1    3    3  502    0 -0.62707701623E+02  0.31335306371E+03 -0.45276762001E+00  0.31956627385E+03  0.25500000920E-02 0. -1.
       -2    1    3    3    0  502  0.62707701623E+02 -0.31335306371E+03  0.60304789710E+03  0.68248748309E+03  0.25500000920E-02 0.  1.
</event>
<event>
 5   0  0.2768834E-03  0.8011579E+03  0.7818609E-02  0.9558343E-01
       -2   -1    0    0    0  501  0.00000000000E+00  0.00000000000E+00  0.84342620414E+03  0.84342620414E+03  0.25500000920E-02 0. -1.
        2   -1    0    0  501    0  0.00000000000E+00  0.00000000000E+00 -0.19025195330E+03  0.19025195332E+03  0.25500000920E-02 0.  1.
    10030    2    1    2    0    0  0.00000000000E+00  0.00000000000E+00  0.65317425083E+03  0.10336781575E+04  0.80115786912E+03 0.  0.
        4    1    3    3  502    0 -0.31612506652E+03  0.21263320156E+03  0.16692179661E+03  0.41594763513E+03  0.12699999809E+01 0.  1.
       -4    1    3    3    0  502  0.31612506652E+03 -0.21263320156E+03  0.48625245422E+03  0.61773052233E+03  0.12699999809E+01 0. -1.
</event>
<event>
 5   0  0.1637228E-03  0.8015745E+03  0.7818609E-02  0.9557741E-01
        1   -1    0    0  501    0  0.00000000000E+00  0.00000000000E+00  0.13200368937E+04  0.13200368937E+04  0.50400001928E-02 0.  1.
       -1   -1    0    0    0  501  0.00000000000E+00  0.00000000000E+00 -0.12168630132E+03  0.12168630143E+03  0.50400001928E-02 0. -1.
    10030    2    1    2    0    0  0.00000000000E+00  0.00000000000E+00  0.11983505924E+04  0.14417231951E+04  0.80157446887E+03 0.  0.
        2    1    3    3  502    0  0.19389469968E+03  0.79411700777E+02 -0.15332583896E+02  0.21008679377E+03  0.25500000920E-02 0. -1.
       -2    1    3    3    0  502 -0.19389469968E+03 -0.79411700777E+02  0.12136831763E+04  0.12316364014E+04  0.25500000920E-02 0.  1.
</event>
<event>
 5   0  0.2910501E-03  0.7993933E+03  0.7818609E-02  0.9560896E-01
        2   -1    0    0  501    0  0.00000000000E+00  0.00000000000E+00  0.20140782703E+04  0.20140782703E+04  0.25500000920E-02 0. -1.
       -2   -1    0    0    0  501  0.00000000000E+00  0.00000000000E+00 -0.79320366568E+02  0.79320366609E+02  0.25500000920E-02 0.  1.
    10030    2    1    2    0    0  0.00000000000E+00  0.00000000000E+00  0.19347579037E+04  0.20933986369E+04  0.79939333682E+03 0.  0.
        1    1    3    3  502    0 -0.25417299757E+02  0.32869655578E+03  0.15591778873E+04  0.15936508869E+04  0.50400001928E-02 0. -1.
       -1    1    3    3    0  502  0.25417299757E+02 -0.32869655578E+03  0.37558001639E+03  0.49974775001E+03  0.50400001928E-02 0.  1.
</event>
<event>
 5   0  0.1712793E-03  0.7983123E+03  0.7818609E-02  0.9562463E-01
       -1   -1    0    0    0  501  0.00000000000E+00  0.00000000000E+00  0.16523436257E+03  0.16523436265E+03  0.50400001928E-02 0.  1.
        1   -1    0    0  501    0  0.00000000000E+00  0.00000000000E+00 -0.96424040842E+03  0.96424040843E+03  0.50400001928E-02 0. -1.
    10030    2    1    2    0    0  0.00000000000E+00  0.00000000000E+00 -0.79900604585E+03  0.11294747711E+04  0.79831234314E+03 0.  0.
        4    1    3    3  502    0  0.12392540824E+02 -0.15812035827E+03  0.11873447375E+03  0.19812902595E+03  0.12699999809E+01 0.  1.
       -4    1    3    3    0  502 -0.12392540824E+02  0.15812035827E+03 -0.91774051959E+03  0.93134574513E+03  0.12699999809E+01 0. -1.
</event>
<event>
 5   0  0.1637228E-03  0.8007106E+03  0.7818609E-02  0.9558989E-01
       -1   -1    0    0    0  501  0.00000000000E+00  0.00000000000E+00  0.22190056718E+03  0.22190056724E+03  0.50400001928E-02 0. -1.
        1   -1    0    0  501    0  0.00000000000E+00  0.00000000000E+00 -0.72232515532E+03  0.72232515533E+03  0.50400001928E-02 0.  1.
    10030    2    1    2    0    0  0.00000000000E+00  0.00000000000E+00 -0.50042458813E+03  0.94422572257E+03  0.80071058864E+03 0.  0.
        2    1    3    3  502    0 -0.18827494357E+03 -0.21066807603E+03  0.84274611493E+02  0.29484013089E+03  0.25500000920E-02 0. -1.
       -2    1    3    3    0  502  0.18827494357E+03  0.21066807603E+03 -0.58469919963E+03  0.64938559168E+03  0.25500000920E-02 0.  1.
</event>
<event>
 5   0  0.1617491E-03  0.7999658E+03  0.7818609E-02  0.9560067E-01
       -1   -1    0    0    0  501  0.00000000000E+00  0.00000000000E+00  0.76359264836E+03  0.76359264838E+03  0.50400001928E-02 0.  1.
        1   -1    0    0  501    0  0.00000000000E+00  0.00000000000E+00 -0.20951787789E+03  0.20951787795E+03  0.50400001928E-02 0. -1.
    10030    2    1    2    0    0  0.00000000000E+00  0.00000000000E+00  0.55407477047E+03  0.97311052633E+03  0.79996577750E+03 0.  0.
        1    1    3    3  502    0  0.25851814017E+03  0.29225647612E+03  0.38406224244E+03  0.54749363716E+03  0.50400001928E-02 0.  1.
       -1    1    3    3    0  502 -0.25851814017E+03 -0.29225647612E+03  0.17001252803E+03  0.42561688917E+03  0.50400001928E-02 0. -1.
</event>
<event>
 5   0  0.2910501E-03  0.8010317E+03  0.7818609E-02  0.9558525E-01
        2   -1    0    0  501    0  0.00000000000E+00  0.00000000000E+00  0.95130331555E+03  0.95130331555E+03  0.25500000920E-02 0.  1.
       -2   -1    0    0    0  501  0.00000000000E+00  0.00000000000E+00 -0.16862439547E+03  0.16862439549E+03  0.25500000920E-02 0. -1.
    10030    2    1    2    0    0  0.00000000000E+00  0.00000000000E+00  0.78267892008E+03  0.11199277110E+04  0.80103170100E+03 0.  0.
        1    1    3    3  502    0 -0.56432846611E+02  0.49833112861E+01  0.94567320786E+03  0.94736862712E+03  0.50400001928E-02 0.  1.
       -1    1    3    3    0  502  0.56432846611E+02 -0.49833112861E+01 -0.16299428778E+03  0.17255908392E+03  0.50400001928E-02 0. -1.
</event>
<event>
 5   0  0.1656051E-03  0.7987777E+03  0.7818609E-02  0.9561788E-01
        1   -1    0    0  501    0  0.00000000000E+00  0.00000000000E+00  0.90889346275E+03  0.90889346276E+03  0.50400001928E-02 0. -1.
       -1   -1    0    0    0  501  0.00000000000E+00  0.00000000000E+00 -0.17550069938E+03  0.17550069945E+03  0.50400001928E-02 0.  1.
    10030    2    1    2    0    0  0.00000000000E+00  0.00000000000E+00  0.73339276337E+03  0.10843941622E+04  0.79877766223E+03 0.  0.
        3    1    3    3  502    0 -0.81202547864E+02  0.13013715862E+03  0.86730901266E+03  0.88076924758E+03  0.10100000352E+00 0. -1.
       -3    1    3    3    0  502  0.81202547864E+02 -0.13013715862E+03 -0.13391624930E+03  0.20362491463E+03  0.10100000352E+00 0.  1.
</event>
<event>
 5   0  0.1640035E-03  0.7997231E+03  0.7818609E-02  0.9560418E-01
        1   -1    0    0  501    0  0.00000000000E+00  0.00000000000E+00  0.89364031098E+03  0.89364031099E+03  0.50400001928E-02 0.  1.
       -1   -1    0    0    0  501  0.00000000000E+00  0.00000000000E+00 -0.17891904260E+03  0.17891904267E+03  0.50400001928E-02 0. -1.
    10030    2    1    2    0    0  0.00000000000E+00  0.00000000000E+00  0.71472126838E+03  0.10725593537E+04  0.79972312438E+03 0.  0.
        5    1    3    3  502    0  0.28232888304E+03 -0.27569771530E+03  0.44374186783E+03  0.59384153079E+03  0.46999998093E+01 0.  1.
       -5    1    3    3    0  502 -0.28232888304E+03  0.27569771530E+03  0.27097940055E+03  0.47871782288E+03  0.46999998093E+01 0. -1.
</event>
<event>
 5   0  0.1656051E-03  0.8028175E+03  0.7818609E-02  0.9555948E-01
        1   -1    0    0  501    0  0.00000000000E+00  0.00000000000E+00  0.37449706422E+03  0.37449706426E+03  0.50400001928E-02 0. -1.
       -1   -1    0    0    0  501  0.00000000000E+00  0.00000000000E+00 -0.43025430252E+03  0.43025430254E+03  0.50400001928E-02 0.  1.
    10030    2    1    2    0    0  0.00000000000E+00  0.00000000000E+00 -0.55757238293E+02  0.80475136680E+03  0.80281747162E+03 0.  0.
        3    1    3    3  502    0 -0.64885537214E+02 -0.95522817027E+01  0.36908996059E+03  0.37487169570E+03  0.10100000352E+00 0. -1.
       -3    1    3    3    0  502  0.64885537214E+02  0.95522817027E+01 -0.42484719888E+03  0.42987967110E+03  0.10100000352E+00 0.  1.
</event>
<event>
 5   0  0.2873212E-03  0.7995878E+03  0.7818609E-02  0.9560614E-01
        2   -1    0    0  501    0  0.00000000000E+00  0.00000000000E+00  0.58992706630E+03  0.58992706631E+03  0.25500000920E-02 0.  1.
       -2   -1    0    0    0  501  0.00000000000E+00  0.00000000000E+00 -0.27094056958E+03  0.27094056959E+03  0.25500000920E-02 0. -1.
    10030    2    1    2    0    0  0.00000000000E+00  0.00000000000E+00  0.31898649672E+03  0.86086763590E+03  0.79958783223E+03 0.  0.
        2    1    3    3  502    0  0.96936424039E+02 -0.38281361866E+03  0.22666240908E+03  0.45532272581E+03  0.25500000920E-02 0.  1.
       -2    1    3    3    0  502 -0.96936424039E+02  0.38281361866E+03  0.92324087640E+02  0.40554491010E+03  0.25500000920E-02 0. -1.
</event>
<event>
 5   0  0.2768834E-03  0.7994843E+03  0.7818609E-02  0.9560764E-01
       -2   -1    0    0    0  501  0.00000000000E+00  0.00000000000E+00  0.64022659384E+03  0.64022659385E+03  0.25500000920E-02 0.  1.
        2   -1    0    0  501    0  0.00000000000E+00  0.00000000000E+00 -0.24958942230E+03  0.24958942231E+03  0.25500000920E-02 0. -1.
    10030    2    1    2    0    0  0.00000000000E+00  0.00000000000E+00  0.39063717155E+03  0.88981601616E+03  0.79948429804E+03 0.  0.
        4    1    3    3  502    0  0.39666746438E+03 -0.83857012917E+01  0.24957915717E+03  0.46872888313E+03  0.12699999809E+01 0. -1.
       -4    1    3    3    0  502 -0.39666746438E+03  0.83857012917E+01  0.14105801438E+03  0.42108713303E+03  0.12699999809E+01 0.  1.
</event>
<event>
 5   0  0.2768834E-03  0.8034191E+03  0.7818609E-02  0.9555081E-01
        2   -1    0    0  501    0  0.00000000000E+00  0.00000000000E+00  0.79907046369E+03  0.79907046370E+03  0.25500000920E-02 0.  1.
       -2   -1    0    0    0  501  0.00000000000E+00  0.00000000000E+00 -0.20194787150E+03  0.20194787152E+03  0.25500000920E-02 0. -1.
    10030    2    1    2    0    0  0.00000000000E+00  0.00000000000E+00  0.59712259219E+03  0.10010183352E+04  0.80341914175E+03 0.  0.
        4    1    3    3  502    0 -0.37525394074E+03  0.10683021571E+00  0.47718622309E+03  0.60706164091E+03  0.12699999809E+01 0.  1.
       -4    1    3    3    0  502  0.37525394074E+03 -0.10683021571E+00  0.11993636910E+03  0.39395669431E+03  0.12699999809E+01 0. -1.
</event>
<event>
 5   0  0.1640035E-03  0.8000873E+03  0.7818609E-02  0.9559891E-01
        1   -1    0    0  501    0  0.00000000000E+00  0.00000000000E+00  0.45932321884E+03  0.45932321887E+03  0.50400001928E-02 0.  1.
       -1   -1    0    0    0  501  0.00000000000E+00  0.00000000000E+00 -0.34841460412E+03  0.34841460416E+03  0.50400001928E-02 0. -1.
    10030    2    1    2    0    0  0.00000000000E+00  0.00000000000E+00  0.11090861472E+03  0.80773782303E+03  0.80008728895E+03 0.  0.
        5    1    3    3  502    0  0.25937795046E+03  0.30194372858E+03  0.15504579727E+02  0.39838350669E+03  0.46999998093E+01 0. -1.
       -5    1    3    3    0  502 -0.25937795046E+03 -0.30194372858E+03  0.95404034994E+02  0.40935431634E+03  0.46999998093E+01 0.  1.
</event>
<event>
 5   0  0.1656051E-03  0.8002297E+03  0.7818609E-02  0.9559685E-01
       -1   -1    0    0    0  501  0.00000000000E+00  0.00000000000E+00  0.38739542759E+03  0.38739542762E+03  0.50400001928E-02 0. -1.
        1   -1    0    0  501    0  0.00000000000E+00  0.00000000000E+00 -0.41325192218E+03  0.41325192221E+03  0.50400001928E-02 0.  1.
    10030    2    1    2    0    0  0.00000000000E+00  0.00000000000E+00 -0.25856494598E+02  0.80064734983E+03  0.80022972982E+03 0.  0.
        3    1    3    3  502    0 -0.29583008321E+03 -0.15459150590E+03 -0.23367412823E+03  0.40745254967E+03  0.10100000352E+00 0.  1.
       -3    1    3    3    0  502  0.29583008321E+03  0.15459150590E+03  0.20781763364E+03  0.39319480016E+03  0.10100000352E+00 0. -1.
</event>
<event>
 5   0  0.1712793E-03  0.8010404E+03  0.7818609E-02  0.9558512E-01
        1   -1    0    0  501    0  0.00000000000E+00  0.00000000000E+00  0.67721149662E+03  0.67721149664E+03  0.50400001928E-02 0.  1.
       -1   -1    0    0    0  501  0.00000000000E+00  0.00000000000E+00 -0.23687791981E+03  0.23687791986E+03  0.50400001928E-02 0. -1.
    10030    2    1    2    0    0  0.00000000000E+00  0.00000000000E+00  0.44033357681E+03  0.91408941650E+03  0.80104044997E+03 0.  0.
        4    1    3    3  502    0  0.21756004535E+03 -0.11363921392E+03 -0.14099352505E+03  0.28306718509E+03  0.12699999809E+01 0. -1.
       -4    1    3    3    0  502 -0.21756004535E+03  0.11363921392E+03  0.58132710186E+03  0.63102223141E+03  0.12699999809E+01 0.  1.
</event>
<event>
 5   0  0.2690809E-03  0.8004280E+03  0.7818609E-02  0.9559398E-01
       -2   -1    0    0    0  501  0.00000000000E+00  0.00000000000E+00  0.36803394595E+03  0.36803394596E+03  0.25500000920E-02 0.  1.
        2   -1    0    0  501    0  0.00000000000E+00  0.00000000000E+00 -0.43520777245E+03  0.43520777246E+03  0.25500000920E-02 0. -1.
    10030    2    1    2    0    0  0.00000000000E+00  0.00000000000E+00 -0.67173826497E+02  0.80324171842E+03  0.80042797005E+03 0.  0.
        5    1    3    3  502    0  0.14695629364E+03 -0.28528453187E+03  0.20634712724E+03  0.38155555727E+03  0.46999998093E+01 0.  1.
       -5    1    3    3    0  502 -0.14695629364E+03  0.28528453187E+03 -0.27352095374E+03  0.42168616114E+03  0.46999998093E+01 0. -1.
</event>
<event>
 5   0  0.1656051E-03  0.8003790E+03  0.7818609E-02  0.9559469E-01
        1   -1    0    0  501    0  0.00000000000E+00  0.00000000000E+00  0.13706675889E+04  0.13706675889E+04  0.50400001928E-02 0. -1.
       -1   -1    0    0    0  501  0.00000000000E+00  0.00000000000E+00 -0.11684207501E+03  0.11684207512E+03  0.50400001928E-02 0.  1.
    10030    2    1    2    0    0  0.00000000000E+00  0.00000000000E+00  0.12538255138E+04  0.14875096640E+04  0.80037902352E+03 0.  0.
        3    1    3    3  502    0  0.22172617417E+03 -0.29512384217E+03  0.33964837799E+03  0.50161898828E+03  0.10100000352E+00 0.  1.
       -3    1    3    3    0  502 -0.22172617417E+03  0.29512384217E+03  0.91417713586E+03  0.98589067571E+03  0.10100000352E+00 0. -1.
</event>
<event>
 5   0  0.1637228E-03  0.7997348E+03  0.7818609E-02  0.9560401E-01
       -1   -1    0    0    0  501  0.00000000000E+00  0.00000000000E+00  0.21503221772E+03  0.21503221778E+03  0.50400001928E-02 0. -1.
        1   -1    0    0  501    0  0.00000000000E+00  0.00000000000E+00 -0.74358122752E+03  0.74358122754E+03  0.50400001928E-02 0.  1.
    10030    2    1    2    0    0  0.00000000000E+00  0.00000000000E+00 -0.52854900980E+03  0.95861344532E+03  0.79973475715E+03 0.  0.
        2    1    3    3  502    0  0.39388584299E+03  0.21383614048E+02 -0.34279025258E+03  0.52259781241E+03  0.25500000920E-02 0. -1.
       -2    1    3    3    0  502 -0.39388584299E+03 -0.21383614048E+02 -0.18575875722E+03  0.43601563292E+03  0.25500000920E-02 0.  1.
</event>
<event>
 5   0  0.2690809E-03  0.8026955E+03  0.7818609E-02  0.9556124E-01
        2   -1    0    0  501    0  0.00000000000E+00  0.00000000000E+00  0.19788308347E+04  0.19788308347E+04  0.25500000920E-02 0.  1.
       -2   -1    0    0    0  501  0.00000000000E+00  0.00000000000E+00 -0.81401608510E+02  0.81401608550E+02  0.25500000920E-02 0. -1.
    10030    2    1    2    0    0  0.00000000000E+00  0.00000000000E+00  0.18974292262E+04  0.20602324433E+04  0.80269549135E+03 0.  0.
        5    1    3    3  502    0  0.71619870772E+02  0.21553818732E+03  0.17979274325E+04  0.18122227398E+04  0.46999998093E+01 0.  1.
       -5    1    3    3    0  502 -0.71619870772E+02 -0.21553818732E+03  0.99501793747E+02  0.24800970352E+03  0.46999998093E+01 0. -1.
</event>
<event>
 5   0  0.1656051E-03  0.8010699E+03  0.7818609E-02  0.9558470E-01
       -1   -1    0    0    0  501  0.00000000000E+00  0.00000000000E+00  0.31920107500E+03  0.31920107504E+03  0.50400001928E-02 0. -1.
        1   -1    0    0  501    0  0.00000000000E+00  0.00000000000E+00 -0.50259301450E+03  0.50259301452E+03  0.50400001928E-02 0.  1.
    10030    2    1    2    0    0  0.00000000000E+00  0.00000000000E+00 -0.18339193950E+03  0.82179408957E+03  0.80106986098E+03 0.  0.
        3    1    3    3  502    0  0.12297234708E+03 -0.37939822505E+03 -0.12957004057E+03  0.41934903950E+03  0.10100000352E+00 0.  1.
       -3    1    3    3    0  502 -0.12297234708E+03  0.37939822505E+03 -0.53821898929E+02  0.40244505007E+03  0.10100000352E+00 0. -1.
</event>
<event>
 5   0  0.1656051E-03  0.7999081E+03  0.7818609E-02  0.9560150E-01
       -1   -1    0    0    0  501  0.00000000000E+00  0.00000000000E+00  0.21719194022E+03  0.21719194028E+03  0.50400001928E-02 0. -1.
        1   -1    0    0  501    0  0.00000000000E+00  0.00000000000E+00 -0.73650636271E+03  0.73650636273E+03  0.50400001928E-02 0.  1.
    10030    2    1    2    0    0  0.00000000000E+00  0.00000000000E+00 -0.51931442249E+03  0.95369830301E+03  0.79990810957E+03 0.  0.
        3    1    3    3  502    0 -0.21729307220E+03  0.16905230987E+03 -0.60555287558E+03  0.66519866057E+03  0.10100000352E+00 0.  1.
       -3    1    3    3    0  502  0.21729307220E+03 -0.16905230987E+03  0.86238453089E+02  0.28849964244E+03  0.10100000352E+00 0. -1.
</event>
<event>
 5   0  0.1656051E-03  0.7985585E+03  0.7818609E-02  0.9562106E-01
        1   -1    0    0  501    0  0.00000000000E+00  0.00000000000E+00  0.13831141978E+03  0.13831141988E+03  0.50400001928E-02 0.  1.
       -1   -1    0    0    0  501  0.00000000000E+00  0.00000000000E+00 -0.11526447813E+04  0.11526447813E+04  0.50400001928E-02 0. -1.
    10030    2    1    2    0    0  0.00000000000E+00  0.00000000000E+00 -0.10143333615E+04  0.12909562012E+04  0.79855854207E+03 0.  0.
        3    1    3    3  502    0  0.19026793548E+03 -0.27068324132E+03 -0.14585342799E+03  0.36158614058E+03  0.10100000352E+00 0.  1.
       -3    1    3    3    0  502 -0.19026793548E+03  0.27068324132E+03 -0.86847993355E+03  0.92937006062E+03  0.10100000352E+00 0. -1.
</event>
<event>
 5   0  0.1095350E-03  0.7997808E+03  0.7818609E-02  0.9560334E-01
        4   -1    0    0  501    0  0.00000000000E+00  0.00000000000E+00  0.23638984772E+03  0.23639325922E+03  0.12699999809E+01 0. -1.
       -4   -1    0    0    0  501  0.00000000000E+00  0.00000000000E+00 -0.67646822094E+03  0.67646941309E+03  0.12699999809E+01 0.  1.
    10030    2    1    2    0    0  0.00000000000E+00  0.00000000000E+00 -0.44007837322E+03  0.91286267231E+03  0.79978077242E+03 0.  0.
        4    1    3    3  502    0 -0.36934354321E+03  0.12575125786E+03 -0.32008311986E+03  0.50466112222E+03  0.12699999809E+01 0.  1.
       -4    1    3    3    0  502  0.36934354321E+03 -0.12575125786E+03 -0.11999525336E+03  0.40820155009E+03  0.12699999809E+01 0. -1.
</event>
<event>
 5   0  0.1712793E-03  0.7995825E+03  0.7818609E-02  0.9560622E-01
        1   -1    0    0  501    0  0.00000000000E+00  0.00000000000E+00  0.11734484751E+04  0.11734484751E+04  0.50400001928E-02 0.  1.
       -1   -1    0    0    0  501  0.00000000000E+00  0.00000000000E+00 -0.13620796484E+03  0.13620796494E+03  0.50400001928E-02 0. -1.
    10030    2    1    2    0    0  0.00000000000E+00  0.00000000000E+00  0.10372405103E+04  0.13096564401E+04  0.79958246282E+03 0.  0.
        4    1    3    3  502    0 -0.14418659284E+03 -0.36859043695E+03  0.61102497638E+03  0.72801223783E+03  0.12699999809E+01 0. -1.
       -4    1    3    3    0  502  0.14418659284E+03  0.36859043695E+03  0.42621553390E+03  0.58164420224E+03  0.12699999809E+01 0.  1.
</event>
<event>
 5   0  0.1637228E-03  0.7989457E+03  0.7818609E-02  0.9561544E-01
        1   -1    0    0  501    0  0.00000000000E+00  0.00000000000E+00  0.24107357125E+03  0.24107357130E+03  0.50400001928E-02 0. -1.
       -1   -1    0    0    0  501  0.00000000000E+00  0.00000000000E+00 -0.66194953723E+03  0.66194953725E+03  0.50400001928E-02 0.  1.
    10030    2    1    2    0    0  0.00000000000E+00  0.00000000000E+00 -0.42087596598E+03  0.90302310855E+03  0.79894565262E+03 0.  0.
        2    1    3    3  502    0 -0.26665771495E+02 -0.22571328043E+03 -0.58174622357E+03  0.62456882485E+03  0.25500000920E-02 0.  1.
       -2    1    3    3    0  502  0.26665771495E+02  0.22571328043E+03  0.16087025759E+03  0.27845428370E+03  0.25500000920E-02 0. -1.
</event>
<event>
 5   0  0.2763587E-03  0.7987549E+03  0.7818609E-02  0.9561821E-01
        2   -1    0    0  501    0  0.00000000000E+00  0.00000000000E+00  0.98041144157E+03  0.98041144157E+03  0.25500000920E-02 0.  1.
       -2   -1    0    0    0  501  0.00000000000E+00  0.00000000000E+00 -0.16268919999E+03  0.16268920001E+03  0.25500000920E-02 0. -1.
    10030    2    1    2    0    0  0.00000000000E+00  0.00000000000E+00  0.81772224158E+03  0.11431006416E+04  0.79875491386E+03 0.  0.
        3    1    3    3  502    0 -0.33984361646E+03  0.10193640178E+03  0.14646677812E+03  0.38384533467E+03  0.10100000352E+00 0. -1.
       -3    1    3    3    0  502  0.33984361646E+03 -0.10193640178E+03  0.67125546345E+03  0.75925530691E+03  0.10100000352E+00 0.  1.
</event>
<event>
 5   0  0.2768834E-03  0.7995831E+03  0.7818609E-02  0.9560621E-01
       -2   -1    0    0    0  501  0.00000000000E+00  0.00000000000E+00  0.19393026688E+03  0.19393026689E+03  0.25500000920E-02 0.  1.
        2   -1    0    0  501    0  0.00000000000E+00  0.00000000000E+00 -0.82417917047E+03  0.82417917047E+03  0.25500000920E-02 0. -1.
    10030    2    1    2    0    0  0.00000000000E+00  0.00000000000E+00 -0.63024890359E+03  0.10181094374E+04  0.79958310761E+03 0.  0.
        4    1    3    3  502    0 -0.95937650672E+02  0.19630458242E+03 -0.74142751734E+03  0.77295271412E+03  0.12699999809E+01 0. -1.
       -4    1    3    3    0  502  0.95937650672E+02 -0.19630458242E+03  0.11117861375E+03  0.24515672324E+03  0.12699999809E+01 0.  1.
</event>
<event>
 5   0  0.2768834E-03  0.7928082E+03  0.7818609E-02  0.9570486E-01
       -2   -1    0    0    0  501  0.00000000000E+00  0.00000000000E+00  0.31418085674E+03  0.31418085675E+03  0.25500000920E-02 0. -1.
        2   -1    0    0  501    0  0.00000000000E+00  0.00000000000E+00 -0.50014571961E+03  0.50014571962E+03  0.25500000920E-02 0.  1.
    10030    2    1    2    0    0  0.00000000000E+00  0.00000000000E+00 -0.18596486287E+03  0.81432657637E+03  0.79280820049E+03 0.  0.
        4    1    3    3  502    0 -0.21424675234E+03  0.49038117124E+02  0.24586264382E+03  0.32978244396E+03  0.12699999809E+01 0. -1.
       -4    1    3    3    0  502  0.21424675234E+03 -0.49038117124E+02 -0.43182750669E+03  0.48454413241E+03  0.12699999809E+01 0.  1.
</event>
<event>
 5   0  0.1640035E-03  0.8005346E+03  0.7818609E-02  0.9559244E-01
       -1   -1    0    0    0  501  0.00000000000E+00  0.00000000000E+00  0.21595392893E+03  0.21595392899E+03  0.50400001928E-02 0. -1.
        1   -1    0    0  501    0  0.00000000000E+00  0.00000000000E+00 -0.74188936765E+03  0.74188936766E+03  0.50400001928E-02 0.  1.
    10030    2    1    2    0    0  0.00000000000E+00  0.00000000000E+00 -0.52593543872E+03  0.95784329665E+03  0.80053463089E+03 0.  0.
        5    1    3    3  502    0 -0.20641850110E+03  0.13934315930E+02  0.14697971532E+03  0.25382649481E+03  0.46999998093E+01 0. -1.
       -5    1    3    3    0  502  0.20641850110E+03 -0.13934315930E+02 -0.67291515403E+03  0.70401680184E+03  0.46999998093E+01 0.  1.
</event>
<event>
 5   0  0.1656051E-03  0.8014512E+03  0.7818609E-02  0.9557919E-01
       -1   -1    0    0    0  501  0.00000000000E+00  0.00000000000E+00  0.19148301511E+03  0.19148301518E+03  0.50400001928E-02 0. -1.
        1   -1    0    0  501    0  0.00000000000E+00  0.00000000000E+00 -0.83861756334E+03  0.83861756335E+03  0.50400001928E-02 0.  1.
    10030    2    1    2    0    0  0.00000000000E+00  0.00000000000E+00 -0.64713454823E+03  0.10301005785E+04  0.80145123269E+03 0.  0.
        3    1    3    3  502    0  0.20857115126E+03 -0.29589653028E+03 -0.54441479975E+03  0.65379214293E+03  0.10100000352E+00 0.  1.
       -3    1    3    3    0  502 -0.20857115126E+03  0.29589653028E+03 -0.10271974848E+03  0.37630843559E+03  0.10100000352E+00 0. -1.
</event>
<event>
 5   0  0.2768834E-03  0.8002693E+03  0.7818609E-02  0.9559627E-01
       -2   -1    0    0    0  501  0.00000000000E+00  0.00000000000E+00  0.24801727702E+03  0.24801727704E+03  0.25500000920E-02 0. -1.
        2   -1    0    0  501    0  0.00000000000E+00  0.00000000000E+00 -0.64555076681E+03  0.64555076682E+03  0.25500000920E-02 0.  1.
    10030    2    1    2    0    0  0.00000000000E+00  0.00000000000E+00 -0.39753348979E+03  0.89356804385E+03  0.80026931310E+03 0.  0.
        4    1    3    3  502    0  0.32040453568E+03 -0.16033509298E+02 -0.46579147056E+03  0.56557885997E+03  0.12699999809E+01 0. -1.
       -4    1    3    3    0  502 -0.32040453568E+03  0.16033509298E+02  0.68257980764E+02  0.32798918388E+03  0.12699999809E+01 0.  1.
</event>
<event>
 5   0  0.2690809E-03  0.7988304E+03  0.7818609E-02  0.9561712E-01
       -2   -1    0    0    0  501  0.00000000000E+00  0.00000000000E+00  0.59168453323E+02  0.59168453378E+02  0.25500000920E-02 0.  1.
        2   -1    0    0  501    0  0.00000000000E+00  0.00000000000E+00 -0.26962425347E+04  0.26962425347E+04  0.25500000920E-02 0. -1.
    10030    2    1    2    0    0  0.00000000000E+00  0.00000000000E+00 -0.26370740814E+04  0.27554109881E+04  0.79883039662E+03 0.  0.
        5    1    3    3  502    0  0.29167237169E+03  0.21926858429E+03 -0.75852719716E+03  0.84174644834E+03  0.46999998093E+01 0.  1.
       -5    1    3    3    0  502 -0.29167237169E+03 -0.21926858429E+03 -0.18785468842E+04  0.19136645398E+04  0.46999998093E+01 0. -1.
</event>
<event>
 5   0  0.1640035E-03  0.7992324E+03  0.7818609E-02  0.9561129E-01
       -1   -1    0    0    0  501  0.00000000000E+00  0.00000000000E+00  0.15407951202E+03  0.15407951210E+03  0.50400001928E-02 0.  1.
        1   -1    0    0  501    0  0.00000000000E+00  0.00000000000E+00 -0.10364330192E+04  0.10364330192E+04  0.50400001928E-02 0. -1.
    10030    2    1    2    0    0  0.00000000000E+00  0.00000000000E+00 -0.88235350719E+03  0.11905125313E+04  0.79923236644E+03 0.  0.
        5    1    3    3  502    0 -0.89196599351E+02 -0.35299117858E+03 -0.19590740654E+03  0.41347382919E+03  0.46999998093E+01 0.  1.
       -5    1    3    3    0  502  0.89196599351E+02  0.35299117858E+03 -0.68644610065E+03  0.77703870212E+03  0.46999998093E+01 0. -1.
</event>
<event>
 5   0  0.1656051E-03  0.7995306E+03  0.7818609E-02  0.9560697E-01
        1   -1    0    0  501    0  0.00000000000E+00  0.00000000000E+00  0.15247698774E+03  0.15247698782E+03  0.50400001928E-02 0.  1.
       -1   -1    0    0    0  501  0.00000000000E+00  0.00000000000E+00 -0.10481077162E+04  0.10481077162E+04  0.50400001928E-02 0. -1.
    10030    2    1    2    0    0  0.00000000000E+00  0.00000000000E+00 -0.89563072849E+03  0.12005847041E+04  0.79953063093E+03 0.  0.
        3    1    3    3  502    0  0.61238649755E+02  0.38448987153E+03 -0.31159289637E+03  0.49867101059E+03  0.10100000352E+00 0.  1.
       -3    1    3    3    0  502 -0.61238649755E+02 -0.38448987153E+03 -0.58403783212E+03  0.70191369347E+03  0.10100000352E+00 0. -1.
</event>
<event>
 5   0  0.2873212E-03  0.8150532E+03  0.7818609E-02  0.9538480E-01
       -2   -1    0    0    0  501  0.00000000000E+00  0.00000000000E+00  0.15779359950E+03  0.15779359952E+03  0.25500000920E-02 0. -1.
        2   -1    0    0  501    0  0.00000000000E+00  0.00000000000E+00 -0.10525009573E+04  0.10525009573E+04  0.25500000920E-02 0.  1.
    10030    2    1    2    0    0  0.00000000000E+00  0.00000000000E+00 -0.89470735776E+03  0.12102945568E+04  0.81505316277E+03 0.  0.
        2    1    3    3  502    0  0.37735345600E+03 -0.14496519438E+03 -0.52404518706E+03  0.66184129247E+03  0.25500000920E-02 0.  1.
       -2    1    3    3    0  502 -0.37735345600E+03  0.14496519438E+03 -0.37066217070E+03  0.54845326431E+03  0.25500000920E-02 0. -1.
</event>
<event>
 5   0  0.2690809E-03  0.7999037E+03  0.7818609E-02  0.9560157E-01
       -2   -1    0    0    0  501  0.00000000000E+00  0.00000000000E+00  0.16446420916E+03  0.16446420918E+03  0.25500000920E-02 0. -1.
        2   -1    0    0  501    0  0.00000000000E+00  0.00000000000E+00 -0.97262178887E+03  0.97262178888E+03  0.25500000920E-02 0.  1.
    10030    2    1    2    0    0  0.00000000000E+00  0.00000000000E+00 -0.80815757972E+03  0.11370859981E+04  0.79990367753E+03 0.  0.
        5    1    3    3  502    0  0.31236051629E+03 -0.28909342142E+02 -0.51452164087E+02  0.31792177872E+03  0.46999998093E+01 0. -1.
       -5    1    3    3    0  502 -0.31236051629E+03  0.28909342142E+02 -0.75670541563E+03  0.81916421933E+03  0.46999998093E+01 0.  1.
</event>
<event>
 5   0  0.2910501E-03  0.7955488E+03  0.7818609E-02  0.9566482E-01
       -2   -1    0    0    0  501  0.00000000000E+00  0.00000000000E+00  0.16070833571E+03  0.16070833573E+03  0.25500000920E-02 0.  1.
        2   -1    0    0  501    0  0.00000000000E+00  0.00000000000E+00 -0.98454431083E+03  0.98454431083E+03  0.25500000920E-02 0. -1.
    10030    2    1    2    0    0  0.00000000000E+00  0.00000000000E+00 -0.82383597512E+03  0.11452526466E+04  0.79554881091E+03 0.  0.
        1    1    3    3  502    0 -0.18254774525E+03  0.26805113312E+03 -0.80348419462E+02  0.33411219343E+03  0.50400001928E-02 0.  1.
       -1    1    3    3    0  502  0.18254774525E+03 -0.26805113312E+03 -0.74348755566E+03  0.81114045313E+03  0.50400001928E-02 0. -1.
</event>
<event>
 5   0  0.2768834E-03  0.7990109E+03  0.7818609E-02  0.9561450E-01
       -2   -1    0    0    0  501  0.00000000000E+00  0.00000000000E+00  0.95615292546E+02  0.95615292580E+02  0.25500000920E-02 0.  1.
        2   -1    0    0  501    0  0.00000000000E+00  0.00000000000E+00 -0.16692371689E+04  0.16692371689E+04  0.25500000920E-02 0. -1.
    10030    2    1    2    0    0  0.00000000000E+00  0.00000000000E+00 -0.15736218764E+04  0.17648524615E+04  0.79901088921E+03 0.  0.
        4    1    3    3  502    0  0.10460811844E+03 -0.27069511202E+03 -0.18035937802E+03  0.34168672824E+03  0.12699999809E+01 0.  1.
       -4    1    3    3    0  502 -0.10460811844E+03  0.27069511202E+03 -0.13932624984E+04  0.14231657333E+04  0.12699999809E+01 0. -1.
</event>
<event>
 5   0  0.2690809E-03  0.8003908E+03  0.7818609E-02  0.9559452E-01
        2   -1    0    0  501    0  0.00000000000E+00  0.00000000000E+00  0.72777547027E+03  0.72777547027E+03  0.25500000920E-02 0.  1.
       -2   -1    0    0    0  501  0.00000000000E+00  0.00000000000E+00 -0.22006287464E+03  0.22006287465E+03  0.25500000920E-02 0. -1.
    10030    2    1    2    0    0  0.00000000000E+00  0.00000000000E+00  0.50771259563E+03  0.94783834493E+03  0.80039080976E+03 0.  0.
        5    1    3    3  502    0  0.32800742576E+02 -0.31478098180E+03 -0.36147692423E+02  0.31857762143E+03  0.46999998093E+01 0. -1.
       -5    1    3    3    0  502 -0.32800742576E+02  0.31478098180E+03  0.54386028805E+03  0.62926072349E+03  0.46999998093E+01 0.  1.
</event>
<event>
 5   0  0.2763587E-03  0.8003220E+03  0.7818609E-02  0.9559551E-01
        2   -1    0    0  501    0  0.00000000000E+00  0.00000000000E+00  0.89056653530E+03  0.89056653530E+03  0.25500000920E-02 0. -1.
       -2   -1    0    0    0  501  0.00000000000E+00  0.00000000000E+00 -0.17980557402E+03  0.17980557404E+03  0.25500000920E-02 0.  1.
    10030    2    1    2    0    0  0.00000000000E+00  0.00000000000E+00  0.71076096128E+03  0.10703721093E+04  0.80032200294E+03 0.  0.
        3    1    3    3  502    0  0.16209076207E+03  0.10165778637E+02 -0.13374497436E+03  0.21039127018E+03  0.10100000352E+00 0.  1.
       -3    1    3    3    0  502 -0.16209076207E+03 -0.10165778637E+02  0.84450593563E+03  0.85998083916E+03  0.10100000352E+00 0. -1.
</event>
<event>
 5   0  0.1637228E-03  0.8005385E+03  0.7818609E-02  0.9559238E-01
        1   -1    0    0  501    0  0.00000000000E+00  0.00000000000E+00  0.20061550046E+03  0.20061550052E+03  0.50400001928E-02 0.  1.
       -1   -1    0    0    0  501  0.00000000000E+00  0.00000000000E+00 -0.79861961339E+03  0.79861961340E+03  0.50400001928E-02 0. -1.
    10030    2    1    2    0    0  0.00000000000E+00  0.00000000000E+00 -0.59800411293E+03  0.99923511393E+03  0.80053850240E+03 0.  0.
        2    1    3    3  502    0  0.30045945487E+03 -0.26205765444E+03 -0.25460081448E+03  0.47304510674E+03  0.25500000920E-02 0.  1.
       -2    1    3    3    0  502 -0.30045945487E+03  0.26205765444E+03 -0.34340329845E+03  0.52619000718E+03  0.25500000920E-02 0. -1.
</event>
<event>
 5   0  0.2690809E-03  0.7994493E+03  0.7818609E-02  0.9560815E-01
       -2   -1    0    0    0  501  0.00000000000E+00  0.00000000000E+00  0.35708215266E+03  0.35708215267E+03  0.25500000920E-02 0. -1.
        2   -1    0    0  501    0  0.00000000000E+00  0.00000000000E+00 -0.44745944335E+03  0.44745944336E+03  0.25500000920E-02 0.  1.
    10030    2    1    2    0    0  0.00000000000E+00  0.00000000000E+00 -0.90377290686E+02  0.80454159603E+03  0.79944926360E+03 0.  0.
        5    1    3    3  502    0  0.26090834979E+03  0.39304137379E+02 -0.34733382631E+03  0.43621194287E+03  0.46999998093E+01 0.  1.
       -5    1    3    3    0  502 -0.26090834979E+03 -0.39304137379E+02  0.25695653562E+03  0.36832965316E+03  0.46999998093E+01 0. -1.
</event>
<event>
 5   0  0.1640035E-03  0.7971214E+03  0.7818609E-02  0.9564193E-01
       -1   -1    0    0    0  501  0.00000000000E+00  0.00000000000E+00  0.15672228941E+04  0.15672228941E+04  0.50400001928E-02 0. -1.
        1   -1    0    0  501    0  0.00000000000E+00  0.00000000000E+00 -0.10135803720E+03  0.10135803732E+03  0.50400001928E-02 0.  1.
    10030    2    1    2    0    0  0.00000000000E+00  0.00000000000E+00  0.14658648569E+04  0.16685809314E+04  0.79712141235E+03 0.  0.
        5    1    3    3  502    0 -0.19508506764E+03  0.36278474988E+02  0.94573480348E+01  0.19871044963E+03  0.46999998093E+01 0.  1.
       -5    1    3    3    0  502  0.19508506764E+03 -0.36278474988E+02  0.14564075089E+04  0.14698704818E+04  0.46999998093E+01 0. -1.
</event>
<event>
 5   0  0.1640035E-03  0.7995510E+03  0.7818609E-02  0.9560667E-01
        1   -1    0    0  501    0  0.00000000000E+00  0.00000000000E+00  0.10933058071E+04  0.10933058071E+04  0.50400001928E-02 0.  1.
       -1   -1    0    0    0  501  0.00000000000E+00  0.00000000000E+00 -0.14618093393E+03  0.14618093402E+03  0.50400001928E-02 0. -1.
    10030    2    1    2    0    0  0.00000000000E+00  0.00000000000E+00  0.94712487319E+03  0.12394867411E+04  0.79955103407E+03 0.  0.
        5    1    3    3  502    0  0.25006163422E+03  0.47644654965E+02 -0.42438677599E+01  0.25463883142E+03  0.46999998093E+01 0. -1.
       -5    1    3    3    0  502 -0.25006163422E+03 -0.47644654965E+02  0.95136874095E+03  0.98484790973E+03  0.46999998093E+01 0.  1.
</event>
<event>
 5   0  0.1640035E-03  0.8003278E+03  0.7818609E-02  0.9559543E-01
        1   -1    0    0  501    0  0.00000000000E+00  0.00000000000E+00  0.54604646449E+03  0.54604646451E+03  0.50400001928E-02 0. -1.
       -1   -1    0    0    0  501  0.00000000000E+00  0.00000000000E+00 -0.29325549760E+03  0.29325549764E+03  0.50400001928E-02 0.  1.
    10030    2    1    2    0    0  0.00000000000E+00  0.00000000000E+00  0.25279096689E+03  0.83930196216E+03  0.80032775207E+03 0.  0.
        5    1    3    3  502    0  0.19288562273E+03  0.33318223582E+03  0.12025998416E+02  0.38520381664E+03  0.46999998093E+01 0.  1.
       -5    1    3    3    0  502 -0.19288562273E+03 -0.33318223582E+03  0.24076496847E+03  0.45409814551E+03  0.46999998093E+01 0. -1.
</event>
<event>
 5   0  0.1712793E-03  0.8006347E+03  0.7818609E-02  0.9559099E-01
       -1   -1    0    0    0  501  0.00000000000E+00  0.00000000000E+00  0.12217417460E+04  0.12217417460E+04  0.50400001928E-02 0. -1.
        1   -1    0    0  501    0  0.00000000000E+00  0.00000000000E+00 -0.13116844640E+03  0.13116844649E+03  0.50400001928E-02 0.  1.
    10030    2    1    2    0    0  0.00000000000E+00  0.00000000000E+00  0.10905732996E+04  0.13529101925E+04  0.80063466524E+03 0.  0.
        4    1    3    3  502    0  0.22123214833E+03 -0.18376074418E+03  0.10158297175E+04  0.10557572176E+04  0.12699999809E+01 0. -1.
       -4    1    3    3    0  502 -0.22123214833E+03  0.18376074418E+03  0.74743582099E+02  0.29715297495E+03  0.12699999809E+01 0.  1.
</event>
<event>
 5   0  0.2763587E-03  0.8028658E+03  0.7818609E-02  0.9555878E-01
        2   -1    0    0  501    0  0.00000000000E+00  0.00000000000E+00  0.14830248607E+04  0.14830248607E+04  0.25500000920E-02 0. -1.
       -2   -1    0    0    0  501  0.00000000000E+00  0.00000000000E+00 -0.10866194249E+03  0.10866194252E+03  0.25500000920E-02 0.  1.
    10030    2    1    2    0    0  0.00000000000E+00  0.00000000000E+00  0.13743629182E+04  0.15916868032E+04  0.80286577245E+03 0.  0.
        3    1    3    3  502    0 -0.15206955496E+03  0.24393889261E+03  0.13166545726E+03  0.31617579874E+03  0.10100000352E+00 0.  1.
       -3    1    3    3    0  502  0.15206955496E+03 -0.24393889261E+03  0.12426974609E+04  0.12755110045E+04  0.10100000352E+00 0. -1.
</event>
<event>
 5   0  0.1095350E-03  0.8001844E+03  0.7818609E-02  0.9559750E-01
        4   -1    0    0  501    0  0.00000000000E+00  0.00000000000E+00  0.22781959377E+03  0.22782313360E+03  0.12699999809E+01 0. -1.
       -4   -1    0    0    0  501  0.00000000000E+00  0.00000000000E+00 -0.70262430873E+03  0.70262545650E+03  0.12699999809E+01 0.  1.
    10030    2    1    2    0    0  0.00000000000E+00  0.00000000000E+00 -0.47480471496E+03  0.93044859010E+03  0.80018439217E+03 0.  0.
        4    1    3    3  502    0 -0.16609023467E+03 -0.13128811905E+02  0.18556310988E+03  0.24938647198E+03  0.12699999809E+01 0. -1.
       -4    1    3    3    0  502  0.16609023467E+03  0.13128811905E+02 -0.66036782484E+03  0.68106211812E+03  0.12699999809E+01 0.  1.
</event>
<event>
 5   0  0.1712793E-03  0.8005106E+03  0.7818609E-02  0.9559278E-01
       -1   -1    0    0    0  501  0.00000000000E+00  0.00000000000E+00  0.22721588635E+03  0.22721588640E+03  0.50400001928E-02 0. -1.
        1   -1    0    0  501    0  0.00000000000E+00  0.00000000000E+00 -0.70507533959E+03  0.70507533961E+03  0.50400001928E-02 0.  1.
    10030    2    1    2    0    0  0.00000000000E+00  0.00000000000E+00 -0.47785945324E+03  0.93229122601E+03  0.80051063269E+03 0.  0.
        4    1    3    3  502    0  0.14057779781E+03 -0.32943514691E+03 -0.44698024346E+03  0.57278493712E+03  0.12699999809E+01 0.  1.
       -4    1    3    3    0  502 -0.14057779781E+03  0.32943514691E+03 -0.30879209786E+02  0.35950628889E+03  0.12699999809E+01 0. -1.
</event>
<event>
 5   0  0.2768834E-03  0.7991755E+03  0.7818609E-02  0.9561211E-01
       -2   -1    0    0    0  501  0.00000000000E+00  0.00000000000E+00  0.32167091111E+03  0.32167091112E+03  0.25500000920E-02 0. -1.
        2   -1    0    0  501    0  0.00000000000E+00  0.00000000000E+00 -0.49637803526E+03  0.49637803527E+03  0.25500000920E-02 0.  1.
    10030    2    1    2    0    0  0.00000000000E+00  0.00000000000E+00 -0.17470712415E+03  0.81804894639E+03  0.79917551230E+03 0.  0.
        4    1    3    3  502    0  0.34568807072E+03  0.19051832380E+03 -0.15104262570E+03  0.42262626707E+03  0.12699999809E+01 0. -1.
       -4    1    3    3    0  502 -0.34568807072E+03 -0.19051832380E+03 -0.23664498451E+02  0.39542267932E+03  0.12699999809E+01 0.  1.
</event>
<event>
 5   0  0.2873212E-03  0.7999778E+03  0.7818609E-02  0.9560049E-01
        2   -1    0    0  501    0  0.00000000000E+00  0.00000000000E+00  0.11489921042E+03  0.11489921045E+03  0.25500000920E-02 0. -1.
       -2   -1    0    0    0  501  0.00000000000E+00  0.00000000000E+00 -0.13924476326E+04  0.13924476326E+04  0.25500000920E-02 0.  1.
    10030    2    1    2    0    0  0.00000000000E+00  0.00000000000E+00 -0.12775484222E+04  0.15073468431E+04  0.79997783359E+03 0.  0.
        2    1    3    3  502    0 -0.39525542715E+03 -0.45132067885E+01 -0.52348250971E+03  0.65595819967E+03  0.25500000920E-02 0.  1.
       -2    1    3    3    0  502  0.39525542715E+03  0.45132067885E+01 -0.75406591247E+03  0.85138864339E+03  0.25500000920E-02 0. -1.
</event>
<event>
 5   0  0.1712793E-03  0.8010829E+03  0.7818609E-02  0.9558451E-01
       -1   -1    0    0    0  501  0.00000000000E+00  0.00000000000E+00  0.21211570735E+03  0.21211570741E+03  0.50400001928E-02 0. -1.
        1   -1    0    0  501    0  0.00000000000E+00  0.00000000000E+00 -0.75634867007E+03  0.75634867009E+03  0.50400001928E-02 0.  1.
    10030    2    1    2    0    0  0.00000000000E+00  0.00000000000E+00 -0.54423296272E+03  0.96846437750E+03  0.80108285014E+03 0.  0.
        4    1    3    3  502    0  0.59860705038E+02 -0.40981960929E+02  0.20410468077E+03  0.21661754025E+03  0.12699999809E+01 0. -1.
       -4    1    3    3    0  502 -0.59860705038E+02  0.40981960929E+02 -0.74833764349E+03  0.75184683725E+03  0.12699999809E+01 0.  1.
</event>
<event>
 5   0  0.2690809E-03  0.8001458E+03  0.7818609E-02  0.9559806E-01
        2   -1    0    0  501    0  0.00000000000E+00  0.00000000000E+00  0.47959723853E+03  0.47959723854E+03  0.25500000920E-02 0. -1.
       -2   -1    0    0    0  501  0.00000000000E+00  0.00000000000E+00 -0.33373491669E+03  0.33373491670E+03  0.25500000920E-02 0.  1.
    10030    2    1    2    0    0  0.00000000000E+00  0.00000000000E+00  0.14586232184E+03  0.81333215524E+03  0.80014584784E+03 0.  0.
        5    1    3    3  502    0 -0.20131642993E+03  0.14426452581E+03 -0.24640484851E+03  0.34939661953E+03  0.46999998093E+01 0.  1.
       -5    1    3    3    0  502  0.20131642993E+03 -0.14426452581E+03  0.39226717035E+03  0.46393553572E+03  0.46999998093E+01 0. -1.
</event>
<event>
 5   0  0.1656051E-03  0.8006213E+03  0.7818609E-02  0.9559118E-01
       -1   -1    0    0    0  501  0.00000000000E+00  0.00000000000E+00  0.17085667555E+03  0.17085667563E+03  0.50400001928E-02 0.  1.
        1   -1    0    0  501    0  0.00000000000E+00  0.00000000000E+00 -0.93791262452E+03  0.93791262454E+03  0.50400001928E-02 0. -1.
    10030    2    1    2    0    0  0.00000000000E+00  0.00000000000E+00 -0.76705594897E+03  0.11087693002E+04  0.80062134129E+03 0.  0.
        3    1    3    3  502    0  0.11701588672E+03 -0.13407558314E+03 -0.88012045387E+03  0.89793151368E+03  0.10100000352E+00 0. -1.
       -3    1    3    3    0  502 -0.11701588672E+03  0.13407558314E+03  0.11306450490E+03  0.21083778648E+03  0.10100000352E+00 0.  1.
</event>
<event>
 5   0  0.2768834E-03  0.7763105E+03  0.7818609E-02  0.9594954E-01
        2   -1    0    0  501    0  0.00000000000E+00  0.00000000000E+00  0.90291299638E+03  0.90291299639E+03  0.25500000920E-02 0. -1.
       -2   -1    0    0    0  501  0.00000000000E+00  0.00000000000E+00 -0.16686490975E+03  0.16686490977E+03  0.25500000920E-02 0.  1.
    10030    2    1    2    0    0  0.00000000000E+00  0.00000000000E+00  0.73604808663E+03  0.10697779062E+04  0.77631049373E+03 0.  0.
        4    1    3    3  502    0 -0.13457792050E+03 -0.37848846659E+01  0.86970462786E+03  0.88006436961E+03  0.12699999809E+01 0. -1.
       -4    1    3    3    0  502  0.13457792050E+03  0.37848846659E+01 -0.13365654123E+03  0.18971353655E+03  0.12699999809E+01 0.  1.
</event>
<event>
 5   0  0.1095350E-03  0.8010084E+03  0.7818609E-02  0.9558559E-01
        3   -1    0    0  501    0  0.00000000000E+00  0.00000000000E+00  0.24817465376E+03  0.24817467432E+03  0.10100000352E+00 0. -1.
       -3   -1    0    0    0  501  0.00000000000E+00  0.00000000000E+00 -0.64633358756E+03  0.64633359545E+03  0.10100000352E+00 0.  1.
    10030    2    1    2    0    0  0.00000000000E+00  0.00000000000E+00 -0.39815893379E+03  0.89450826977E+03  0.80100843199E+03 0.  0.
        4    1    3    3  502    0  0.19671806875E+03 -0.34329706782E+03 -0.26838084273E+03  0.47810120790E+03  0.12699999809E+01 0.  1.
       -4    1    3    3    0  502 -0.19671806875E+03  0.34329706782E+03 -0.12977809106E+03  0.41640706187E+03  0.12699999809E+01 0. -1.
</event>
<event>
 5   0  0.1095350E-03  0.8016212E+03  0.7818609E-02  0.9557673E-01
       -4   -1    0    0    0  501  0.00000000000E+00  0.00000000000E+00  0.47869404730E+03  0.47869573199E+03  0.12699999809E+01 0. -1.
        4   -1    0    0  501    0  0.00000000000E+00  0.00000000000E+00 -0.33559531319E+03  0.33559771622E+03  0.12699999809E+01 0.  1.
    10030    2    1    2    0    0  0.00000000000E+00  0.00000000000E+00  0.14309873411E+03  0.81429344821E+03  0.80162121485E+03 0.  0.
        4    1    3    3  502    0 -0.32147427279E+03  0.21663912349E+03 -0.31890204739E+02  0.38896891387E+03  0.12699999809E+01 0.  1.
       -4    1    3    3    0  502  0.32147427279E+03 -0.21663912349E+03  0.17498893885E+03  0.42532453434E+03  0.12699999809E+01 0. -1.
</event>
<event>
 5   0  0.1617491E-03  0.7987304E+03  0.7818609E-02  0.9561857E-01
       -1   -1    0    0    0  501  0.00000000000E+00  0.00000000000E+00  0.22130530750E+03  0.22130530756E+03  0.50400001928E-02 0.  1.
        1   -1    0    0  501    0  0.00000000000E+00  0.00000000000E+00 -0.72069018116E+03  0.72069018117E+03  0.50400001928E-02 0. -1.
    10030    2    1    2    0    0  0.00000000000E+00  0.00000000000E+00 -0.49938487365E+03  0.94199548874E+03  0.79873039805E+03 0.  0.
        1    1    3    3  502    0 -0.19675794824E+02 -0.32586796630E+03  0.21601467951E+02  0.32717532273E+03  0.50400001928E-02 0.  1.
       -1    1    3    3    0  502  0.19675794824E+02  0.32586796630E+03 -0.52098634160E+03  0.61482016600E+03  0.50400001928E-02 0. -1.
</event>
<event>
 5   0  0.1617491E-03  0.8028878E+03  0.7818609E-02  0.9555846E-01
       -1   -1    0    0    0  501  0.00000000000E+00  0.00000000000E+00  0.13719160757E+03  0.13719160766E+03  0.50400001928E-02 0. -1.
        1   -1    0    0  501    0  0.00000000000E+00  0.00000000000E+00 -0.11746871321E+04  0.11746871321E+04  0.50400001928E-02 0.  1.
    10030    2    1    2    0    0  0.00000000000E+00  0.00000000000E+00 -0.10374955246E+04  0.13118787398E+04  0.80288782807E+03 0.  0.
        1    1    3    3  502    0 -0.50712879679E+02  0.15876744647E+03 -0.11154826619E+04  0.11278654473E+04  0.50400001928E-02 0.  1.
       -1    1    3    3    0  502  0.50712879679E+02 -0.15876744647E+03  0.77987137284E+02  0.18401329254E+03  0.50400001928E-02 0. -1.
</event>
<event>
 5   0  0.1656051E-03  0.7991186E+03  0.7818609E-02  0.9561294E-01
       -1   -1    0    0    0  501  0.00000000000E+00  0.00000000000E+00  0.15633555477E+03  0.15633555485E+03  0.50400001928E-02 0.  1.
        1   -1    0    0  501    0  0.00000000000E+00  0.00000000000E+00 -0.10211856321E+04  0.10211856321E+04  0.50400001928E-02 0. -1.
    10030    2    1    2    0    0  0.00000000000E+00  0.00000000000E+00 -0.86485007735E+03  0.11775211870E+04  0.79911857036E+03 0.  0.
        3    1    3    3  502    0  0.11167926185E+03  0.33958783791E+02 -0.99550086731E+03  0.10023210282E+04  0.10100000352E+00 0. -1.
       -3    1    3    3    0  502 -0.11167926185E+03 -0.33958783791E+02  0.13065078996E+03  0.17520015880E+03  0.10100000352E+00 0.  1.
</event>
<event>
 5   0  0.2768834E-03  0.8004636E+03  0.7818609E-02  0.9559346E-01
        2   -1    0    0  501    0  0.00000000000E+00  0.00000000000E+00  0.15014554619E+04  0.15014554619E+04  0.25500000920E-02 0. -1.
       -2   -1    0    0    0  501  0.00000000000E+00  0.00000000000E+00 -0.10668682034E+03  0.10668682037E+03  0.25500000920E-02 0.  1.
    10030    2    1    2    0    0  0.00000000000E+00  0.00000000000E+00  0.13947686415E+04  0.16081422823E+04  0.80046363850E+03 0.  0.
        4    1    3    3  502    0 -0.99501468996E+02  0.30474904141E+03  0.21601119704E+03  0.38656819672E+03  0.12699999809E+01 0.  1.
       -4    1    3    3    0  502  0.99501468996E+02 -0.30474904141E+03  0.11787574445E+04  0.12215740855E+04  0.12699999809E+01 0. -1.
</event>
<event>
 5   0  0.2910501E-03  0.7903749E+03  0.7818609E-02  0.9574054E-01
        2   -1    0    0  501    0  0.00000000000E+00  0.00000000000E+00  0.11396988061E+04  0.11396988061E+04  0.25500000920E-02 0. -1.
       -2   -1    0    0    0  501  0.00000000000E+00  0.00000000000E+00 -0.13703018579E+03  0.13703018582E+03  0.25500000920E-02 0.  1.
    10030    2    1    2    0    0  0.00000000000E+00  0.00000000000E+00  0.10026686203E+04  0.12767289920E+04  0.79037494690E+03 0.  0.
        1    1    3    3  502    0  0.37274326220E+01 -0.28808446369E+03  0.93827446055E+03  0.98151185185E+03  0.50400001928E-02 0. -1.
       -1    1    3    3    0  502 -0.37274326220E+01  0.28808446369E+03  0.64394159802E+02  0.29521714012E+03  0.50400001928E-02 0.  1.
</event>
<event>
 5   0  0.1095350E-03  0.7989424E+03  0.7818609E-02  0.9561549E-01
        4   -1    0    0  501    0  0.00000000000E+00  0.00000000000E+00  0.97889622982E+03  0.97889705366E+03  0.12699999809E+01 0.  1.
       -4   -1    0    0    0  501  0.00000000000E+00  0.00000000000E+00 -0.16301417673E+03  0.16301912377E+03  0.12699999809E+01 0. -1.
    10030    2    1    2    0    0  0.00000000000E+00  0.00000000000E+00  0.81588205309E+03  0.11419161774E+04  0.79894244582E+03 0.  0.
        4    1    3    3  502    0  0.11016298179E+03  0.12648221486E+03  0.92612721069E+03  0.94119437765E+03  0.12699999809E+01 0.  1.
       -4    1    3    3    0  502 -0.11016298179E+03 -0.12648221486E+03 -0.11024515760E+03  0.20072179978E+03  0.12699999809E+01 0. -1.
</event>
<event>
 5   0  0.1637228E-03  0.8001390E+03  0.7818609E-02  0.9559816E-01
        1   -1    0    0  501    0  0.00000000000E+00  0.00000000000E+00  0.15489066999E+03  0.15489067007E+03  0.50400001928E-02 0. -1.
       -1   -1    0    0    0  501  0.00000000000E+00  0.00000000000E+00 -0.10333456955E+04  0.10333456956E+04  0.50400001928E-02 0.  1.
    10030    2    1    2    0    0  0.00000000000E+00  0.00000000000E+00 -0.87845502555E+03  0.11882363656E+04  0.80013900586E+03 0.  0.
        2    1    3    3  502    0 -0.72033855988E+02 -0.88905061318E+02 -0.10085270641E+04  0.10149974509E+04  0.25500000920E-02 0.  1.
       -2    1    3    3    0  502  0.72033855988E+02  0.88905061318E+02  0.13007203858E+03  0.17323891469E+03  0.25500000920E-02 0. -1.
</event>
<event>
 5   0  0.1640035E-03  0.7999466E+03  0.7818609E-02  0.9560094E-01
        1   -1    0    0  501    0  0.00000000000E+00  0.00000000000E+00  0.63737052346E+03  0.63737052348E+03  0.50400001928E-02 0. -1.
       -1   -1    0    0    0  501  0.00000000000E+00  0.00000000000E+00 -0.25099784314E+03  0.25099784319E+03  0.50400001928E-02 0.  1.
    10030    2    1    2    0    0  0.00000000000E+00  0.00000000000E+00  0.38637268032E+03  0.88836836667E+03  0.79994656497E+03 0.  0.
        5    1    3    3  502    0  0.24419215934E+03  0.31669216464E+03  0.19954640589E+03  0.44695032825E+03  0.46999998093E+01 0.  1.
       -5    1    3    3    0  502 -0.24419215934E+03 -0.31669216464E+03  0.18682627444E+03  0.44141803842E+03  0.46999998093E+01 0. -1.
</event>
<event>
 5   0  0.2768834E-03  0.8003534E+03  0.7818609E-02  0.9559506E-01
       -2   -1    0    0    0  501  0.00000000000E+00  0.00000000000E+00  0.15697558556E+03  0.15697558558E+03  0.25500000920E-02 0. -1.
        2   -1    0    0  501    0  0.00000000000E+00  0.00000000000E+00 -0.10201676271E+04  0.10201676271E+04  0.25500000920E-02 0.  1.
    10030    2    1    2    0    0  0.00000000000E+00  0.00000000000E+00 -0.86319204150E+03  0.11771432127E+04  0.80035344853E+03 0.  0.
        4    1    3    3  502    0 -0.12770350134E+02  0.31347374809E+03 -0.66229700761E+02  0.32065068026E+03  0.12699999809E+01 0. -1.
       -4    1    3    3    0  502  0.12770350134E+02 -0.31347374809E+03 -0.79696234074E+03  0.85649253240E+03  0.12699999809E+01 0.  1.
</event>
<event>
 5   0  0.1656051E-03  0.7986916E+03  0.7818609E-02  0.9561913E-01
        1   -1    0    0  501    0  0.00000000000E+00  0.00000000000E+00  0.10142518431E+04  0.10142518431E+04  0.50400001928E-02 0.  1.
       -1   -1    0    0    0  501  0.00000000000E+00  0.00000000000E+00 -0.15723616841E+03  0.15723616849E+03  0.50400001928E-02 0. -1.
    10030    2    1    2    0    0  0.00000000000E+00  0.00000000000E+00  0.85701567471E+03  0.11714880116E+04  0.79869161426E+03 0.  0.
        3    1    3    3  502    0 -0.81792903839E+02  0.31959364090E+03  0.75859992254E+03  0.82722670841E+03  0.10100000352E+00 0.  1.
       -3    1    3    3    0  502  0.81792903839E+02 -0.31959364090E+03  0.98415752168E+02  0.34426130322E+03  0.10100000352E+00 0. -1.
</event>
<event>
 5   0  0.2768834E-03  0.7991595E+03  0.7818609E-02  0.9561234E-01
        2   -1    0    0  501    0  0.00000000000E+00  0.00000000000E+00  0.68321010825E+03  0.68321010825E+03  0.25500000920E-02 0. -1.
       -2   -1    0    0    0  501  0.00000000000E+00  0.00000000000E+00 -0.23369676480E+03  0.23369676482E+03  0.25500000920E-02 0.  1.
    10030    2    1    2    0    0  0.00000000000E+00  0.00000000000E+00  0.44951334344E+03  0.91690687307E+03  0.79915953848E+03 0.  0.
        4    1    3    3  502    0  0.16809494365E+03 -0.23388748781E+03 -0.93002601260E+02  0.30267203997E+03  0.12699999809E+01 0.  1.
       -4    1    3    3    0  502 -0.16809494365E+03  0.23388748781E+03  0.54251594470E+03  0.61423483310E+03  0.12699999809E+01 0. -1.
</event>
<event>
 5   0  0.1617491E-03  0.8009076E+03  0.7818609E-02  0.9558704E-01
       -1   -1    0    0    0  501  0.00000000000E+00  0.00000000000E+00  0.17798746427E+03  0.17798746434E+03  0.50400001928E-02 0.  1.
        1   -1    0    0  501    0  0.00000000000E+00  0.00000000000E+00 -0.90098062203E+03  0.90098062204E+03  0.50400001928E-02 0. -1.
    10030    2    1    2    0    0  0.00000000000E+00  0.00000000000E+00 -0.72299315776E+03  0.10789680864E+04  0.80090762594E+03 0.  0.
        1    1    3    3  502    0  0.10369834421E+03  0.10543293680E+03 -0.86284695488E+03  0.87542807718E+03  0.50400001928E-02 0. -1.
       -1    1    3    3    0  502 -0.10369834421E+03 -0.10543293680E+03  0.13985379712E+03  0.20354000921E+03  0.50400001928E-02 0.  1.
</event>
<event>
 5   0  0.1617491E-03  0.7958452E+03  0.7818609E-02  0.9566051E-01
        1   -1    0    0  501    0  0.00000000000E+00  0.00000000000E+00  0.12345784077E+04  0.12345784077E+04  0.50400001928E-02 0. -1.
       -1   -1    0    0    0  501  0.00000000000E+00  0.00000000000E+00 -0.12825624737E+03  0.12825624747E+03  0.50400001928E-02 0.  1.
    10030    2    1    2    0    0  0.00000000000E+00  0.00000000000E+00  0.11063221603E+04  0.13628346552E+04  0.79584519534E+03 0.  0.
        1    1    3    3  502    0  0.57338777530E+02  0.23177741803E+02 -0.11997572460E+03  0.13497821173E+03  0.50400001928E-02 0.  1.
       -1    1    3    3    0  502 -0.57338777530E+02 -0.23177741803E+02  0.12262978849E+04  0.12278564435E+04  0.50400001928E-02 0. -1.
</event>
<event>
 5   0  0.2768834E-03  0.8001009E+03  0.7818609E-02  0.9559871E-01
        2   -1    0    0  501    0  0.00000000000E+00  0.00000000000E+00  0.13417189873E+04  0.13417189873E+04  0.25500000920E-02 0.  1.
       -2   -1    0    0    0  501  0.00000000000E+00  0.00000000000E+00 -0.11928007761E+03  0.11928007764E+03  0.25500000920E-02 0. -1.
    10030    2    1    2    0    0  0.00000000000E+00  0.00000000000E+00  0.12224389097E+04  0.14609990649E+04  0.80010085605E+03 0.  0.
        4    1    3    3  502    0 -0.41229695469E+02  0.26537866812E+03  0.11526363075E+04  0.11835107923E+04  0.12699999809E+01 0.  1.
       -4    1    3    3    0  502  0.41229695469E+02 -0.26537866812E+03  0.69802602211E+02  0.27748827264E+03  0.12699999809E+01 0. -1.
</event>
<event>
 5   0  0.2910501E-03  0.8016467E+03  0.7818609E-02  0.9557637E-01
       -2   -1    0    0    0  501  0.00000000000E+00  0.00000000000E+00  0.23060162031E+03  0.23060162032E+03  0.25500000920E-02 0.  1.
        2   -1    0    0  501    0  0.00000000000E+00  0.00000000000E+00 -0.69669664573E+03  0.69669664573E+03  0.25500000920E-02 0. -1.
    10030    2    1    2    0    0  0.00000000000E+00  0.00000000000E+00 -0.46609502542E+03  0.92729826605E+03  0.80164674359E+03 0.  0.
        1    1    3    3  502    0  0.52630090960E+01 -0.15501889314E+03 -0.66057403921E+03  0.67854006352E+03  0.50400001928E-02 0. -1.
       -1    1    3    3    0  502 -0.52630090960E+01  0.15501889314E+03  0.19447901379E+03  0.24875820253E+03  0.50400001928E-02 0.  1.
</event>
<event>
 5   0  0.2768834E-03  0.8000241E+03  0.7818609E-02  0.9559982E-01
        2   -1    0    0  501    0  0.00000000000E+00  0.00000000000E+00  0.50501006914E+03  0.50501006914E+03  0.25500000920E-02 0.  1.
       -2   -1    0    0    0  501  0.00000000000E+00  0.00000000000E+00 -0.31684447916E+03  0.31684447917E+03  0.25500000920E-02 0. -1.
    10030    2    1    2    0    0  0.00000000000E+00  0.00000000000E+00  0.18816558998E+03  0.82185454831E+03  0.80002413046E+03 0.  0.
        4    1    3    3  502    0  0.30005762260E+02 -0.19393887983E+03 -0.26399039249E+03  0.32894555036E+03  0.12699999809E+01 0. -1.
       -4    1    3    3    0  502 -0.30005762260E+02  0.19393887983E+03  0.45215598247E+03  0.49290899795E+03  0.12699999809E+01 0.  1.
</event>
<event>
 5   0  0.2768834E-03  0.8004262E+03  0.7818609E-02  0.9559400E-01
       -2   -1    0    0    0  501  0.00000000000E+00  0.00000000000E+00  0.26546384057E+03  0.26546384058E+03  0.25500000920E-02 0. -1.
        2   -1    0    0  501    0  0.00000000000E+00  0.00000000000E+00 -0.60336097340E+03  0.60336097340E+03  0.25500000920E-02 0.  1.
    10030    2    1    2    0    0  0.00000000000E+00  0.00000000000E+00 -0.33789713283E+03  0.86882481398E+03  0.80042618961E+03 0.  0.
        4    1    3    3  502    0 -0.33147934475E+03 -0.17788294576E+03 -0.20721616484E+02  0.37676504174E+03  0.12699999809E+01 0. -1.
       -4    1    3    3    0  502  0.33147934475E+03  0.17788294576E+03 -0.31717551635E+03  0.49205977224E+03  0.12699999809E+01 0.  1.
</event>
<event>
 5   0  0.1617491E-03  0.7992981E+03  0.7818609E-02  0.9561034E-01
       -1   -1    0    0    0  501  0.00000000000E+00  0.00000000000E+00  0.41680979753E+03  0.41680979756E+03  0.50400001928E-02 0. -1.
        1   -1    0    0  501    0  0.00000000000E+00  0.00000000000E+00 -0.38319486152E+03  0.38319486155E+03  0.50400001928E-02 0.  1.
    10030    2    1    2    0    0  0.00000000000E+00  0.00000000000E+00  0.33614936004E+02  0.80000465911E+03  0.79929812378E+03 0.  0.
        1    1    3    3  502    0 -0.76859367025E+02  0.23305842090E+03  0.33251581137E+03  0.41326789700E+03  0.50400001928E-02 0. -1.
       -1    1    3    3    0  502  0.76859367025E+02 -0.23305842090E+03 -0.29890087536E+03  0.38673676211E+03  0.50400001928E-02 0.  1.
</event>
<event>
 5   0  0.1656051E-03  0.8012730E+03  0.7818609E-02  0.9558176E-01
        1   -1    0    0  501    0  0.00000000000E+00  0.00000000000E+00  0.25818017426E+03  0.25818017431E+03  0.50400001928E-02 0. -1.
       -1   -1    0    0    0  501  0.00000000000E+00  0.00000000000E+00 -0.62169604452E+03  0.62169604454E+03  0.50400001928E-02 0.  1.
    10030    2    1    2    0    0  0.00000000000E+00  0.00000000000E+00 -0.36351587026E+03  0.87987621885E+03  0.80127297007E+03 0.  0.
        3    1    3    3  502    0  0.36133846317E+03  0.53501051972E+01 -0.37168595218E+03  0.51840579264E+03  0.10100000352E+00 0.  1.
       -3    1    3    3    0  502 -0.36133846317E+03 -0.53501051972E+01  0.81700819224E+01  0.36147042622E+03  0.10100000352E+00 0. -1.
</event>
<event>
 5   0  0.2873212E-03  0.8041689E+03  0.7818609E-02  0.9554002E-01
        2   -1    0    0  501    0  0.00000000000E+00  0.00000000000E+00  0.32380219671E+03  0.32380219672E+03  0.25500000920E-02 0.  1.
       -2   -1    0    0    0  501  0.00000000000E+00  0.00000000000E+00 -0.49929220699E+03  0.49929220700E+03  0.25500000920E-02 0. -1.
    10030    2    1    2    0    0  0.00000000000E+00  0.00000000000E+00 -0.17549001028E+03  0.82309440372E+03  0.80416892114E+03 0.  0.
        2    1    3    3  502    0  0.37928326269E+03 -0.87335689890E+02  0.15569086943E+02  0.38951984874E+03  0.25500000920E-02 0. -1.
       -2    1    3    3    0  502 -0.37928326269E+03  0.87335689890E+02 -0.19105909722E+03  0.43357455498E+03  0.25500000920E-02 0.  1.
</event>
<event>
 5   0  0.1095350E-03  0.7998626E+03  0.7818609E-02  0.9560216E-01
       -3   -1    0    0    0  501  0.00000000000E+00  0.00000000000E+00  0.89142645335E+03  0.89142645907E+03  0.10100000352E+00 0.  1.
        3   -1    0    0  501    0  0.00000000000E+00  0.00000000000E+00 -0.17942594725E+03  0.17942597568E+03  0.10100000352E+00 0. -1.
    10030    2    1    2    0    0  0.00000000000E+00  0.00000000000E+00  0.71200050610E+03  0.10708524348E+04  0.79986262341E+03 0.  0.
        3    1    3    3  502    0  0.14779466627E+03  0.33349429581E+03  0.13648950057E+03  0.38947541987E+03  0.10100000352E+00 0. -1.
       -3    1    3    3    0  502 -0.14779466627E+03 -0.33349429581E+03  0.57551100553E+03  0.68137701488E+03  0.10100000352E+00 0.  1.
</event>
<event>
 5   0  0.1637228E-03  0.8021368E+03  0.7818609E-02  0.9556929E-01
       -1   -1    0    0    0  501  0.00000000000E+00  0.00000000000E+00  0.10320312001E+04  0.10320312001E+04  0.50400001928E-02 0.  1.
        1   -1    0    0  501    0  0.00000000000E+00  0.00000000000E+00 -0.15586336464E+03  0.15586336472E+03  0.50400001928E-02 0. -1.
    10030    2    1    2    0    0  0.00000000000E+00  0.00000000000E+00  0.87616783548E+03  0.11878945649E+04  0.80213678465E+03 0.  0.
        2    1    3    3  502    0  0.14452985255E+03  0.36716074852E+03  0.54446213430E+03  0.67240977775E+03  0.25500000920E-02 0.  1.
       -2    1    3    3    0  502 -0.14452985255E+03 -0.36716074852E+03  0.33170570119E+03  0.51548478710E+03  0.25500000920E-02 0. -1.
</event>
<event>
 5   0  0.1637228E-03  0.7996346E+03  0.7818609E-02  0.9560546E-01
       -1   -1    0    0    0  501  0.00000000000E+00  0.00000000000E+00  0.25831724269E+03  0.25831724274E+03  0.50400001928E-02 0. -1.
        1   -1    0    0  501    0  0.00000000000E+00  0.00000000000E+00 -0.61882767777E+03  0.61882767779E+03  0.50400001928E-02 0.  1.
    10030    2    1    2    0    0  0.00000000000E+00  0.00000000000E+00 -0.36051043508E+03  0.87714492053E+03  0.79963456517E+03 0.  0.
        2    1    3    3  502    0 -0.31814929616E+03 -0.19638723067E+03 -0.24866180728E+02  0.37470688007E+03  0.25500000920E-02 0.  1.
       -2    1    3    3    0  502  0.31814929616E+03  0.19638723067E+03 -0.33564425435E+03  0.50243804046E+03  0.25500000920E-02 0. -1.
</event>
<event>
 5   0  0.1712793E-03  0.7979506E+03  0.7818609E-02  0.9562988E-01
       -1   -1    0    0    0  501  0.00000000000E+00  0.00000000000E+00  0.18810835991E+03  0.18810835997E+03  0.50400001928E-02 0. -1.
        1   -1    0    0  501    0  0.00000000000E+00  0.00000000000E+00 -0.84622115160E+03  0.84622115162E+03  0.50400001928E-02 0.  1.
    10030    2    1    2    0    0  0.00000000000E+00  0.00000000000E+00 -0.65811279170E+03  0.10343295116E+04  0.79795055733E+03 0.  0.
        4    1    3    3  502    0 -0.95523533399E+02  0.24074560953E+03 -0.72242927717E+03  0.76745610125E+03  0.12699999809E+01 0.  1.
       -4    1    3    3    0  502  0.95523533399E+02 -0.24074560953E+03  0.64316485470E+02  0.26687341034E+03  0.12699999809E+01 0. -1.
</event>
<event>
 5   0  0.2873212E-03  0.7988634E+03  0.7818609E-02  0.9561664E-01
       -2   -1    0    0    0  501  0.00000000000E+00  0.00000000000E+00  0.15431614785E+03  0.15431614787E+03  0.25500000920E-02 0. -1.
        2   -1    0    0  501    0  0.00000000000E+00  0.00000000000E+00 -0.10338884129E+04  0.10338884129E+04  0.25500000920E-02 0.  1.
    10030    2    1    2    0    0  0.00000000000E+00  0.00000000000E+00 -0.87957226500E+03  0.11882045607E+04  0.79886338554E+03 0.  0.
        2    1    3    3  502    0 -0.79428896583E+02  0.51527656223E+02  0.13738512144E+03  0.16684939487E+03  0.25500000920E-02 0. -1.
       -2    1    3    3    0  502  0.79428896583E+02 -0.51527656223E+02 -0.10169573864E+04  0.10213551659E+04  0.25500000920E-02 0.  1.
</event>
<event>
 5   0  0.1617491E-03  0.7944056E+03  0.7818609E-02  0.9568150E-01
       -1   -1    0    0    0  501  0.00000000000E+00  0.00000000000E+00  0.15076913366E+03  0.15076913374E+03  0.50400001928E-02 0. -1.
        1   -1    0    0  501    0  0.00000000000E+00  0.00000000000E+00 -0.10464348754E+04  0.10464348754E+04  0.50400001928E-02 0.  1.
    10030    2    1    2    0    0  0.00000000000E+00  0.00000000000E+00 -0.89566574176E+03  0.11972040092E+04  0.79440563858E+03 0.  0.
        1    1    3    3  502    0  0.14959846087E+03 -0.35651079142E+03 -0.31061378464E+03  0.49594411694E+03  0.50400001928E-02 0.  1.
       -1    1    3    3    0  502 -0.14959846087E+03  0.35651079142E+03 -0.58505195713E+03  0.70125989224E+03  0.50400001928E-02 0. -1.
</event>
<event>
 5   0  0.2873212E-03  0.7992493E+03  0.7818609E-02  0.9561104E-01
       -2   -1    0    0    0  501  0.00000000000E+00  0.00000000000E+00  0.24868538205E+03  0.24868538207E+03  0.25500000920E-02 0. -1.
        2   -1    0    0  501    0  0.00000000000E+00  0.00000000000E+00 -0.64217636906E+03  0.64217636907E+03  0.25500000920E-02 0.  1.
    10030    2    1    2    0    0  0.00000000000E+00  0.00000000000E+00 -0.39349098701E+03  0.89086175114E+03  0.79924933705E+03 0.  0.
        2    1    3    3  502    0 -0.14291374032E+03 -0.28266474453E+03  0.74857253262E+02  0.32546474978E+03  0.25500000920E-02 0. -1.
       -2    1    3    3    0  502  0.14291374032E+03  0.28266474453E+03 -0.46834824027E+03  0.56539700136E+03  0.25500000920E-02 0.  1.
</event>
<event>
 5   0  0.2873212E-03  0.7989836E+03  0.7818609E-02  0.9561489E-01
       -2   -1    0    0    0  501  0.00000000000E+00  0.00000000000E+00  0.22135825712E+03  0.22135825713E+03  0.25500000920E-02 0.  1.
        2   -1    0    0  501    0  0.00000000000E+00  0.00000000000E+00 -0.72097471673E+03  0.72097471673E+03  0.25500000920E-02 0. -1.
    10030    2    1    2    0    0  0.00000000000E+00  0.00000000000E+00 -0.49961645961E+03  0.94233297387E+03  0.79898362118E+03 0.  0.
        2    1    3    3  502    0  0.75965155960E+02 -0.34463810654E+03 -0.47060642179E+03  0.58823170064E+03  0.25500000920E-02 0. -1.
       -2    1    3    3    0  502 -0.75965155960E+02  0.34463810654E+03 -0.29010037818E+02  0.35410127322E+03  0.25500000920E-02 0.  1.
</event>
<event>
 5   0  0.2873212E-03  0.7995801E+03  0.7818609E-02  0.9560625E-01
       -2   -1    0    0    0  501  0.00000000000E+00  0.00000000000E+00  0.97206455084E+02  0.97206455118E+02  0.25500000920E-02 0.  1.
        2   -1    0    0  501    0  0.00000000000E+00  0.00000000000E+00 -0.16442537688E+04  0.16442537688E+04  0.25500000920E-02 0. -1.
    10030    2    1    2    0    0  0.00000000000E+00  0.00000000000E+00 -0.15470473137E+04  0.17414602239E+04  0.79958009019E+03 0.  0.
        2    1    3    3  502    0  0.59890584905E+00  0.36271969667E+03 -0.11396954313E+04  0.11960232494E+04  0.25500000920E-02 0. -1.
       -2    1    3    3    0  502 -0.59890584905E+00 -0.36271969667E+03 -0.40735188244E+03  0.54543697452E+03  0.25500000920E-02 0.  1.
</event>
<event>
 5   0  0.2910501E-03  0.7998455E+03  0.7818609E-02  0.9560241E-01
        2   -1    0    0  501    0  0.00000000000E+00  0.00000000000E+00  0.10819329491E+04  0.10819329491E+04  0.25500000920E-02 0.  1.
       -2   -1    0    0    0  501  0.00000000000E+00  0.00000000000E+00 -0.14782636749E+03  0.14782636751E+03  0.25500000920E-02 0. -1.
    10030    2    1    2    0    0  0.00000000000E+00  0.00000000000E+00  0.93410658162E+03  0.12297593166E+04  0.79984552945E+03 0.  0.
        1    1    3    3  502    0  0.28076844869E+03  0.18966985133E+03  0.79368578351E+03  0.86298476073E+03  0.50400001928E-02 0. -1.
       -1    1    3    3    0  502 -0.28076844869E+03 -0.18966985133E+03  0.14042079811E+03  0.36677455589E+03  0.50400001928E-02 0.  1.
</event>
<event>
 5   0  0.1637228E-03  0.8024807E+03  0.7818609E-02  0.9556433E-01
        1   -1    0    0  501    0  0.00000000000E+00  0.00000000000E+00  0.12473386170E+04  0.12473386170E+04  0.50400001928E-02 0.  1.
       -1   -1    0    0    0  501  0.00000000000E+00  0.00000000000E+00 -0.12906985182E+03  0.12906985192E+03  0.50400001928E-02 0. -1.
    10030    2    1    2    0    0  0.00000000000E+00  0.00000000000E+00  0.11182687651E+04  0.13764084689E+04  0.80248068022E+03 0.  0.
        2    1    3    3  502    0  0.11831547856E+03  0.10153806454E+03  0.11932575543E+04  0.12034002335E+04  0.25500000920E-02 0.  1.
       -2    1    3    3    0  502 -0.11831547856E+03 -0.10153806454E+03 -0.74988789153E+02  0.17300823542E+03  0.25500000920E-02 0. -1.
</event>
<event>
 5   0  0.2768834E-03  0.8004088E+03  0.7818609E-02  0.9559426E-01
        2   -1    0    0  501    0  0.00000000000E+00  0.00000000000E+00  0.72206171981E+03  0.72206171981E+03  0.25500000920E-02 0. -1.
       -2   -1    0    0    0  501  0.00000000000E+00  0.00000000000E+00 -0.22181424632E+03  0.22181424634E+03  0.25500000920E-02 0.  1.
    10030    2    1    2    0    0  0.00000000000E+00  0.00000000000E+00  0.50024747348E+03  0.94387596615E+03  0.80040883600E+03 0.  0.
        4    1    3    3  502    0 -0.21692842813E+03 -0.32739945245E+03  0.34080753871E+03  0.51999974590E+03  0.12699999809E+01 0. -1.
       -4    1    3    3    0  502  0.21692842813E+03  0.32739945245E+03  0.15943993477E+03  0.42387622025E+03  0.12699999809E+01 0.  1.
</event>
<event>
 5   0  0.2690809E-03  0.7989338E+03  0.7818609E-02  0.9561562E-01
        2   -1    0    0  501    0  0.00000000000E+00  0.00000000000E+00  0.31094681090E+03  0.31094681091E+03  0.25500000920E-02 0. -1.
       -2   -1    0    0    0  501  0.00000000000E+00  0.00000000000E+00 -0.51318679259E+03  0.51318679260E+03  0.25500000920E-02 0.  1.
    10030    2    1    2    0    0  0.00000000000E+00  0.00000000000E+00 -0.20223998169E+03  0.82413360351E+03  0.79893378088E+03 0.  0.
        5    1    3    3  502    0 -0.18364881128E+03  0.24495001378E+03  0.16353494640E+03  0.34712125235E+03  0.46999998093E+01 0. -1.
       -5    1    3    3    0  502  0.18364881128E+03 -0.24495001378E+03 -0.36577492810E+03  0.47701235116E+03  0.46999998093E+01 0.  1.
</event>
<event>
 5   0  0.1656051E-03  0.8010538E+03  0.7818609E-02  0.9558493E-01
        1   -1    0    0  501    0  0.00000000000E+00  0.00000000000E+00  0.73338177220E+03  0.73338177221E+03  0.50400001928E-02 0. -1.
       -1   -1    0    0    0  501  0.00000000000E+00  0.00000000000E+00 -0.21874256830E+03  0.21874256835E+03  0.50400001928E-02 0.  1.
    10030    2    1    2    0    0  0.00000000000E+00  0.00000000000E+00  0.51463920390E+03  0.95212434057E+03  0.80105383696E+03 0.  0.
        3    1    3    3  502    0 -0.33597586557E+03  0.11465360900E+03  0.47775915965E+03  0.59521345510E+03  0.10100000352E+00 0. -1.
       -3    1    3    3    0  502  0.33597586557E+03 -0.11465360900E+03  0.36880044248E+02  0.35691088547E+03  0.10100000352E+00 0.  1.
</event>
<event>
 5   0  0.2690809E-03  0.7814225E+03  0.7818609E-02  0.9587303E-01
       -2   -1    0    0    0  501  0.00000000000E+00  0.00000000000E+00  0.21946201265E+03  0.21946201267E+03  0.25500000920E-02 0.  1.
        2   -1    0    0  501    0  0.00000000000E+00  0.00000000000E+00 -0.69558865495E+03  0.69558865495E+03  0.25500000920E-02 0. -1.
    10030    2    1    2    0    0  0.00000000000E+00  0.00000000000E+00 -0.47612664229E+03  0.91505066762E+03  0.78142251363E+03 0.  0.
        5    1    3    3  502    0 -0.82195390868E+02  0.74040247594E+02  0.20070502002E+03  0.22922180438E+03  0.46999998093E+01 0.  1.
       -5    1    3    3    0  502  0.82195390868E+02 -0.74040247594E+02 -0.67683166232E+03  0.68582886324E+03  0.46999998093E+01 0. -1.
</event>
<event>
 5   0  0.1640035E-03  0.7993243E+03  0.7818609E-02  0.9560996E-01
       -1   -1    0    0    0  501  0.00000000000E+00  0.00000000000E+00  0.16300826137E+03  0.16300826145E+03  0.50400001928E-02 0.  1.
        1   -1    0    0  501    0  0.00000000000E+00  0.00000000000E+00 -0.97988784886E+03  0.97988784888E+03  0.50400001928E-02 0. -1.
    10030    2    1    2    0    0  0.00000000000E+00  0.00000000000E+00 -0.81687958749E+03  0.11428961103E+04  0.79932425119E+03 0.  0.
        5    1    3    3  502    0 -0.32076837019E+03  0.86587390599E+02 -0.90908525358E+02  0.34449408341E+03  0.46999998093E+01 0.  1.
       -5    1    3    3    0  502  0.32076837019E+03 -0.86587390599E+02 -0.72597106213E+03  0.79840202691E+03  0.46999998093E+01 0. -1.
</event>
<event>
 5   0  0.2690809E-03  0.8007056E+03  0.7818609E-02  0.9558996E-01
        2   -1    0    0  501    0  0.00000000000E+00  0.00000000000E+00  0.40986458428E+03  0.40986458429E+03  0.25500000920E-02 0.  1.
       -2   -1    0    0    0  501  0.00000000000E+00  0.00000000000E+00 -0.39106175227E+03  0.39106175228E+03  0.25500000920E-02 0. -1.
    10030    2    1    2    0    0  0.00000000000E+00  0.00000000000E+00  0.18802832012E+02  0.80092633656E+03  0.80070559515E+03 0.  0.
        5    1    3    3  502    0  0.38668201408E+03  0.38725241036E+02 -0.86737765726E+02  0.39820617060E+03  0.46999998093E+01 0. -1.
       -5    1    3    3    0  502 -0.38668201408E+03 -0.38725241036E+02  0.10554059774E+03  0.40272016596E+03  0.46999998093E+01 0.  1.
</event>
<event>
 5   0  0.2873212E-03  0.8073103E+03  0.7818609E-02  0.9549496E-01
        2   -1    0    0  501    0  0.00000000000E+00  0.00000000000E+00  0.21755752537E+04  0.21755752537E+04  0.25500000920E-02 0.  1.
       -2   -1    0    0    0  501  0.00000000000E+00  0.00000000000E+00 -0.74893975508E+02  0.74893975552E+02  0.25500000920E-02 0. -1.
    10030    2    1    2    0    0  0.00000000000E+00  0.00000000000E+00  0.21006812782E+04  0.22504692293E+04  0.80731029925E+03 0.  0.
        2    1    3    3  502    0 -0.59606903642E+02 -0.23300515745E+03  0.19540310502E+04  0.19687767094E+04  0.25500000920E-02 0.  1.
       -2    1    3    3    0  502  0.59606903642E+02  0.23300515745E+03  0.14665022800E+03  0.28169251985E+03  0.25500000920E-02 0. -1.
</event>
<event>
 5   0  0.1617491E-03  0.7997425E+03  0.7818609E-02  0.9560390E-01
       -1   -1    0    0    0  501  0.00000000000E+00  0.00000000000E+00  0.94343404137E+02  0.94343404272E+02  0.50400001928E-02 0.  1.
        1   -1    0    0  501    0  0.00000000000E+00  0.00000000000E+00 -0.16948405403E+04  0.16948405403E+04  0.50400001928E-02 0. -1.
    10030    2    1    2    0    0  0.00000000000E+00  0.00000000000E+00 -0.16004971361E+04  0.17891839445E+04  0.79974252398E+03 0.  0.
        1    1    3    3  502    0  0.88882528231E+00 -0.44992238947E+02 -0.16891574973E+04  0.16897568293E+04  0.50400001928E-02 0. -1.
       -1    1    3    3    0  502 -0.88882528231E+00  0.44992238947E+02  0.88660361157E+02  0.99427115224E+02  0.50400001928E-02 0.  1.
</event>
<event>
 5   0  0.1617491E-03  0.7984429E+03  0.7818609E-02  0.9562274E-01
        1   -1    0    0  501    0  0.00000000000E+00  0.00000000000E+00  0.11743290702E+04  0.11743290702E+04  0.50400001928E-02 0. -1.
       -1   -1    0    0    0  501  0.00000000000E+00  0.00000000000E+00 -0.13571813966E+03  0.13571813976E+03  0.50400001928E-02 0.  1.
    10030    2    1    2    0    0  0.00000000000E+00  0.00000000000E+00  0.10386109305E+04  0.13100472100E+04  0.79844287667E+03 0.  0.
        1    1    3    3  502    0  0.15071640067E+03 -0.36556105392E+03  0.60958323321E+03  0.72659619859E+03  0.50400001928E-02 0. -1.
       -1    1    3    3    0  502 -0.15071640067E+03  0.36556105392E+03  0.42902769733E+03  0.58345101138E+03  0.50400001928E-02 0.  1.
</event>
<event>
 5   0  0.2768834E-03  0.7958644E+03  0.7818609E-02  0.9566023E-01
        2   -1    0    0  501    0  0.00000000000E+00  0.00000000000E+00  0.13376926624E+04  0.13376926624E+04  0.25500000920E-02 0.  1.
       -2   -1    0    0    0  501  0.00000000000E+00  0.00000000000E+00 -0.11837550877E+03  0.11837550880E+03  0.25500000920E-02 0. -1.
    10030    2    1    2    0    0  0.00000000000E+00  0.00000000000E+00  0.12193171536E+04  0.14560681712E+04  0.79586443447E+03 0.  0.
        4    1    3    3  502    0  0.58987040175E+02  0.16257295830E+03  0.12653372639E+04  0.12771019701E+04  0.12699999809E+01 0.  1.
       -4    1    3    3    0  502 -0.58987040175E+02 -0.16257295830E+03 -0.46020110303E+02  0.17896620109E+03  0.12699999809E+01 0. -1.
</event>
<event>
 5   0  0.2768834E-03  0.7994885E+03  0.7818609E-02  0.9560758E-01
       -2   -1    0    0    0  501  0.00000000000E+00  0.00000000000E+00  0.76292611224E+03  0.76292611224E+03  0.25500000920E-02 0. -1.
        2   -1    0    0  501    0  0.00000000000E+00  0.00000000000E+00 -0.20945076676E+03  0.20945076678E+03  0.25500000920E-02 0.  1.
    10030    2    1    2    0    0  0.00000000000E+00  0.00000000000E+00  0.55347534548E+03  0.97237687902E+03  0.79948848447E+03 0.  0.
        4    1    3    3  502    0  0.10987759189E+03  0.25642790064E+03  0.62494502624E+03  0.68438750145E+03  0.12699999809E+01 0. -1.
       -4    1    3    3    0  502 -0.10987759189E+03 -0.25642790064E+03 -0.71469680758E+02  0.28798937757E+03  0.12699999809E+01 0.  1.
</event>
<event>
 5   0  0.2910501E-03  0.7994159E+03  0.7818609E-02  0.9560863E-01
       -2   -1    0    0    0  501  0.00000000000E+00  0.00000000000E+00  0.14057598938E+03  0.14057598940E+03  0.25500000920E-02 0.  1.
        2   -1    0    0  501    0  0.00000000000E+00  0.00000000000E+00 -0.11365130749E+04  0.11365130749E+04  0.25500000920E-02 0. -1.
    10030    2    1    2    0    0  0.00000000000E+00  0.00000000000E+00 -0.99593708555E+03  0.12770890643E+04  0.79941591169E+03 0.  0.
        1    1    3    3  502    0 -0.31642656586E+03 -0.49807577937E+02 -0.87990759442E+03  0.93639945597E+03  0.50400001928E-02 0. -1.
       -1    1    3    3    0  502  0.31642656586E+03  0.49807577937E+02 -0.11602949113E+03  0.34068960836E+03  0.50400001928E-02 0.  1.
</event>
<event>
 5   0  0.2690809E-03  0.8000439E+03  0.7818609E-02  0.9559954E-01
       -2   -1    0    0    0  501  0.00000000000E+00  0.00000000000E+00  0.83489882385E+02  0.83489882424E+02  0.25500000920E-02 0.  1.
        2   -1    0    0  501    0  0.00000000000E+00  0.00000000000E+00 -0.19166102287E+04  0.19166102287E+04  0.25500000920E-02 0. -1.
    10030    2    1    2    0    0  0.00000000000E+00  0.00000000000E+00 -0.18331203463E+04  0.20001001111E+04  0.80004390532E+03 0.  0.
        5    1    3    3  502    0 -0.38724364457E+02  0.19175892011E+02  0.77568387384E+02  0.88917017249E+02  0.46999998093E+01 0.  1.
       -5    1    3    3    0  502  0.38724364457E+02 -0.19175892011E+02 -0.19106887337E+04  0.19111830938E+04  0.46999998093E+01 0. -1.
</event>
<event>
 5   0  0.1656051E-03  0.8031817E+03  0.7818609E-02  0.9555423E-01
        1   -1    0    0  501    0  0.00000000000E+00  0.00000000000E+00  0.79104700253E+03  0.79104700255E+03  0.50400001928E-02 0.  1.
       -1   -1    0    0    0  501  0.00000000000E+00  0.00000000000E+00 -0.20387563118E+03  0.20387563124E+03  0.50400001928E-02 0. -1.
    10030    2    1    2    0    0  0.00000000000E+00  0.00000000000E+00  0.58717137135E+03  0.99492263379E+03  0.80318169047E+03 0.  0.
        3    1    3    3  502    0 -0.11887599250E+03  0.38094316264E+03  0.34934217846E+03  0.53036700747E+03  0.10100000352E+00 0.  1.
       -3    1    3    3    0  502  0.11887599250E+03 -0.38094316264E+03  0.23782919289E+03  0.46455562632E+03  0.10100000352E+00 0. -1.
</event>
<event>
 5   0  0.1617491E-03  0.8009133E+03  0.7818609E-02  0.9558696E-01
       -1   -1    0    0    0  501  0.00000000000E+00  0.00000000000E+00  0.24274555377E+03  0.24274555382E+03  0.50400001928E-02 0.  1.
        1   -1    0    0  501    0  0.00000000000E+00  0.00000000000E+00 -0.66063216930E+03  0.66063216932E+03  0.50400001928E-02 0. -1.
    10030    2    1    2    0    0  0.00000000000E+00  0.00000000000E+00 -0.41788661554E+03  0.90337772314E+03  0.80091328321E+03 0.  0.
        1    1    3    3  502    0 -0.13939296525E+03  0.12407930873E+03  0.19070132795E+03  0.26682029557E+03  0.50400001928E-02 0.  1.
       -1    1    3    3    0  502  0.13939296525E+03 -0.12407930873E+03 -0.60858794349E+03  0.63655742758E+03  0.50400001928E-02 0. -1.
</event>
<event>
 5   0  0.2873212E-03  0.7997588E+03  0.7818609E-02  0.9560366E-01
       -2   -1    0    0    0  501  0.00000000000E+00  0.00000000000E+00  0.25319751967E+03  0.25319751969E+03  0.25500000920E-02 0. -1.
        2   -1    0    0  501    0  0.00000000000E+00  0.00000000000E+00 -0.63153680966E+03  0.63153680966E+03  0.25500000920E-02 0.  1.
    10030    2    1    2    0    0  0.00000000000E+00  0.00000000000E+00 -0.37833928998E+03  0.88473432935E+03  0.79975884814E+03 0.  0.
        2    1    3    3  502    0  0.14738729484E+03  0.22505094262E+03  0.13812490252E+03  0.30240606832E+03  0.25500000920E-02 0. -1.
       -2    1    3    3    0  502 -0.14738729484E+03 -0.22505094262E+03 -0.51646419250E+03  0.58232826103E+03  0.25500000920E-02 0.  1.
</event>
<event>
 5   0  0.1640035E-03  0.7911337E+03  0.7818609E-02  0.9572940E-01
       -1   -1    0    0    0  501  0.00000000000E+00  0.00000000000E+00  0.22604720214E+03  0.22604720219E+03  0.50400001928E-02 0. -1.
        1   -1    0    0  501    0  0.00000000000E+00  0.00000000000E+00 -0.69221439289E+03  0.69221439291E+03  0.50400001928E-02 0.  1.
    10030    2    1    2    0    0  0.00000000000E+00  0.00000000000E+00 -0.46616719076E+03  0.91826159511E+03  0.79113368485E+03 0.  0.
        5    1    3    3  502    0  0.18169470463E+03 -0.34135968958E+03 -0.32957905839E+03  0.50811794800E+03  0.46999998093E+01 0.  1.
       -5    1    3    3    0  502 -0.18169470463E+03  0.34135968958E+03 -0.13658813237E+03  0.41014364710E+03  0.46999998093E+01 0. -1.
</event>
<event>
 5   0  0.1617491E-03  0.8036904E+03  0.7818609E-02  0.9554691E-01
        1   -1    0    0  501    0  0.00000000000E+00  0.00000000000E+00  0.14233516157E+03  0.14233516166E+03  0.50400001928E-02 0.  1.
       -1   -1    0    0    0  501  0.00000000000E+00  0.00000000000E+00 -0.11345023027E+04  0.11345023028E+04  0.50400001928E-02 0. -1.
    10030    2    1    2    0    0  0.00000000000E+00  0.00000000000E+00 -0.99216714117E+03  0.12768374644E+04  0.80369040961E+03 0.  0.
        1    1    3    3  502    0 -0.56708022021E+02  0.23839728978E+03 -0.10020609677E+04  0.10315887022E+04  0.50400001928E-02 0. -1.
       -1    1    3    3    0  502  0.56708022021E+02 -0.23839728978E+03  0.98938265149E+01  0.24524876220E+03  0.50400001928E-02 0.  1.
</event>
<event>
 5   0  0.1637228E-03  0.7993179E+03  0.7818609E-02  0.9561005E-01
       -1   -1    0    0    0  501  0.00000000000E+00  0.00000000000E+00  0.41920522139E+03  0.41920522142E+03  0.50400001928E-02 0. -1.
        1   -1    0    0  501    0  0.00000000000E+00  0.00000000000E+00 -0.38102410724E+03  0.38102410728E+03  0.50400001928E-02 0.  1.
    10030    2    1    2    0    0  0.00000000000E+00  0.00000000000E+00  0.38181114148E+02  0.80022932870E+03  0.79931794739E+03 0.  0.
        2    1    3    3  502    0 -0.48997423053E+02  0.19407461681E+03  0.36540634136E+03  0.41663833077E+03  0.25500000920E-02 0. -1.
       -2    1    3    3    0  502  0.48997423053E+02 -0.19407461681E+03 -0.32722522721E+03  0.38359099792E+03  0.25500000920E-02 0.  1.
</event>
<event>
 5   0  0.2873212E-03  0.8009378E+03  0.7818609E-02  0.9558661E-01
        2   -1    0    0  501    0  0.00000000000E+00  0.00000000000E+00  0.15298280821E+04  0.15298280822E+04  0.25500000920E-02 0. -1.
       -2   -1    0    0    0  501  0.00000000000E+00  0.00000000000E+00 -0.10483226123E+03  0.10483226126E+03  0.25500000920E-02 0.  1.
    10030    2    1    2    0    0  0.00000000000E+00  0.00000000000E+00  0.14249958209E+04  0.16346603434E+04  0.80093779327E+03 0.  0.
        2    1    3    3  502    0 -0.28478369531E+03 -0.28154852207E+03  0.71658679649E+03  0.82089460975E+03  0.25500000920E-02 0. -1.
       -2    1    3    3    0  502  0.28478369531E+03  0.28154852207E+03  0.70840902442E+03  0.81376573367E+03  0.25500000920E-02 0.  1.
</event>
<event>
 5   0  0.2763587E-03  0.8087057E+03  0.7818609E-02  0.9547501E-01
       -2   -1    0    0    0  501  0.00000000000E+00  0.00000000000E+00  0.53213537265E+03  0.53213537265E+03  0.25500000920E-02 0. -1.
        2   -1    0    0  501    0  0.00000000000E+00  0.00000000000E+00 -0.30725495536E+03  0.30725495537E+03  0.25500000920E-02 0.  1.
    10030    2    1    2    0    0  0.00000000000E+00  0.00000000000E+00  0.22488041729E+03  0.83939032802E+03  0.80870570710E+03 0.  0.
        3    1    3    3  502    0 -0.83308817249E+02 -0.25306723033E+03  0.42814864709E+03  0.50427636898E+03  0.10100000352E+00 0. -1.
       -3    1    3    3    0  502  0.83308817249E+02  0.25306723033E+03 -0.20326822980E+03  0.33511395905E+03  0.10100000352E+00 0.  1.
</event>
<event>
 5   0  0.1640035E-03  0.7966625E+03  0.7818609E-02  0.9564861E-01
       -1   -1    0    0    0  501  0.00000000000E+00  0.00000000000E+00  0.60399724770E+03  0.60399724772E+03  0.50400001928E-02 0. -1.
        1   -1    0    0  501    0  0.00000000000E+00  0.00000000000E+00 -0.26269619597E+03  0.26269619602E+03  0.50400001928E-02 0.  1.
    10030    2    1    2    0    0  0.00000000000E+00  0.00000000000E+00  0.34130105173E+03  0.86669344374E+03  0.79666248657E+03 0.  0.
        5    1    3    3  502    0  0.37805801985E+02 -0.38979810479E+03  0.24965559496E+03  0.46445866043E+03  0.46999998093E+01 0. -1.
       -5    1    3    3    0  502 -0.37805801985E+02  0.38979810479E+03  0.91645456766E+02  0.40223478331E+03  0.46999998093E+01 0.  1.
</event>
<event>
 5   0  0.1617491E-03  0.8035289E+03  0.7818609E-02  0.9554923E-01
        1   -1    0    0  501    0  0.00000000000E+00  0.00000000000E+00  0.53172244099E+03  0.53172244101E+03  0.50400001928E-02 0. -1.
       -1   -1    0    0    0  501  0.00000000000E+00  0.00000000000E+00 -0.30356939327E+03  0.30356939331E+03  0.50400001928E-02 0.  1.
    10030    2    1    2    0    0  0.00000000000E+00  0.00000000000E+00  0.22815304771E+03  0.83529183432E+03  0.80352886401E+03 0.  0.
        1    1    3    3  502    0  0.15004352060E+03 -0.27161369468E+03  0.37936555668E+03  0.49010741969E+03  0.50400001928E-02 0. -1.
       -1    1    3    3    0  502 -0.15004352060E+03  0.27161369468E+03 -0.15121250897E+03  0.34518441463E+03  0.50400001928E-02 0.  1.
</event>
<event>
 5   0  0.1656051E-03  0.8036990E+03  0.7818609E-02  0.9554678E-01
       -1   -1    0    0    0  501  0.00000000000E+00  0.00000000000E+00  0.28112863060E+03  0.28112863064E+03  0.50400001928E-02 0. -1.
        1   -1    0    0  501    0  0.00000000000E+00  0.00000000000E+00 -0.57440980050E+03  0.57440980052E+03  0.50400001928E-02 0.  1.
    10030    2    1    2    0    0  0.00000000000E+00  0.00000000000E+00 -0.29328116990E+03  0.85553843116E+03  0.80369904975E+03 0.  0.
        3    1    3    3  502    0 -0.32008713930E+03 -0.10537350250E+02 -0.40502332426E+03  0.51634360255E+03  0.10100000352E+00 0.  1.
       -3    1    3    3    0  502  0.32008713930E+03  0.10537350250E+02  0.11174215436E+03  0.33919482861E+03  0.10100000352E+00 0. -1.
</event>
<event>
 5   0  0.2690809E-03  0.8040943E+03  0.7818609E-02  0.9554110E-01
       -2   -1    0    0    0  501  0.00000000000E+00  0.00000000000E+00  0.18738590763E+03  0.18738590764E+03  0.25500000920E-02 0. -1.
        2   -1    0    0  501    0  0.00000000000E+00  0.00000000000E+00 -0.86261517135E+03  0.86261517135E+03  0.25500000920E-02 0.  1.
    10030    2    1    2    0    0  0.00000000000E+00  0.00000000000E+00 -0.67522926372E+03  0.10500010790E+04  0.80409433981E+03 0.  0.
        5    1    3    3  502    0 -0.15684465062E+03  0.36243978923E+03 -0.43582910848E+03  0.58815979720E+03  0.46999998093E+01 0.  1.
       -5    1    3    3    0  502  0.15684465062E+03 -0.36243978923E+03 -0.23940015524E+03  0.46184128180E+03  0.46999998093E+01 0. -1.
</event>
<event>
 5   0  0.1640035E-03  0.7990061E+03  0.7818609E-02  0.9561457E-01
        1   -1    0    0  501    0  0.00000000000E+00  0.00000000000E+00  0.96699152819E+03  0.96699152821E+03  0.50400001928E-02 0.  1.
       -1   -1    0    0    0  501  0.00000000000E+00  0.00000000000E+00 -0.16505077769E+03  0.16505077777E+03  0.50400001928E-02 0. -1.
    10030    2    1    2    0    0  0.00000000000E+00  0.00000000000E+00  0.80194075050E+03  0.11320423060E+04  0.79900614216E+03 0.  0.
        5    1    3    3  502    0 -0.18499355606E+02  0.12769110247E+03  0.93661821303E+03  0.94547501860E+03  0.46999998093E+01 0.  1.
       -5    1    3    3    0  502  0.18499355606E+02 -0.12769110247E+03 -0.13467746253E+03  0.18656728738E+03  0.46999998093E+01 0. -1.
</event>
<event>
 5   0  0.2873212E-03  0.7999523E+03  0.7818609E-02  0.9560086E-01
        2   -1    0    0  501    0  0.00000000000E+00  0.00000000000E+00  0.13396396648E+04  0.13396396648E+04  0.25500000920E-02 0. -1.
       -2   -1    0    0    0  501  0.00000000000E+00  0.00000000000E+00 -0.11942085711E+03  0.11942085714E+03  0.25500000920E-02 0.  1.
    10030    2    1    2    0    0  0.00000000000E+00  0.00000000000E+00  0.12202188077E+04  0.14590605219E+04  0.79995229111E+03 0.  0.
        2    1    3    3  502    0  0.61664812429E+02  0.19620458754E+03  0.12358069852E+04  0.12528039328E+04  0.25500000920E-02 0. -1.
       -2    1    3    3    0  502 -0.61664812429E+02 -0.19620458754E+03 -0.15588177583E+02  0.20625658911E+03  0.25500000920E-02 0.  1.
</event>
<event>
 5   0  0.2873212E-03  0.7985259E+03  0.7818609E-02  0.9562153E-01
        2   -1    0    0  501    0  0.00000000000E+00  0.00000000000E+00  0.53573337298E+03  0.53573337299E+03  0.25500000920E-02 0.  1.
       -2   -1    0    0    0  501  0.00000000000E+00  0.00000000000E+00 -0.29755642588E+03  0.29755642589E+03  0.25500000920E-02 0. -1.
    10030    2    1    2    0    0  0.00000000000E+00  0.00000000000E+00  0.23817694710E+03  0.83328979888E+03  0.79852591115E+03 0.  0.
        2    1    3    3  502    0  0.10939250932E+03  0.44154572528E+02  0.51713187649E+03  0.53041655805E+03  0.25500000920E-02 0.  1.
       -2    1    3    3    0  502 -0.10939250932E+03 -0.44154572528E+02 -0.27895492939E+03  0.30287324082E+03  0.25500000920E-02 0. -1.
</event>
<event>
 5   0  0.2690809E-03  0.8005755E+03  0.7818609E-02  0.9559185E-01
        2   -1    0    0  501    0  0.00000000000E+00  0.00000000000E+00  0.96228784602E+03  0.96228784603E+03  0.25500000920E-02 0.  1.
       -2   -1    0    0    0  501  0.00000000000E+00  0.00000000000E+00 -0.16650970255E+03  0.16650970257E+03  0.25500000920E-02 0. -1.
    10030    2    1    2    0    0  0.00000000000E+00  0.00000000000E+00  0.79577814347E+03  0.11287975486E+04  0.80057545060E+03 0.  0.
        5    1    3    3  502    0  0.36167619963E+03  0.16477877350E+02  0.63852557715E+03  0.73404236696E+03  0.46999998093E+01 0.  1.
       -5    1    3    3    0  502 -0.36167619963E+03 -0.16477877350E+02  0.15725256632E+03  0.39475518164E+03  0.46999998093E+01 0. -1.
</event>
<event>
 5   0  0.2910501E-03  0.8005343E+03  0.7818609E-02  0.9559244E-01
       -2   -1    0    0    0  501  0.00000000000E+00  0.00000000000E+00  0.42986544059E+03  0.42986544060E+03  0.25500000920E-02 0.  1.
        2   -1    0    0  501    0  0.00000000000E+00  0.00000000000E+00 -0.37270682713E+03  0.37270682714E+03  0.25500000920E-02 0. -1.
    10030    2    1    2    0    0  0.00000000000E+00  0.00000000000E+00  0.57158613457E+02  0.80257226774E+03  0.80053428274E+03 0.  0.
        1    1    3    3  502    0 -0.12502867830E+03  0.29780119310E+03  0.26560467239E+03  0.41816690810E+03  0.50400001928E-02 0.  1.
       -1    1    3    3    0  502  0.12502867830E+03 -0.29780119310E+03 -0.20844605894E+03  0.38440535964E+03  0.50400001928E-02 0. -1.
</event>
<event>
 5   0  0.2873212E-03  0.7999015E+03  0.7818609E-02  0.9560160E-01
        2   -1    0    0  501    0  0.00000000000E+00  0.00000000000E+00  0.11466779362E+04  0.11466779362E+04  0.25500000920E-02 0.  1.
       -2   -1    0    0    0  501  0.00000000000E+00  0.00000000000E+00 -0.13949914018E+03  0.13949914020E+03  0.25500000920E-02 0. -1.
    10030    2    1    2    0    0  0.00000000000E+00  0.00000000000E+00  0.10071787960E+04  0.12861770764E+04  0.79990145936E+03 0.  0.
        2    1    3    3  502    0 -0.36541567989E+03 -0.86230630328E+02  0.28197490333E+03  0.46954678875E+03  0.25500000920E-02 0. -1.
       -2    1    3    3    0  502  0.36541567989E+03  0.86230630328E+02  0.72520389265E+03  0.81663028761E+03  0.25500000920E-02 0.  1.
</event>
<event>
 5   0  0.2910501E-03  0.8007265E+03  0.7818609E-02  0.9558966E-01
        2   -1    0    0  501    0  0.00000000000E+00  0.00000000000E+00  0.84286499478E+03  0.84286499479E+03  0.25500000920E-02 0.  1.
       -2   -1    0    0    0  501  0.00000000000E+00  0.00000000000E+00 -0.19017365969E+03  0.19017365971E+03  0.25500000920E-02 0. -1.
    10030    2    1    2    0    0  0.00000000000E+00  0.00000000000E+00  0.65269133509E+03  0.10330386545E+04  0.80072647188E+03 0.  0.
        1    1    3    3  502    0  0.16031434049E+03 -0.23347873633E+03 -0.38734478364E+02  0.28585550183E+03  0.50400001928E-02 0. -1.
       -1    1    3    3    0  502 -0.16031434049E+03  0.23347873633E+03  0.69142581345E+03  0.74718315266E+03  0.50400001928E-02 0.  1.
</event>
<event>
 5   0  0.1637228E-03  0.8022342E+03  0.7818609E-02  0.9556789E-01
       -1   -1    0    0    0  501  0.00000000000E+00  0.00000000000E+00  0.15021314221E+03  0.15021314229E+03  0.50400001928E-02 0. -1.
        1   -1    0    0  501    0  0.00000000000E+00  0.00000000000E+00 -0.10711107434E+04  0.10711107434E+04  0.50400001928E-02 0.  1.
    10030    2    1    2    0    0  0.00000000000E+00  0.00000000000E+00 -0.92089760115E+03  0.12213238857E+04  0.80223415652E+03 0.  0.
        2    1    3    3  502    0  0.37378633686E+02  0.15865073002E+03 -0.10184208980E+04  0.10313817634E+04  0.25500000920E-02 0.  1.
       -2    1    3    3    0  502 -0.37378633686E+02 -0.15865073002E+03  0.97523296820E+02  0.18994212229E+03  0.25500000920E-02 0. -1.
</event>
<event>
 5   0  0.1712793E-03  0.7990237E+03  0.7818609E-02  0.9561431E-01
       -1   -1    0    0    0  501  0.00000000000E+00  0.00000000000E+00  0.17261777655E+03  0.17261777663E+03  0.50400001928E-02 0. -1.
        1   -1    0    0  501    0  0.00000000000E+00  0.00000000000E+00 -0.92464250355E+03  0.92464250357E+03  0.50400001928E-02 0.  1.
    10030    2    1    2    0    0  0.00000000000E+00  0.00000000000E+00 -0.75202472700E+03  0.10972602802E+04  0.79902373711E+03 0.  0.
        4    1    3    3  502    0  0.23211641588E+03  0.79801368428E+02  0.56859911539E+02  0.25195426443E+03  0.12699999809E+01 0. -1.
       -4    1    3    3    0  502 -0.23211641588E+03 -0.79801368428E+02 -0.80888463854E+03  0.84530601577E+03  0.12699999809E+01 0.  1.
</event>
<event>
 5   0  0.1712793E-03  0.7959640E+03  0.7818609E-02  0.9565878E-01
       -1   -1    0    0    0  501  0.00000000000E+00  0.00000000000E+00  0.70338756355E+02  0.70338756536E+02  0.50400001928E-02 0. -1.
        1   -1    0    0  501    0  0.00000000000E+00  0.00000000000E+00 -0.22518121521E+04  0.22518121521E+04  0.50400001928E-02 0.  1.
    10030    2    1    2    0    0  0.00000000000E+00  0.00000000000E+00 -0.21814733957E+04  0.23221509086E+04  0.79596398546E+03 0.  0.
        4    1    3    3  502    0 -0.43118480912E+02  0.22342613615E+03 -0.13817041973E+03  0.26621630209E+03  0.12699999809E+01 0. -1.
       -4    1    3    3    0  502  0.43118480912E+02 -0.22342613615E+03 -0.20433029760E+04  0.20559346065E+04  0.12699999809E+01 0.  1.
</event>
<event>
 5   0  0.2768834E-03  0.8059836E+03  0.7818609E-02  0.9551396E-01
        2   -1    0    0  501    0  0.00000000000E+00  0.00000000000E+00  0.22758303008E+04  0.22758303008E+04  0.25500000920E-02 0. -1.
       -2   -1    0    0    0  501  0.00000000000E+00  0.00000000000E+00 -0.71359627641E+02  0.71359627687E+02  0.25500000920E-02 0.  1.
    10030    2    1    2    0    0  0.00000000000E+00  0.00000000000E+00  0.22044706731E+04  0.23471899285E+04  0.80598362984E+03 0.  0.
        4    1    3    3  502    0 -0.39471621405E+03 -0.46906103445E+02  0.12954029986E+04  0.13550172006E+04  0.12699999809E+01 0.  1.
       -4    1    3    3    0  502  0.39471621405E+03  0.46906103445E+02  0.90906767450E+03  0.99217272785E+03  0.12699999809E+01 0. -1.
</event>
<event>
 5   0  0.1640035E-03  0.8010558E+03  0.7818609E-02  0.9558490E-01
        1   -1    0    0  501    0  0.00000000000E+00  0.00000000000E+00  0.28894304768E+03  0.28894304773E+03  0.50400001928E-02 0. -1.
       -1   -1    0    0    0  501  0.00000000000E+00  0.00000000000E+00 -0.55520486944E+03  0.55520486946E+03  0.50400001928E-02 0.  1.
    10030    2    1    2    0    0  0.00000000000E+00  0.00000000000E+00 -0.26626182175E+03  0.84414791718E+03  0.80105577107E+03 0.  0.
        5    1    3    3  502    0 -0.20666792155E+03  0.30009018343E+03 -0.30831052391E+03  0.47732925444E+03  0.46999998093E+01 0.  1.
       -5    1    3    3    0  502  0.20666792155E+03 -0.30009018343E+03  0.42048702158E+02  0.36681866275E+03  0.46999998093E+01 0. -1.
</event>
<event>
 5   0  0.1637228E-03  0.8008974E+03  0.7818609E-02  0.9558719E-01
       -1   -1    0    0    0  501  0.00000000000E+00  0.00000000000E+00  0.67405390241E+03  0.67405390243E+03  0.50400001928E-02 0. -1.
        1   -1    0    0  501    0  0.00000000000E+00  0.00000000000E+00 -0.23790255629E+03  0.23790255635E+03  0.50400001928E-02 0.  1.
    10030    2    1    2    0    0  0.00000000000E+00  0.00000000000E+00  0.43615134612E+03  0.91195645878E+03  0.80089736295E+03 0.  0.
        2    1    3    3  502    0 -0.39226524414E+03 -0.77092402338E+02  0.19152036935E+03  0.44327791750E+03  0.25500000920E-02 0. -1.
       -2    1    3    3    0  502  0.39226524414E+03  0.77092402338E+02  0.24463097677E+03  0.46867854128E+03  0.25500000920E-02 0.  1.
</event>
<event>
 5   0  0.1712793E-03  0.7947945E+03  0.7818609E-02  0.9567583E-01
       -1   -1    0    0    0  501  0.00000000000E+00  0.00000000000E+00  0.71862316378E+02  0.71862316555E+02  0.50400001928E-02 0. -1.
        1   -1    0    0  501    0  0.00000000000E+00  0.00000000000E+00 -0.21975993256E+04  0.21975993256E+04  0.50400001928E-02 0.  1.
    10030    2    1    2    0    0  0.00000000000E+00  0.00000000000E+00 -0.21257370092E+04  0.22694616421E+04  0.79479450983E+03 0.  0.
        4    1    3    3  502    0 -0.17991414155E+02  0.15024347987E+03 -0.21121136406E+04  0.21175274350E+04  0.12699999809E+01 0.  1.
       -4    1    3    3    0  502  0.17991414155E+02 -0.15024347987E+03 -0.13623368583E+02  0.15193420713E+03  0.12699999809E+01 0. -1.
</event>
<event>
 5   0  0.1712793E-03  0.8002891E+03  0.7818609E-02  0.9559599E-01
        1   -1    0    0  501    0  0.00000000000E+00  0.00000000000E+00  0.61610377957E+03  0.61610377960E+03  0.50400001928E-02 0.  1.
       -1   -1    0    0    0  501  0.00000000000E+00  0.00000000000E+00 -0.25988421390E+03  0.25988421395E+03  0.50400001928E-02 0. -1.
    10030    2    1    2    0    0  0.00000000000E+00  0.00000000000E+00  0.35621956568E+03  0.87598799354E+03  0.80028906394E+03 0.  0.
        4    1    3    3  502    0 -0.55276541405E+02 -0.29565946519E+03  0.46697362372E+03  0.55546016377E+03  0.12699999809E+01 0.  1.
       -4    1    3    3    0  502  0.55276541405E+02  0.29565946519E+03 -0.11075405804E+03  0.32052782977E+03  0.12699999809E+01 0. -1.
</event>
<event>
 5   0  0.2763587E-03  0.7991308E+03  0.7818609E-02  0.9561276E-01
       -2   -1    0    0    0  501  0.00000000000E+00  0.00000000000E+00  0.18454173173E+03  0.18454173174E+03  0.25500000920E-02 0.  1.
        2   -1    0    0  501    0  0.00000000000E+00  0.00000000000E+00 -0.86512956510E+03  0.86512956510E+03  0.25500000920E-02 0. -1.
    10030    2    1    2    0    0  0.00000000000E+00  0.00000000000E+00 -0.68058783337E+03  0.10496712968E+04  0.79913079811E+03 0.  0.
        3    1    3    3  502    0  0.95133748904E+02 -0.14349804822E+03 -0.81390784236E+03  0.83191832897E+03  0.10100000352E+00 0. -1.
       -3    1    3    3    0  502 -0.95133748904E+02  0.14349804822E+03  0.13332000898E+03  0.21775296788E+03  0.10100000352E+00 0.  1.
</event>
<event>
 5   0  0.1637228E-03  0.8018175E+03  0.7818609E-02  0.9557390E-01
        1   -1    0    0  501    0  0.00000000000E+00  0.00000000000E+00  0.47726424354E+03  0.47726424357E+03  0.50400001928E-02 0. -1.
       -1   -1    0    0    0  501  0.00000000000E+00  0.00000000000E+00 -0.33676906086E+03  0.33676906089E+03  0.50400001928E-02 0.  1.
    10030    2    1    2    0    0  0.00000000000E+00  0.00000000000E+00  0.14049518268E+03  0.81403330446E+03  0.80181751316E+03 0.  0.
        2    1    3    3  502    0  0.69788647432E+02  0.43729575127E+02 -0.32808842042E+03  0.33826726515E+03  0.25500000920E-02 0.  1.
       -2    1    3    3    0  502 -0.69788647432E+02 -0.43729575127E+02  0.46858360311E+03  0.47576603931E+03  0.25500000920E-02 0. -1.
</event>
<event>
 5   0  0.2763587E-03  0.8047894E+03  0.7818609E-02  0.9553110E-01
       -2   -1    0    0    0  501  0.00000000000E+00  0.00000000000E+00  0.80001178583E+02  0.80001178623E+02  0.25500000920E-02 0. -1.
        2   -1    0    0  501    0  0.00000000000E+00  0.00000000000E+00 -0.20239887168E+04  0.20239887168E+04  0.25500000920E-02 0.  1.
    10030    2    1    2    0    0  0.00000000000E+00  0.00000000000E+00 -0.19439875382E+04  0.21039898954E+04  0.80478937076E+03 0.  0.
        3    1    3    3  502    0  0.17728860811E+03  0.12343765991E+03 -0.84453172170E+02  0.23194925079E+03  0.10100000352E+00 0. -1.
       -3    1    3    3    0  502 -0.17728860811E+03 -0.12343765991E+03 -0.18595343660E+04  0.18720406446E+04  0.10100000352E+00 0.  1.
</event>
<event>
 5   0  0.1640035E-03  0.7992249E+03  0.7818609E-02  0.9561140E-01
        1   -1    0    0  501    0  0.00000000000E+00  0.00000000000E+00  0.38055344756E+03  0.38055344759E+03  0.50400001928E-02 0. -1.
       -1   -1    0    0    0  501  0.00000000000E+00  0.00000000000E+00 -0.41962600598E+03  0.41962600601E+03  0.50400001928E-02 0.  1.
    10030    2    1    2    0    0  0.00000000000E+00  0.00000000000E+00 -0.39072558424E+02  0.80017945360E+03  0.79922493276E+03 0.  0.
        5    1    3    3  502    0  0.28216493000E+03 -0.22090387331E+03 -0.19653107870E+03  0.40873233767E+03  0.46999998093E+01 0.  1.
       -5    1    3    3    0  502 -0.28216493000E+03  0.22090387331E+03  0.15745852027E+03  0.39144711593E+03  0.46999998093E+01 0. -1.
</event>
<event>
 5   0  0.2763587E-03  0.7987097E+03  0.7818609E-02  0.9561887E-01
       -2   -1    0    0    0  501  0.00000000000E+00  0.00000000000E+00  0.41549837587E+03  0.41549837588E+03  0.25500000920E-02 0. -1.
        2   -1    0    0  501    0  0.00000000000E+00  0.00000000000E+00 -0.38383855616E+03  0.38383855617E+03  0.25500000920E-02 0.  1.
    10030    2    1    2    0    0  0.00000000000E+00  0.00000000000E+00  0.31659819708E+02  0.79933693205E+03  0.79870970118E+03 0.  0.
        3    1    3    3  502    0 -0.17733348376E+03  0.22327074464E+03 -0.26400959166E+03  0.38858469420E+03  0.10100000352E+00 0.  1.
       -3    1    3    3    0  502  0.17733348376E+03 -0.22327074464E+03  0.29566941137E+03  0.41075223785E+03  0.10100000352E+00 0. -1.
</event>
<event>
 5   0  0.1617491E-03  0.8004526E+03  0.7818609E-02  0.9559362E-01
        1   -1    0    0  501    0  0.00000000000E+00  0.00000000000E+00  0.73832117714E+03  0.73832117715E+03  0.50400001928E-02 0.  1.
       -1   -1    0    0    0  501  0.00000000000E+00  0.00000000000E+00 -0.21695310751E+03  0.21695310757E+03  0.50400001928E-02 0. -1.
    10030    2    1    2    0    0  0.00000000000E+00  0.00000000000E+00  0.52136806963E+03  0.95527428472E+03  0.80045255639E+03 0.  0.
        1    1    3    3  502    0  0.27640519320E+03  0.14692747314E+03 -0.36938082080E+02  0.31520141993E+03  0.50400001928E-02 0. -1.
       -1    1    3    3    0  502 -0.27640519320E+03 -0.14692747314E+03  0.55830615171E+03  0.64007286480E+03  0.50400001928E-02 0.  1.
</event>
<event>
 5   0  0.1640035E-03  0.8004890E+03  0.7818609E-02  0.9559310E-01
       -1   -1    0    0    0  501  0.00000000000E+00  0.00000000000E+00  0.45270066523E+03  0.45270066525E+03  0.50400001928E-02 0.  1.
        1   -1    0    0  501    0  0.00000000000E+00  0.00000000000E+00 -0.35386662828E+03  0.35386662831E+03  0.50400001928E-02 0. -1.
    10030    2    1    2    0    0  0.00000000000E+00  0.00000000000E+00  0.98834036949E+02  0.80656729357E+03  0.80048899567E+03 0.  0.
        5    1    3    3  502    0  0.16298324195E+01 -0.11602107743E+03  0.43535287629E+03  0.45057492568E+03  0.46999998093E+01 0.  1.
       -5    1    3    3    0  502 -0.16298324195E+01  0.11602107743E+03 -0.33651883934E+03  0.35599236788E+03  0.46999998093E+01 0. -1.
</event>
<event>
 5   0  0.2690809E-03  0.8001145E+03  0.7818609E-02  0.9559851E-01
       -2   -1    0    0    0  501  0.00000000000E+00  0.00000000000E+00  0.60207494921E+03  0.60207494921E+03  0.25500000920E-02 0. -1.
        2   -1    0    0  501    0  0.00000000000E+00  0.00000000000E+00 -0.26582373571E+03  0.26582373572E+03  0.25500000920E-02 0.  1.
    10030    2    1    2    0    0  0.00000000000E+00  0.00000000000E+00  0.33625121350E+03  0.86789868494E+03  0.80011452226E+03 0.  0.
        5    1    3    3  502    0  0.88981009869E+02 -0.11745060613E+03 -0.23528373944E+03  0.27765588962E+03  0.46999998093E+01 0.  1.
       -5    1    3    3    0  502 -0.88981009869E+02  0.11745060613E+03  0.57153495294E+03  0.59024279532E+03  0.46999998093E+01 0. -1.
</event>
<event>
 5   0  0.1617491E-03  0.8006749E+03  0.7818609E-02  0.9559041E-01
        1   -1    0    0  501    0  0.00000000000E+00  0.00000000000E+00  0.15439611032E+04  0.15439611032E+04  0.50400001928E-02 0. -1.
       -1   -1    0    0    0  501  0.00000000000E+00  0.00000000000E+00 -0.10380446711E+03  0.10380446723E+03  0.50400001928E-02 0.  1.
    10030    2    1    2    0    0  0.00000000000E+00  0.00000000000E+00  0.14401566361E+04  0.16477655704E+04  0.80067486450E+03 0.  0.
        1    1    3    3  502    0  0.13550707444E+03 -0.25261446100E+03  0.14497273878E+03  0.32123718363E+03  0.50400001928E-02 0.  1.
       -1    1    3    3    0  502 -0.13550707444E+03  0.25261446100E+03  0.12951838973E+04  0.13265283868E+04  0.50400001928E-02 0. -1.
</event>
<event>
 5   0  0.1637228E-03  0.7958885E+03  0.7818609E-02  0.9565988E-01
       -1   -1    0    0    0  501  0.00000000000E+00  0.00000000000E+00  0.36823389037E+03  0.36823389040E+03  0.50400001928E-02 0.  1.
        1   -1    0    0  501    0  0.00000000000E+00  0.00000000000E+00 -0.43005171857E+03  0.43005171860E+03  0.50400001928E-02 0. -1.
    10030    2    1    2    0    0  0.00000000000E+00  0.00000000000E+00 -0.61817828206E+02  0.79828560901E+03  0.79588847816E+03 0.  0.
        2    1    3    3  502    0  0.34972866188E+03  0.14424419686E+03  0.92925861047E+02  0.38955325814E+03  0.25500000920E-02 0.  1.
       -2    1    3    3    0  502 -0.34972866188E+03 -0.14424419686E+03 -0.15474368925E+03  0.40873235086E+03  0.25500000920E-02 0. -1.
</event>
<event>
 5   0  0.2873212E-03  0.7996824E+03  0.7818609E-02  0.9560477E-01
       -2   -1    0    0    0  501  0.00000000000E+00  0.00000000000E+00  0.57015883735E+03  0.57015883736E+03  0.25500000920E-02 0.  1.
        2   -1    0    0  501    0  0.00000000000E+00  0.00000000000E+00 -0.28040076785E+03  0.28040076786E+03  0.25500000920E-02 0. -1.
    10030    2    1    2    0    0  0.00000000000E+00  0.00000000000E+00  0.28975806950E+03  0.85055960522E+03  0.79968237644E+03 0.  0.
        2    1    3    3  502    0 -0.23664247639E+03  0.28719396720E+03 -0.10689749703E+02  0.37228256364E+03  0.25500000920E-02 0. -1.
       -2    1    3    3    0  502  0.23664247639E+03 -0.28719396720E+03  0.30044781921E+03  0.47827704158E+03  0.25500000920E-02 0.  1.
</event>
<event>
 5   0  0.2873212E-03  0.7977488E+03  0.7818609E-02  0.9563281E-01
       -2   -1    0    0    0  501  0.00000000000E+00  0.00000000000E+00  0.93807081154E+02  0.93807081189E+02  0.25500000920E-02 0. -1.
        2   -1    0    0  501    0  0.00000000000E+00  0.00000000000E+00 -0.16960423407E+04  0.16960423407E+04  0.25500000920E-02 0.  1.
    10030    2    1    2    0    0  0.00000000000E+00  0.00000000000E+00 -0.16022352595E+04  0.17898494218E+04  0.79774878633E+03 0.  0.
        2    1    3    3  502    0  0.30394807735E+02 -0.16394370365E+03 -0.16141010954E+04  0.16226902750E+04  0.25500000920E-02 0.  1.
       -2    1    3    3    0  502 -0.30394807735E+02  0.16394370365E+03  0.11865835931E+02  0.16715914684E+03  0.25500000920E-02 0. -1.
</event>
<event>
 5   0  0.2768834E-03  0.7989757E+03  0.7818609E-02  0.9561501E-01
        2   -1    0    0  501    0  0.00000000000E+00  0.00000000000E+00  0.24681107111E+03  0.24681107112E+03  0.25500000920E-02 0. -1.
       -2   -1    0    0    0  501  0.00000000000E+00  0.00000000000E+00 -0.64661018879E+03  0.64661018879E+03  0.25500000920E-02 0.  1.
    10030    2    1    2    0    0  0.00000000000E+00  0.00000000000E+00 -0.39979911768E+03  0.89342125991E+03  0.79897572752E+03 0.  0.
        4    1    3    3  502    0  0.11761066853E+03 -0.34920197340E+03 -0.27337694532E+02  0.36949052765E+03  0.12699999809E+01 0. -1.
       -4    1    3    3    0  502 -0.11761066853E+03  0.34920197340E+03 -0.37246142315E+03  0.52393073227E+03  0.12699999809E+01 0.  1.
</event>
<event>
 5   0  0.2910501E-03  0.8020624E+03  0.7818609E-02  0.9557037E-01
        2   -1    0    0  501    0  0.00000000000E+00  0.00000000000E+00  0.18584361182E+04  0.18584361182E+04  0.25500000920E-02 0. -1.
       -2   -1    0    0    0  501  0.00000000000E+00  0.00000000000E+00 -0.86538360742E+02  0.86538360779E+02  0.25500000920E-02 0.  1.
    10030    2    1    2    0    0  0.00000000000E+00  0.00000000000E+00  0.17718977574E+04  0.19449744790E+04  0.80206237974E+03 0.  0.
        1    1    3    3  502    0  0.13671278543E+01  0.90951234180E+02 -0.61192347974E+02  0.10962891732E+03  0.50400001928E-02 0.  1.
       -1    1    3    3    0  502 -0.13671278543E+01 -0.90951234180E+02  0.18330901054E+04  0.18353455616E+04  0.50400001928E-02 0. -1.
</event>
<event>
 5   0  0.1095350E-03  0.8010549E+03  0.7818609E-02  0.9558491E-01
        4   -1    0    0  501    0  0.00000000000E+00  0.00000000000E+00  0.52905853095E+03  0.52906005526E+03  0.12699999809E+01 0.  1.
       -4   -1    0    0    0  501  0.00000000000E+00  0.00000000000E+00 -0.30321881833E+03  0.30322147795E+03  0.12699999809E+01 0. -1.
    10030    2    1    2    0    0  0.00000000000E+00  0.00000000000E+00  0.22583971262E+03  0.83228153320E+03  0.80105491367E+03 0.  0.
        4    1    3    3  502    0  0.24390371072E+03  0.24506341625E+03  0.32297807704E+03  0.47314009472E+03  0.12699999809E+01 0.  1.
       -4    1    3    3    0  502 -0.24390371072E+03 -0.24506341625E+03 -0.97138364415E+02  0.35914143848E+03  0.12699999809E+01 0. -1.
</event>
<event>
 5   0  0.2768834E-03  0.8006980E+03  0.7818609E-02  0.9559007E-01
       -2   -1    0    0    0  501  0.00000000000E+00  0.00000000000E+00  0.10837806704E+03  0.10837806707E+03  0.25500000920E-02 0.  1.
        2   -1    0    0  501    0  0.00000000000E+00  0.00000000000E+00 -0.14788906599E+04  0.14788906599E+04  0.25500000920E-02 0. -1.
    10030    2    1    2    0    0  0.00000000000E+00  0.00000000000E+00 -0.13705125928E+04  0.15872687269E+04  0.80069797328E+03 0.  0.
        4    1    3    3  502    0  0.21290574545E+03 -0.13027298055E+03 -0.64750910962E+02  0.25786469180E+03  0.12699999809E+01 0.  1.
       -4    1    3    3    0  502 -0.21290574545E+03  0.13027298055E+03 -0.13057616819E+04  0.13294040351E+04  0.12699999809E+01 0. -1.
</event>
<event>
 5   0  0.2763587E-03  0.8015750E+03  0.7818609E-02  0.9557740E-01
        2   -1    0    0  501    0  0.00000000000E+00  0.00000000000E+00  0.11565499660E+04  0.11565499660E+04  0.25500000920E-02 0.  1.
       -2   -1    0    0    0  501  0.00000000000E+00  0.00000000000E+00 -0.13888775707E+03  0.13888775709E+03  0.25500000920E-02 0. -1.
    10030    2    1    2    0    0  0.00000000000E+00  0.00000000000E+00  0.10176622089E+04  0.12954377231E+04  0.80157502638E+03 0.  0.
        3    1    3    3  502    0  0.66447191386E+02  0.48129640658E+02 -0.12517021289E+03  0.14966390330E+03  0.10100000352E+00 0. -1.
       -3    1    3    3    0  502 -0.66447191386E+02 -0.48129640658E+02  0.11428324218E+04  0.11457738198E+04  0.10100000352E+00 0.  1.
</event>
<event>
 5   0  0.1095350E-03  0.7778570E+03  0.7818609E-02  0.9592633E-01
       -3   -1    0    0    0  501  0.00000000000E+00  0.00000000000E+00  0.53387731078E+03  0.53387732034E+03  0.10100000352E+00 0. -1.
        3   -1    0    0  501    0  0.00000000000E+00  0.00000000000E+00 -0.28333354968E+03  0.28333356768E+03  0.10100000352E+00 0.  1.
    10030    2    1    2    0    0  0.00000000000E+00  0.00000000000E+00  0.25054376110E+03  0.81721088802E+03  0.77785696582E+03 0.  0.
        2    1    3    3  502    0 -0.90789645626E+02  0.27195738084E+03 -0.15081979235E+03  0.32396016193E+03  0.25500000920E-02 0.  1.
       -2    1    3    3    0  502  0.90789645626E+02 -0.27195738084E+03  0.40136355345E+03  0.49325072609E+03  0.25500000920E-02 0. -1.
</event>
<event>
 5   0  0.1095350E-03  0.8001095E+03  0.7818609E-02  0.9559859E-01
        3   -1    0    0  501    0  0.00000000000E+00  0.00000000000E+00  0.13369695674E+04  0.13369695712E+04  0.10100000352E+00 0.  1.
       -3   -1    0    0    0  501  0.00000000000E+00  0.00000000000E+00 -0.11970638068E+03  0.11970642329E+03  0.10100000352E+00 0. -1.
    10030    2    1    2    0    0  0.00000000000E+00  0.00000000000E+00  0.12172631867E+04  0.14566759945E+04  0.80010954703E+03 0.  0.
        2    1    3    3  502    0 -0.51166093900E+02  0.19257036416E+03 -0.22940655448E+02  0.20056816297E+03  0.25500000920E-02 0. -1.
       -2    1    3    3    0  502  0.51166093900E+02 -0.19257036416E+03  0.12402038422E+04  0.12561078316E+04  0.25500000920E-02 0.  1.
</event>
<event>
 5   0  0.1656051E-03  0.7998778E+03  0.7818609E-02  0.9560194E-01
       -1   -1    0    0    0  501  0.00000000000E+00  0.00000000000E+00  0.26865224794E+03  0.26865224799E+03  0.50400001928E-02 0.  1.
        1   -1    0    0  501    0  0.00000000000E+00  0.00000000000E+00 -0.59538349099E+03  0.59538349101E+03  0.50400001928E-02 0. -1.
    10030    2    1    2    0    0  0.00000000000E+00  0.00000000000E+00 -0.32673124305E+03  0.86403573900E+03  0.79987777384E+03 0.  0.
        3    1    3    3  502    0 -0.23293724460E+03  0.78461764486E+02  0.17743171678E+03  0.30314688309E+03  0.10100000352E+00 0.  1.
       -3    1    3    3    0  502  0.23293724460E+03 -0.78461764486E+02 -0.50416295983E+03  0.56088885590E+03  0.10100000352E+00 0. -1.
</event>
<event>
 5   0  0.2690809E-03  0.8002359E+03  0.7818609E-02  0.9559676E-01
       -2   -1    0    0    0  501  0.00000000000E+00  0.00000000000E+00  0.25395777854E+03  0.25395777855E+03  0.25500000920E-02 0.  1.
        2   -1    0    0  501    0  0.00000000000E+00  0.00000000000E+00 -0.63039756746E+03  0.63039756746E+03  0.25500000920E-02 0. -1.
    10030    2    1    2    0    0  0.00000000000E+00  0.00000000000E+00 -0.37643978891E+03  0.88435534601E+03  0.80023587982E+03 0.  0.
        5    1    3    3  502    0 -0.23272470127E+03  0.32502904436E+03 -0.17014151001E+03  0.43448232378E+03  0.46999998093E+01 0. -1.
       -5    1    3    3    0  502  0.23272470127E+03 -0.32502904436E+03 -0.20629827890E+03  0.44987302223E+03  0.46999998093E+01 0.  1.
</event>
<event>
 5   0  0.1712793E-03  0.8006361E+03  0.7818609E-02  0.9559097E-01
        1   -1    0    0  501    0  0.00000000000E+00  0.00000000000E+00  0.64537125747E+03  0.64537125749E+03  0.50400001928E-02 0. -1.
       -1   -1    0    0    0  501  0.00000000000E+00  0.00000000000E+00 -0.24831374868E+03  0.24831374873E+03  0.50400001928E-02 0.  1.
    10030    2    1    2    0    0  0.00000000000E+00  0.00000000000E+00  0.39705750879E+03  0.89368500622E+03  0.80063613774E+03 0.  0.
        4    1    3    3  502    0  0.31837577697E+03  0.22099994912E+03  0.31042281724E+03  0.49655619141E+03  0.12699999809E+01 0. -1.
       -4    1    3    3    0  502 -0.31837577697E+03 -0.22099994912E+03  0.86634691549E+02  0.39712881480E+03  0.12699999809E+01 0.  1.
</event>
<event>
 5   0  0.2910501E-03  0.8009065E+03  0.7818609E-02  0.9558706E-01
       -2   -1    0    0    0  501  0.00000000000E+00  0.00000000000E+00  0.14740600150E+03  0.14740600152E+03  0.25500000920E-02 0.  1.
        2   -1    0    0  501    0  0.00000000000E+00  0.00000000000E+00 -0.10878988504E+04  0.10878988504E+04  0.25500000920E-02 0. -1.
    10030    2    1    2    0    0  0.00000000000E+00  0.00000000000E+00 -0.94049284888E+03  0.12353048519E+04  0.80090653533E+03 0.  0.
        1    1    3    3  502    0  0.30500766196E+01 -0.34629934538E+03 -0.16011506409E+03  0.38153554665E+03  0.50400001928E-02 0.  1.
       -1    1    3    3    0  502 -0.30500766196E+01  0.34629934538E+03 -0.78037778479E+03  0.85376930525E+03  0.50400001928E-02 0. -1.
</event>
<event>
 5   0  0.1095350E-03  0.8015957E+03  0.7818609E-02  0.9557710E-01
       -3   -1    0    0    0  501  0.00000000000E+00  0.00000000000E+00  0.56929213400E+03  0.56929214296E+03  0.10100000352E+00 0.  1.
        3   -1    0    0  501    0  0.00000000000E+00  0.00000000000E+00 -0.28217306238E+03  0.28217308046E+03  0.10100000352E+00 0. -1.
    10030    2    1    2    0    0  0.00000000000E+00  0.00000000000E+00  0.28711907162E+03  0.85146522341E+03  0.80159569946E+03 0.  0.
        1    1    3    3  502    0 -0.24426406805E+03 -0.30897407536E+03  0.22239978831E+03  0.45231800766E+03  0.50400001928E-02 0.  1.
       -1    1    3    3    0  502  0.24426406805E+03  0.30897407536E+03  0.64719283308E+02  0.39914721575E+03  0.50400001928E-02 0. -1.
</event>
<event>
 5   0  0.2873212E-03  0.8027936E+03  0.7818609E-02  0.9555982E-01
        2   -1    0    0  501    0  0.00000000000E+00  0.00000000000E+00  0.16481176219E+04  0.16481176219E+04  0.25500000920E-02 0.  1.
       -2   -1    0    0    0  501  0.00000000000E+00  0.00000000000E+00 -0.97759652900E+02  0.97759652934E+02  0.25500000920E-02 0. -1.
    10030    2    1    2    0    0  0.00000000000E+00  0.00000000000E+00  0.15503579690E+04  0.17458772748E+04  0.80279363896E+03 0.  0.
        2    1    3    3  502    0 -0.83926375731E+02  0.25135385700E+03  0.14308478854E+04  0.14551797378E+04  0.25500000920E-02 0.  1.
       -2    1    3    3    0  502  0.83926375731E+02 -0.25135385700E+03  0.11951008357E+03  0.29069753706E+03  0.25500000920E-02 0. -1.
</event>
<event>
 5   0  0.1640035E-03  0.7963811E+03  0.7818609E-02  0.9565270E-01
       -1   -1    0    0    0  501  0.00000000000E+00  0.00000000000E+00  0.40144260486E+03  0.40144260489E+03  0.50400001928E-02 0.  1.
        1   -1    0    0  501    0  0.00000000000E+00  0.00000000000E+00 -0.39496484832E+03  0.39496484835E+03  0.50400001928E-02 0. -1.
    10030    2    1    2    0    0  0.00000000000E+00  0.00000000000E+00  0.64777565373E+01  0.79640745324E+03  0.79638110867E+03 0.  0.
        5    1    3    3  502    0 -0.45871210337E+02 -0.69724672717E+02  0.39256901793E+03  0.40137042960E+03  0.46999998093E+01 0.  1.
       -5    1    3    3    0  502  0.45871210337E+02  0.69724672717E+02 -0.38609126139E+03  0.39503702364E+03  0.46999998093E+01 0. -1.
</event>
<event>
 5   0  0.2768834E-03  0.7994195E+03  0.7818609E-02  0.9560858E-01
       -2   -1    0    0    0  501  0.00000000000E+00  0.00000000000E+00  0.24805814661E+03  0.24805814662E+03  0.25500000920E-02 0.  1.
        2   -1    0    0  501    0  0.00000000000E+00  0.00000000000E+00 -0.64407425203E+03  0.64407425203E+03  0.25500000920E-02 0. -1.
    10030    2    1    2    0    0  0.00000000000E+00  0.00000000000E+00 -0.39601610542E+03  0.89213239865E+03  0.79941945246E+03 0.  0.
        4    1    3    3  502    0 -0.61188496239E+02 -0.39496102292E+03 -0.20391436182E+03  0.44868800023E+03  0.12699999809E+01 0. -1.
       -4    1    3    3    0  502  0.61188496239E+02  0.39496102292E+03 -0.19210174360E+03  0.44344439842E+03  0.12699999809E+01 0.  1.
</event>
<event>
 5   0  0.2690809E-03  0.7839851E+03  0.7818609E-02  0.9583492E-01
        2   -1    0    0  501    0  0.00000000000E+00  0.00000000000E+00  0.19869627708E+04  0.19869627708E+04  0.25500000920E-02 0.  1.
       -2   -1    0    0    0  501  0.00000000000E+00  0.00000000000E+00 -0.77333181786E+02  0.77333181828E+02  0.25500000920E-02 0. -1.
    10030    2    1    2    0    0  0.00000000000E+00  0.00000000000E+00  0.19096295890E+04  0.20642959526E+04  0.78398508455E+03 0.  0.
        5    1    3    3  502    0  0.19268262549E+02  0.29112453178E+03  0.16440148098E+04  0.16697100179E+04  0.46999998093E+01 0.  1.
       -5    1    3    3    0  502 -0.19268262549E+02 -0.29112453178E+03  0.26561477912E+03  0.39458593466E+03  0.46999998093E+01 0. -1.
</event>
<event>
 5   0  0.1712793E-03  0.8016356E+03  0.7818609E-02  0.9557653E-01
        1   -1    0    0  501    0  0.00000000000E+00  0.00000000000E+00  0.13413433323E+04  0.13413433323E+04  0.50400001928E-02 0.  1.
       -1   -1    0    0    0  501  0.00000000000E+00  0.00000000000E+00 -0.11977165611E+03  0.11977165622E+03  0.50400001928E-02 0. -1.
    10030    2    1    2    0    0  0.00000000000E+00  0.00000000000E+00  0.12215716762E+04  0.14611149885E+04  0.80163560901E+03 0.  0.
        4    1    3    3  502    0  0.24919612583E+03  0.10027732570E+03  0.68564386071E+02  0.27723084085E+03  0.12699999809E+01 0. -1.
       -4    1    3    3    0  502 -0.24919612583E+03 -0.10027732570E+03  0.11530072901E+04  0.11838841477E+04  0.12699999809E+01 0.  1.
</event>
<event>
 5   0  0.2763587E-03  0.7999164E+03  0.7818609E-02  0.9560138E-01
        2   -1    0    0  501    0  0.00000000000E+00  0.00000000000E+00  0.45784225354E+03  0.45784225355E+03  0.25500000920E-02 0.  1.
       -2   -1    0    0    0  501  0.00000000000E+00  0.00000000000E+00 -0.34939229494E+03  0.34939229495E+03  0.25500000920E-02 0. -1.
    10030    2    1    2    0    0  0.00000000000E+00  0.00000000000E+00  0.10844995861E+03  0.80723454850E+03  0.79991638486E+03 0.  0.
        3    1    3    3  502    0  0.48381324582E+02  0.36642953063E+03 -0.99997211841E+02  0.38289790554E+03  0.10100000352E+00 0. -1.
       -3    1    3    3    0  502 -0.48381324582E+02 -0.36642953063E+03  0.20844717045E+03  0.42433664296E+03  0.10100000352E+00 0.  1.
</event>
<event>
 5   0  0.1640035E-03  0.7997631E+03  0.7818609E-02  0.9560360E-01
        1   -1    0    0  501    0  0.00000000000E+00  0.00000000000E+00  0.39616884534E+03  0.39616884537E+03  0.50400001928E-02 0.  1.
       -1   -1    0    0    0  501  0.00000000000E+00  0.00000000000E+00 -0.40362908151E+03  0.40362908155E+03  0.50400001928E-02 0. -1.
    10030    2    1    2    0    0  0.00000000000E+00  0.00000000000E+00 -0.74602361707E+01  0.79979792692E+03  0.79976313292E+03 0.  0.
        5    1    3    3  502    0  0.37382507793E+03 -0.13011845841E+03 -0.60364508296E+02  0.40042722930E+03  0.46999998093E+01 0. -1.
       -5    1    3    3    0  502 -0.37382507793E+03  0.13011845841E+03  0.52904272126E+02  0.39937069762E+03  0.46999998093E+01 0.  1.
</event>
<event>
 5   0  0.1656051E-03  0.7994373E+03  0.7818609E-02  0.9560832E-01
       -1   -1    0    0    0  501  0.00000000000E+00  0.00000000000E+00  0.16926332682E+03  0.16926332690E+03  0.50400001928E-02 0.  1.
        1   -1    0    0  501    0  0.00000000000E+00  0.00000000000E+00 -0.94394332323E+03  0.94394332325E+03  0.50400001928E-02 0. -1.
    10030    2    1    2    0    0  0.00000000000E+00  0.00000000000E+00 -0.77467999641E+03  0.11132066501E+04  0.79943727027E+03 0.  0.
        3    1    3    3  502    0 -0.58963007699E+02  0.19767921355E+03  0.89414292721E+02  0.22483023305E+03  0.10100000352E+00 0.  1.
       -3    1    3    3    0  502  0.58963007699E+02 -0.19767921355E+03 -0.86409428913E+03  0.88837641710E+03  0.10100000352E+00 0. -1.
</event>
<event>
 5   0  0.1656051E-03  0.8003902E+03  0.7818609E-02  0.9559452E-01
        1   -1    0    0  501    0  0.00000000000E+00  0.00000000000E+00  0.31977914014E+03  0.31977914018E+03  0.50400001928E-02 0.  1.
       -1   -1    0    0    0  501  0.00000000000E+00  0.00000000000E+00 -0.50083352937E+03  0.50083352939E+03  0.50400001928E-02 0. -1.
    10030    2    1    2    0    0  0.00000000000E+00  0.00000000000E+00 -0.18105438922E+03  0.82061266957E+03  0.80039019334E+03 0.  0.
        3    1    3    3  502    0 -0.30622929105E+03 -0.16304739342E+03 -0.29505492948E+03  0.45543194092E+03  0.10100000352E+00 0. -1.
       -3    1    3    3    0  502  0.30622929105E+03  0.16304739342E+03  0.11400054025E+03  0.36518072865E+03  0.10100000352E+00 0.  1.
</event>
<event>
 5   0  0.1712793E-03  0.8014149E+03  0.7818609E-02  0.9557971E-01
        1   -1    0    0  501    0  0.00000000000E+00  0.00000000000E+00  0.66643514169E+03  0.66643514171E+03  0.50400001928E-02 0.  1.
       -1   -1    0    0    0  501  0.00000000000E+00  0.00000000000E+00 -0.24093334212E+03  0.24093334217E+03  0.50400001928E-02 0. -1.
    10030    2    1    2    0    0  0.00000000000E+00  0.00000000000E+00  0.42550179957E+03  0.90736848388E+03  0.80141486392E+03 0.  0.
        4    1    3    3  502    0  0.14383036858E+02 -0.15094805509E+03 -0.20719403059E+03  0.25675507064E+03  0.12699999809E+01 0. -1.
       -4    1    3    3    0  502 -0.14383036858E+02  0.15094805509E+03  0.63269583016E+03  0.65061341324E+03  0.12699999809E+01 0.  1.
</event>
<event>
 5   0  0.2763587E-03  0.7987178E+03  0.7818609E-02  0.9561875E-01
        2   -1    0    0  501    0  0.00000000000E+00  0.00000000000E+00  0.51304074770E+03  0.51304074771E+03  0.25500000920E-02 0. -1.
       -2   -1    0    0    0  501  0.00000000000E+00  0.00000000000E+00 -0.31086721598E+03  0.31086721599E+03  0.25500000920E-02 0.  1.
    10030    2    1    2    0    0  0.00000000000E+00  0.00000000000E+00  0.20217353172E+03  0.82390796370E+03  0.79871784487E+03 0.  0.
        3    1    3    3  502    0 -0.25262769042E+03  0.30227545478E+03  0.33473090575E+02  0.39536269238E+03  0.10100000352E+00 0.  1.
       -3    1    3    3    0  502  0.25262769042E+03 -0.30227545478E+03  0.16870044114E+03  0.42854527132E+03  0.10100000352E+00 0. -1.
</event>
<event>
 5   0  0.1640035E-03  0.7968267E+03  0.7818609E-02  0.9564622E-01
       -1   -1    0    0    0  501  0.00000000000E+00  0.00000000000E+00  0.77562549127E+03  0.77562549129E+03  0.50400001928E-02 0. -1.
        1   -1    0    0  501    0  0.00000000000E+00  0.00000000000E+00 -0.20465183456E+03  0.20465183462E+03  0.50400001928E-02 0.  1.
    10030    2    1    2    0    0  0.00000000000E+00  0.00000000000E+00  0.57097365672E+03  0.98027732591E+03  0.79682665557E+03 0.  0.
        5    1    3    3  502    0 -0.30884598038E+03 -0.46647950607E+02 -0.18728127063E+02  0.31294520868E+03  0.46999998093E+01 0.  1.
       -5    1    3    3    0  502  0.30884598038E+03  0.46647950607E+02  0.58970178378E+03  0.66733211723E+03  0.46999998093E+01 0. -1.
</event>
<event>
 5   0  0.2763587E-03  0.7817711E+03  0.7818609E-02  0.9586784E-01
        2   -1    0    0  501    0  0.00000000000E+00  0.00000000000E+00  0.11432482723E+04  0.11432482723E+04  0.25500000920E-02 0. -1.
       -2   -1    0    0    0  501  0.00000000000E+00  0.00000000000E+00 -0.13364683976E+03  0.13364683979E+03  0.25500000920E-02 0.  1.
    10030    2    1    2    0    0  0.00000000000E+00  0.00000000000E+00  0.10096014325E+04  0.12768951121E+04  0.78177111400E+03 0.  0.
        3    1    3    3  502    0 -0.24374935442E+03  0.58258697325E+02  0.99475718052E+03  0.10258409633E+04  0.10100000352E+00 0. -1.
       -3    1    3    3    0  502  0.24374935442E+03 -0.58258697325E+02  0.14844251994E+02  0.25105414876E+03  0.10100000352E+00 0.  1.
</event>
<event>
 5   0  0.2690809E-03  0.8004503E+03  0.7818609E-02  0.9559366E-01
       -2   -1    0    0    0  501  0.00000000000E+00  0.00000000000E+00  0.93900355538E+02  0.93900355573E+02  0.25500000920E-02 0. -1.
        2   -1    0    0  501    0  0.00000000000E+00  0.00000000000E+00 -0.17058524417E+04  0.17058524417E+04  0.25500000920E-02 0.  1.
    10030    2    1    2    0    0  0.00000000000E+00  0.00000000000E+00 -0.16119520861E+04  0.17997527972E+04  0.80045025030E+03 0.  0.
        5    1    3    3  502    0  0.97281064669E+02 -0.26892597124E+03 -0.17652419023E+03  0.33610662488E+03  0.46999998093E+01 0. -1.
       -5    1    3    3    0  502 -0.97281064669E+02  0.26892597124E+03 -0.14354278959E+04  0.14636461724E+04  0.46999998093E+01 0.  1.
</event>
<event>
 5   0  0.1637228E-03  0.7990451E+03  0.7818609E-02  0.9561400E-01
        1   -1    0    0  501    0  0.00000000000E+00  0.00000000000E+00  0.22636776088E+03  0.22636776093E+03  0.50400001928E-02 0.  1.
       -1   -1    0    0    0  501  0.00000000000E+00  0.00000000000E+00 -0.70512814697E+03  0.70512814699E+03  0.50400001928E-02 0. -1.
    10030    2    1    2    0    0  0.00000000000E+00  0.00000000000E+00 -0.47876038610E+03  0.93149590793E+03  0.79904512963E+03 0.  0.
        2    1    3    3  502    0  0.39594192215E+03  0.41147706716E+02 -0.19975904897E+03  0.44538389861E+03  0.25500000920E-02 0. -1.
       -2    1    3    3    0  502 -0.39594192215E+03 -0.41147706716E+02 -0.27900133712E+03  0.48611200932E+03  0.25500000920E-02 0.  1.
</event>
<event>
 5   0  0.1712793E-03  0.8002649E+03  0.7818609E-02  0.9559634E-01
        1   -1    0    0  501    0  0.00000000000E+00  0.00000000000E+00  0.41406620558E+03  0.41406620561E+03  0.50400001928E-02 0. -1.
       -1   -1    0    0    0  501  0.00000000000E+00  0.00000000000E+00 -0.38666762560E+03  0.38666762564E+03  0.50400001928E-02 0.  1.
    10030    2    1    2    0    0  0.00000000000E+00  0.00000000000E+00  0.27398579981E+02  0.80073383125E+03  0.80026494758E+03 0.  0.
        4    1    3    3  502    0  0.12896874953E+02  0.31709334354E+03  0.25754243725E+03  0.40871045715E+03  0.12699999809E+01 0. -1.
       -4    1    3    3    0  502 -0.12896874953E+02 -0.31709334354E+03 -0.23014385727E+03  0.39202337410E+03  0.12699999809E+01 0.  1.
</event>
<event>
 5   0  0.2873212E-03  0.8000647E+03  0.7818609E-02  0.9559923E-01
        2   -1    0    0  501    0  0.00000000000E+00  0.00000000000E+00  0.43273382332E+03  0.43273382333E+03  0.25500000920E-02 0.  1.
       -2   -1    0    0    0  501  0.00000000000E+00  0.00000000000E+00 -0.36980215129E+03  0.36980215130E+03  0.25500000920E-02 0. -1.
    10030    2    1    2    0    0  0.00000000000E+00  0.00000000000E+00  0.62931672030E+02  0.80253597462E+03  0.80006474439E+03 0.  0.
        2    1    3    3  502    0 -0.37875272740E+03 -0.12603984946E+02 -0.97044714218E+02  0.39119070224E+03  0.25500000920E-02 0.  1.
       -2    1    3    3    0  502  0.37875272740E+03  0.12603984946E+02  0.15997638625E+03  0.41134527239E+03  0.25500000920E-02 0. -1.
</event>
<event>
 5   0  0.2763587E-03  0.7999439E+03  0.7818609E-02  0.9560098E-01
        2   -1    0    0  501    0  0.00000000000E+00  0.00000000000E+00  0.62029489956E+03  0.62029489956E+03  0.25500000920E-02 0.  1.
       -2   -1    0    0    0  501  0.00000000000E+00  0.00000000000E+00 -0.25790567066E+03  0.25790567068E+03  0.25500000920E-02 0. -1.
    10030    2    1    2    0    0  0.00000000000E+00  0.00000000000E+00  0.36238922889E+03  0.87820057024E+03  0.79994392825E+03 0.  0.
        3    1    3    3  502    0 -0.25459431960E+03 -0.45273363702E+02 -0.15379507342E+03  0.30086688060E+03  0.10100000352E+00 0. -1.
       -3    1    3    3    0  502  0.25459431960E+03  0.45273363702E+02  0.51618430231E+03  0.57733368964E+03  0.10100000352E+00 0.  1.
</event>
<event>
 5   0  0.1617491E-03  0.7995833E+03  0.7818609E-02  0.9560620E-01
        1   -1    0    0  501    0  0.00000000000E+00  0.00000000000E+00  0.28855689178E+03  0.28855689182E+03  0.50400001928E-02 0.  1.
       -1   -1    0    0    0  501  0.00000000000E+00  0.00000000000E+00 -0.55390590697E+03  0.55390590700E+03  0.50400001928E-02 0. -1.
    10030    2    1    2    0    0  0.00000000000E+00  0.00000000000E+00 -0.26534901520E+03  0.84246279882E+03  0.79958330868E+03 0.  0.
        1    1    3    3  502    0 -0.32833063573E+03 -0.22149443400E+03 -0.19011967656E+03  0.43932480250E+03  0.50400001928E-02 0. -1.
       -1    1    3    3    0  502  0.32833063573E+03  0.22149443400E+03 -0.75229338633E+02  0.40313799631E+03  0.50400001928E-02 0.  1.
</event>
<event>
 5   0  0.2690809E-03  0.7986544E+03  0.7818609E-02  0.9561967E-01
        2   -1    0    0  501    0  0.00000000000E+00  0.00000000000E+00  0.42476190078E+03  0.42476190079E+03  0.25500000920E-02 0.  1.
       -2   -1    0    0    0  501  0.00000000000E+00  0.00000000000E+00 -0.37541554525E+03  0.37541554526E+03  0.25500000920E-02 0. -1.
    10030    2    1    2    0    0  0.00000000000E+00  0.00000000000E+00  0.49346355533E+02  0.80017744605E+03  0.79865441986E+03 0.  0.
        5    1    3    3  502    0 -0.37131969623E+03 -0.75212544791E+02  0.15102825545E+03  0.40788094788E+03  0.46999998093E+01 0.  1.
       -5    1    3    3    0  502  0.37131969623E+03  0.75212544791E+02 -0.10168189992E+03  0.39229649816E+03  0.46999998093E+01 0. -1.
</event>
<event>
 5   0  0.1712793E-03  0.8022764E+03  0.7818609E-02  0.9556728E-01
        1   -1    0    0  501    0  0.00000000000E+00  0.00000000000E+00  0.59611752426E+03  0.59611752428E+03  0.50400001928E-02 0.  1.
       -1   -1    0    0    0  501  0.00000000000E+00  0.00000000000E+00 -0.26993308498E+03  0.26993308502E+03  0.50400001928E-02 0. -1.
    10030    2    1    2    0    0  0.00000000000E+00  0.00000000000E+00  0.32618443928E+03  0.86605060931E+03  0.80227636725E+03 0.  0.
        4    1    3    3  502    0  0.30687641144E+03 -0.11597136033E+03 -0.86099110188E+02  0.33917128120E+03  0.12699999809E+01 0. -1.
       -4    1    3    3    0  502 -0.30687641144E+03  0.11597136033E+03  0.41228354947E+03  0.52687932810E+03  0.12699999809E+01 0.  1.
</event>
<event>
 5   0  0.1640035E-03  0.8021783E+03  0.7818609E-02  0.9556870E-01
       -1   -1    0    0    0  501  0.00000000000E+00  0.00000000000E+00  0.17706153002E+03  0.17706153009E+03  0.50400001928E-02 0.  1.
        1   -1    0    0  501    0  0.00000000000E+00  0.00000000000E+00 -0.90856829791E+03  0.90856829792E+03  0.50400001928E-02 0. -1.
    10030    2    1    2    0    0  0.00000000000E+00  0.00000000000E+00 -0.73150676789E+03  0.10856298280E+04  0.80217826697E+03 0.  0.
        5    1    3    3  502    0  0.18612297595E+03  0.13744361357E+03 -0.80910362211E+03  0.84154813909E+03  0.46999998093E+01 0. -1.
       -5    1    3    3    0  502 -0.18612297595E+03 -0.13744361357E+03  0.77596854217E+02  0.24408168892E+03  0.46999998093E+01 0.  1.
</event>
<event>
 5   0  0.2873212E-03  0.8044662E+03  0.7818609E-02  0.9553575E-01
        2   -1    0    0  501    0  0.00000000000E+00  0.00000000000E+00  0.78754690838E+03  0.78754690838E+03  0.25500000920E-02 0.  1.
       -2   -1    0    0    0  501  0.00000000000E+00  0.00000000000E+00 -0.20543723092E+03  0.20543723093E+03  0.25500000920E-02 0. -1.
    10030    2    1    2    0    0  0.00000000000E+00  0.00000000000E+00  0.58210967746E+03  0.99298413931E+03  0.80446617352E+03 0.  0.
        2    1    3    3  502    0  0.74866978007E+01  0.22667866159E+03 -0.11898400678E+03  0.25611805898E+03  0.25500000920E-02 0. -1.
       -2    1    3    3    0  502 -0.74866978007E+01 -0.22667866159E+03  0.70109368423E+03  0.73686608033E+03  0.25500000920E-02 0.  1.
</event>
<event>
 5   0  0.1617491E-03  0.8009672E+03  0.7818609E-02  0.9558618E-01
        1   -1    0    0  501    0  0.00000000000E+00  0.00000000000E+00  0.61290047226E+03  0.61290047229E+03  0.50400001928E-02 0.  1.
       -1   -1    0    0    0  501  0.00000000000E+00  0.00000000000E+00 -0.26168544400E+03  0.26168544405E+03  0.50400001928E-02 0. -1.
    10030    2    1    2    0    0  0.00000000000E+00  0.00000000000E+00  0.35121502826E+03  0.87458591634E+03  0.80096724588E+03 0.  0.
        1    1    3    3  502    0 -0.10659727213E+03 -0.27955027120E+03  0.46630194305E+03  0.55402963339E+03  0.50400001928E-02 0. -1.
       -1    1    3    3    0  502  0.10659727213E+03  0.27955027120E+03 -0.11508691479E+03  0.32055628295E+03  0.50400001928E-02 0.  1.
</event>
<event>
 5   0  0.1637228E-03  0.7982337E+03  0.7818609E-02  0.9562577E-01
       -1   -1    0    0    0  501  0.00000000000E+00  0.00000000000E+00  0.25429461591E+03  0.25429461596E+03  0.50400001928E-02 0. -1.
        1   -1    0    0  501    0  0.00000000000E+00  0.00000000000E+00 -0.62641612717E+03  0.62641612719E+03  0.50400001928E-02 0.  1.
    10030    2    1    2    0    0  0.00000000000E+00  0.00000000000E+00 -0.37212151125E+03  0.88071074315E+03  0.79823367128E+03 0.  0.
        2    1    3    3  502    0  0.35806674142E+03  0.16732108298E+03 -0.24735350717E+03  0.46625303606E+03  0.25500000920E-02 0. -1.
       -2    1    3    3    0  502 -0.35806674142E+03 -0.16732108298E+03 -0.12476800409E+03  0.41445770709E+03  0.25500000920E-02 0.  1.
</event>
<event>
 5   0  0.2690809E-03  0.7983592E+03  0.7818609E-02  0.9562395E-01
       -2   -1    0    0    0  501  0.00000000000E+00  0.00000000000E+00  0.17294852365E+03  0.17294852367E+03  0.25500000920E-02 0. -1.
        2   -1    0    0  501    0  0.00000000000E+00  0.00000000000E+00 -0.92133978593E+03  0.92133978593E+03  0.25500000920E-02 0.  1.
    10030    2    1    2    0    0  0.00000000000E+00  0.00000000000E+00 -0.74839126228E+03  0.10942883096E+04  0.79835920679E+03 0.  0.
        5    1    3    3  502    0 -0.35156845558E+03 -0.17980081361E+03 -0.29434822387E+03  0.49253596663E+03  0.46999998093E+01 0. -1.
       -5    1    3    3    0  502  0.35156845558E+03  0.17980081361E+03 -0.45404303841E+03  0.60175234296E+03  0.46999998093E+01 0.  1.
</event>
<event>
 5   0  0.2768834E-03  0.7991482E+03  0.7818609E-02  0.9561251E-01
       -2   -1    0    0    0  501  0.00000000000E+00  0.00000000000E+00  0.11642124523E+03  0.11642124526E+03  0.25500000920E-02 0. -1.
        2   -1    0    0  501    0  0.00000000000E+00  0.00000000000E+00 -0.13713944743E+04  0.13713944743E+04  0.25500000920E-02 0.  1.
    10030    2    1    2    0    0  0.00000000000E+00  0.00000000000E+00 -0.12549732291E+04  0.14878157196E+04  0.79914817756E+03 0.  0.
        4    1    3    3  502    0 -0.35951990014E+03 -0.15783651456E+03 -0.76544376454E+03  0.86027477790E+03  0.12699999809E+01 0.  1.
       -4    1    3    3    0  502  0.35951990014E+03  0.15783651456E+03 -0.48952946456E+03  0.62754094169E+03  0.12699999809E+01 0. -1.
</event>
<event>
 5   0  0.1637228E-03  0.8010202E+03  0.7818609E-02  0.9558542E-01
       -1   -1    0    0    0  501  0.00000000000E+00  0.00000000000E+00  0.90286681578E+02  0.90286681718E+02  0.50400001928E-02 0.  1.
        1   -1    0    0  501    0  0.00000000000E+00  0.00000000000E+00 -0.17766555445E+04  0.17766555445E+04  0.50400001928E-02 0. -1.
    10030    2    1    2    0    0  0.00000000000E+00  0.00000000000E+00 -0.16863688629E+04  0.18669422263E+04  0.80102018342E+03 0.  0.
        2    1    3    3  502    0 -0.39482771280E+03  0.31332404398E+02 -0.98181128931E+03  0.10586897800E+04  0.25500000920E-02 0. -1.
       -2    1    3    3    0  502  0.39482771280E+03 -0.31332404398E+02 -0.70455757364E+03  0.80825244630E+03  0.25500000920E-02 0.  1.
</event>
<event>
 5   0  0.1656051E-03  0.8006657E+03  0.7818609E-02  0.9559054E-01
       -1   -1    0    0    0  501  0.00000000000E+00  0.00000000000E+00  0.30404533085E+03  0.30404533089E+03  0.50400001928E-02 0. -1.
        1   -1    0    0  501    0  0.00000000000E+00  0.00000000000E+00 -0.52711342131E+03  0.52711342133E+03  0.50400001928E-02 0.  1.
    10030    2    1    2    0    0  0.00000000000E+00  0.00000000000E+00 -0.22306809046E+03  0.83115875222E+03  0.80066565957E+03 0.  0.
        3    1    3    3  502    0 -0.26576105797E+03  0.12361952782E+03  0.17153327211E+03  0.33960918897E+03  0.10100000352E+00 0. -1.
       -3    1    3    3    0  502  0.26576105797E+03 -0.12361952782E+03 -0.39460136257E+03  0.49154956325E+03  0.10100000352E+00 0.  1.
</event>
<event>
 5   0  0.1637228E-03  0.7906101E+03  0.7818609E-02  0.9573709E-01
       -1   -1    0    0    0  501  0.00000000000E+00  0.00000000000E+00  0.97553533195E+02  0.97553533325E+02  0.50400001928E-02 0. -1.
        1   -1    0    0  501    0  0.00000000000E+00  0.00000000000E+00 -0.16018494118E+04  0.16018494118E+04  0.50400001928E-02 0.  1.
    10030    2    1    2    0    0  0.00000000000E+00  0.00000000000E+00 -0.15042958786E+04  0.16994029452E+04  0.79061006795E+03 0.  0.
        2    1    3    3  502    0  0.11757451715E+03  0.32591381091E+03 -0.11612420059E+04  0.12118277829E+04  0.25500000920E-02 0.  1.
       -2    1    3    3    0  502 -0.11757451715E+03 -0.32591381091E+03 -0.34305387278E+03  0.48757516227E+03  0.25500000920E-02 0. -1.
</event>
<event>
 5   0  0.2763587E-03  0.8005062E+03  0.7818609E-02  0.9559285E-01
        2   -1    0    0  501    0  0.00000000000E+00  0.00000000000E+00  0.11480197793E+04  0.11480197793E+04  0.25500000920E-02 0.  1.
       -2   -1    0    0    0  501  0.00000000000E+00  0.00000000000E+00 -0.13954683531E+03  0.13954683533E+03  0.25500000920E-02 0. -1.
    10030    2    1    2    0    0  0.00000000000E+00  0.00000000000E+00  0.10084729440E+04  0.12875666147E+04  0.80050615761E+03 0.  0.
        3    1    3    3  502    0  0.30514087258E+03 -0.24583782879E+03  0.37301958804E+03  0.54100906966E+03  0.10100000352E+00 0. -1.
       -3    1    3    3    0  502 -0.30514087258E+03  0.24583782879E+03  0.63545335598E+03  0.74655754501E+03  0.10100000352E+00 0.  1.
</event>
<event>
 5   0  0.1640035E-03  0.7997062E+03  0.7818609E-02  0.9560442E-01
       -1   -1    0    0    0  501  0.00000000000E+00  0.00000000000E+00  0.23818886787E+03  0.23818886793E+03  0.50400001928E-02 0. -1.
        1   -1    0    0  501    0  0.00000000000E+00  0.00000000000E+00 -0.67124252353E+03  0.67124252355E+03  0.50400001928E-02 0.  1.
    10030    2    1    2    0    0  0.00000000000E+00  0.00000000000E+00 -0.43305365566E+03  0.90943139148E+03  0.79970618800E+03 0.  0.
        5    1    3    3  502    0 -0.14699491298E+02 -0.19326345847E+03  0.18116007764E+03  0.26534487587E+03  0.46999998093E+01 0. -1.
       -5    1    3    3    0  502  0.14699491298E+02  0.19326345847E+03 -0.61421373330E+03  0.64408651561E+03  0.46999998093E+01 0.  1.
</event>
<event>
 5   0  0.1712793E-03  0.8033275E+03  0.7818609E-02  0.9555213E-01
        1   -1    0    0  501    0  0.00000000000E+00  0.00000000000E+00  0.18569911913E+04  0.18569911913E+04  0.50400001928E-02 0. -1.
       -1   -1    0    0    0  501  0.00000000000E+00  0.00000000000E+00 -0.86879116537E+02  0.86879116683E+02  0.50400001928E-02 0.  1.
    10030    2    1    2    0    0  0.00000000000E+00  0.00000000000E+00  0.17701120748E+04  0.19438703080E+04  0.80332746565E+03 0.  0.
        4    1    3    3  502    0 -0.82492178502E+02 -0.15808820455E+02  0.18354980675E+04  0.18374192899E+04  0.12699999809E+01 0. -1.
       -4    1    3    3    0  502  0.82492178502E+02  0.15808820455E+02 -0.65385992683E+02  0.10645101811E+03  0.12699999809E+01 0.  1.
</event>
<event>
 5   0  0.1617491E-03  0.7999071E+03  0.7818609E-02  0.9560152E-01
       -1   -1    0    0    0  501  0.00000000000E+00  0.00000000000E+00  0.38910276018E+03  0.38910276021E+03  0.50400001928E-02 0.  1.
        1   -1    0    0  501    0  0.00000000000E+00  0.00000000000E+00 -0.41110688460E+03  0.41110688463E+03  0.50400001928E-02 0. -1.
    10030    2    1    2    0    0  0.00000000000E+00  0.00000000000E+00 -0.22004124415E+02  0.80020964484E+03  0.79990705348E+03 0.  0.
        1    1    3    3  502    0  0.18480487918E+03 -0.99380682260E+02  0.32961676888E+03  0.39073850300E+03  0.50400001928E-02 0.  1.
       -1    1    3    3    0  502 -0.18480487918E+03  0.99380682260E+02 -0.35162089329E+03  0.40947114184E+03  0.50400001928E-02 0. -1.
</event>
<event>
 5   0  0.2910501E-03  0.7992822E+03  0.7818609E-02  0.9561057E-01
       -2   -1    0    0    0  501  0.00000000000E+00  0.00000000000E+00  0.17944079972E+03  0.17944079973E+03  0.25500000920E-02 0.  1.
        2   -1    0    0  501    0  0.00000000000E+00  0.00000000000E+00 -0.89005956157E+03  0.89005956158E+03  0.25500000920E-02 0. -1.
    10030    2    1    2    0    0  0.00000000000E+00  0.00000000000E+00 -0.71061876186E+03  0.10695003613E+04  0.79928217680E+03 0.  0.
        1    1    3    3  502    0  0.28448977879E+03  0.86674787265E+02 -0.71251817355E+03  0.77209397138E+03  0.50400001928E-02 0. -1.
       -1    1    3    3    0  502 -0.28448977879E+03 -0.86674787265E+02  0.18994116928E+01  0.29740638993E+03  0.50400001928E-02 0.  1.
</event>
<event>
 5   0  0.1617491E-03  0.7978703E+03  0.7818609E-02  0.9563105E-01
        1   -1    0    0  501    0  0.00000000000E+00  0.00000000000E+00  0.16011166271E+04  0.16011166271E+04  0.50400001928E-02 0.  1.
       -1   -1    0    0    0  501  0.00000000000E+00  0.00000000000E+00 -0.99398920527E+02  0.99398920655E+02  0.50400001928E-02 0. -1.
    10030    2    1    2    0    0  0.00000000000E+00  0.00000000000E+00  0.15017177066E+04  0.17005155478E+04  0.79787032653E+03 0.  0.
        1    1    3    3  502    0  0.33596141285E+03 -0.18585979951E+03  0.51997374725E+03  0.64636416505E+03  0.50400001928E-02 0. -1.
       -1    1    3    3    0  502 -0.33596141285E+03  0.18585979951E+03  0.98174395934E+03  0.10541513827E+04  0.50400001928E-02 0.  1.
</event>
<event>
 5   0  0.2763587E-03  0.8002242E+03  0.7818609E-02  0.9559693E-01
        2   -1    0    0  501    0  0.00000000000E+00  0.00000000000E+00  0.49087859933E+03  0.49087859934E+03  0.25500000920E-02 0.  1.
       -2   -1    0    0    0  501  0.00000000000E+00  0.00000000000E+00 -0.32612888774E+03  0.32612888775E+03  0.25500000920E-02 0. -1.
    10030    2    1    2    0    0  0.00000000000E+00  0.00000000000E+00  0.16474971159E+03  0.81700748709E+03  0.80022419764E+03 0.  0.
        3    1    3    3  502    0  0.31184947676E+03 -0.37354170091E+02  0.33545320031E+03  0.45953703875E+03  0.10100000352E+00 0.  1.
       -3    1    3    3    0  502 -0.31184947676E+03  0.37354170091E+02 -0.17070348872E+03  0.35747044835E+03  0.10100000352E+00 0. -1.
</event>
<event>
 5   0  0.2763587E-03  0.8004148E+03  0.7818609E-02  0.9559417E-01
       -2   -1    0    0    0  501  0.00000000000E+00  0.00000000000E+00  0.69936467209E+02  0.69936467256E+02  0.25500000920E-02 0. -1.
        2   -1    0    0  501    0  0.00000000000E+00  0.00000000000E+00 -0.22901640456E+04  0.22901640456E+04  0.25500000920E-02 0.  1.
    10030    2    1    2    0    0  0.00000000000E+00  0.00000000000E+00 -0.22202275784E+04  0.23601005129E+04  0.80041484927E+03 0.  0.
        3    1    3    3  502    0 -0.13937637417E+03  0.85991048337E+02 -0.33388452622E+02  0.16713776665E+03  0.10100000352E+00 0. -1.
       -3    1    3    3    0  502  0.13937637417E+03 -0.85991048337E+02 -0.21868391258E+04  0.21929627462E+04  0.10100000352E+00 0.  1.
</event>
<event>
 5   0  0.2768834E-03  0.8049982E+03  0.7818609E-02  0.9552810E-01
       -2   -1    0    0    0  501  0.00000000000E+00  0.00000000000E+00  0.19825229364E+03  0.19825229366E+03  0.25500000920E-02 0. -1.
        2   -1    0    0  501    0  0.00000000000E+00  0.00000000000E+00 -0.81716858069E+03  0.81716858069E+03  0.25500000920E-02 0.  1.
    10030    2    1    2    0    0  0.00000000000E+00  0.00000000000E+00 -0.61891628705E+03  0.10154208744E+04  0.80499824950E+03 0.  0.
        4    1    3    3  502    0 -0.32318894900E+03  0.16650748160E+03 -0.52731132423E+03  0.64049565474E+03  0.12699999809E+01 0. -1.
       -4    1    3    3    0  502  0.32318894900E+03 -0.16650748160E+03 -0.91604962822E+02  0.37492521961E+03  0.12699999809E+01 0.  1.
</event>
<event>
 5   0  0.1656051E-03  0.7995192E+03  0.7818609E-02  0.9560713E-01
        1   -1    0    0  501    0  0.00000000000E+00  0.00000000000E+00  0.45443580351E+03  0.45443580354E+03  0.50400001928E-02 0.  1.
       -1   -1    0    0    0  501  0.00000000000E+00  0.00000000000E+00 -0.35166184440E+03  0.35166184443E+03  0.50400001928E-02 0. -1.
    10030    2    1    2    0    0  0.00000000000E+00  0.00000000000E+00  0.10277395911E+03  0.80609764797E+03  0.79951918763E+03 0.  0.
        3    1    3    3  502    0  0.27296725811E+03 -0.28773914667E+03  0.94753619935E+00  0.39661801340E+03  0.10100000352E+00 0. -1.
       -3    1    3    3    0  502 -0.27296725811E+03  0.28773914667E+03  0.10182642291E+03  0.40947963457E+03  0.10100000352E+00 0.  1.
</event>
<event>
 5   0  0.2768834E-03  0.8000717E+03  0.7818609E-02  0.9559913E-01
       -2   -1    0    0    0  501  0.00000000000E+00  0.00000000000E+00  0.23751785049E+03  0.23751785050E+03  0.25500000920E-02 0.  1.
        2   -1    0    0  501    0  0.00000000000E+00  0.00000000000E+00 -0.67375441440E+03  0.67375441441E+03  0.25500000920E-02 0. -1.
    10030    2    1    2    0    0  0.00000000000E+00  0.00000000000E+00 -0.43623656391E+03  0.91127226491E+03  0.80007174747E+03 0.  0.
        4    1    3    3  502    0  0.77020734256E+02  0.23262430850E+03 -0.57826343625E+03  0.62804177967E+03  0.12699999809E+01 0. -1.
       -4    1    3    3    0  502 -0.77020734256E+02 -0.23262430850E+03  0.14202687233E+03  0.28323048525E+03  0.12699999809E+01 0.  1.
</event>
<event>
 5   0  0.1640035E-03  0.7966440E+03  0.7818609E-02  0.9564887E-01
        1   -1    0    0  501    0  0.00000000000E+00  0.00000000000E+00  0.41855906203E+03  0.41855906206E+03  0.50400001928E-02 0.  1.
       -1   -1    0    0    0  501  0.00000000000E+00  0.00000000000E+00 -0.37906340310E+03  0.37906340313E+03  0.50400001928E-02 0. -1.
    10030    2    1    2    0    0  0.00000000000E+00  0.00000000000E+00  0.39495658929E+02  0.79762246519E+03  0.79664401705E+03 0.  0.
        5    1    3    3  502    0 -0.13040231243E+03 -0.12579624030E+03  0.37487893929E+03  0.41639616507E+03  0.46999998093E+01 0.  1.
       -5    1    3    3    0  502  0.13040231243E+03  0.12579624030E+03 -0.33538328036E+03  0.38122630012E+03  0.46999998093E+01 0. -1.
</event>
<event>
 5   0  0.2910501E-03  0.8010356E+03  0.7818609E-02  0.9558519E-01
        2   -1    0    0  501    0  0.00000000000E+00  0.00000000000E+00  0.10496473768E+03  0.10496473771E+03  0.25500000920E-02 0. -1.
       -2   -1    0    0    0  501  0.00000000000E+00  0.00000000000E+00 -0.15282704165E+04  0.15282704165E+04  0.25500000920E-02 0.  1.
    10030    2    1    2    0    0  0.00000000000E+00  0.00000000000E+00 -0.14233056789E+04  0.16332351543E+04  0.80103558823E+03 0.  0.
        1    1    3    3  502    0 -0.13595143557E+03 -0.26075894855E+03 -0.15724891335E+03  0.33347450106E+03  0.50400001928E-02 0. -1.
       -1    1    3    3    0  502  0.13595143557E+03  0.26075894855E+03 -0.12660567655E+04  0.12997606532E+04  0.50400001928E-02 0.  1.
</event>
<event>
 5   0  0.1637228E-03  0.8001871E+03  0.7818609E-02  0.9559746E-01
       -1   -1    0    0    0  501  0.00000000000E+00  0.00000000000E+00  0.20344069664E+03  0.20344069671E+03  0.50400001928E-02 0. -1.
        1   -1    0    0  501    0  0.00000000000E+00  0.00000000000E+00 -0.78683780472E+03  0.78683780474E+03  0.50400001928E-02 0.  1.
    10030    2    1    2    0    0  0.00000000000E+00  0.00000000000E+00 -0.58339710808E+03  0.99027850144E+03  0.80018705607E+03 0.  0.
        2    1    3    3  502    0  0.80464241184E+02 -0.31482692030E+03 -0.28290437103E+01  0.32495920875E+03  0.25500000920E-02 0. -1.
       -2    1    3    3    0  502 -0.80464241184E+02  0.31482692030E+03 -0.58056806437E+03  0.66531929269E+03  0.25500000920E-02 0.  1.
</event>
<event>
 5   0  0.2690809E-03  0.7958860E+03  0.7818609E-02  0.9565991E-01
       -2   -1    0    0    0  501  0.00000000000E+00  0.00000000000E+00  0.34896185656E+03  0.34896185657E+03  0.25500000920E-02 0.  1.
        2   -1    0    0  501    0  0.00000000000E+00  0.00000000000E+00 -0.45379930996E+03  0.45379930997E+03  0.25500000920E-02 0. -1.
    10030    2    1    2    0    0  0.00000000000E+00  0.00000000000E+00 -0.10483745340E+03  0.80276116653E+03  0.79588604640E+03 0.  0.
        5    1    3    3  502    0  0.75731233075E+02 -0.28092784211E+03 -0.32620576838E+03  0.43713609489E+03  0.46999998093E+01 0. -1.
       -5    1    3    3    0  502 -0.75731233075E+02  0.28092784211E+03  0.22136831498E+03  0.36562507164E+03  0.46999998093E+01 0.  1.
</event>
<event>
 5   0  0.1656051E-03  0.8014707E+03  0.7818609E-02  0.9557891E-01
        1   -1    0    0  501    0  0.00000000000E+00  0.00000000000E+00  0.58679389158E+03  0.58679389160E+03  0.50400001928E-02 0.  1.
       -1   -1    0    0    0  501  0.00000000000E+00  0.00000000000E+00 -0.27367156322E+03  0.27367156327E+03  0.50400001928E-02 0. -1.
    10030    2    1    2    0    0  0.00000000000E+00  0.00000000000E+00  0.31312232836E+03  0.86046545487E+03  0.80147065230E+03 0.  0.
        3    1    3    3  502    0 -0.53924440365E+02  0.55782134617E+02  0.57865346903E+03  0.58383160177E+03  0.10100000352E+00 0.  1.
       -3    1    3    3    0  502  0.53924440365E+02 -0.55782134617E+02 -0.26553114067E+03  0.27663385309E+03  0.10100000352E+00 0. -1.
</event>
<event>
 5   0  0.1656051E-03  0.7992033E+03  0.7818609E-02  0.9561171E-01
       -1   -1    0    0    0  501  0.00000000000E+00  0.00000000000E+00  0.25486235552E+03  0.25486235557E+03  0.50400001928E-02 0. -1.
        1   -1    0    0  501    0  0.00000000000E+00  0.00000000000E+00 -0.62654001728E+03  0.62654001730E+03  0.50400001928E-02 0.  1.
    10030    2    1    2    0    0  0.00000000000E+00  0.00000000000E+00 -0.37167766176E+03  0.88140237286E+03  0.79920326491E+03 0.  0.
        3    1    3    3  502    0  0.10613783735E+02  0.19853019904E+03 -0.56812369082E+03  0.60190649656E+03  0.10100000352E+00 0.  1.
       -3    1    3    3    0  502 -0.10613783735E+02 -0.19853019904E+03  0.19644602906E+03  0.27949587630E+03  0.10100000352E+00 0. -1.
</event>
<event>
 5   0  0.1095350E-03  0.8006791E+03  0.7818609E-02  0.9559035E-01
        3   -1    0    0  501    0  0.00000000000E+00  0.00000000000E+00  0.95388126457E+03  0.95388126992E+03  0.10100000352E+00 0.  1.
       -3   -1    0    0    0  501  0.00000000000E+00  0.00000000000E+00 -0.16802065461E+03  0.16802068497E+03  0.10100000352E+00 0. -1.
    10030    2    1    2    0    0  0.00000000000E+00  0.00000000000E+00  0.78586060996E+03  0.11219019549E+04  0.80067914802E+03 0.  0.
        2    1    3    3  502    0 -0.52746166395E+02 -0.18976745534E+03  0.88129591799E+03  0.90303728619E+03  0.25500000920E-02 0.  1.
       -2    1    3    3    0  502  0.52746166395E+02  0.18976745534E+03 -0.95435308029E+02  0.21886466869E+03  0.25500000920E-02 0. -1.
</event>
<event>
 5   0  0.1617491E-03  0.7993140E+03  0.7818609E-02  0.9561011E-01
       -1   -1    0    0    0  501  0.00000000000E+00  0.00000000000E+00  0.20908943077E+03  0.20908943083E+03  0.50400001928E-02 0. -1.
        1   -1    0    0  501    0  0.00000000000E+00  0.00000000000E+00 -0.76391105810E+03  0.76391105811E+03  0.50400001928E-02 0.  1.
    10030    2    1    2    0    0  0.00000000000E+00  0.00000000000E+00 -0.55482162732E+03  0.97300048895E+03  0.79931402674E+03 0.  0.
        1    1    3    3  502    0 -0.31258753217E+03  0.38218032311E+02 -0.57695959886E+03  0.65730811801E+03  0.50400001928E-02 0.  1.
       -1    1    3    3    0  502  0.31258753217E+03 -0.38218032311E+02  0.22137971539E+02  0.31569237094E+03  0.50400001928E-02 0. -1.
</event>
<event>
 5   0  0.1637228E-03  0.7996303E+03  0.7818609E-02  0.9560552E-01
        1   -1    0    0  501    0  0.00000000000E+00  0.00000000000E+00  0.20424129034E+03  0.20424129040E+03  0.50400001928E-02 0.  1.
       -1   -1    0    0    0  501  0.00000000000E+00  0.00000000000E+00 -0.78266335281E+03  0.78266335283E+03  0.50400001928E-02 0. -1.
    10030    2    1    2    0    0  0.00000000000E+00  0.00000000000E+00 -0.57842206247E+03  0.98690464323E+03  0.79963034739E+03 0.  0.
        2    1    3    3  502    0  0.12212207164E+03  0.30824299366E+03 -0.13443361101E+02  0.33182565827E+03  0.25500000920E-02 0.  1.
       -2    1    3    3    0  502 -0.12212207164E+03 -0.30824299366E+03 -0.56497870137E+03  0.65507898496E+03  0.25500000920E-02 0. -1.
</event>
<event>
 5   0  0.1640035E-03  0.7966187E+03  0.7818609E-02  0.9564924E-01
        1   -1    0    0  501    0  0.00000000000E+00  0.00000000000E+00  0.20601606924E+04  0.20601606925E+04  0.50400001928E-02 0.  1.
       -1   -1    0    0    0  501  0.00000000000E+00  0.00000000000E+00 -0.77008710611E+02  0.77008710775E+02  0.50400001928E-02 0. -1.
    10030    2    1    2    0    0  0.00000000000E+00  0.00000000000E+00  0.19831519818E+04  0.21371694032E+04  0.79661865095E+03 0.  0.
        5    1    3    3  502    0  0.24061854575E+03 -0.28147395423E+03  0.13849825653E+04  0.14336400063E+04  0.46999998093E+01 0.  1.
       -5    1    3    3    0  502 -0.24061854575E+03  0.28147395423E+03  0.59816941652E+03  0.70352939692E+03  0.46999998093E+01 0. -1.
</event>
<event>
 5   0  0.2690809E-03  0.8012783E+03  0.7818609E-02  0.9558169E-01
        2   -1    0    0  501    0  0.00000000000E+00  0.00000000000E+00  0.33862608773E+03  0.33862608774E+03  0.25500000920E-02 0.  1.
       -2   -1    0    0    0  501  0.00000000000E+00  0.00000000000E+00 -0.47400876035E+03  0.47400876035E+03  0.25500000920E-02 0. -1.
    10030    2    1    2    0    0  0.00000000000E+00  0.00000000000E+00 -0.13538267261E+03  0.81263484810E+03  0.80127830889E+03 0.  0.
        5    1    3    3  502    0  0.22434293170E+03 -0.33189893023E+03 -0.69445353550E+02  0.40660963837E+03  0.46999998093E+01 0.  1.
       -5    1    3    3    0  502 -0.22434293170E+03  0.33189893023E+03 -0.65937319064E+02  0.40602520972E+03  0.46999998093E+01 0. -1.
</event>
<event>
 5   0  0.1640035E-03  0.7991851E+03  0.7818609E-02  0.9561197E-01
        1   -1    0    0  501    0  0.00000000000E+00  0.00000000000E+00  0.12124595657E+04  0.12124595657E+04  0.50400001928E-02 0.  1.
       -1   -1    0    0    0  501  0.00000000000E+00  0.00000000000E+00 -0.13169445889E+03  0.13169445899E+03  0.50400001928E-02 0. -1.
    10030    2    1    2    0    0  0.00000000000E+00  0.00000000000E+00  0.10807651068E+04  0.13441540247E+04  0.79918510123E+03 0.  0.
        5    1    3    3  502    0  0.72056889786E+02 -0.15189113265E+03 -0.69268276874E+02  0.18188814069E+03  0.46999998093E+01 0. -1.
       -5    1    3    3    0  502 -0.72056889786E+02  0.15189113265E+03  0.11500333837E+04  0.11622658840E+04  0.46999998093E+01 0.  1.
</event>
<event>
 5   0  0.2910501E-03  0.8001312E+03  0.7818609E-02  0.9559827E-01
        2   -1    0    0  501    0  0.00000000000E+00  0.00000000000E+00  0.68419088808E+03  0.68419088809E+03  0.25500000920E-02 0.  1.
       -2   -1    0    0    0  501  0.00000000000E+00  0.00000000000E+00 -0.23392955282E+03  0.23392955283E+03  0.25500000920E-02 0. -1.
    10030    2    1    2    0    0  0.00000000000E+00  0.00000000000E+00  0.45026133527E+03  0.91812044092E+03  0.80013116050E+03 0.  0.
        1    1    3    3  502    0  0.22129025602E+03 -0.33196135785E+03  0.19099972709E+03  0.44232184695E+03  0.50400001928E-02 0.  1.
       -1    1    3    3    0  502 -0.22129025602E+03  0.33196135785E+03  0.25926160817E+03  0.47579859396E+03  0.50400001928E-02 0. -1.
</event>
<event>
 5   0  0.1617491E-03  0.7991235E+03  0.7818609E-02  0.9561287E-01
        1   -1    0    0  501    0  0.00000000000E+00  0.00000000000E+00  0.28716262352E+03  0.28716262356E+03  0.50400001928E-02 0. -1.
       -1   -1    0    0    0  501  0.00000000000E+00  0.00000000000E+00 -0.55595539335E+03  0.55595539337E+03  0.50400001928E-02 0.  1.
    10030    2    1    2    0    0  0.00000000000E+00  0.00000000000E+00 -0.26879276983E+03  0.84311801694E+03  0.79912354324E+03 0.  0.
        1    1    3    3  502    0  0.27729949072E+03  0.28292906121E+03 -0.79515876765E+02  0.40406266335E+03  0.50400001928E-02 0.  1.
       -1    1    3    3    0  502 -0.27729949072E+03 -0.28292906121E+03 -0.18927689307E+03  0.43905535358E+03  0.50400001928E-02 0. -1.
</event>
<event>
 5   0  0.2768834E-03  0.7997847E+03  0.7818609E-02  0.9560329E-01
        2   -1    0    0  501    0  0.00000000000E+00  0.00000000000E+00  0.52431760983E+03  0.52431760983E+03  0.25500000920E-02 0. -1.
       -2   -1    0    0    0  501  0.00000000000E+00  0.00000000000E+00 -0.30499433782E+03  0.30499433783E+03  0.25500000920E-02 0.  1.
    10030    2    1    2    0    0  0.00000000000E+00  0.00000000000E+00  0.21932327200E+03  0.82931194766E+03  0.79978472660E+03 0.  0.
        4    1    3    3  502    0 -0.33173133618E+03  0.19201226872E+03 -0.85557597473E+01  0.38339171179E+03  0.12699999809E+01 0.  1.
       -4    1    3    3    0  502  0.33173133618E+03 -0.19201226872E+03  0.22787903175E+03  0.44592023587E+03  0.12699999809E+01 0. -1.
</event>
<event>
 5   0  0.2763587E-03  0.8005539E+03  0.7818609E-02  0.9559216E-01
        2   -1    0    0  501    0  0.00000000000E+00  0.00000000000E+00  0.18185559363E+03  0.18185559365E+03  0.25500000920E-02 0. -1.
       -2   -1    0    0    0  501  0.00000000000E+00  0.00000000000E+00 -0.88103765499E+03  0.88103765499E+03  0.25500000920E-02 0.  1.
    10030    2    1    2    0    0  0.00000000000E+00  0.00000000000E+00 -0.69918206136E+03  0.10628932486E+04  0.80055387269E+03 0.  0.
        3    1    3    3  502    0 -0.23844142366E+03 -0.31771602080E+03 -0.41495681087E+03  0.57444490377E+03  0.10100000352E+00 0.  1.
       -3    1    3    3    0  502  0.23844142366E+03  0.31771602080E+03 -0.28422525049E+03  0.48844834487E+03  0.10100000352E+00 0. -1.
</event>
<event>
 5   0  0.1656051E-03  0.8008284E+03  0.7818609E-02  0.9558819E-01
       -1   -1    0    0    0  501  0.00000000000E+00  0.00000000000E+00  0.16025303005E+03  0.16025303013E+03  0.50400001928E-02 0. -1.
        1   -1    0    0  501    0  0.00000000000E+00  0.00000000000E+00 -0.10004899659E+04  0.10004899659E+04  0.50400001928E-02 0.  1.
    10030    2    1    2    0    0  0.00000000000E+00  0.00000000000E+00 -0.84023693584E+03  0.11607429960E+04  0.80082844260E+03 0.  0.
        3    1    3    3  502    0 -0.28857570416E+03  0.13704827013E+03 -0.77000857318E+03  0.83364943372E+03  0.10100000352E+00 0.  1.
       -3    1    3    3    0  502  0.28857570416E+03 -0.13704827013E+03 -0.70228362662E+02  0.32709356230E+03  0.10100000352E+00 0. -1.
</event>
<event>
 5   0  0.1640035E-03  0.7987489E+03  0.7818609E-02  0.9561830E-01
       -1   -1    0    0    0  501  0.00000000000E+00  0.00000000000E+00  0.93297136925E+02  0.93297137061E+02  0.50400001928E-02 0. -1.
        1   -1    0    0  501    0  0.00000000000E+00  0.00000000000E+00 -0.17095912462E+04  0.17095912462E+04  0.50400001928E-02 0.  1.
    10030    2    1    2    0    0  0.00000000000E+00  0.00000000000E+00 -0.16162941093E+04  0.18028883833E+04  0.79874894357E+03 0.  0.
        5    1    3    3  502    0 -0.13770968604E+02  0.59340002685E+02 -0.16989800122E+04  0.17000782474E+04  0.46999998093E+01 0.  1.
       -5    1    3    3    0  502  0.13770968604E+02 -0.59340002685E+02  0.82685902919E+02  0.10281013586E+03  0.46999998093E+01 0. -1.
</event>
<event>
 5   0  0.1095350E-03  0.8024768E+03  0.7818609E-02  0.9556439E-01
       -3   -1    0    0    0  501  0.00000000000E+00  0.00000000000E+00  0.87301833771E+03  0.87301834355E+03  0.10100000352E+00 0.  1.
        3   -1    0    0  501    0  0.00000000000E+00  0.00000000000E+00 -0.18440875125E+03  0.18440877890E+03  0.10100000352E+00 0. -1.
    10030    2    1    2    0    0  0.00000000000E+00  0.00000000000E+00  0.68860958646E+03  0.10574271225E+04  0.80247676398E+03 0.  0.
        2    1    3    3  502    0  0.25514682091E+03 -0.30004200330E+03  0.24337229375E+03  0.46298507247E+03  0.25500000920E-02 0.  1.
       -2    1    3    3    0  502 -0.25514682091E+03  0.30004200330E+03  0.44523729271E+03  0.59444204998E+03  0.25500000920E-02 0. -1.
</event>
<event>
 5   0  0.1637228E-03  0.7985684E+03  0.7818609E-02  0.9562092E-01
        1   -1    0    0  501    0  0.00000000000E+00  0.00000000000E+00  0.79813000722E+03  0.79813000723E+03  0.50400001928E-02 0.  1.
       -1   -1    0    0    0  501  0.00000000000E+00  0.00000000000E+00 -0.19975177527E+03  0.19975177534E+03  0.50400001928E-02 0. -1.
    10030    2    1    2    0    0  0.00000000000E+00  0.00000000000E+00  0.59837823194E+03  0.99788178257E+03  0.79856843384E+03 0.  0.
        2    1    3    3  502    0 -0.33697528331E+03  0.21401805289E+03  0.30977876661E+03  0.50529095854E+03  0.25500000920E-02 0.  1.
       -2    1    3    3    0  502  0.33697528331E+03 -0.21401805289E+03  0.28859946533E+03  0.49259082403E+03  0.25500000920E-02 0. -1.
</event>
<event>
 5   0  0.2690809E-03  0.8009892E+03  0.7818609E-02  0.9558586E-01
        2   -1    0    0  501    0  0.00000000000E+00  0.00000000000E+00  0.84432746661E+03  0.84432746662E+03  0.25500000920E-02 0.  1.
       -2   -1    0    0    0  501  0.00000000000E+00  0.00000000000E+00 -0.18996887344E+03  0.18996887345E+03  0.25500000920E-02 0. -1.
    10030    2    1    2    0    0  0.00000000000E+00  0.00000000000E+00  0.65435859317E+03  0.10342963401E+04  0.80098923252E+03 0.  0.
        5    1    3    3  502    0  0.28240620347E+03  0.12228406554E+03 -0.37174751534E+01  0.30780280386E+03  0.46999998093E+01 0. -1.
       -5    1    3    3    0  502 -0.28240620347E+03 -0.12228406554E+03  0.65807606833E+03  0.72649353621E+03  0.46999998093E+01 0.  1.
</event>
<event>
 5   0  0.2873212E-03  0.8000853E+03  0.7818609E-02  0.9559894E-01
       -2   -1    0    0    0  501  0.00000000000E+00  0.00000000000E+00  0.44232051904E+03  0.44232051905E+03  0.25500000920E-02 0.  1.
        2   -1    0    0  501    0  0.00000000000E+00  0.00000000000E+00 -0.36180581340E+03  0.36180581341E+03  0.25500000920E-02 0. -1.
    10030    2    1    2    0    0  0.00000000000E+00  0.00000000000E+00  0.80514705634E+02  0.80412633246E+03  0.80008533341E+03 0.  0.
        2    1    3    3  502    0  0.14406978927E+03  0.19526240887E+03  0.35990554683E+03  0.43406856042E+03  0.25500000920E-02 0.  1.
       -2    1    3    3    0  502 -0.14406978927E+03 -0.19526240887E+03 -0.27939084119E+03  0.37005777204E+03  0.25500000920E-02 0. -1.
</event>
<event>
 5   0  0.2763587E-03  0.7994812E+03  0.7818609E-02  0.9560768E-01
        2   -1    0    0  501    0  0.00000000000E+00  0.00000000000E+00  0.16754839205E+03  0.16754839207E+03  0.25500000920E-02 0. -1.
       -2   -1    0    0    0  501  0.00000000000E+00  0.00000000000E+00 -0.95370985013E+03  0.95370985013E+03  0.25500000920E-02 0.  1.
    10030    2    1    2    0    0  0.00000000000E+00  0.00000000000E+00 -0.78616145808E+03  0.11212582422E+04  0.79948121149E+03 0.  0.
        3    1    3    3  502    0 -0.75618331204E+02 -0.34222992184E+02 -0.94149111230E+03  0.94514277755E+03  0.10100000352E+00 0.  1.
       -3    1    3    3    0  502  0.75618331204E+02  0.34222992184E+02  0.15532965422E+03  0.17611546465E+03  0.10100000352E+00 0. -1.
</event>
<event>
 5   0  0.2873212E-03  0.8000697E+03  0.7818609E-02  0.9559916E-01
        2   -1    0    0  501    0  0.00000000000E+00  0.00000000000E+00  0.45437426873E+03  0.45437426874E+03  0.25500000920E-02 0. -1.
       -2   -1    0    0    0  501  0.00000000000E+00  0.00000000000E+00 -0.35219401579E+03  0.35219401579E+03  0.25500000920E-02 0.  1.
    10030    2    1    2    0    0  0.00000000000E+00  0.00000000000E+00  0.10218025295E+03  0.80656828453E+03  0.80006974291E+03 0.  0.
        2    1    3    3  502    0 -0.15671868156E+03  0.12248756273E+03 -0.29880818323E+03  0.35895720991E+03  0.25500000920E-02 0.  1.
       -2    1    3    3    0  502  0.15671868156E+03 -0.12248756273E+03  0.40098843618E+03  0.44761107463E+03  0.25500000920E-02 0. -1.
</event>
<event>
 5   0  0.2763587E-03  0.8031468E+03  0.7818609E-02  0.9555473E-01
        2   -1    0    0  501    0  0.00000000000E+00  0.00000000000E+00  0.13794825767E+04  0.13794825767E+04  0.25500000920E-02 0.  1.
       -2   -1    0    0    0  501  0.00000000000E+00  0.00000000000E+00 -0.11689977024E+03  0.11689977026E+03  0.25500000920E-02 0. -1.
    10030    2    1    2    0    0  0.00000000000E+00  0.00000000000E+00  0.12625828065E+04  0.14963823470E+04  0.80314680174E+03 0.  0.
        3    1    3    3  502    0 -0.20863902391E+03 -0.34049542178E+03  0.71020213085E+03  0.81477263787E+03  0.10100000352E+00 0.  1.
       -3    1    3    3    0  502  0.20863902391E+03  0.34049542178E+03  0.55238067563E+03  0.68160970912E+03  0.10100000352E+00 0. -1.
</event>
<event>
 5   0  0.2690809E-03  0.7964847E+03  0.7818609E-02  0.9565119E-01
        2   -1    0    0  501    0  0.00000000000E+00  0.00000000000E+00  0.12780006610E+04  0.12780006610E+04  0.25500000920E-02 0.  1.
       -2   -1    0    0    0  501  0.00000000000E+00  0.00000000000E+00 -0.12409770730E+03  0.12409770732E+03  0.25500000920E-02 0. -1.
    10030    2    1    2    0    0  0.00000000000E+00  0.00000000000E+00  0.11539029537E+04  0.14020983683E+04  0.79648465640E+03 0.  0.
        5    1    3    3  502    0  0.20891340951E+03 -0.27847567955E+03  0.23659929982E+03  0.42094516917E+03  0.46999998093E+01 0.  1.
       -5    1    3    3    0  502 -0.20891340951E+03  0.27847567955E+03  0.91730365387E+03  0.98115319914E+03  0.46999998093E+01 0. -1.
</event>
<event>
 5   0  0.2768834E-03  0.7986979E+03  0.7818609E-02  0.9561904E-01
       -2   -1    0    0    0  501  0.00000000000E+00  0.00000000000E+00  0.14219437155E+03  0.14219437157E+03  0.25500000920E-02 0.  1.
        2   -1    0    0  501    0  0.00000000000E+00  0.00000000000E+00 -0.11215604941E+04  0.11215604941E+04  0.25500000920E-02 0. -1.
    10030    2    1    2    0    0  0.00000000000E+00  0.00000000000E+00 -0.97936612255E+03  0.12637548657E+04  0.79869791442E+03 0.  0.
        4    1    3    3  502    0  0.27492217005E+03 -0.28934650777E+03 -0.46878898777E+03  0.61568525165E+03  0.12699999809E+01 0. -1.
       -4    1    3    3    0  502 -0.27492217005E+03  0.28934650777E+03 -0.51057713478E+03  0.64806961401E+03  0.12699999809E+01 0.  1.
</event>
<event>
 5   0  0.2768834E-03  0.8028410E+03  0.7818609E-02  0.9555914E-01
       -2   -1    0    0    0  501  0.00000000000E+00  0.00000000000E+00  0.91326629343E+02  0.91326629378E+02  0.25500000920E-02 0.  1.
        2   -1    0    0  501    0  0.00000000000E+00  0.00000000000E+00 -0.17644188198E+04  0.17644188198E+04  0.25500000920E-02 0. -1.
    10030    2    1    2    0    0  0.00000000000E+00  0.00000000000E+00 -0.16730921904E+04  0.18557454492E+04  0.80284101439E+03 0.  0.
        4    1    3    3  502    0 -0.34710423170E+03 -0.22036427822E+02 -0.12998212461E+04  0.13455496411E+04  0.12699999809E+01 0. -1.
       -4    1    3    3    0  502  0.34710423170E+03  0.22036427822E+02 -0.37327094430E+03  0.51019580807E+03  0.12699999809E+01 0.  1.
</event>
<event>
 5   0  0.1617491E-03  0.8014400E+03  0.7818609E-02  0.9557935E-01
       -1   -1    0    0    0  501  0.00000000000E+00  0.00000000000E+00  0.12001755113E+03  0.12001755124E+03  0.50400001928E-02 0.  1.
        1   -1    0    0  501    0  0.00000000000E+00  0.00000000000E+00 -0.13379418825E+04  0.13379418825E+04  0.50400001928E-02 0. -1.
    10030    2    1    2    0    0  0.00000000000E+00  0.00000000000E+00 -0.12179243314E+04  0.14579594338E+04  0.80143997500E+03 0.  0.
        1    1    3    3  502    0 -0.14902571103E+03 -0.59982249784E+02  0.58875661310E+02  0.17109318034E+03  0.50400001928E-02 0.  1.
       -1    1    3    3    0  502  0.14902571103E+03  0.59982249784E+02 -0.12767999927E+04  0.12868662534E+04  0.50400001928E-02 0. -1.
</event>
<event>
 5   0  0.2873212E-03  0.8091518E+03  0.7818609E-02  0.9546864E-01
       -2   -1    0    0    0  501  0.00000000000E+00  0.00000000000E+00  0.14701978673E+04  0.14701978673E+04  0.25500000920E-02 0.  1.
        2   -1    0    0  501    0  0.00000000000E+00  0.00000000000E+00 -0.11133308752E+03  0.11133308755E+03  0.25500000920E-02 0. -1.
    10030    2    1    2    0    0  0.00000000000E+00  0.00000000000E+00  0.13588647798E+04  0.15815309549E+04  0.80915182225E+03 0.  0.
        2    1    3    3  502    0  0.26501661444E+03 -0.23517641759E+03  0.29771887402E+03  0.46279399442E+03  0.25500000920E-02 0. -1.
       -2    1    3    3    0  502 -0.26501661444E+03  0.23517641759E+03  0.10611459058E+04  0.11187369604E+04  0.25500000920E-02 0.  1.
</event>
<event>
 5   0  0.1640035E-03  0.8000964E+03  0.7818609E-02  0.9559878E-01
       -1   -1    0    0    0  501  0.00000000000E+00  0.00000000000E+00  0.41042584558E+03  0.41042584561E+03  0.50400001928E-02 0. -1.
        1   -1    0    0  501    0  0.00000000000E+00  0.00000000000E+00 -0.38993294902E+03  0.38993294906E+03  0.50400001928E-02 0.  1.
    10030    2    1    2    0    0  0.00000000000E+00  0.00000000000E+00  0.20492896557E+02  0.80035879467E+03  0.80009639506E+03 0.  0.
        5    1    3    3  502    0  0.32770149511E+03 -0.16682865853E+03  0.16776681606E+03  0.40421264920E+03  0.46999998093E+01 0. -1.
       -5    1    3    3    0  502 -0.32770149511E+03  0.16682865853E+03 -0.14727391951E+03  0.39614614547E+03  0.46999998093E+01 0.  1.
</event>
<event>
 5   0  0.1712793E-03  0.8096029E+03  0.7818609E-02  0.9546220E-01
        1   -1    0    0  501    0  0.00000000000E+00  0.00000000000E+00  0.46694050945E+03  0.46694050948E+03  0.50400001928E-02 0.  1.
       -1   -1    0    0    0  501  0.00000000000E+00  0.00000000000E+00 -0.35093165086E+03  0.35093165090E+03  0.50400001928E-02 0. -1.
    10030    2    1    2    0    0  0.00000000000E+00  0.00000000000E+00  0.11600885859E+03  0.81787216037E+03  0.80960287515E+03 0.  0.
        4    1    3    3  502    0 -0.34263615297E+03  0.18665041824E+03 -0.50914626643E+02  0.39348675208E+03  0.12699999809E+01 0. -1.
       -4    1    3    3    0  502  0.34263615297E+03 -0.18665041824E+03  0.16692348524E+03  0.42438540830E+03  0.12699999809E+01 0.  1.
</event>
<event>
 5   0  0.1640035E-03  0.8050681E+03  0.7818609E-02  0.9552710E-01
        1   -1    0    0  501    0  0.00000000000E+00  0.00000000000E+00  0.62660882143E+03  0.62660882145E+03  0.50400001928E-02 0. -1.
       -1   -1    0    0    0  501  0.00000000000E+00  0.00000000000E+00 -0.25858819673E+03  0.25858819678E+03  0.50400001928E-02 0.  1.
    10030    2    1    2    0    0  0.00000000000E+00  0.00000000000E+00  0.36802062470E+03  0.88519701823E+03  0.80506805978E+03 0.  0.
        5    1    3    3  502    0  0.49990565148E+02  0.22049656344E+01  0.62314534587E+03  0.62516888162E+03  0.46999998093E+01 0. -1.
       -5    1    3    3    0  502 -0.49990565148E+02 -0.22049656344E+01 -0.25512472116E+03  0.26002813660E+03  0.46999998093E+01 0.  1.
</event>
<event>
 5   0  0.2910501E-03  0.7999537E+03  0.7818609E-02  0.9560084E-01
        2   -1    0    0  501    0  0.00000000000E+00  0.00000000000E+00  0.66048296910E+03  0.66048296910E+03  0.25500000920E-02 0.  1.
       -2   -1    0    0    0  501  0.00000000000E+00  0.00000000000E+00 -0.24221895439E+03  0.24221895441E+03  0.25500000920E-02 0. -1.
    10030    2    1    2    0    0  0.00000000000E+00  0.00000000000E+00  0.41826401470E+03  0.90270192351E+03  0.79995373411E+03 0.  0.
        1    1    3    3  502    0  0.29338993838E+03  0.27180378814E+03  0.21494529070E+03  0.45404452778E+03  0.50400001928E-02 0. -1.
       -1    1    3    3    0  502 -0.29338993838E+03 -0.27180378814E+03  0.20331872401E+03  0.44865739573E+03  0.50400001928E-02 0.  1.
</event>
<event>
 5   0  0.2763587E-03  0.8005024E+03  0.7818609E-02  0.9559290E-01
       -2   -1    0    0    0  501  0.00000000000E+00  0.00000000000E+00  0.18798679704E+03  0.18798679706E+03  0.25500000920E-02 0.  1.
        2   -1    0    0  501    0  0.00000000000E+00  0.00000000000E+00 -0.85219287051E+03  0.85219287051E+03  0.25500000920E-02 0. -1.
    10030    2    1    2    0    0  0.00000000000E+00  0.00000000000E+00 -0.66420607347E+03  0.10401796676E+04  0.80050236277E+03 0.  0.
        3    1    3    3  502    0 -0.19299009567E+03  0.13047795273E+03 -0.75502276464E+03  0.79014496044E+03  0.10100000352E+00 0. -1.
       -3    1    3    3    0  502  0.19299009567E+03 -0.13047795273E+03  0.90816691175E+02  0.25003470714E+03  0.10100000352E+00 0.  1.
</event>
<event>
 5   0  0.2690809E-03  0.7954033E+03  0.7818609E-02  0.9566695E-01
       -2   -1    0    0    0  501  0.00000000000E+00  0.00000000000E+00  0.57139579220E+02  0.57139579277E+02  0.25500000920E-02 0. -1.
        2   -1    0    0  501    0  0.00000000000E+00  0.00000000000E+00 -0.27680742579E+04  0.27680742579E+04  0.25500000920E-02 0.  1.
    10030    2    1    2    0    0  0.00000000000E+00  0.00000000000E+00 -0.27109346787E+04  0.28252138372E+04  0.79540328998E+03 0.  0.
        5    1    3    3  502    0 -0.91322829625E+02  0.11740224904E+03 -0.26654558898E+04  0.26696067759E+04  0.46999998093E+01 0.  1.
       -5    1    3    3    0  502  0.91322829625E+02 -0.11740224904E+03 -0.45478788865E+02  0.15560706130E+03  0.46999998093E+01 0. -1.
</event>
<event>
 5   0  0.1640035E-03  0.8178106E+03  0.7818609E-02  0.9534589E-01
       -1   -1    0    0    0  501  0.00000000000E+00  0.00000000000E+00  0.23314797655E+03  0.23314797660E+03  0.50400001928E-02 0. -1.
        1   -1    0    0  501    0  0.00000000000E+00  0.00000000000E+00 -0.71715635876E+03  0.71715635878E+03  0.50400001928E-02 0.  1.
    10030    2    1    2    0    0  0.00000000000E+00  0.00000000000E+00 -0.48400838221E+03  0.95030433538E+03  0.81781062343E+03 0.  0.
        5    1    3    3  502    0  0.32865657399E+03 -0.47525170307E+02 -0.51920557715E+03  0.61633619623E+03  0.46999998093E+01 0.  1.
       -5    1    3    3    0  502 -0.32865657399E+03  0.47525170307E+02  0.35197194938E+02  0.33396813915E+03  0.46999998093E+01 0. -1.
</event>
<event>
 5   0  0.2763587E-03  0.8237811E+03  0.7818609E-02  0.9526219E-01
       -2   -1    0    0    0  501  0.00000000000E+00  0.00000000000E+00  0.39268674688E+03  0.39268674689E+03  0.25500000920E-02 0.  1.
        2   -1    0    0  501    0  0.00000000000E+00  0.00000000000E+00 -0.43203350953E+03  0.43203350954E+03  0.25500000920E-02 0. -1.
    10030    2    1    2    0    0  0.00000000000E+00  0.00000000000E+00 -0.39346762651E+02  0.82472025643E+03  0.82378111998E+03 0.  0.
        3    1    3    3  502    0 -0.18249126342E+03 -0.23477952534E+03  0.26565914406E+03  0.39874713512E+03  0.10100000352E+00 0.  1.
       -3    1    3    3    0  502  0.18249126342E+03  0.23477952534E+03 -0.30500590672E+03  0.42597312131E+03  0.10100000352E+00 0. -1.
</event>
<event>
 5   0  0.2768834E-03  0.8100605E+03  0.7818609E-02  0.9545568E-01
       -2   -1    0    0    0  501  0.00000000000E+00  0.00000000000E+00  0.22754239313E+03  0.22754239314E+03  0.25500000920E-02 0.  1.
        2   -1    0    0  501    0  0.00000000000E+00  0.00000000000E+00 -0.72096237097E+03  0.72096237097E+03  0.25500000920E-02 0. -1.
    10030    2    1    2    0    0  0.00000000000E+00  0.00000000000E+00 -0.49341997784E+03  0.94850476411E+03  0.81006049960E+03 0.  0.
        4    1    3    3  502    0  0.72737728774E+02  0.37450247014E+03 -0.87427967473E+02  0.39139256472E+03  0.12699999809E+01 0. -1.
       -4    1    3    3    0  502 -0.72737728774E+02 -0.37450247014E+03 -0.40599201037E+03  0.55711219939E+03  0.12699999809E+01 0.  1.
</event>
<event>
 5   0  0.2690809E-03  0.7987879E+03  0.7818609E-02  0.9561773E-01
       -2   -1    0    0    0  501  0.00000000000E+00  0.00000000000E+00  0.27774331729E+03  0.27774331730E+03  0.25500000920E-02 0. -1.
        2   -1    0    0  501    0  0.00000000000E+00  0.00000000000E+00 -0.57432708943E+03  0.57432708944E+03  0.25500000920E-02 0.  1.
    10030    2    1    2    0    0  0.00000000000E+00  0.00000000000E+00 -0.29658377215E+03  0.85207040673E+03  0.79878785928E+03 0.  0.
        5    1    3    3  502    0  0.16782012995E+03  0.68981258367E+02 -0.52779193608E+03  0.55812940059E+03  0.46999998093E+01 0.  1.
       -5    1    3    3    0  502 -0.16782012995E+03 -0.68981258367E+02  0.23120816393E+03  0.29394100614E+03  0.46999998093E+01 0. -1.
</event>
<event>
 5   0  0.1640035E-03  0.8011812E+03  0.7818609E-02  0.9558309E-01
        1   -1    0    0  501    0  0.00000000000E+00  0.00000000000E+00  0.26513589026E+03  0.26513589031E+03  0.50400001928E-02 0. -1.
       -1   -1    0    0    0  501  0.00000000000E+00  0.00000000000E+00 -0.60524740449E+03  0.60524740451E+03  0.50400001928E-02 0.  1.
    10030    2    1    2    0    0  0.00000000000E+00  0.00000000000E+00 -0.34011151423E+03  0.87038329482E+03  0.80118115166E+03 0.  0.
        5    1    3    3  502    0  0.64947140305E+01 -0.14745543245E+03  0.23448653457E+03  0.27711245148E+03  0.46999998093E+01 0. -1.
       -5    1    3    3    0  502 -0.64947140305E+01  0.14745543245E+03 -0.57459804880E+03  0.59327084334E+03  0.46999998093E+01 0.  1.
</event>
<event>
 5   0  0.2763587E-03  0.7998153E+03  0.7818609E-02  0.9560284E-01
       -2   -1    0    0    0  501  0.00000000000E+00  0.00000000000E+00  0.84601264219E+02  0.84601264257E+02  0.25500000920E-02 0. -1.
        2   -1    0    0  501    0  0.00000000000E+00  0.00000000000E+00 -0.18903516360E+04  0.18903516360E+04  0.25500000920E-02 0.  1.
    10030    2    1    2    0    0  0.00000000000E+00  0.00000000000E+00 -0.18057503717E+04  0.19749529002E+04  0.79981532433E+03 0.  0.
        3    1    3    3  502    0 -0.23548018771E+03  0.27586839317E+03 -0.48695426639E+03  0.60718922661E+03  0.10100000352E+00 0. -1.
       -3    1    3    3    0  502  0.23548018771E+03 -0.27586839317E+03 -0.13187961053E+04  0.13677636736E+04  0.10100000352E+00 0.  1.
</event>
<event>
 5   0  0.2910501E-03  0.7997247E+03  0.7818609E-02  0.9560416E-01
       -2   -1    0    0    0  501  0.00000000000E+00  0.00000000000E+00  0.16141039611E+03  0.16141039613E+03  0.25500000920E-02 0.  1.
        2   -1    0    0  501    0  0.00000000000E+00  0.00000000000E+00 -0.99057992214E+03  0.99057992214E+03  0.25500000920E-02 0. -1.
    10030    2    1    2    0    0  0.00000000000E+00  0.00000000000E+00 -0.82916952603E+03  0.11519903183E+04  0.79972469669E+03 0.  0.
        1    1    3    3  502    0 -0.29874481113E+03  0.23949146451E+03 -0.58061744248E+03  0.69550071049E+03  0.50400001928E-02 0. -1.
       -1    1    3    3    0  502  0.29874481113E+03 -0.23949146451E+03 -0.24855208355E+03  0.45648960779E+03  0.50400001928E-02 0.  1.
</event>
<event>
 5   0  0.2768834E-03  0.8001378E+03  0.7818609E-02  0.9559818E-01
        2   -1    0    0  501    0  0.00000000000E+00  0.00000000000E+00  0.17508703551E+04  0.17508703551E+04  0.25500000920E-02 0. -1.
       -2   -1    0    0    0  501  0.00000000000E+00  0.00000000000E+00 -0.91414609915E+02  0.91414609951E+02  0.25500000920E-02 0.  1.
    10030    2    1    2    0    0  0.00000000000E+00  0.00000000000E+00  0.16594557452E+04  0.18422849651E+04  0.80013781453E+03 0.  0.
        4    1    3    3  502    0 -0.22644961848E+03 -0.12606275389E+03  0.15314390957E+04  0.15532155563E+04  0.12699999809E+01 0. -1.
       -4    1    3    3    0  502  0.22644961848E+03  0.12606275389E+03  0.12801664949E+03  0.28906940875E+03  0.12699999809E+01 0.  1.
</event>
<event>
 5   0  0.2910501E-03  0.7937111E+03  0.7818609E-02  0.9569165E-01
       -2   -1    0    0    0  501  0.00000000000E+00  0.00000000000E+00  0.16654475659E+03  0.16654475661E+03  0.25500000920E-02 0. -1.
        2   -1    0    0  501    0  0.00000000000E+00  0.00000000000E+00 -0.94565770518E+03  0.94565770518E+03  0.25500000920E-02 0.  1.
    10030    2    1    2    0    0  0.00000000000E+00  0.00000000000E+00 -0.77911294859E+03  0.11122024618E+04  0.79371111204E+03 0.  0.
        1    1    3    3  502    0 -0.13836801830E+03  0.37129017935E+03 -0.42064527050E+03  0.57787935540E+03  0.50400001928E-02 0.  1.
       -1    1    3    3    0  502  0.13836801830E+03 -0.37129017935E+03 -0.35846767809E+03  0.53432310640E+03  0.50400001928E-02 0. -1.
</event>
<event>
 5   0  0.2763587E-03  0.8000100E+03  0.7818609E-02  0.9560003E-01
       -2   -1    0    0    0  501  0.00000000000E+00  0.00000000000E+00  0.18870415000E+03  0.18870415002E+03  0.25500000920E-02 0.  1.
        2   -1    0    0  501    0  0.00000000000E+00  0.00000000000E+00 -0.84790925478E+03  0.84790925478E+03  0.25500000920E-02 0. -1.
    10030    2    1    2    0    0  0.00000000000E+00  0.00000000000E+00 -0.65920510478E+03  0.10366134048E+04  0.80000998797E+03 0.  0.
        3    1    3    3  502    0  0.21175438052E+03 -0.20239151766E+03 -0.68256496463E+03  0.74276320939E+03  0.10100000352E+00 0.  1.
       -3    1    3    3    0  502 -0.21175438052E+03  0.20239151766E+03  0.23359859853E+02  0.29385019541E+03  0.10100000352E+00 0. -1.
</event>
<event>
 5   0  0.2873212E-03  0.8001586E+03  0.7818609E-02  0.9559788E-01
       -2   -1    0    0    0  501  0.00000000000E+00  0.00000000000E+00  0.76682135085E+02  0.76682135127E+02  0.25500000920E-02 0. -1.
        2   -1    0    0  501    0  0.00000000000E+00  0.00000000000E+00 -0.20873630972E+04  0.20873630972E+04  0.25500000920E-02 0.  1.
    10030    2    1    2    0    0  0.00000000000E+00  0.00000000000E+00 -0.20106809621E+04  0.21640452323E+04  0.80015863186E+03 0.  0.
        2    1    3    3  502    0  0.59324642190E+01 -0.39756447584E+03 -0.11254026754E+04  0.11935760924E+04  0.25500000920E-02 0. -1.
       -2    1    3    3    0  502 -0.59324642190E+01  0.39756447584E+03 -0.88527828671E+03  0.97046913990E+03  0.25500000920E-02 0.  1.
</event>
<event>
 5   0  0.2910501E-03  0.7998765E+03  0.7818609E-02  0.9560196E-01
       -2   -1    0    0    0  501  0.00000000000E+00  0.00000000000E+00  0.34752771952E+03  0.34752771952E+03  0.25500000920E-02 0.  1.
        2   -1    0    0  501    0  0.00000000000E+00  0.00000000000E+00 -0.46025276106E+03  0.46025276106E+03  0.25500000920E-02 0. -1.
    10030    2    1    2    0    0  0.00000000000E+00  0.00000000000E+00 -0.11272504154E+03  0.80778048059E+03  0.79987647161E+03 0.  0.
        1    1    3    3  502    0  0.88175711380E+02  0.19821717397E+03  0.28294202861E+03  0.35654059476E+03  0.50400001928E-02 0.  1.
       -1    1    3    3    0  502 -0.88175711380E+02 -0.19821717397E+03 -0.39566707015E+03  0.45123988583E+03  0.50400001928E-02 0. -1.
</event>
<event>
 5   0  0.2873212E-03  0.8043140E+03  0.7818609E-02  0.9553794E-01
       -2   -1    0    0    0  501  0.00000000000E+00  0.00000000000E+00  0.28076240015E+03  0.28076240016E+03  0.25500000920E-02 0. -1.
        2   -1    0    0  501    0  0.00000000000E+00  0.00000000000E+00 -0.57603956117E+03  0.57603956117E+03  0.25500000920E-02 0.  1.
    10030    2    1    2    0    0  0.00000000000E+00  0.00000000000E+00 -0.29527716102E+03  0.85680196133E+03  0.80431399287E+03 0.  0.
        2    1    3    3  502    0 -0.12526424166E+03 -0.94295157451E+02 -0.54214024797E+03  0.56435693973E+03  0.25500000920E-02 0.  1.
       -2    1    3    3    0  502  0.12526424166E+03  0.94295157451E+02  0.24686308694E+03  0.29244502160E+03  0.25500000920E-02 0. -1.
</event>
<event>
 5   0  0.1617491E-03  0.8014225E+03  0.7818609E-02  0.9557960E-01
       -1   -1    0    0    0  501  0.00000000000E+00  0.00000000000E+00  0.22551555834E+03  0.22551555839E+03  0.50400001928E-02 0. -1.
        1   -1    0    0  501    0  0.00000000000E+00  0.00000000000E+00 -0.71201074111E+03  0.71201074113E+03  0.50400001928E-02 0.  1.
    10030    2    1    2    0    0  0.00000000000E+00  0.00000000000E+00 -0.48649518278E+03  0.93752629952E+03  0.80142248498E+03 0.  0.
        1    1    3    3  502    0 -0.31458042651E+03 -0.18818972944E+03 -0.53918702572E+02  0.37051780729E+03  0.50400001928E-02 0. -1.
       -1    1    3    3    0  502  0.31458042651E+03  0.18818972944E+03 -0.43257648021E+03  0.56700849223E+03  0.50400001928E-02 0.  1.
</event>
<event>
 5   0  0.1637228E-03  0.8033772E+03  0.7818609E-02  0.9555142E-01
        1   -1    0    0  501    0  0.00000000000E+00  0.00000000000E+00  0.52797799703E+03  0.52797799705E+03  0.50400001928E-02 0.  1.
       -1   -1    0    0    0  501  0.00000000000E+00  0.00000000000E+00 -0.30560690543E+03  0.30560690547E+03  0.50400001928E-02 0. -1.
    10030    2    1    2    0    0  0.00000000000E+00  0.00000000000E+00  0.22237109160E+03  0.83358490252E+03  0.80337717626E+03 0.  0.
        2    1    3    3  502    0  0.59429674019E+02 -0.12148881573E+03 -0.28127224734E+03  0.31209853513E+03  0.25500000920E-02 0. -1.
       -2    1    3    3    0  502 -0.59429674019E+02  0.12148881573E+03  0.50364333894E+03  0.52148636739E+03  0.25500000920E-02 0.  1.
</event>
<event>
 5   0  0.1712793E-03  0.7990833E+03  0.7818609E-02  0.9561345E-01
        1   -1    0    0  501    0  0.00000000000E+00  0.00000000000E+00  0.46871757966E+03  0.46871757969E+03  0.50400001928E-02 0.  1.
       -1   -1    0    0    0  501  0.00000000000E+00  0.00000000000E+00 -0.34057509053E+03  0.34057509057E+03  0.50400001928E-02 0. -1.
    10030    2    1    2    0    0  0.00000000000E+00  0.00000000000E+00  0.12814248913E+03  0.80929267026E+03  0.79908330518E+03 0.  0.
        4    1    3    3  502    0  0.19901569789E+03 -0.33220338707E+03 -0.35498531209E+02  0.38888056907E+03  0.12699999809E+01 0. -1.
       -4    1    3    3    0  502 -0.19901569789E+03  0.33220338707E+03  0.16364102034E+03  0.42041210119E+03  0.12699999809E+01 0.  1.
</event>
<event>
 5   0  0.1640035E-03  0.7879682E+03  0.7818609E-02  0.9577598E-01
        1   -1    0    0  501    0  0.00000000000E+00  0.00000000000E+00  0.21048704862E+04  0.21048704862E+04  0.50400001928E-02 0.  1.
       -1   -1    0    0    0  501  0.00000000000E+00  0.00000000000E+00 -0.73744894278E+02  0.73744894450E+02  0.50400001928E-02 0. -1.
    10030    2    1    2    0    0  0.00000000000E+00  0.00000000000E+00  0.20311255919E+04  0.21786153806E+04  0.78796815079E+03 0.  0.
        5    1    3    3  502    0 -0.14695622789E+03 -0.19378559272E+01  0.49669112515E+01  0.14712800008E+03  0.46999998093E+01 0.  1.
       -5    1    3    3    0  502  0.14695622789E+03  0.19378559272E+01  0.20261586806E+04  0.20314873805E+04  0.46999998093E+01 0. -1.
</event>
<event>
 5   0  0.2763587E-03  0.8002860E+03  0.7818609E-02  0.9559603E-01
       -2   -1    0    0    0  501  0.00000000000E+00  0.00000000000E+00  0.20470888549E+03  0.20470888550E+03  0.25500000920E-02 0. -1.
        2   -1    0    0  501    0  0.00000000000E+00  0.00000000000E+00 -0.78215657734E+03  0.78215657735E+03  0.25500000920E-02 0.  1.
    10030    2    1    2    0    0  0.00000000000E+00  0.00000000000E+00 -0.57744769186E+03  0.98686546285E+03  0.80028595198E+03 0.  0.
        3    1    3    3  502    0 -0.22701800932E+03  0.23976507291E+03 -0.56745170977E+03  0.65652564296E+03  0.10100000352E+00 0.  1.
       -3    1    3    3    0  502  0.22701800932E+03 -0.23976507291E+03 -0.99959820894E+01  0.33033981989E+03  0.10100000352E+00 0. -1.
</event>
<event>
 5   0  0.1095350E-03  0.8007966E+03  0.7818609E-02  0.9558865E-01
       -3   -1    0    0    0  501  0.00000000000E+00  0.00000000000E+00  0.21951432457E+03  0.21951434781E+03  0.10100000352E+00 0. -1.
        3   -1    0    0  501    0  0.00000000000E+00  0.00000000000E+00 -0.73033408645E+03  0.73033409343E+03  0.10100000352E+00 0.  1.
    10030    2    1    2    0    0  0.00000000000E+00  0.00000000000E+00 -0.51081976188E+03  0.94984844124E+03  0.80079662349E+03 0.  0.
        4    1    3    3  502    0  0.34328063543E+03  0.11692899274E+03 -0.54105820456E+02  0.36666474703E+03  0.12699999809E+01 0. -1.
       -4    1    3    3    0  502 -0.34328063543E+03 -0.11692899274E+03 -0.45671394142E+03  0.58318369421E+03  0.12699999809E+01 0.  1.
</event>
<event>
 5   0  0.2763587E-03  0.8017383E+03  0.7818609E-02  0.9557504E-01
        2   -1    0    0  501    0  0.00000000000E+00  0.00000000000E+00  0.59270788262E+03  0.59270788262E+03  0.25500000920E-02 0. -1.
       -2   -1    0    0    0  501  0.00000000000E+00  0.00000000000E+00 -0.27112189609E+03  0.27112189610E+03  0.25500000920E-02 0.  1.
    10030    2    1    2    0    0  0.00000000000E+00  0.00000000000E+00  0.32158598653E+03  0.86382977872E+03  0.80173832381E+03 0.  0.
        3    1    3    3  502    0 -0.22328256365E+03  0.16960494288E+03 -0.14788191672E+03  0.31700159522E+03  0.10100000352E+00 0.  1.
       -3    1    3    3    0  502  0.22328256365E+03 -0.16960494288E+03  0.46946790325E+03  0.54682818350E+03  0.10100000352E+00 0. -1.
</event>
<event>
 5   0  0.1656051E-03  0.7998876E+03  0.7818609E-02  0.9560180E-01
       -1   -1    0    0    0  501  0.00000000000E+00  0.00000000000E+00  0.39605934217E+03  0.39605934220E+03  0.50400001928E-02 0. -1.
        1   -1    0    0  501    0  0.00000000000E+00  0.00000000000E+00 -0.40386640000E+03  0.40386640003E+03  0.50400001928E-02 0.  1.
    10030    2    1    2    0    0  0.00000000000E+00  0.00000000000E+00 -0.78070578319E+01  0.79992574223E+03  0.79988764394E+03 0.  0.
        3    1    3    3  502    0  0.17489930491E+03  0.33661138883E+03 -0.13062995196E+03  0.40119968656E+03  0.10100000352E+00 0.  1.
       -3    1    3    3    0  502 -0.17489930491E+03 -0.33661138883E+03  0.12282289413E+03  0.39872605567E+03  0.10100000352E+00 0. -1.
</event>
<event>
 5   0  0.1712793E-03  0.7999691E+03  0.7818609E-02  0.9560062E-01
        1   -1    0    0  501    0  0.00000000000E+00  0.00000000000E+00  0.39541238293E+03  0.39541238297E+03  0.50400001928E-02 0. -1.
       -1   -1    0    0    0  501  0.00000000000E+00  0.00000000000E+00 -0.40460954215E+03  0.40460954218E+03  0.50400001928E-02 0.  1.
    10030    2    1    2    0    0  0.00000000000E+00  0.00000000000E+00 -0.91971592117E+01  0.80002192514E+03  0.79996905751E+03 0.  0.
        4    1    3    3  502    0 -0.12030558543E+03  0.54628452986E+02 -0.38215274495E+03  0.40435137583E+03  0.12699999809E+01 0.  1.
       -4    1    3    3    0  502  0.12030558543E+03 -0.54628452986E+02  0.37295558574E+03  0.39567054932E+03  0.12699999809E+01 0. -1.
</event>
<event>
 5   0  0.1640035E-03  0.7896767E+03  0.7818609E-02  0.9575081E-01
        1   -1    0    0  501    0  0.00000000000E+00  0.00000000000E+00  0.22554070946E+04  0.22554070946E+04  0.50400001928E-02 0.  1.
       -1   -1    0    0    0  501  0.00000000000E+00  0.00000000000E+00 -0.69121585215E+02  0.69121585398E+02  0.50400001928E-02 0. -1.
    10030    2    1    2    0    0  0.00000000000E+00  0.00000000000E+00  0.21862855094E+04  0.23245286800E+04  0.78967667790E+03 0.  0.
        5    1    3    3  502    0  0.49415813783E+02 -0.16547326631E+03  0.48036867715E+02  0.17931245125E+03  0.46999998093E+01 0. -1.
       -5    1    3    3    0  502 -0.49415813783E+02  0.16547326631E+03  0.21382486417E+04  0.21452162288E+04  0.46999998093E+01 0.  1.
</event>
<event>
 5   0  0.2768834E-03  0.8062490E+03  0.7818609E-02  0.9551016E-01
       -2   -1    0    0    0  501  0.00000000000E+00  0.00000000000E+00  0.10664615013E+03  0.10664615016E+03  0.25500000920E-02 0.  1.
        2   -1    0    0  501    0  0.00000000000E+00  0.00000000000E+00 -0.15238185187E+04  0.15238185187E+04  0.25500000920E-02 0. -1.
    10030    2    1    2    0    0  0.00000000000E+00  0.00000000000E+00 -0.14171723686E+04  0.16304646689E+04  0.80624903981E+03 0.  0.
        4    1    3    3  502    0 -0.17689748312E+03 -0.33047920235E+03 -0.40864290172E+03  0.55452669615E+03  0.12699999809E+01 0.  1.
       -4    1    3    3    0  502  0.17689748312E+03  0.33047920235E+03 -0.10085294669E+04  0.10759379728E+04  0.12699999809E+01 0. -1.
</event>
<event>
 5   0  0.2768834E-03  0.8010431E+03  0.7818609E-02  0.9558509E-01
       -2   -1    0    0    0  501  0.00000000000E+00  0.00000000000E+00  0.33999252757E+03  0.33999252758E+03  0.25500000920E-02 0.  1.
        2   -1    0    0  501    0  0.00000000000E+00  0.00000000000E+00 -0.47182654463E+03  0.47182654464E+03  0.25500000920E-02 0. -1.
    10030    2    1    2    0    0  0.00000000000E+00  0.00000000000E+00 -0.13183401706E+03  0.81181907222E+03  0.80104306874E+03 0.  0.
        4    1    3    3  502    0 -0.17464217304E+03 -0.11951890520E+03 -0.41053738657E+03  0.46187359307E+03  0.12699999809E+01 0. -1.
       -4    1    3    3    0  502  0.17464217304E+03  0.11951890520E+03  0.27870336951E+03  0.34994547915E+03  0.12699999809E+01 0.  1.
</event>
<event>
 5   0  0.2763587E-03  0.7995877E+03  0.7818609E-02  0.9560614E-01
       -2   -1    0    0    0  501  0.00000000000E+00  0.00000000000E+00  0.28108238369E+03  0.28108238370E+03  0.25500000920E-02 0. -1.
        2   -1    0    0  501    0  0.00000000000E+00  0.00000000000E+00 -0.56864155310E+03  0.56864155310E+03  0.25500000920E-02 0.  1.
    10030    2    1    2    0    0  0.00000000000E+00  0.00000000000E+00 -0.28755916941E+03  0.84972393680E+03  0.79958770179E+03 0.  0.
        3    1    3    3  502    0  0.29517288304E+03 -0.22259578560E+03  0.17944055451E+02  0.37013229253E+03  0.10100000352E+00 0. -1.
       -3    1    3    3    0  502 -0.29517288304E+03  0.22259578560E+03 -0.30550322486E+03  0.47959164427E+03  0.10100000352E+00 0.  1.
</event>
<event>
 5   0  0.1617491E-03  0.7992776E+03  0.7818609E-02  0.9561063E-01
        1   -1    0    0  501    0  0.00000000000E+00  0.00000000000E+00  0.43663165792E+03  0.43663165795E+03  0.50400001928E-02 0.  1.
       -1   -1    0    0    0  501  0.00000000000E+00  0.00000000000E+00 -0.36578007214E+03  0.36578007218E+03  0.50400001928E-02 0. -1.
    10030    2    1    2    0    0  0.00000000000E+00  0.00000000000E+00  0.70851585782E+02  0.80241173013E+03  0.79927757221E+03 0.  0.
        1    1    3    3  502    0  0.27818474335E+03  0.12434080812E+03  0.29502004749E+03  0.42412759453E+03  0.50400001928E-02 0.  1.
       -1    1    3    3    0  502 -0.27818474335E+03 -0.12434080812E+03 -0.22416846171E+03  0.37828413560E+03  0.50400001928E-02 0. -1.
</event>
<event>
 5   0  0.2768834E-03  0.8007620E+03  0.7818609E-02  0.9558915E-01
        2   -1    0    0  501    0  0.00000000000E+00  0.00000000000E+00  0.67515167629E+03  0.67515167629E+03  0.25500000920E-02 0. -1.
       -2   -1    0    0    0  501  0.00000000000E+00  0.00000000000E+00 -0.23743543509E+03  0.23743543510E+03  0.25500000920E-02 0.  1.
    10030    2    1    2    0    0  0.00000000000E+00  0.00000000000E+00  0.43771624120E+03  0.91258711139E+03  0.80076196717E+03 0.  0.
        4    1    3    3  502    0  0.45359288041E+02 -0.37894422089E+03  0.35678445181E+03  0.52244898843E+03  0.12699999809E+01 0. -1.
       -4    1    3    3    0  502 -0.45359288041E+02  0.37894422089E+03  0.80931789393E+02  0.39013812296E+03  0.12699999809E+01 0.  1.
</event>
<event>
 5   0  0.1712793E-03  0.7998327E+03  0.7818609E-02  0.9560259E-01
       -1   -1    0    0    0  501  0.00000000000E+00  0.00000000000E+00  0.30998275856E+03  0.30998275860E+03  0.50400001928E-02 0. -1.
        1   -1    0    0  501    0  0.00000000000E+00  0.00000000000E+00 -0.51594192516E+03  0.51594192519E+03  0.50400001928E-02 0.  1.
    10030    2    1    2    0    0  0.00000000000E+00  0.00000000000E+00 -0.20595916660E+03  0.82592468379E+03  0.79983273563E+03 0.  0.
        4    1    3    3  502    0  0.13412302078E+03  0.37536852358E+03 -0.69662923705E+02  0.40465423393E+03  0.12699999809E+01 0.  1.
       -4    1    3    3    0  502 -0.13412302078E+03 -0.37536852358E+03 -0.13629624290E+03  0.42127044986E+03  0.12699999809E+01 0. -1.
</event>
<event>
 5   0  0.2910501E-03  0.8020913E+03  0.7818609E-02  0.9556995E-01
        2   -1    0    0  501    0  0.00000000000E+00  0.00000000000E+00  0.11811035785E+04  0.11811035785E+04  0.25500000920E-02 0. -1.
       -2   -1    0    0    0  501  0.00000000000E+00  0.00000000000E+00 -0.13617571227E+03  0.13617571229E+03  0.25500000920E-02 0.  1.
    10030    2    1    2    0    0  0.00000000000E+00  0.00000000000E+00  0.10449278662E+04  0.13172792908E+04  0.80209131919E+03 0.  0.
        1    1    3    3  502    0  0.38276457736E+03 -0.11576484292E+03  0.57247748682E+03  0.69831274761E+03  0.50400001928E-02 0.  1.
       -1    1    3    3    0  502 -0.38276457736E+03  0.11576484292E+03  0.47245037941E+03  0.61896654318E+03  0.50400001928E-02 0. -1.
</event>
<event>
 5   0  0.2690809E-03  0.8008251E+03  0.7818609E-02  0.9558824E-01
       -2   -1    0    0    0  501  0.00000000000E+00  0.00000000000E+00  0.10211857927E+03  0.10211857930E+03  0.25500000920E-02 0.  1.
        2   -1    0    0  501    0  0.00000000000E+00  0.00000000000E+00 -0.15700397360E+04  0.15700397360E+04  0.25500000920E-02 0. -1.
    10030    2    1    2    0    0  0.00000000000E+00  0.00000000000E+00 -0.14679211567E+04  0.16721583153E+04  0.80082514264E+03 0.  0.
        5    1    3    3  502    0  0.63885750803E+00 -0.38354127200E+02  0.98215269717E+02  0.10554513923E+03  0.46999998093E+01 0.  1.
       -5    1    3    3    0  502 -0.63885750803E+00  0.38354127200E+02 -0.15661364264E+04  0.15666131761E+04  0.46999998093E+01 0. -1.
</event>
<event>
 5   0  0.1712793E-03  0.8001393E+03  0.7818609E-02  0.9559816E-01
        1   -1    0    0  501    0  0.00000000000E+00  0.00000000000E+00  0.39201225972E+03  0.39201225975E+03  0.50400001928E-02 0. -1.
       -1   -1    0    0    0  501  0.00000000000E+00  0.00000000000E+00 -0.40829260671E+03  0.40829260674E+03  0.50400001928E-02 0.  1.
    10030    2    1    2    0    0  0.00000000000E+00  0.00000000000E+00 -0.16280346986E+02  0.80030486649E+03  0.80013925640E+03 0.  0.
        4    1    3    3  502    0 -0.25914740903E+03 -0.18026450495E+03  0.23767770443E+03  0.39515183845E+03  0.12699999809E+01 0. -1.
       -4    1    3    3    0  502  0.25914740903E+03  0.18026450495E+03 -0.25395805141E+03  0.40515302804E+03  0.12699999809E+01 0.  1.
</event>
<event>
 5   0  0.1617491E-03  0.8000598E+03  0.7818609E-02  0.9559931E-01
       -1   -1    0    0    0  501  0.00000000000E+00  0.00000000000E+00  0.19330761050E+03  0.19330761057E+03  0.50400001928E-02 0.  1.
        1   -1    0    0  501    0  0.00000000000E+00  0.00000000000E+00 -0.82782007501E+03  0.82782007502E+03  0.50400001928E-02 0. -1.
    10030    2    1    2    0    0  0.00000000000E+00  0.00000000000E+00 -0.63451246450E+03  0.10211276856E+04  0.80005979944E+03 0.  0.
        1    1    3    3  502    0  0.28233021931E+03 -0.13277399797E+02 -0.67856200222E+03  0.73507348814E+03  0.50400001928E-02 0. -1.
       -1    1    3    3    0  502 -0.28233021931E+03  0.13277399797E+02  0.44049537720E+02  0.28605419745E+03  0.50400001928E-02 0.  1.
</event>
<event>
 5   0  0.1712793E-03  0.7989874E+03  0.7818609E-02  0.9561484E-01
       -1   -1    0    0    0  501  0.00000000000E+00  0.00000000000E+00  0.46102820678E+03  0.46102820680E+03  0.50400001928E-02 0. -1.
        1   -1    0    0  501    0  0.00000000000E+00  0.00000000000E+00 -0.34617231852E+03  0.34617231856E+03  0.50400001928E-02 0.  1.
    10030    2    1    2    0    0  0.00000000000E+00  0.00000000000E+00  0.11485588825E+03  0.80720052536E+03  0.79898736729E+03 0.  0.
        4    1    3    3  502    0 -0.35532755858E+03 -0.11666245589E+03  0.19932020293E+03  0.42378999362E+03  0.12699999809E+01 0. -1.
       -4    1    3    3    0  502  0.35532755858E+03  0.11666245589E+03 -0.84464314679E+02  0.38341053174E+03  0.12699999809E+01 0.  1.
</event>
<event>
 5   0  0.2768834E-03  0.8005414E+03  0.7818609E-02  0.9559234E-01
       -2   -1    0    0    0  501  0.00000000000E+00  0.00000000000E+00  0.77765986930E+02  0.77765986971E+02  0.25500000920E-02 0. -1.
        2   -1    0    0  501    0  0.00000000000E+00  0.00000000000E+00 -0.20602403193E+04  0.20602403193E+04  0.25500000920E-02 0.  1.
    10030    2    1    2    0    0  0.00000000000E+00  0.00000000000E+00 -0.19824743324E+04  0.21380063063E+04  0.80054137129E+03 0.  0.
        4    1    3    3  502    0  0.28823990750E+01  0.39743182091E+03 -0.86442392194E+03  0.95141509879E+03  0.12699999809E+01 0.  1.
       -4    1    3    3    0  502 -0.28823990750E+01 -0.39743182091E+03 -0.11180504104E+04  0.11865912075E+04  0.12699999809E+01 0. -1.
</event>
<event>
 5   0  0.1617491E-03  0.8021836E+03  0.7818609E-02  0.9556862E-01
        1   -1    0    0  501    0  0.00000000000E+00  0.00000000000E+00  0.55334473688E+03  0.55334473690E+03  0.50400001928E-02 0. -1.
       -1   -1    0    0    0  501  0.00000000000E+00  0.00000000000E+00 -0.29073131556E+03  0.29073131560E+03  0.50400001928E-02 0.  1.
    10030    2    1    2    0    0  0.00000000000E+00  0.00000000000E+00  0.26261342132E+03  0.84407605250E+03  0.80218362820E+03 0.  0.
        1    1    3    3  502    0 -0.22628482972E+03 -0.39003471972E+02  0.47734019983E+03  0.52969780195E+03  0.50400001928E-02 0. -1.
       -1    1    3    3    0  502  0.22628482972E+03  0.39003471972E+02 -0.21472677852E+03  0.31437825056E+03  0.50400001928E-02 0.  1.
</event>
<event>
 5   0  0.2910501E-03  0.8013180E+03  0.7818609E-02  0.9558111E-01
       -2   -1    0    0    0  501  0.00000000000E+00  0.00000000000E+00  0.20133044958E+03  0.20133044960E+03  0.25500000920E-02 0.  1.
        2   -1    0    0  501    0  0.00000000000E+00  0.00000000000E+00 -0.79733411357E+03  0.79733411357E+03  0.25500000920E-02 0. -1.
    10030    2    1    2    0    0  0.00000000000E+00  0.00000000000E+00 -0.59600366399E+03  0.99866456317E+03  0.80131800320E+03 0.  0.
        1    1    3    3  502    0  0.94097478623E+02  0.37303454153E+03 -0.15856053238E+03  0.41611362284E+03  0.50400001928E-02 0.  1.
       -1    1    3    3    0  502 -0.94097478623E+02 -0.37303454153E+03 -0.43744313161E+03  0.58255094033E+03  0.50400001928E-02 0. -1.
</event>
<event>
 5   0  0.1095350E-03  0.8013385E+03  0.7818609E-02  0.9558082E-01
       -3   -1    0    0    0  501  0.00000000000E+00  0.00000000000E+00  0.11645144456E+03  0.11645148836E+03  0.10100000352E+00 0. -1.
        3   -1    0    0  501    0  0.00000000000E+00  0.00000000000E+00 -0.13785644739E+04  0.13785644776E+04  0.10100000352E+00 0.  1.
    10030    2    1    2    0    0  0.00000000000E+00  0.00000000000E+00 -0.12621130294E+04  0.14950159660E+04  0.80133853001E+03 0.  0.
        2    1    3    3  502    0  0.21291075218E+02 -0.31418054266E+03 -0.10932448340E+04  0.11376937155E+04  0.25500000920E-02 0.  1.
       -2    1    3    3    0  502 -0.21291075218E+02  0.31418054266E+03 -0.16886819538E+03  0.35732225048E+03  0.25500000920E-02 0. -1.
</event>
<event>
 5   0  0.1640035E-03  0.8006945E+03  0.7818609E-02  0.9559012E-01
        1   -1    0    0  501    0  0.00000000000E+00  0.00000000000E+00  0.66948887249E+03  0.66948887250E+03  0.50400001928E-02 0.  1.
       -1   -1    0    0    0  501  0.00000000000E+00  0.00000000000E+00 -0.23940342940E+03  0.23940342946E+03  0.50400001928E-02 0. -1.
    10030    2    1    2    0    0  0.00000000000E+00  0.00000000000E+00  0.43008544308E+03  0.90889230196E+03  0.80069452865E+03 0.  0.
        5    1    3    3  502    0  0.30614961293E+02 -0.18386987039E+03 -0.18710488199E+03  0.26415096433E+03  0.46999998093E+01 0. -1.
       -5    1    3    3    0  502 -0.30614961293E+02  0.18386987039E+03  0.61719032507E+03  0.64474133763E+03  0.46999998093E+01 0.  1.
</event>
<event>
 5   0  0.2763587E-03  0.7911171E+03  0.7818609E-02  0.9572964E-01
        2   -1    0    0  501    0  0.00000000000E+00  0.00000000000E+00  0.69145574575E+03  0.69145574576E+03  0.25500000920E-02 0. -1.
       -2   -1    0    0    0  501  0.00000000000E+00  0.00000000000E+00 -0.22628573973E+03  0.22628573975E+03  0.25500000920E-02 0.  1.
    10030    2    1    2    0    0  0.00000000000E+00  0.00000000000E+00  0.46517000602E+03  0.91774148551E+03  0.79111712137E+03 0.  0.
        3    1    3    3  502    0  0.21591554675E+03 -0.26482416772E+02  0.61583568943E+03  0.65312667095E+03  0.10100000352E+00 0. -1.
       -3    1    3    3    0  502 -0.21591554675E+03  0.26482416772E+02 -0.15066568341E+03  0.26461481456E+03  0.10100000352E+00 0.  1.
</event>
<event>
 5   0  0.1617491E-03  0.8000065E+03  0.7818609E-02  0.9560008E-01
        1   -1    0    0  501    0  0.00000000000E+00  0.00000000000E+00  0.32255873914E+03  0.32255873918E+03  0.50400001928E-02 0. -1.
       -1   -1    0    0    0  501  0.00000000000E+00  0.00000000000E+00 -0.49604174915E+03  0.49604174918E+03  0.50400001928E-02 0.  1.
    10030    2    1    2    0    0  0.00000000000E+00  0.00000000000E+00 -0.17348301001E+03  0.81860048835E+03  0.80000650295E+03 0.  0.
        1    1    3    3  502    0 -0.16066348683E+03  0.29655586221E+03  0.13330190442E+03  0.36266724854E+03  0.50400001928E-02 0. -1.
       -1    1    3    3    0  502  0.16066348683E+03 -0.29655586221E+03 -0.30678491444E+03  0.45593323981E+03  0.50400001928E-02 0.  1.
</event>
<event>
 5   0  0.1640035E-03  0.7978503E+03  0.7818609E-02  0.9563134E-01
       -1   -1    0    0    0  501  0.00000000000E+00  0.00000000000E+00  0.79566217330E+03  0.79566217331E+03  0.50400001928E-02 0.  1.
        1   -1    0    0  501    0  0.00000000000E+00  0.00000000000E+00 -0.20001112889E+03  0.20001112895E+03  0.50400001928E-02 0. -1.
    10030    2    1    2    0    0  0.00000000000E+00  0.00000000000E+00  0.59565104441E+03  0.99567330226E+03  0.79785033567E+03 0.  0.
        5    1    3    3  502    0  0.74111088534E+02  0.19269187915E+03  0.72376905527E+03  0.75265287424E+03  0.46999998093E+01 0.  1.
       -5    1    3    3    0  502 -0.74111088534E+02 -0.19269187915E+03 -0.12811801086E+03  0.24302042803E+03  0.46999998093E+01 0. -1.
</event>
<event>
 5   0  0.1095350E-03  0.7995293E+03  0.7818609E-02  0.9560699E-01
        3   -1    0    0  501    0  0.00000000000E+00  0.00000000000E+00  0.32164258561E+03  0.32164260147E+03  0.10100000352E+00 0. -1.
       -3   -1    0    0    0  501  0.00000000000E+00  0.00000000000E+00 -0.49686132640E+03  0.49686133666E+03  0.10100000352E+00 0.  1.
    10030    2    1    2    0    0  0.00000000000E+00  0.00000000000E+00 -0.17521874079E+03  0.81850393814E+03  0.79952929253E+03 0.  0.
        1    1    3    3  502    0  0.53552717798E+02 -0.32284159515E+03  0.14744184013E+03  0.35893409617E+03  0.50400001928E-02 0.  1.
       -1    1    3    3    0  502 -0.53552717798E+02  0.32284159515E+03 -0.32266058092E+03  0.45956984197E+03  0.50400001928E-02 0. -1.
</event>
<event>
 5   0  0.2690809E-03  0.8034638E+03  0.7818609E-02  0.9555017E-01
       -2   -1    0    0    0  501  0.00000000000E+00  0.00000000000E+00  0.11177721602E+03  0.11177721605E+03  0.25500000920E-02 0.  1.
        2   -1    0    0  501    0  0.00000000000E+00  0.00000000000E+00 -0.14438407833E+04  0.14438407833E+04  0.25500000920E-02 0. -1.
    10030    2    1    2    0    0  0.00000000000E+00  0.00000000000E+00 -0.13320635673E+04  0.15556179994E+04  0.80346375938E+03 0.  0.
        5    1    3    3  502    0  0.13895618470E+03 -0.96859646713E+02 -0.13712646207E+04  0.13816943810E+04  0.46999998093E+01 0. -1.
       -5    1    3    3    0  502 -0.13895618470E+03  0.96859646713E+02  0.39201053453E+02  0.17392361835E+03  0.46999998093E+01 0.  1.
</event>
<event>
 5   0  0.1617491E-03  0.8014123E+03  0.7818609E-02  0.9557975E-01
        1   -1    0    0  501    0  0.00000000000E+00  0.00000000000E+00  0.38665059803E+03  0.38665059806E+03  0.50400001928E-02 0. -1.
       -1   -1    0    0    0  501  0.00000000000E+00  0.00000000000E+00 -0.41527268657E+03  0.41527268660E+03  0.50400001928E-02 0.  1.
    10030    2    1    2    0    0  0.00000000000E+00  0.00000000000E+00 -0.28622088535E+02  0.80192328466E+03  0.80141233490E+03 0.  0.
        1    1    3    3  502    0 -0.26778133418E+02 -0.23762522723E+03  0.30742562316E+03  0.38947828032E+03  0.50400001928E-02 0. -1.
       -1    1    3    3    0  502  0.26778133418E+02  0.23762522723E+03 -0.33604771169E+03  0.41244500434E+03  0.50400001928E-02 0.  1.
</event>
<event>
 5   0  0.1640035E-03  0.8012596E+03  0.7818609E-02  0.9558196E-01
        1   -1    0    0  501    0  0.00000000000E+00  0.00000000000E+00  0.27676677209E+03  0.27676677214E+03  0.50400001928E-02 0.  1.
       -1   -1    0    0    0  501  0.00000000000E+00  0.00000000000E+00 -0.57992592094E+03  0.57992592096E+03  0.50400001928E-02 0. -1.
    10030    2    1    2    0    0  0.00000000000E+00  0.00000000000E+00 -0.30315914885E+03  0.85669269310E+03  0.80125957147E+03 0.  0.
        5    1    3    3  502    0 -0.12653809254E+03 -0.38006402376E+03 -0.14661228134E+03  0.42658856297E+03  0.46999998093E+01 0. -1.
       -5    1    3    3    0  502  0.12653809254E+03  0.38006402376E+03 -0.15654686751E+03  0.43010413012E+03  0.46999998093E+01 0.  1.
</event>
<event>
 5   0  0.1656051E-03  0.8002158E+03  0.7818609E-02  0.9559705E-01
        1   -1    0    0  501    0  0.00000000000E+00  0.00000000000E+00  0.34912595759E+03  0.34912595763E+03  0.50400001928E-02 0.  1.
       -1   -1    0    0    0  501  0.00000000000E+00  0.00000000000E+00 -0.45853464677E+03  0.45853464679E+03  0.50400001928E-02 0. -1.
    10030    2    1    2    0    0  0.00000000000E+00  0.00000000000E+00 -0.10940868917E+03  0.80766060442E+03  0.80021584005E+03 0.  0.
        3    1    3    3  502    0  0.16709915501E+02  0.64499664597E+02 -0.45289586431E+03  0.45777079649E+03  0.10100000352E+00 0. -1.
       -3    1    3    3    0  502 -0.16709915501E+02 -0.64499664597E+02  0.34348717514E+03  0.34988980793E+03  0.10100000352E+00 0.  1.
</event>
<event>
 5   0  0.2768834E-03  0.8028856E+03  0.7818609E-02  0.9555850E-01
       -2   -1    0    0    0  501  0.00000000000E+00  0.00000000000E+00  0.40817695364E+03  0.40817695365E+03  0.25500000920E-02 0. -1.
        2   -1    0    0  501    0  0.00000000000E+00  0.00000000000E+00 -0.39481978896E+03  0.39481978897E+03  0.25500000920E-02 0.  1.
    10030    2    1    2    0    0  0.00000000000E+00  0.00000000000E+00  0.13357164676E+02  0.80299674262E+03  0.80288564242E+03 0.  0.
        4    1    3    3  502    0  0.75512340451E+02  0.39168280856E+03 -0.38462901431E+02  0.40074748130E+03  0.12699999809E+01 0.  1.
       -4    1    3    3    0  502 -0.75512340451E+02 -0.39168280856E+03  0.51820066107E+02  0.40224926132E+03  0.12699999809E+01 0. -1.
</event>
<event>
 5   0  0.1637228E-03  0.8002316E+03  0.7818609E-02  0.9559682E-01
        1   -1    0    0  501    0  0.00000000000E+00  0.00000000000E+00  0.12835672257E+04  0.12835672257E+04  0.50400001928E-02 0.  1.
       -1   -1    0    0    0  501  0.00000000000E+00  0.00000000000E+00 -0.12472479904E+03  0.12472479914E+03  0.50400001928E-02 0. -1.
    10030    2    1    2    0    0  0.00000000000E+00  0.00000000000E+00  0.11588424266E+04  0.14082920248E+04  0.80023162735E+03 0.  0.
        2    1    3    3  502    0  0.14976698457E+03 -0.37091831380E+03  0.56347346853E+03  0.69102307843E+03  0.25500000920E-02 0.  1.
       -2    1    3    3    0  502 -0.14976698457E+03  0.37091831380E+03  0.59536895810E+03  0.71726894639E+03  0.25500000920E-02 0. -1.
</event>
<event>
 5   0  0.1640035E-03  0.8010676E+03  0.7818609E-02  0.9558473E-01
        1   -1    0    0  501    0  0.00000000000E+00  0.00000000000E+00  0.30459805487E+03  0.30459805491E+03  0.50400001928E-02 0.  1.
       -1   -1    0    0    0  501  0.00000000000E+00  0.00000000000E+00 -0.52668535881E+03  0.52668535883E+03  0.50400001928E-02 0. -1.
    10030    2    1    2    0    0  0.00000000000E+00  0.00000000000E+00 -0.22208730394E+03  0.83128341374E+03  0.80106762722E+03 0.  0.
        5    1    3    3  502    0  0.20488859031E+03  0.49380284714E+02  0.24237179347E+03  0.32122254470E+03  0.46999998093E+01 0.  1.
       -5    1    3    3    0  502 -0.20488859031E+03 -0.49380284714E+02 -0.46445909741E+03  0.51006086904E+03  0.46999998093E+01 0. -1.
</event>
<event>
 5   0  0.2910501E-03  0.7991815E+03  0.7818609E-02  0.9561203E-01
        2   -1    0    0  501    0  0.00000000000E+00  0.00000000000E+00  0.44979184153E+03  0.44979184153E+03  0.25500000920E-02 0.  1.
       -2   -1    0    0    0  501  0.00000000000E+00  0.00000000000E+00 -0.35499258441E+03  0.35499258442E+03  0.25500000920E-02 0. -1.
    10030    2    1    2    0    0  0.00000000000E+00  0.00000000000E+00  0.94799257112E+02  0.80478442596E+03  0.79918150198E+03 0.  0.
        1    1    3    3  502    0  0.15839095977E+02  0.11971244651E+03 -0.33617874214E+03  0.35720875339E+03  0.50400001928E-02 0. -1.
       -1    1    3    3    0  502 -0.15839095977E+02 -0.11971244651E+03  0.43097799925E+03  0.44757567256E+03  0.50400001928E-02 0.  1.
</event>
<event>
 5   0  0.2768834E-03  0.8007078E+03  0.7818609E-02  0.9558993E-01
        2   -1    0    0  501    0  0.00000000000E+00  0.00000000000E+00  0.73740224079E+03  0.73740224079E+03  0.25500000920E-02 0. -1.
       -2   -1    0    0    0  501  0.00000000000E+00  0.00000000000E+00 -0.21736202966E+03  0.21736202968E+03  0.25500000920E-02 0.  1.
    10030    2    1    2    0    0  0.00000000000E+00  0.00000000000E+00  0.52004021113E+03  0.95476427047E+03  0.80070780624E+03 0.  0.
        4    1    3    3  502    0  0.61716861458E+02 -0.29479342550E+01  0.73168035186E+03  0.73428564708E+03  0.12699999809E+01 0. -1.
       -4    1    3    3    0  502 -0.61716861458E+02  0.29479342550E+01 -0.21164014073E+03  0.22047862339E+03  0.12699999809E+01 0.  1.
</event>
<event>
 5   0  0.2768834E-03  0.8001196E+03  0.7818609E-02  0.9559844E-01
       -2   -1    0    0    0  501  0.00000000000E+00  0.00000000000E+00  0.14176955687E+03  0.14176955689E+03  0.25500000920E-02 0. -1.
        2   -1    0    0  501    0  0.00000000000E+00  0.00000000000E+00 -0.11289294253E+04  0.11289294253E+04  0.25500000920E-02 0.  1.
    10030    2    1    2    0    0  0.00000000000E+00  0.00000000000E+00 -0.98715986848E+03  0.12706989822E+04  0.80011955202E+03 0.  0.
        4    1    3    3  502    0 -0.42768774103E+02 -0.21521190557E+03  0.37676922329E+02  0.22263534246E+03  0.12699999809E+01 0. -1.
       -4    1    3    3    0  502  0.42768774103E+02  0.21521190557E+03 -0.10248367908E+04  0.10480636398E+04  0.12699999809E+01 0.  1.
</event>
<event>
 5   0  0.2768834E-03  0.7996001E+03  0.7818609E-02  0.9560596E-01
        2   -1    0    0  501    0  0.00000000000E+00  0.00000000000E+00  0.11926187063E+03  0.11926187066E+03  0.25500000920E-02 0. -1.
       -2   -1    0    0    0  501  0.00000000000E+00  0.00000000000E+00 -0.13402447664E+04  0.13402447664E+04  0.25500000920E-02 0.  1.
    10030    2    1    2    0    0  0.00000000000E+00  0.00000000000E+00 -0.12209828958E+04  0.14595066371E+04  0.79960014499E+03 0.  0.
        4    1    3    3  502    0  0.10825932553E+03 -0.20203389000E+03 -0.12083996478E+04  0.12299467858E+04  0.12699999809E+01 0.  1.
       -4    1    3    3    0  502 -0.10825932553E+03  0.20203389000E+03 -0.12583247976E+02  0.22955985124E+03  0.12699999809E+01 0. -1.
</event>
<event>
 5   0  0.2763587E-03  0.7951042E+03  0.7818609E-02  0.9567131E-01
        2   -1    0    0  501    0  0.00000000000E+00  0.00000000000E+00  0.34795269038E+03  0.34795269039E+03  0.25500000920E-02 0.  1.
       -2   -1    0    0    0  501  0.00000000000E+00  0.00000000000E+00 -0.45422175216E+03  0.45422175216E+03  0.25500000920E-02 0. -1.
    10030    2    1    2    0    0  0.00000000000E+00  0.00000000000E+00 -0.10626906177E+03  0.80217444255E+03  0.79510422134E+03 0.  0.
        3    1    3    3  502    0 -0.35468192504E+03 -0.68351536864E+02  0.11440376657E+03  0.37889237594E+03  0.10100000352E+00 0.  1.
       -3    1    3    3    0  502  0.35468192504E+03  0.68351536864E+02 -0.22067282835E+03  0.42328206661E+03  0.10100000352E+00 0. -1.
</event>
<event>
 5   0  0.1656051E-03  0.7868855E+03  0.7818609E-02  0.9579196E-01
       -1   -1    0    0    0  501  0.00000000000E+00  0.00000000000E+00  0.43703862408E+03  0.43703862411E+03  0.50400001928E-02 0. -1.
        1   -1    0    0  501    0  0.00000000000E+00  0.00000000000E+00 -0.35419568496E+03  0.35419568500E+03  0.50400001928E-02 0.  1.
    10030    2    1    2    0    0  0.00000000000E+00  0.00000000000E+00  0.82842939119E+02  0.79123430911E+03  0.78688549317E+03 0.  0.
        3    1    3    3  502    0  0.18268166676E+02 -0.51679715479E+02  0.43318045456E+03  0.43663467032E+03  0.10100000352E+00 0. -1.
       -3    1    3    3    0  502 -0.18268166676E+02  0.51679715479E+02 -0.35033751544E+03  0.35459963880E+03  0.10100000352E+00 0.  1.
</event>
<event>
 5   0  0.1712793E-03  0.8038561E+03  0.7818609E-02  0.9554452E-01
       -1   -1    0    0    0  501  0.00000000000E+00  0.00000000000E+00  0.21459237425E+03  0.21459237431E+03  0.50400001928E-02 0.  1.
        1   -1    0    0  501    0  0.00000000000E+00  0.00000000000E+00 -0.75280465801E+03  0.75280465803E+03  0.50400001928E-02 0. -1.
    10030    2    1    2    0    0  0.00000000000E+00  0.00000000000E+00 -0.53821228376E+03  0.96739703234E+03  0.80385605415E+03 0.  0.
        4    1    3    3  502    0 -0.25183249894E+03  0.73665053537E+02 -0.63551210442E+03  0.68754883128E+03  0.12699999809E+01 0. -1.
       -4    1    3    3    0  502  0.25183249894E+03 -0.73665053537E+02  0.97299820663E+02  0.27984820106E+03  0.12699999809E+01 0.  1.
</event>
<event>
 5   0  0.2763587E-03  0.8010407E+03  0.7818609E-02  0.9558512E-01
        2   -1    0    0  501    0  0.00000000000E+00  0.00000000000E+00  0.43986911388E+03  0.43986911388E+03  0.25500000920E-02 0.  1.
       -2   -1    0    0    0  501  0.00000000000E+00  0.00000000000E+00 -0.36469158608E+03  0.36469158609E+03  0.25500000920E-02 0. -1.
    10030    2    1    2    0    0  0.00000000000E+00  0.00000000000E+00  0.75177527797E+02  0.80456069997E+03  0.80104073508E+03 0.  0.
        3    1    3    3  502    0  0.30831996192E+03 -0.12408358173E+03  0.26208519015E+03  0.42325712194E+03  0.10100000352E+00 0.  1.
       -3    1    3    3    0  502 -0.30831996192E+03  0.12408358173E+03 -0.18690766235E+03  0.38130357803E+03  0.10100000352E+00 0. -1.
</event>
<event>
 5   0  0.2873212E-03  0.8025416E+03  0.7818609E-02  0.9556346E-01
        2   -1    0    0  501    0  0.00000000000E+00  0.00000000000E+00  0.25493032416E+04  0.25493032416E+04  0.25500000920E-02 0. -1.
       -2   -1    0    0    0  501  0.00000000000E+00  0.00000000000E+00 -0.63161672450E+02  0.63161672502E+02  0.25500000920E-02 0.  1.
    10030    2    1    2    0    0  0.00000000000E+00  0.00000000000E+00  0.24861415692E+04  0.26124649141E+04  0.80254160364E+03 0.  0.
        2    1    3    3  502    0  0.85451406948E+02 -0.54536334512E+02  0.25069343495E+04  0.25089830584E+04  0.25500000920E-02 0. -1.
       -2    1    3    3    0  502 -0.85451406948E+02  0.54536334512E+02 -0.20792780362E+02  0.10348185567E+03  0.25500000920E-02 0.  1.
</event>
<event>
 5   0  0.1617491E-03  0.7973375E+03  0.7818609E-02  0.9563879E-01
        1   -1    0    0  501    0  0.00000000000E+00  0.00000000000E+00  0.43824263873E+03  0.43824263876E+03  0.50400001928E-02 0. -1.
       -1   -1    0    0    0  501  0.00000000000E+00  0.00000000000E+00 -0.36266842633E+03  0.36266842637E+03  0.50400001928E-02 0.  1.
    10030    2    1    2    0    0  0.00000000000E+00  0.00000000000E+00  0.75574212396E+02  0.80091106513E+03  0.79733748982E+03 0.  0.
        1    1    3    3  502    0 -0.49729179047E+02 -0.34132529408E+03 -0.16301085909E+03  0.38150817531E+03  0.50400001928E-02 0.  1.
       -1    1    3    3    0  502  0.49729179047E+02  0.34132529408E+03  0.23858507148E+03  0.41940288982E+03  0.50400001928E-02 0. -1.
</event>
<event>
 5   0  0.2910501E-03  0.7763201E+03  0.7818609E-02  0.9594940E-01
       -2   -1    0    0    0  501  0.00000000000E+00  0.00000000000E+00  0.23395712680E+03  0.23395712682E+03  0.25500000920E-02 0.  1.
        2   -1    0    0  501    0  0.00000000000E+00  0.00000000000E+00 -0.64399933163E+03  0.64399933164E+03  0.25500000920E-02 0. -1.
    10030    2    1    2    0    0  0.00000000000E+00  0.00000000000E+00 -0.41004220483E+03  0.87795645845E+03  0.77632012289E+03 0.  0.
        1    1    3    3  502    0 -0.22126716456E+03 -0.13668344672E+03  0.12084639872E+03  0.28678454427E+03  0.50400001928E-02 0.  1.
       -1    1    3    3    0  502  0.22126716456E+03  0.13668344672E+03 -0.53088860355E+03  0.59117191419E+03  0.50400001928E-02 0. -1.
</event>
<event>
 5   0  0.1637228E-03  0.8005282E+03  0.7818609E-02  0.9559253E-01
        1   -1    0    0  501    0  0.00000000000E+00  0.00000000000E+00  0.25111373921E+04  0.25111373921E+04  0.50400001928E-02 0. -1.
       -1   -1    0    0    0  501  0.00000000000E+00  0.00000000000E+00 -0.63800318116E+02  0.63800318315E+02  0.50400001928E-02 0.  1.
    10030    2    1    2    0    0  0.00000000000E+00  0.00000000000E+00  0.24473370739E+04  0.25749377104E+04  0.80052823738E+03 0.  0.
        2    1    3    3  502    0 -0.38873060005E+03 -0.75209417789E+02  0.14124179560E+04  0.14668648262E+04  0.25500000920E-02 0. -1.
       -2    1    3    3    0  502  0.38873060005E+03  0.75209417789E+02  0.10349191180E+04  0.11080728842E+04  0.25500000920E-02 0.  1.
</event>
<event>
 5   0  0.2690809E-03  0.7997558E+03  0.7818609E-02  0.9560371E-01
       -2   -1    0    0    0  501  0.00000000000E+00  0.00000000000E+00  0.19946260820E+04  0.19946260820E+04  0.25500000920E-02 0. -1.
        2   -1    0    0  501    0  0.00000000000E+00  0.00000000000E+00 -0.80166566679E+02  0.80166566720E+02  0.25500000920E-02 0.  1.
    10030    2    1    2    0    0  0.00000000000E+00  0.00000000000E+00  0.19144595153E+04  0.20747926487E+04  0.79975577483E+03 0.  0.
        5    1    3    3  502    0  0.23304537701E+03  0.31077734938E+03  0.12031744195E+04  0.12643351938E+04  0.46999998093E+01 0. -1.
       -5    1    3    3    0  502 -0.23304537701E+03 -0.31077734938E+03  0.71128509577E+03  0.81045745483E+03  0.46999998093E+01 0.  1.
</event>
<event>
 5   0  0.1637228E-03  0.8024225E+03  0.7818609E-02  0.9556517E-01
       -1   -1    0    0    0  501  0.00000000000E+00  0.00000000000E+00  0.14816774275E+03  0.14816774284E+03  0.50400001928E-02 0. -1.
        1   -1    0    0  501    0  0.00000000000E+00  0.00000000000E+00 -0.10864069022E+04  0.10864069022E+04  0.50400001928E-02 0.  1.
    10030    2    1    2    0    0  0.00000000000E+00  0.00000000000E+00 -0.93823915944E+03  0.12345746450E+04  0.80242247842E+03 0.  0.
        2    1    3    3  502    0  0.20846967944E+03 -0.50963426282E+02  0.52435218781E+02  0.22092154770E+03  0.25500000920E-02 0. -1.
       -2    1    3    3    0  502 -0.20846967944E+03  0.50963426282E+02 -0.99067437822E+03  0.10136530973E+04  0.25500000920E-02 0.  1.
</event>
<event>
 5   0  0.1617491E-03  0.7974598E+03  0.7818609E-02  0.9563701E-01
       -1   -1    0    0    0  501  0.00000000000E+00  0.00000000000E+00  0.17291850775E+03  0.17291850783E+03  0.50400001928E-02 0. -1.
        1   -1    0    0  501    0  0.00000000000E+00  0.00000000000E+00 -0.91942456095E+03  0.91942456096E+03  0.50400001928E-02 0.  1.
    10030    2    1    2    0    0  0.00000000000E+00  0.00000000000E+00 -0.74650605319E+03  0.10923430688E+04  0.79745977483E+03 0.  0.
        1    1    3    3  502    0  0.31614077197E+03 -0.23928056811E+03 -0.31537531363E+03  0.50661796894E+03  0.50400001928E-02 0. -1.
       -1    1    3    3    0  502 -0.31614077197E+03  0.23928056811E+03 -0.43113073956E+03  0.58572509985E+03  0.50400001928E-02 0.  1.
</event>
<event>
 5   0  0.1640035E-03  0.8073349E+03  0.7818609E-02  0.9549460E-01
        1   -1    0    0  501    0  0.00000000000E+00  0.00000000000E+00  0.87315950293E+03  0.87315950294E+03  0.50400001928E-02 0. -1.
       -1   -1    0    0    0  501  0.00000000000E+00  0.00000000000E+00 -0.18661812774E+03  0.18661812781E+03  0.50400001928E-02 0.  1.
    10030    2    1    2    0    0  0.00000000000E+00  0.00000000000E+00  0.68654137519E+03  0.10597776308E+04  0.80733485420E+03 0.  0.
        5    1    3    3  502    0  0.30445975753E+03 -0.16945175919E+03  0.75805653439E+02  0.35662056831E+03  0.46999998093E+01 0.  1.
       -5    1    3    3    0  502 -0.30445975753E+03  0.16945175919E+03  0.61073572175E+03  0.70315706244E+03  0.46999998093E+01 0. -1.
</event>
<event>
 5   0  0.2910501E-03  0.8005485E+03  0.7818609E-02  0.9559224E-01
       -2   -1    0    0    0  501  0.00000000000E+00  0.00000000000E+00  0.18365267939E+03  0.18365267941E+03  0.25500000920E-02 0. -1.
        2   -1    0    0  501    0  0.00000000000E+00  0.00000000000E+00 -0.87240478531E+03  0.87240478532E+03  0.25500000920E-02 0.  1.
    10030    2    1    2    0    0  0.00000000000E+00  0.00000000000E+00 -0.68875210592E+03  0.10560574647E+04  0.80054850284E+03 0.  0.
        1    1    3    3  502    0 -0.59277343433E+02  0.33728262927E+03 -0.70999180320E+02  0.34973455517E+03  0.50400001928E-02 0. -1.
       -1    1    3    3    0  502  0.59277343433E+02 -0.33728262927E+03 -0.61775292560E+03  0.70632290956E+03  0.50400001928E-02 0.  1.
</event>
<event>
 5   0  0.1656051E-03  0.7995331E+03  0.7818609E-02  0.9560693E-01
       -1   -1    0    0    0  501  0.00000000000E+00  0.00000000000E+00  0.26873083018E+03  0.26873083023E+03  0.50400001928E-02 0. -1.
        1   -1    0    0  501    0  0.00000000000E+00  0.00000000000E+00 -0.59469651346E+03  0.59469651348E+03  0.50400001928E-02 0.  1.
    10030    2    1    2    0    0  0.00000000000E+00  0.00000000000E+00 -0.32596568328E+03  0.86342734371E+03  0.79953308324E+03 0.  0.
        3    1    3    3  502    0 -0.18733455308E+03 -0.17446724379E+03 -0.49457149532E+03  0.55689678408E+03  0.10100000352E+00 0.  1.
       -3    1    3    3    0  502  0.18733455308E+03  0.17446724379E+03  0.16860581204E+03  0.30653055963E+03  0.10100000352E+00 0. -1.
</event>
<event>
 5   0  0.2873212E-03  0.7999518E+03  0.7818609E-02  0.9560087E-01
        2   -1    0    0  501    0  0.00000000000E+00  0.00000000000E+00  0.10952758527E+04  0.10952758527E+04  0.25500000920E-02 0. -1.
       -2   -1    0    0    0  501  0.00000000000E+00  0.00000000000E+00 -0.14606431240E+03  0.14606431243E+03  0.25500000920E-02 0.  1.
    10030    2    1    2    0    0  0.00000000000E+00  0.00000000000E+00  0.94921154031E+03  0.12413401651E+04  0.79995178438E+03 0.  0.
        2    1    3    3  502    0 -0.28885735578E+03  0.23744588407E+03  0.69494378583E+03  0.78915523525E+03  0.25500000920E-02 0. -1.
       -2    1    3    3    0  502  0.28885735578E+03 -0.23744588407E+03  0.25426775447E+03  0.45218492989E+03  0.25500000920E-02 0.  1.
</event>
<event>
 5   0  0.1712793E-03  0.8007648E+03  0.7818609E-02  0.9558911E-01
       -1   -1    0    0    0  501  0.00000000000E+00  0.00000000000E+00  0.26480374481E+03  0.26480374486E+03  0.50400001928E-02 0.  1.
        1   -1    0    0  501    0  0.00000000000E+00  0.00000000000E+00 -0.60537684630E+03  0.60537684632E+03  0.50400001928E-02 0. -1.
    10030    2    1    2    0    0  0.00000000000E+00  0.00000000000E+00 -0.34057310149E+03  0.87018059118E+03  0.80076477433E+03 0.  0.
        4    1    3    3  502    0  0.15982377749E+03 -0.30446965286E+02 -0.56783248226E+03  0.59068265452E+03  0.12699999809E+01 0. -1.
       -4    1    3    3    0  502 -0.15982377749E+03  0.30446965286E+02  0.22725938077E+03  0.27949793666E+03  0.12699999809E+01 0.  1.
</event>
<event>
 5   0  0.1640035E-03  0.7985799E+03  0.7818609E-02  0.9562075E-01
       -1   -1    0    0    0  501  0.00000000000E+00  0.00000000000E+00  0.16217797861E+03  0.16217797869E+03  0.50400001928E-02 0. -1.
        1   -1    0    0  501    0  0.00000000000E+00  0.00000000000E+00 -0.98307100022E+03  0.98307100024E+03  0.50400001928E-02 0.  1.
    10030    2    1    2    0    0  0.00000000000E+00  0.00000000000E+00 -0.82089302161E+03  0.11452489789E+04  0.79857990884E+03 0.  0.
        5    1    3    3  502    0  0.36877318973E+03 -0.14377683646E+03 -0.48558240340E+03  0.62648049024E+03  0.46999998093E+01 0.  1.
       -5    1    3    3    0  502 -0.36877318973E+03  0.14377683646E+03 -0.33531061822E+03  0.51876848869E+03  0.46999998093E+01 0. -1.
</event>
<event>
 5   0  0.2690809E-03  0.8004193E+03  0.7818609E-02  0.9559410E-01
       -2   -1    0    0    0  501  0.00000000000E+00  0.00000000000E+00  0.26640687833E+03  0.26640687835E+03  0.25500000920E-02 0.  1.
        2   -1    0    0  501    0  0.00000000000E+00  0.00000000000E+00 -0.60121487013E+03  0.60121487013E+03  0.25500000920E-02 0. -1.
    10030    2    1    2    0    0  0.00000000000E+00  0.00000000000E+00 -0.33480799180E+03  0.86762174848E+03  0.80041933202E+03 0.  0.
        5    1    3    3  502    0  0.16751927849E+03 -0.23538656779E+03 -0.46755720187E+03  0.54963749142E+03  0.46999998093E+01 0. -1.
       -5    1    3    3    0  502 -0.16751927849E+03  0.23538656779E+03  0.13274921007E+03  0.31798425706E+03  0.46999998093E+01 0.  1.
</event>
<event>
 5   0  0.1640035E-03  0.8058303E+03  0.7818609E-02  0.9551616E-01
       -1   -1    0    0    0  501  0.00000000000E+00  0.00000000000E+00  0.19916188257E+03  0.19916188263E+03  0.50400001928E-02 0. -1.
        1   -1    0    0  501    0  0.00000000000E+00  0.00000000000E+00 -0.81511892089E+03  0.81511892090E+03  0.50400001928E-02 0.  1.
    10030    2    1    2    0    0  0.00000000000E+00  0.00000000000E+00 -0.61595703832E+03  0.10142808035E+04  0.80583030185E+03 0.  0.
        5    1    3    3  502    0 -0.28124845722E+03  0.27734039017E+03 -0.40788410839E+03  0.56781152030E+03  0.46999998093E+01 0. -1.
       -5    1    3    3    0  502  0.28124845722E+03 -0.27734039017E+03 -0.20807292992E+03  0.44646928324E+03  0.46999998093E+01 0.  1.
</event>
<event>
 5   0  0.1637228E-03  0.7986375E+03  0.7818609E-02  0.9561991E-01
        1   -1    0    0  501    0  0.00000000000E+00  0.00000000000E+00  0.72585943288E+03  0.72585943290E+03  0.50400001928E-02 0. -1.
       -1   -1    0    0    0  501  0.00000000000E+00  0.00000000000E+00 -0.21967815951E+03  0.21967815957E+03  0.50400001928E-02 0.  1.
    10030    2    1    2    0    0  0.00000000000E+00  0.00000000000E+00  0.50618127337E+03  0.94553759247E+03  0.79863750053E+03 0.  0.
        2    1    3    3  502    0 -0.33375892841E+03  0.14468529388E+03  0.44808714957E+03  0.57715764759E+03  0.25500000920E-02 0. -1.
       -2    1    3    3    0  502  0.33375892841E+03 -0.14468529388E+03  0.58094123804E+02  0.36837994488E+03  0.25500000920E-02 0.  1.
</event>
<event>
 5   0  0.2910501E-03  0.7988007E+03  0.7818609E-02  0.9561755E-01
        2   -1    0    0  501    0  0.00000000000E+00  0.00000000000E+00  0.51635220528E+03  0.51635220529E+03  0.25500000920E-02 0. -1.
       -2   -1    0    0    0  501  0.00000000000E+00  0.00000000000E+00 -0.30893762641E+03  0.30893762642E+03  0.25500000920E-02 0.  1.
    10030    2    1    2    0    0  0.00000000000E+00  0.00000000000E+00  0.20741457887E+03  0.82528983170E+03  0.79880066274E+03 0.  0.
        1    1    3    3  502    0 -0.10310275825E+03  0.36598080051E+03 -0.22611187156E+02  0.38089813718E+03  0.50400001928E-02 0.  1.
       -1    1    3    3    0  502  0.10310275825E+03 -0.36598080051E+03  0.23002576603E+03  0.44439169452E+03  0.50400001928E-02 0. -1.
</event>
<event>
 5   0  0.1712793E-03  0.8012838E+03  0.7818609E-02  0.9558161E-01
        1   -1    0    0  501    0  0.00000000000E+00  0.00000000000E+00  0.98306633801E+03  0.98306633802E+03  0.50400001928E-02 0.  1.
       -1   -1    0    0    0  501  0.00000000000E+00  0.00000000000E+00 -0.16327884832E+03  0.16327884840E+03  0.50400001928E-02 0. -1.
    10030    2    1    2    0    0  0.00000000000E+00  0.00000000000E+00  0.81978748969E+03  0.11463451864E+04  0.80128381874E+03 0.  0.
        4    1    3    3  502    0  0.30884240010E+03  0.10824002482E+03  0.79256560711E+02  0.33672354593E+03  0.12699999809E+01 0.  1.
       -4    1    3    3    0  502 -0.30884240010E+03 -0.10824002482E+03  0.74053092898E+03  0.80962164049E+03  0.12699999809E+01 0. -1.
</event>
<event>
 5   0  0.2910501E-03  0.7971974E+03  0.7818609E-02  0.9564083E-01
        2   -1    0    0  501    0  0.00000000000E+00  0.00000000000E+00  0.14741293944E+04  0.14741293945E+04  0.25500000920E-02 0. -1.
       -2   -1    0    0    0  501  0.00000000000E+00  0.00000000000E+00 -0.10777950401E+03  0.10777950404E+03  0.25500000920E-02 0.  1.
    10030    2    1    2    0    0  0.00000000000E+00  0.00000000000E+00  0.13663498904E+04  0.15819088985E+04  0.79719742853E+03 0.  0.
        1    1    3    3  502    0  0.70017233072E+02  0.51968424923E+02  0.14549721243E+04  0.14575825920E+04  0.50400001928E-02 0. -1.
       -1    1    3    3    0  502 -0.70017233072E+02 -0.51968424923E+02 -0.88622233863E+02  0.12432630645E+03  0.50400001928E-02 0.  1.
</event>
<event>
 5   0  0.2910501E-03  0.8069783E+03  0.7818609E-02  0.9549971E-01
        2   -1    0    0  501    0  0.00000000000E+00  0.00000000000E+00  0.10019917716E+04  0.10019917716E+04  0.25500000920E-02 0. -1.
       -2   -1    0    0    0  501  0.00000000000E+00  0.00000000000E+00 -0.16247987174E+03  0.16247987176E+03  0.25500000920E-02 0.  1.
    10030    2    1    2    0    0  0.00000000000E+00  0.00000000000E+00  0.83951189986E+03  0.11644716434E+04  0.80697830095E+03 0.  0.
        1    1    3    3  502    0 -0.14187379467E+03  0.84244842357E+02 -0.11157103815E+03  0.19918198628E+03  0.50400001928E-02 0.  1.
       -1    1    3    3    0  502  0.14187379467E+03 -0.84244842357E+02  0.95108293801E+03  0.96528965709E+03  0.50400001928E-02 0. -1.
</event>
<event>
 5   0  0.1712793E-03  0.8002698E+03  0.7818609E-02  0.9559627E-01
        1   -1    0    0  501    0  0.00000000000E+00  0.00000000000E+00  0.65123776423E+03  0.65123776425E+03  0.50400001928E-02 0.  1.
       -1   -1    0    0    0  501  0.00000000000E+00  0.00000000000E+00 -0.24585175490E+03  0.24585175495E+03  0.50400001928E-02 0. -1.
    10030    2    1    2    0    0  0.00000000000E+00  0.00000000000E+00  0.40538600933E+03  0.89708951920E+03  0.80026982256E+03 0.  0.
        4    1    3    3  502    0 -0.15177187022E+03 -0.89676845864E+02 -0.19997227279E+03  0.26658424571E+03  0.12699999809E+01 0. -1.
       -4    1    3    3    0  502  0.15177187022E+03  0.89676845864E+02  0.60535828212E+03  0.63050527350E+03  0.12699999809E+01 0.  1.
</event>
<event>
 5   0  0.1656051E-03  0.8046476E+03  0.7818609E-02  0.9553314E-01
        1   -1    0    0  501    0  0.00000000000E+00  0.00000000000E+00  0.89142529373E+03  0.89142529374E+03  0.50400001928E-02 0. -1.
       -1   -1    0    0    0  501  0.00000000000E+00  0.00000000000E+00 -0.18157935341E+03  0.18157935348E+03  0.50400001928E-02 0.  1.
    10030    2    1    2    0    0  0.00000000000E+00  0.00000000000E+00  0.70984594032E+03  0.10730046472E+04  0.80464757129E+03 0.  0.
        3    1    3    3  502    0  0.37163787425E+03  0.14464475472E+03  0.28401334905E+03  0.48959208254E+03  0.10100000352E+00 0.  1.
       -3    1    3    3    0  502 -0.37163787425E+03 -0.14464475472E+03  0.42583259127E+03  0.58341256469E+03  0.10100000352E+00 0. -1.
</event>
<event>
 5   0  0.1095350E-03  0.8007784E+03  0.7818609E-02  0.9558891E-01
       -3   -1    0    0    0  501  0.00000000000E+00  0.00000000000E+00  0.47924814324E+03  0.47924815389E+03  0.10100000352E+00 0. -1.
        3   -1    0    0  501    0  0.00000000000E+00  0.00000000000E+00 -0.33450628656E+03  0.33450630181E+03  0.10100000352E+00 0.  1.
    10030    2    1    2    0    0  0.00000000000E+00  0.00000000000E+00  0.14474185668E+03  0.81375445570E+03  0.80077843945E+03 0.  0.
        3    1    3    3  502    0 -0.17557040113E+01  0.39792172215E+03  0.27304387939E+02  0.39886127821E+03  0.10100000352E+00 0.  1.
       -3    1    3    3    0  502  0.17557040113E+01 -0.39792172215E+03  0.11743746874E+03  0.41489317748E+03  0.10100000352E+00 0. -1.
</event>
<event>
 5   0  0.2768834E-03  0.8023872E+03  0.7818609E-02  0.9556568E-01
       -2   -1    0    0    0  501  0.00000000000E+00  0.00000000000E+00  0.38712629151E+03  0.38712629152E+03  0.25500000920E-02 0. -1.
        2   -1    0    0  501    0  0.00000000000E+00  0.00000000000E+00 -0.41577208481E+03  0.41577208482E+03  0.25500000920E-02 0.  1.
    10030    2    1    2    0    0  0.00000000000E+00  0.00000000000E+00 -0.28645793302E+02  0.80289837634E+03  0.80238720158E+03 0.  0.
        4    1    3    3  502    0 -0.10725977031E+03  0.11955097702E+03 -0.38219496932E+03  0.41457412112E+03  0.12699999809E+01 0.  1.
       -4    1    3    3    0  502  0.10725977031E+03 -0.11955097702E+03  0.35354917602E+03  0.38832425522E+03  0.12699999809E+01 0. -1.
</event>
<event>
 5   0  0.1712793E-03  0.8075815E+03  0.7818609E-02  0.9549108E-01
        1   -1    0    0  501    0  0.00000000000E+00  0.00000000000E+00  0.46493256815E+03  0.46493256818E+03  0.50400001928E-02 0. -1.
       -1   -1    0    0    0  501  0.00000000000E+00  0.00000000000E+00 -0.35068948408E+03  0.35068948412E+03  0.50400001928E-02 0.  1.
    10030    2    1    2    0    0  0.00000000000E+00  0.00000000000E+00  0.11424308406E+03  0.81562205230E+03  0.80758148192E+03 0.  0.
        4    1    3    3  502    0  0.83177128841E+02 -0.10276445374E+03 -0.32820874975E+03  0.35383833035E+03  0.12699999809E+01 0.  1.
       -4    1    3    3    0  502 -0.83177128841E+02  0.10276445374E+03  0.44245183381E+03  0.46178372195E+03  0.12699999809E+01 0. -1.
</event>
<event>
 5   0  0.1617491E-03  0.8000725E+03  0.7818609E-02  0.9559912E-01
       -1   -1    0    0    0  501  0.00000000000E+00  0.00000000000E+00  0.17651708097E+03  0.17651708104E+03  0.50400001928E-02 0. -1.
        1   -1    0    0  501    0  0.00000000000E+00  0.00000000000E+00 -0.90659225877E+03  0.90659225878E+03  0.50400001928E-02 0.  1.
    10030    2    1    2    0    0  0.00000000000E+00  0.00000000000E+00 -0.73007517780E+03  0.10831093398E+04  0.80007254470E+03 0.  0.
        1    1    3    3  502    0 -0.20425124904E+02 -0.31879640438E+02 -0.90416125141E+03  0.90495362632E+03  0.50400001928E-02 0.  1.
       -1    1    3    3    0  502  0.20425124904E+02  0.31879640438E+02  0.17408607362E+03  0.17815571351E+03  0.50400001928E-02 0. -1.
</event>
<event>
 5   0  0.1640035E-03  0.7980995E+03  0.7818609E-02  0.9562772E-01
        1   -1    0    0  501    0  0.00000000000E+00  0.00000000000E+00  0.66812440156E+03  0.66812440158E+03  0.50400001928E-02 0. -1.
       -1   -1    0    0    0  501  0.00000000000E+00  0.00000000000E+00 -0.23833989123E+03  0.23833989128E+03  0.50400001928E-02 0.  1.
    10030    2    1    2    0    0  0.00000000000E+00  0.00000000000E+00  0.42978451033E+03  0.90646429286E+03  0.79809948559E+03 0.  0.
        5    1    3    3  502    0  0.17217045075E+03  0.35576769150E+02  0.62173288991E+03  0.64612866134E+03  0.46999998093E+01 0. -1.
       -5    1    3    3    0  502 -0.17217045075E+03 -0.35576769150E+02 -0.19194837958E+03  0.26033563151E+03  0.46999998093E+01 0.  1.
</event>
<event>
 5   0  0.2768834E-03  0.8005430E+03  0.7818609E-02  0.9559232E-01
        2   -1    0    0  501    0  0.00000000000E+00  0.00000000000E+00  0.42483579738E+03  0.42483579739E+03  0.25500000920E-02 0.  1.
       -2   -1    0    0    0  501  0.00000000000E+00  0.00000000000E+00 -0.37712750271E+03  0.37712750272E+03  0.25500000920E-02 0. -1.
    10030    2    1    2    0    0  0.00000000000E+00  0.00000000000E+00  0.47708294664E+02  0.80196330011E+03  0.80054297408E+03 0.  0.
        4    1    3    3  502    0  0.29996748120E+03 -0.15009320844E+03 -0.19495312887E+03  0.38796494218E+03  0.12699999809E+01 0.  1.
       -4    1    3    3    0  502 -0.29996748120E+03  0.15009320844E+03  0.24266142354E+03  0.41399835793E+03  0.12699999809E+01 0. -1.
</event>
<event>
 5   0  0.2873212E-03  0.7999338E+03  0.7818609E-02  0.9560113E-01
        2   -1    0    0  501    0  0.00000000000E+00  0.00000000000E+00  0.19820462883E+04  0.19820462883E+04  0.25500000920E-02 0. -1.
       -2   -1    0    0    0  501  0.00000000000E+00  0.00000000000E+00 -0.80711304121E+02  0.80711304162E+02  0.25500000920E-02 0.  1.
    10030    2    1    2    0    0  0.00000000000E+00  0.00000000000E+00  0.19013349841E+04  0.20627575924E+04  0.79993384926E+03 0.  0.
        2    1    3    3  502    0  0.35856336921E+03 -0.79737698624E+02  0.54255631980E+03  0.65520466305E+03  0.25500000920E-02 0. -1.
       -2    1    3    3    0  502 -0.35856336921E+03  0.79737698624E+02  0.13587786643E+04  0.14075529294E+04  0.25500000920E-02 0.  1.
</event>
<event>
 5   0  0.1640035E-03  0.7947983E+03  0.7818609E-02  0.9567577E-01
       -1   -1    0    0    0  501  0.00000000000E+00  0.00000000000E+00  0.17743289089E+03  0.17743289096E+03  0.50400001928E-02 0.  1.
        1   -1    0    0  501    0  0.00000000000E+00  0.00000000000E+00 -0.89006091224E+03  0.89006091225E+03  0.50400001928E-02 0. -1.
    10030    2    1    2    0    0  0.00000000000E+00  0.00000000000E+00 -0.71262802135E+03  0.10674938032E+04  0.79479829082E+03 0.  0.
        5    1    3    3  502    0  0.57031510586E+02  0.73195059233E+02  0.16264068021E+03  0.18730774344E+03  0.46999998093E+01 0.  1.
       -5    1    3    3    0  502 -0.57031510586E+02 -0.73195059233E+02 -0.87526870156E+03  0.88018605977E+03  0.46999998093E+01 0. -1.
</event>
<event>
 5   0  0.1617491E-03  0.8065477E+03  0.7818609E-02  0.9550588E-01
        1   -1    0    0  501    0  0.00000000000E+00  0.00000000000E+00  0.36734231292E+03  0.36734231295E+03  0.50400001928E-02 0.  1.
       -1   -1    0    0    0  501  0.00000000000E+00  0.00000000000E+00 -0.44272005957E+03  0.44272005960E+03  0.50400001928E-02 0. -1.
    10030    2    1    2    0    0  0.00000000000E+00  0.00000000000E+00 -0.75377746651E+02  0.81006237255E+03  0.80654773122E+03 0.  0.
        1    1    3    3  502    0  0.12297641218E+03  0.13245714655E+03 -0.39976184464E+03  0.43872272118E+03  0.50400001928E-02 0. -1.
       -1    1    3    3    0  502 -0.12297641218E+03 -0.13245714655E+03  0.32438409799E+03  0.37133965137E+03  0.50400001928E-02 0.  1.
</event>
<event>
 5   0  0.2763587E-03  0.7990250E+03  0.7818609E-02  0.9561429E-01
        2   -1    0    0  501    0  0.00000000000E+00  0.00000000000E+00  0.98720272728E+03  0.98720272728E+03  0.25500000920E-02 0. -1.
       -2   -1    0    0    0  501  0.00000000000E+00  0.00000000000E+00 -0.16167930693E+03  0.16167930695E+03  0.25500000920E-02 0.  1.
    10030    2    1    2    0    0  0.00000000000E+00  0.00000000000E+00  0.82552342034E+03  0.11488820342E+04  0.79902503781E+03 0.  0.
        3    1    3    3  502    0  0.20333451515E+03 -0.24199941614E+03  0.76408588539E+03  0.82688324019E+03  0.10100000352E+00 0. -1.
       -3    1    3    3    0  502 -0.20333451515E+03  0.24199941614E+03  0.61437534954E+02  0.32199879404E+03  0.10100000352E+00 0.  1.
</event>
<event>
 5   0  0.2768834E-03  0.8007527E+03  0.7818609E-02  0.9558928E-01
        2   -1    0    0  501    0  0.00000000000E+00  0.00000000000E+00  0.16065391095E+04  0.16065391095E+04  0.25500000920E-02 0.  1.
       -2   -1    0    0    0  501  0.00000000000E+00  0.00000000000E+00 -0.99780477440E+02  0.99780477472E+02  0.25500000920E-02 0. -1.
    10030    2    1    2    0    0  0.00000000000E+00  0.00000000000E+00  0.15067586320E+04  0.17063195869E+04  0.80075274435E+03 0.  0.
        4    1    3    3  502    0  0.36374959152E+03  0.90076262455E+02  0.10537683882E+04  0.11184171526E+04  0.12699999809E+01 0.  1.
       -4    1    3    3    0  502 -0.36374959152E+03 -0.90076262455E+02  0.45299024383E+03  0.58790243433E+03  0.12699999809E+01 0. -1.
</event>
<event>
 5   0  0.2768834E-03  0.8011196E+03  0.7818609E-02  0.9558398E-01
       -2   -1    0    0    0  501  0.00000000000E+00  0.00000000000E+00  0.15034961146E+03  0.15034961148E+03  0.25500000920E-02 0. -1.
        2   -1    0    0  501    0  0.00000000000E+00  0.00000000000E+00 -0.10671669861E+04  0.10671669861E+04  0.25500000920E-02 0.  1.
    10030    2    1    2    0    0  0.00000000000E+00  0.00000000000E+00 -0.91681737463E+03  0.12175165976E+04  0.80111957094E+03 0.  0.
        4    1    3    3  502    0  0.12269975447E+03 -0.41216336950E+02  0.11768699252E+03  0.17494529798E+03  0.12699999809E+01 0. -1.
       -4    1    3    3    0  502 -0.12269975447E+03  0.41216336950E+02 -0.10345043671E+04  0.10425712996E+04  0.12699999809E+01 0.  1.
</event>
<event>
 5   0  0.1656051E-03  0.7995847E+03  0.7818609E-02  0.9560618E-01
        1   -1    0    0  501    0  0.00000000000E+00  0.00000000000E+00  0.19699712859E+04  0.19699712859E+04  0.50400001928E-02 0.  1.
       -1   -1    0    0    0  501  0.00000000000E+00  0.00000000000E+00 -0.81135149800E+02  0.81135149956E+02  0.50400001928E-02 0. -1.
    10030    2    1    2    0    0  0.00000000000E+00  0.00000000000E+00  0.18888361361E+04  0.20511064359E+04  0.79958468107E+03 0.  0.
        3    1    3    3  502    0  0.27663266276E+02 -0.15212888960E+03 -0.13270802132E+01  0.15462932030E+03  0.10100000352E+00 0. -1.
       -3    1    3    3    0  502 -0.27663266276E+02  0.15212888960E+03  0.18901632163E+04  0.18964771156E+04  0.10100000352E+00 0.  1.
</event>
<event>
 5   0  0.1656051E-03  0.8005502E+03  0.7818609E-02  0.9559221E-01
       -1   -1    0    0    0  501  0.00000000000E+00  0.00000000000E+00  0.19222099773E+03  0.19222099779E+03  0.50400001928E-02 0. -1.
        1   -1    0    0  501    0  0.00000000000E+00  0.00000000000E+00 -0.83352053811E+03  0.83352053812E+03  0.50400001928E-02 0.  1.
    10030    2    1    2    0    0  0.00000000000E+00  0.00000000000E+00 -0.64129954038E+03  0.10257415359E+04  0.80055018456E+03 0.  0.
        3    1    3    3  502    0  0.31156888474E+03 -0.17265335360E+03 -0.86709628639E+02  0.36661003852E+03  0.10100000352E+00 0. -1.
       -3    1    3    3    0  502 -0.31156888474E+03  0.17265335360E+03 -0.55458991174E+03  0.65913149739E+03  0.10100000352E+00 0.  1.
</event>
<event>
 5   0  0.1617491E-03  0.7995411E+03  0.7818609E-02  0.9560682E-01
       -1   -1    0    0    0  501  0.00000000000E+00  0.00000000000E+00  0.73081919610E+03  0.73081919612E+03  0.50400001928E-02 0.  1.
        1   -1    0    0  501    0  0.00000000000E+00  0.00000000000E+00 -0.21868129415E+03  0.21868129421E+03  0.50400001928E-02 0. -1.
    10030    2    1    2    0    0  0.00000000000E+00  0.00000000000E+00  0.51213790195E+03  0.94950049032E+03  0.79954108744E+03 0.  0.
        1    1    3    3  502    0  0.14872153829E+03  0.91328965476E+02 -0.17105120403E+03  0.24437182799E+03  0.50400001928E-02 0. -1.
       -1    1    3    3    0  502 -0.14872153829E+03 -0.91328965476E+02  0.68318910598E+03  0.70512866234E+03  0.50400001928E-02 0.  1.
</event>
<event>
 5   0  0.1095350E-03  0.7794009E+03  0.7818609E-02  0.9590322E-01
       -4   -1    0    0    0  501  0.00000000000E+00  0.00000000000E+00  0.24403462652E+03  0.24403793115E+03  0.12699999809E+01 0.  1.
        4   -1    0    0  501    0  0.00000000000E+00  0.00000000000E+00 -0.62230695739E+03  0.62230825329E+03  0.12699999809E+01 0. -1.
    10030    2    1    2    0    0  0.00000000000E+00  0.00000000000E+00 -0.37827233086E+03  0.86634618444E+03  0.77940089492E+03 0.  0.
        5    1    3    3  502    0  0.25391785422E+03 -0.81880454019E+02 -0.50483641235E+03  0.57101714394E+03  0.46999998093E+01 0. -1.
       -5    1    3    3    0  502 -0.25391785422E+03  0.81880454019E+02  0.12656408149E+03  0.29532904050E+03  0.46999998093E+01 0.  1.
</event>
<event>
 5   0  0.2763587E-03  0.7997184E+03  0.7818609E-02  0.9560425E-01
        2   -1    0    0  501    0  0.00000000000E+00  0.00000000000E+00  0.58619734532E+03  0.58619734533E+03  0.25500000920E-02 0.  1.
       -2   -1    0    0    0  501  0.00000000000E+00  0.00000000000E+00 -0.27275347020E+03  0.27275347022E+03  0.25500000920E-02 0. -1.
    10030    2    1    2    0    0  0.00000000000E+00  0.00000000000E+00  0.31344387512E+03  0.85895081554E+03  0.79971835084E+03 0.  0.
        3    1    3    3  502    0  0.12238642305E+03  0.36550466938E+03  0.27097380652E+03  0.47116760702E+03  0.10100000352E+00 0.  1.
       -3    1    3    3    0  502 -0.12238642305E+03 -0.36550466938E+03  0.42470068599E+02  0.38778320852E+03  0.10100000352E+00 0. -1.
</event>
<event>
 5   0  0.2763587E-03  0.7985278E+03  0.7818609E-02  0.9562151E-01
       -2   -1    0    0    0  501  0.00000000000E+00  0.00000000000E+00  0.12935864485E+03  0.12935864488E+03  0.25500000920E-02 0.  1.
        2   -1    0    0  501    0  0.00000000000E+00  0.00000000000E+00 -0.12323231154E+04  0.12323231154E+04  0.25500000920E-02 0. -1.
    10030    2    1    2    0    0  0.00000000000E+00  0.00000000000E+00 -0.11029644705E+04  0.13616817602E+04  0.79852776594E+03 0.  0.
        3    1    3    3  502    0  0.96035441028E+02 -0.45391139669E+02 -0.12077859713E+04  0.12124479882E+04  0.10100000352E+00 0. -1.
       -3    1    3    3    0  502 -0.96035441028E+02  0.45391139669E+02  0.10482150076E+03  0.14923377204E+03  0.10100000352E+00 0.  1.
</event>
<event>
 5   0  0.1095350E-03  0.7971494E+03  0.7818609E-02  0.9564152E-01
       -3   -1    0    0    0  501  0.00000000000E+00  0.00000000000E+00  0.24692533290E+03  0.24692535356E+03  0.10100000352E+00 0.  1.
        3   -1    0    0  501    0  0.00000000000E+00  0.00000000000E+00 -0.64335952260E+03  0.64335953053E+03  0.10100000352E+00 0. -1.
    10030    2    1    2    0    0  0.00000000000E+00  0.00000000000E+00 -0.39643418970E+03  0.89028488408E+03  0.79714936371E+03 0.  0.
        5    1    3    3  502    0 -0.21044378351E+03 -0.12487948630E+03 -0.54954708388E+03  0.60158587044E+03  0.46999998093E+01 0. -1.
       -5    1    3    3    0  502  0.21044378351E+03  0.12487948630E+03  0.15311289418E+03  0.28869901364E+03  0.46999998093E+01 0.  1.
</event>
<event>
 5   0  0.1656051E-03  0.7987829E+03  0.7818609E-02  0.9561780E-01
       -1   -1    0    0    0  501  0.00000000000E+00  0.00000000000E+00  0.44730425846E+03  0.44730425849E+03  0.50400001928E-02 0.  1.
        1   -1    0    0  501    0  0.00000000000E+00  0.00000000000E+00 -0.35661079334E+03  0.35661079338E+03  0.50400001928E-02 0. -1.
    10030    2    1    2    0    0  0.00000000000E+00  0.00000000000E+00  0.90693465124E+02  0.80391505187E+03  0.79878289041E+03 0.  0.
        3    1    3    3  502    0  0.31456911616E+03 -0.20241595817E+02 -0.20148412816E+03  0.37411136730E+03  0.10100000352E+00 0. -1.
       -3    1    3    3    0  502 -0.31456911616E+03  0.20241595817E+02  0.29217759329E+03  0.42980368456E+03  0.10100000352E+00 0.  1.
</event>
<event>
 5   0  0.2873212E-03  0.8011461E+03  0.7818609E-02  0.9558360E-01
       -2   -1    0    0    0  501  0.00000000000E+00  0.00000000000E+00  0.30400769317E+03  0.30400769318E+03  0.25500000920E-02 0.  1.
        2   -1    0    0  501    0  0.00000000000E+00  0.00000000000E+00 -0.52781157532E+03  0.52781157532E+03  0.25500000920E-02 0. -1.
    10030    2    1    2    0    0  0.00000000000E+00  0.00000000000E+00 -0.22380388214E+03  0.83181926851E+03  0.80114612762E+03 0.  0.
        2    1    3    3  502    0 -0.34323344205E+03  0.64242063238E+02  0.91884226277E+02  0.36108025351E+03  0.25500000920E-02 0.  1.
       -2    1    3    3    0  502  0.34323344205E+03 -0.64242063238E+02 -0.31568810842E+03  0.47073901499E+03  0.25500000920E-02 0. -1.
</event>
<event>
 5   0  0.2910501E-03  0.7998106E+03  0.7818609E-02  0.9560291E-01
       -2   -1    0    0    0  501  0.00000000000E+00  0.00000000000E+00  0.14378429191E+03  0.14378429194E+03  0.25500000920E-02 0. -1.
        2   -1    0    0  501    0  0.00000000000E+00  0.00000000000E+00 -0.11122512364E+04  0.11122512364E+04  0.25500000920E-02 0.  1.
    10030    2    1    2    0    0  0.00000000000E+00  0.00000000000E+00 -0.96846694449E+03  0.12560355283E+04  0.79981061877E+03 0.  0.
        1    1    3    3  502    0 -0.10885594972E+03  0.25719377156E+03 -0.34737669735E+02  0.28143375712E+03  0.50400001928E-02 0. -1.
       -1    1    3    3    0  502  0.10885594972E+03 -0.25719377156E+03 -0.93372927476E+03  0.97460177123E+03  0.50400001928E-02 0.  1.
</event>
<event>
 5   0  0.2768834E-03  0.7941934E+03  0.7818609E-02  0.9568460E-01
       -2   -1    0    0    0  501  0.00000000000E+00  0.00000000000E+00  0.26045373378E+03  0.26045373379E+03  0.25500000920E-02 0. -1.
        2   -1    0    0  501    0  0.00000000000E+00  0.00000000000E+00 -0.60542719011E+03  0.60542719012E+03  0.25500000920E-02 0.  1.
    10030    2    1    2    0    0  0.00000000000E+00  0.00000000000E+00 -0.34497345634E+03  0.86588092391E+03  0.79419335732E+03 0.  0.
        4    1    3    3  502    0 -0.75172049389E+02 -0.15575750952E+03 -0.56220550644E+03  0.58820734707E+03  0.12699999809E+01 0.  1.
       -4    1    3    3    0  502  0.75172049389E+02  0.15575750952E+03  0.21723205010E+03  0.27767357683E+03  0.12699999809E+01 0. -1.
</event>
<event>
 5   0  0.1095350E-03  0.7983695E+03  0.7818609E-02  0.9562380E-01
       -3   -1    0    0    0  501  0.00000000000E+00  0.00000000000E+00  0.49023514024E+03  0.49023515064E+03  0.10100000352E+00 0.  1.
        3   -1    0    0  501    0  0.00000000000E+00  0.00000000000E+00 -0.32504492911E+03  0.32504494480E+03  0.10100000352E+00 0. -1.
    10030    2    1    2    0    0  0.00000000000E+00  0.00000000000E+00  0.16519021113E+03  0.81528009544E+03  0.79836948099E+03 0.  0.
        5    1    3    3  502    0 -0.15180738834E+03 -0.55005763124E+02  0.45536864435E+03  0.48317058001E+03  0.46999998093E+01 0.  1.
       -5    1    3    3    0  502  0.15180738834E+03  0.55005763124E+02 -0.29017843323E+03  0.33210951543E+03  0.46999998093E+01 0. -1.
</event>
<event>
 5   0  0.1640035E-03  0.7994333E+03  0.7818609E-02  0.9560838E-01
        1   -1    0    0  501    0  0.00000000000E+00  0.00000000000E+00  0.56088236349E+03  0.56088236351E+03  0.50400001928E-02 0. -1.
       -1   -1    0    0    0  501  0.00000000000E+00  0.00000000000E+00 -0.28486081983E+03  0.28486081988E+03  0.50400001928E-02 0.  1.
    10030    2    1    2    0    0  0.00000000000E+00  0.00000000000E+00  0.27602154366E+03  0.84574318339E+03  0.79943332410E+03 0.  0.
        5    1    3    3  502    0 -0.12329156120E+03 -0.37809786189E+03  0.18022884336E+03  0.43665012104E+03  0.46999998093E+01 0. -1.
       -5    1    3    3    0  502  0.12329156120E+03  0.37809786189E+03  0.95792700296E+02  0.40909306234E+03  0.46999998093E+01 0.  1.
</event>
<event>
 5   0  0.2910501E-03  0.7993047E+03  0.7818609E-02  0.9561024E-01
        2   -1    0    0  501    0  0.00000000000E+00  0.00000000000E+00  0.94369461182E+03  0.94369461182E+03  0.25500000920E-02 0.  1.
       -2   -1    0    0    0  501  0.00000000000E+00  0.00000000000E+00 -0.16925178261E+03  0.16925178263E+03  0.25500000920E-02 0. -1.
    10030    2    1    2    0    0  0.00000000000E+00  0.00000000000E+00  0.77444282921E+03  0.11129463945E+04  0.79930468610E+03 0.  0.
        1    1    3    3  502    0 -0.99967511508E+02 -0.94248954511E+02  0.90977829538E+03  0.92009397105E+03  0.50400001928E-02 0.  1.
       -1    1    3    3    0  502  0.99967511508E+02  0.94248954511E+02 -0.13533546618E+03  0.19285242341E+03  0.50400001928E-02 0. -1.
</event>
<event>
 5   0  0.2763587E-03  0.7859409E+03  0.7818609E-02  0.9580593E-01
       -2   -1    0    0    0  501  0.00000000000E+00  0.00000000000E+00  0.53850679567E+02  0.53850679627E+02  0.25500000920E-02 0.  1.
        2   -1    0    0  501    0  0.00000000000E+00  0.00000000000E+00 -0.28676662672E+04  0.28676662672E+04  0.25500000920E-02 0. -1.
    10030    2    1    2    0    0  0.00000000000E+00  0.00000000000E+00 -0.28138155877E+04  0.29215169469E+04  0.78594090707E+03 0.  0.
        3    1    3    3  502    0 -0.24238676499E+03 -0.14647348422E+03 -0.24196031550E+04  0.24361209460E+04  0.10100000352E+00 0. -1.
       -3    1    3    3    0  502  0.24238676499E+03  0.14647348422E+03 -0.39421243264E+03  0.48539600089E+03  0.10100000352E+00 0.  1.
</event>
<event>
 5   0  0.1712793E-03  0.8000082E+03  0.7818609E-02  0.9560005E-01
       -1   -1    0    0    0  501  0.00000000000E+00  0.00000000000E+00  0.18031823611E+03  0.18031823618E+03  0.50400001928E-02 0.  1.
        1   -1    0    0  501    0  0.00000000000E+00  0.00000000000E+00 -0.88733821924E+03  0.88733821925E+03  0.50400001928E-02 0. -1.
    10030    2    1    2    0    0  0.00000000000E+00  0.00000000000E+00 -0.70701998313E+03  0.10676564554E+04  0.80000815639E+03 0.  0.
        4    1    3    3  502    0 -0.28388093785E+03 -0.68085904004E+02  0.11431125193E+02  0.29215810912E+03  0.12699999809E+01 0.  1.
       -4    1    3    3    0  502  0.28388093785E+03  0.68085904004E+02 -0.71845110832E+03  0.77549834632E+03  0.12699999809E+01 0. -1.
</event>
<event>
 5   0  0.2690809E-03  0.7985225E+03  0.7818609E-02  0.9562158E-01
       -2   -1    0    0    0  501  0.00000000000E+00  0.00000000000E+00  0.18779374711E+03  0.18779374713E+03  0.25500000920E-02 0. -1.
        2   -1    0    0  501    0  0.00000000000E+00  0.00000000000E+00 -0.84885441641E+03  0.84885441641E+03  0.25500000920E-02 0.  1.
    10030    2    1    2    0    0  0.00000000000E+00  0.00000000000E+00 -0.66106066930E+03  0.10366481635E+04  0.79852251469E+03 0.  0.
        5    1    3    3  502    0 -0.39108800491E+03 -0.70365695234E+02 -0.28048104827E+03  0.48640812810E+03  0.46999998093E+01 0. -1.
       -5    1    3    3    0  502  0.39108800491E+03  0.70365695234E+02 -0.38057962103E+03  0.55024003543E+03  0.46999998093E+01 0.  1.
</event>
<event>
 5   0  0.2873212E-03  0.8035025E+03  0.7818609E-02  0.9554961E-01
        2   -1    0    0  501    0  0.00000000000E+00  0.00000000000E+00  0.14543896958E+04  0.14543896958E+04  0.25500000920E-02 0. -1.
       -2   -1    0    0    0  501  0.00000000000E+00  0.00000000000E+00 -0.11097718639E+03  0.11097718642E+03  0.25500000920E-02 0.  1.
    10030    2    1    2    0    0  0.00000000000E+00  0.00000000000E+00  0.13434125094E+04  0.15653668822E+04  0.80350252364E+03 0.  0.
        2    1    3    3  502    0 -0.25866717007E+03 -0.17057243210E+02  0.73756708280E+02  0.26951754384E+03  0.25500000920E-02 0.  1.
       -2    1    3    3    0  502  0.25866717007E+03  0.17057243210E+02  0.12696558011E+04  0.12958493383E+04  0.25500000920E-02 0. -1.
</event>
<event>
 5   0  0.2873212E-03  0.7949423E+03  0.7818609E-02  0.9567367E-01
       -2   -1    0    0    0  501  0.00000000000E+00  0.00000000000E+00  0.43778614382E+03  0.43778614383E+03  0.25500000920E-02 0.  1.
        2   -1    0    0  501    0  0.00000000000E+00  0.00000000000E+00 -0.36086865149E+03  0.36086865150E+03  0.25500000920E-02 0. -1.
    10030    2    1    2    0    0  0.00000000000E+00  0.00000000000E+00  0.76917492329E+02  0.79865479533E+03  0.79494225040E+03 0.  0.
        2    1    3    3  502    0  0.12041471107E+03  0.21032643423E+03  0.35496396059E+03  0.42980963798E+03  0.25500000920E-02 0.  1.
       -2    1    3    3    0  502 -0.12041471107E+03 -0.21032643423E+03 -0.27804646826E+03  0.36884515735E+03  0.25500000920E-02 0. -1.
</event>
<event>
 5   0  0.1656051E-03  0.8011585E+03  0.7818609E-02  0.9558342E-01
        1   -1    0    0  501    0  0.00000000000E+00  0.00000000000E+00  0.73790179844E+03  0.73790179846E+03  0.50400001928E-02 0. -1.
       -1   -1    0    0    0  501  0.00000000000E+00  0.00000000000E+00 -0.21745944735E+03  0.21745944741E+03  0.50400001928E-02 0.  1.
    10030    2    1    2    0    0  0.00000000000E+00  0.00000000000E+00  0.52044235109E+03  0.95536124586E+03  0.80115845454E+03 0.  0.
        3    1    3    3  502    0  0.64434781967E+02 -0.15534956492E+03 -0.17331906106E+03  0.24150535310E+03  0.10100000352E+00 0.  1.
       -3    1    3    3    0  502 -0.64434781967E+02  0.15534956492E+03  0.69376141215E+03  0.71385589277E+03  0.10100000352E+00 0. -1.
</event>
<event>
 5   0  0.1637228E-03  0.8017171E+03  0.7818609E-02  0.9557535E-01
        1   -1    0    0  501    0  0.00000000000E+00  0.00000000000E+00  0.15096481461E+03  0.15096481469E+03  0.50400001928E-02 0.  1.
       -1   -1    0    0    0  501  0.00000000000E+00  0.00000000000E+00 -0.10644042638E+04  0.10644042638E+04  0.50400001928E-02 0. -1.
    10030    2    1    2    0    0  0.00000000000E+00  0.00000000000E+00 -0.91343944915E+03  0.12153690785E+04  0.80171713815E+03 0.  0.
        2    1    3    3  502    0 -0.16256830471E+03  0.24925732139E+03 -0.86386065041E+03  0.91368095597E+03  0.25500000920E-02 0. -1.
       -2    1    3    3    0  502  0.16256830471E+03 -0.24925732139E+03 -0.49578798742E+02  0.30168812249E+03  0.25500000920E-02 0.  1.
</event>
<event>
 5   0  0.2910501E-03  0.8002375E+03  0.7818609E-02  0.9559673E-01
       -2   -1    0    0    0  501  0.00000000000E+00  0.00000000000E+00  0.38923623412E+03  0.38923623413E+03  0.25500000920E-02 0.  1.
        2   -1    0    0  501    0  0.00000000000E+00  0.00000000000E+00 -0.41130557652E+03  0.41130557652E+03  0.25500000920E-02 0. -1.
    10030    2    1    2    0    0  0.00000000000E+00  0.00000000000E+00 -0.22069342397E+02  0.80054181065E+03  0.80023754893E+03 0.  0.
        1    1    3    3  502    0 -0.23109032404E+03 -0.26817832471E+03  0.17551057562E+03  0.39512822462E+03  0.50400001928E-02 0. -1.
       -1    1    3    3    0  502  0.23109032404E+03  0.26817832471E+03 -0.19757991802E+03  0.40541358603E+03  0.50400001928E-02 0.  1.
</event>
<event>
 5   0  0.1095350E-03  0.7992105E+03  0.7818609E-02  0.9561161E-01
       -4   -1    0    0    0  501  0.00000000000E+00  0.00000000000E+00  0.34454218975E+03  0.34454453038E+03  0.12699999809E+01 0.  1.
        4   -1    0    0  501    0  0.00000000000E+00  0.00000000000E+00 -0.46346342910E+03  0.46346516915E+03  0.12699999809E+01 0. -1.
    10030    2    1    2    0    0  0.00000000000E+00  0.00000000000E+00 -0.11892123936E+03  0.80800969953E+03  0.79921049378E+03 0.  0.
        1    1    3    3  502    0 -0.25280187480E+03  0.28032037050E+03  0.73116876576E+02  0.38449236102E+03  0.50400001928E-02 0.  1.
       -1    1    3    3    0  502  0.25280187480E+03 -0.28032037050E+03 -0.19203811593E+03  0.42351733851E+03  0.50400001928E-02 0. -1.
</event>
<event>
 5   0  0.1640035E-03  0.7996730E+03  0.7818609E-02  0.9560491E-01
       -1   -1    0    0    0  501  0.00000000000E+00  0.00000000000E+00  0.13328812831E+03  0.13328812841E+03  0.50400001928E-02 0.  1.
        1   -1    0    0  501    0  0.00000000000E+00  0.00000000000E+00 -0.11994258794E+04  0.11994258794E+04  0.50400001928E-02 0. -1.
    10030    2    1    2    0    0  0.00000000000E+00  0.00000000000E+00 -0.10661377511E+04  0.13327140078E+04  0.79967300964E+03 0.  0.
        5    1    3    3  502    0  0.68851285184E+01  0.31908552813E+03 -0.93437816648E+03  0.98739436258E+03  0.46999998093E+01 0. -1.
       -5    1    3    3    0  502 -0.68851285184E+01 -0.31908552813E+03 -0.13175958461E+03  0.34531964525E+03  0.46999998093E+01 0.  1.
</event>
<event>
 5   0  0.2690809E-03  0.8035366E+03  0.7818609E-02  0.9554912E-01
       -2   -1    0    0    0  501  0.00000000000E+00  0.00000000000E+00  0.13248124882E+03  0.13248124884E+03  0.25500000920E-02 0.  1.
        2   -1    0    0  501    0  0.00000000000E+00  0.00000000000E+00 -0.12184196747E+04  0.12184196747E+04  0.25500000920E-02 0. -1.
    10030    2    1    2    0    0  0.00000000000E+00  0.00000000000E+00 -0.10859384259E+04  0.13509009235E+04  0.80353658313E+03 0.  0.
        5    1    3    3  502    0  0.36146746454E+03  0.10171252254E+03 -0.78304175113E+03  0.86843574269E+03  0.46999998093E+01 0. -1.
       -5    1    3    3    0  502 -0.36146746454E+03 -0.10171252254E+03 -0.30289667472E+03  0.48246518084E+03  0.46999998093E+01 0.  1.
</event>
<event>
 5   0  0.1095350E-03  0.7995623E+03  0.7818609E-02  0.9560651E-01
       -4   -1    0    0    0  501  0.00000000000E+00  0.00000000000E+00  0.54175458607E+03  0.54175607466E+03  0.12699999809E+01 0. -1.
        4   -1    0    0  501    0  0.00000000000E+00  0.00000000000E+00 -0.29501030973E+03  0.29501304335E+03  0.12699999809E+01 0.  1.
    10030    2    1    2    0    0  0.00000000000E+00  0.00000000000E+00  0.24674427635E+03  0.83676911801E+03  0.79956226709E+03 0.  0.
        5    1    3    3  502    0  0.27582637040E+03 -0.23592813569E+03  0.29868015412E+03  0.47007892559E+03  0.46999998093E+01 0. -1.
       -5    1    3    3    0  502 -0.27582637040E+03  0.23592813569E+03 -0.51935877780E+02  0.36669019242E+03  0.46999998093E+01 0.  1.
</event>
<event>
 5   0  0.1656051E-03  0.7997325E+03  0.7818609E-02  0.9560404E-01
        1   -1    0    0  501    0  0.00000000000E+00  0.00000000000E+00  0.12528540254E+04  0.12528540254E+04  0.50400001928E-02 0.  1.
       -1   -1    0    0    0  501  0.00000000000E+00  0.00000000000E+00 -0.12762302327E+03  0.12762302337E+03  0.50400001928E-02 0. -1.
    10030    2    1    2    0    0  0.00000000000E+00  0.00000000000E+00  0.11252310021E+04  0.13804770487E+04  0.79973250155E+03 0.  0.
        3    1    3    3  502    0 -0.38281304397E+03 -0.11294052337E+03  0.60460162786E+03  0.72446154285E+03  0.10100000352E+00 0.  1.
       -3    1    3    3    0  502  0.38281304397E+03  0.11294052337E+03  0.52062937423E+03  0.65601550589E+03  0.10100000352E+00 0. -1.
</event>
<event>
 5   0  0.1656051E-03  0.8000066E+03  0.7818609E-02  0.9560008E-01
        1   -1    0    0  501    0  0.00000000000E+00  0.00000000000E+00  0.12093360792E+04  0.12093360792E+04  0.50400001928E-02 0.  1.
       -1   -1    0    0    0  501  0.00000000000E+00  0.00000000000E+00 -0.13230616599E+03  0.13230616609E+03  0.50400001928E-02 0. -1.
    10030    2    1    2    0    0  0.00000000000E+00  0.00000000000E+00  0.10770299132E+04  0.13416422453E+04  0.80000655023E+03 0.  0.
        3    1    3    3  502    0 -0.16039963385E+02  0.14372775247E+02 -0.13133306374E+03  0.13308734322E+03  0.10100000352E+00 0. -1.
       -3    1    3    3    0  502  0.16039963385E+02 -0.14372775247E+02  0.12083629769E+04  0.12085549021E+04  0.10100000352E+00 0.  1.
</event>
<event>
 5   0  0.2873212E-03  0.8003605E+03  0.7818609E-02  0.9559495E-01
       -2   -1    0    0    0  501  0.00000000000E+00  0.00000000000E+00  0.19079895724E+03  0.19079895725E+03  0.25500000920E-02 0.  1.
        2   -1    0    0  501    0  0.00000000000E+00  0.00000000000E+00 -0.83933499343E+03  0.83933499344E+03  0.25500000920E-02 0. -1.
    10030    2    1    2    0    0  0.00000000000E+00  0.00000000000E+00 -0.64853603620E+03  0.10301339507E+04  0.80036052259E+03 0.  0.
        2    1    3    3  502    0 -0.20602496373E+03 -0.34212158591E+03 -0.29143400969E+03  0.49439584064E+03  0.25500000920E-02 0.  1.
       -2    1    3    3    0  502  0.20602496373E+03  0.34212158591E+03 -0.35710202650E+03  0.53573811006E+03  0.25500000920E-02 0. -1.
</event>
<event>
 5   0  0.2763587E-03  0.7993420E+03  0.7818609E-02  0.9560970E-01
       -2   -1    0    0    0  501  0.00000000000E+00  0.00000000000E+00  0.90054614586E+03  0.90054614586E+03  0.25500000920E-02 0. -1.
        2   -1    0    0  501    0  0.00000000000E+00  0.00000000000E+00 -0.17737783688E+03  0.17737783690E+03  0.25500000920E-02 0.  1.
    10030    2    1    2    0    0  0.00000000000E+00  0.00000000000E+00  0.72316830898E+03  0.10779239828E+04  0.79934204787E+03 0.  0.
        3    1    3    3  502    0 -0.20622965087E+03 -0.25574981238E+03  0.54672660986E+02  0.33305817134E+03  0.10100000352E+00 0.  1.
       -3    1    3    3    0  502  0.20622965087E+03  0.25574981238E+03  0.66849564799E+03  0.74486581142E+03  0.10100000352E+00 0. -1.
</event>
<event>
 5   0  0.1617491E-03  0.8016432E+03  0.7818609E-02  0.9557642E-01
        1   -1    0    0  501    0  0.00000000000E+00  0.00000000000E+00  0.20938897966E+04  0.20938897966E+04  0.50400001928E-02 0. -1.
       -1   -1    0    0    0  501  0.00000000000E+00  0.00000000000E+00 -0.76727038239E+02  0.76727038404E+02  0.50400001928E-02 0.  1.
    10030    2    1    2    0    0  0.00000000000E+00  0.00000000000E+00  0.20171627584E+04  0.21706168350E+04  0.80164321909E+03 0.  0.
        1    1    3    3  502    0 -0.33025084956E+03 -0.18017009326E+03  0.63406419625E+03  0.73726812703E+03  0.50400001928E-02 0. -1.
       -1    1    3    3    0  502  0.33025084956E+03  0.18017009326E+03  0.13830985621E+04  0.14333487080E+04  0.50400001928E-02 0.  1.
</event>
<event>
 5   0  0.2910501E-03  0.8003956E+03  0.7818609E-02  0.9559445E-01
        2   -1    0    0  501    0  0.00000000000E+00  0.00000000000E+00  0.58892565137E+03  0.58892565137E+03  0.25500000920E-02 0. -1.
       -2   -1    0    0    0  501  0.00000000000E+00  0.00000000000E+00 -0.27194993701E+03  0.27194993702E+03  0.25500000920E-02 0.  1.
    10030    2    1    2    0    0  0.00000000000E+00  0.00000000000E+00  0.31697571436E+03  0.86087558840E+03  0.80039563667E+03 0.  0.
        1    1    3    3  502    0  0.19114230095E+03 -0.29641653886E+03 -0.44904835848E+02  0.35554829212E+03  0.50400001928E-02 0. -1.
       -1    1    3    3    0  502 -0.19114230095E+03  0.29641653886E+03  0.36188055021E+03  0.50532729628E+03  0.50400001928E-02 0.  1.
</event>
<event>
 5   0  0.2910501E-03  0.8001291E+03  0.7818609E-02  0.9559830E-01
        2   -1    0    0  501    0  0.00000000000E+00  0.00000000000E+00  0.72389492685E+03  0.72389492686E+03  0.25500000920E-02 0. -1.
       -2   -1    0    0    0  501  0.00000000000E+00  0.00000000000E+00 -0.22109789898E+03  0.22109789899E+03  0.25500000920E-02 0.  1.
    10030    2    1    2    0    0  0.00000000000E+00  0.00000000000E+00  0.50279702787E+03  0.94499282585E+03  0.80012910812E+03 0.  0.
        1    1    3    3  502    0  0.12959957895E+03  0.32432423511E+03  0.48183772708E+03  0.59510491143E+03  0.50400001928E-02 0. -1.
       -1    1    3    3    0  502 -0.12959957895E+03 -0.32432423511E+03  0.20959300797E+02  0.34988791442E+03  0.50400001928E-02 0.  1.
</event>
<event>
 5   0  0.2690809E-03  0.8001750E+03  0.7818609E-02  0.9559764E-01
        2   -1    0    0  501    0  0.00000000000E+00  0.00000000000E+00  0.13070562503E+04  0.13070562503E+04  0.25500000920E-02 0.  1.
       -2   -1    0    0    0  501  0.00000000000E+00  0.00000000000E+00 -0.12246603926E+03  0.12246603929E+03  0.25500000920E-02 0. -1.
    10030    2    1    2    0    0  0.00000000000E+00  0.00000000000E+00  0.11845902110E+04  0.14295222896E+04  0.80017498607E+03 0.  0.
        5    1    3    3  502    0 -0.31021802424E+03 -0.11153851376E+03  0.99721448356E+03  0.10503022797E+04  0.46999998093E+01 0.  1.
       -5    1    3    3    0  502  0.31021802424E+03  0.11153851376E+03  0.18737572746E+03  0.37922000983E+03  0.46999998093E+01 0. -1.
</event>
<event>
 5   0  0.2763587E-03  0.8005160E+03  0.7818609E-02  0.9559271E-01
        2   -1    0    0  501    0  0.00000000000E+00  0.00000000000E+00  0.33892352984E+03  0.33892352985E+03  0.25500000920E-02 0.  1.
       -2   -1    0    0    0  501  0.00000000000E+00  0.00000000000E+00 -0.47269208196E+03  0.47269208196E+03  0.25500000920E-02 0. -1.
    10030    2    1    2    0    0  0.00000000000E+00  0.00000000000E+00 -0.13376855212E+03  0.81161561181E+03  0.80051600596E+03 0.  0.
        3    1    3    3  502    0 -0.11645885187E+03 -0.10466404857E+03 -0.44035199048E+03  0.46736186511E+03  0.10100000352E+00 0. -1.
       -3    1    3    3    0  502  0.11645885187E+03  0.10466404857E+03  0.30658343836E+03  0.34425374670E+03  0.10100000352E+00 0.  1.
</event>
<event>
 5   0  0.1712793E-03  0.8030755E+03  0.7818609E-02  0.9555576E-01
        1   -1    0    0  501    0  0.00000000000E+00  0.00000000000E+00  0.23287200995E+04  0.23287200995E+04  0.50400001928E-02 0. -1.
       -1   -1    0    0    0  501  0.00000000000E+00  0.00000000000E+00 -0.69236557926E+02  0.69236558109E+02  0.50400001928E-02 0.  1.
    10030    2    1    2    0    0  0.00000000000E+00  0.00000000000E+00  0.22594835415E+04  0.23979566576E+04  0.80307549903E+03 0.  0.
        4    1    3    3  502    0 -0.24164251459E+03 -0.47559600871E+02  0.20767119464E+04  0.20912644839E+04  0.12699999809E+01 0. -1.
       -4    1    3    3    0  502  0.24164251459E+03  0.47559600871E+02  0.18277159515E+03  0.30669217366E+03  0.12699999809E+01 0.  1.
</event>
<event>
 5   0  0.1617491E-03  0.7995926E+03  0.7818609E-02  0.9560607E-01
        1   -1    0    0  501    0  0.00000000000E+00  0.00000000000E+00  0.20982564206E+03  0.20982564212E+03  0.50400001928E-02 0.  1.
       -1   -1    0    0    0  501  0.00000000000E+00  0.00000000000E+00 -0.76176136405E+03  0.76176136407E+03  0.50400001928E-02 0. -1.
    10030    2    1    2    0    0  0.00000000000E+00  0.00000000000E+00 -0.55193572200E+03  0.97158700619E+03  0.79959256461E+03 0.  0.
        1    1    3    3  502    0 -0.21252765432E+03 -0.40046087123E+02  0.13261275944E+03  0.25368846433E+03  0.50400001928E-02 0.  1.
       -1    1    3    3    0  502  0.21252765432E+03  0.40046087123E+02 -0.68454848144E+03  0.71789854186E+03  0.50400001928E-02 0. -1.
</event>
<event>
 5   0  0.1617491E-03  0.8021233E+03  0.7818609E-02  0.9556949E-01
       -1   -1    0    0    0  501  0.00000000000E+00  0.00000000000E+00  0.14049942227E+03  0.14049942236E+03  0.50400001928E-02 0.  1.
        1   -1    0    0  501    0  0.00000000000E+00  0.00000000000E+00 -0.11448476971E+04  0.11448476971E+04  0.50400001928E-02 0. -1.
    10030    2    1    2    0    0  0.00000000000E+00  0.00000000000E+00 -0.10043482749E+04  0.12853471195E+04  0.80212328253E+03 0.  0.
        1    1    3    3  502    0  0.51509696626E+02 -0.39276088896E+03 -0.60270768469E+03  0.72122875563E+03  0.50400001928E-02 0. -1.
       -1    1    3    3    0  502 -0.51509696626E+02  0.39276088896E+03 -0.40164059016E+03  0.56411836385E+03  0.50400001928E-02 0.  1.
</event>
<event>
 5   0  0.2690809E-03  0.7993496E+03  0.7818609E-02  0.9560959E-01
       -2   -1    0    0    0  501  0.00000000000E+00  0.00000000000E+00  0.71008629043E+02  0.71008629089E+02  0.25500000920E-02 0. -1.
        2   -1    0    0  501    0  0.00000000000E+00  0.00000000000E+00 -0.22495848014E+04  0.22495848014E+04  0.25500000920E-02 0.  1.
    10030    2    1    2    0    0  0.00000000000E+00  0.00000000000E+00 -0.21785761724E+04  0.23205934305E+04  0.79934956738E+03 0.  0.
        5    1    3    3  502    0 -0.20106594506E+03 -0.76822915334E+02 -0.20668560252E+04  0.20780387854E+04  0.46999998093E+01 0.  1.
       -5    1    3    3    0  502  0.20106594506E+03  0.76822915334E+02 -0.11172014712E+03  0.24255464509E+03  0.46999998093E+01 0. -1.
</event>
<event>
 5   0  0.2910501E-03  0.8004465E+03  0.7818609E-02  0.9559371E-01
       -2   -1    0    0    0  501  0.00000000000E+00  0.00000000000E+00  0.36934009355E+03  0.36934009356E+03  0.25500000920E-02 0.  1.
        2   -1    0    0  501    0  0.00000000000E+00  0.00000000000E+00 -0.43368871385E+03  0.43368871386E+03  0.25500000920E-02 0. -1.
    10030    2    1    2    0    0  0.00000000000E+00  0.00000000000E+00 -0.64348620300E+02  0.80302880742E+03  0.80044645081E+03 0.  0.
        1    1    3    3  502    0 -0.10599410408E+03 -0.36972756686E+03 -0.14319027612E+03  0.41041037877E+03  0.50400001928E-02 0. -1.
       -1    1    3    3    0  502  0.10599410408E+03  0.36972756686E+03  0.78841655824E+02  0.39261842865E+03  0.50400001928E-02 0.  1.
</event>
<event>
 5   0  0.1656051E-03  0.8031189E+03  0.7818609E-02  0.9555514E-01
        1   -1    0    0  501    0  0.00000000000E+00  0.00000000000E+00  0.55150278311E+03  0.55150278313E+03  0.50400001928E-02 0. -1.
       -1   -1    0    0    0  501  0.00000000000E+00  0.00000000000E+00 -0.29238293227E+03  0.29238293231E+03  0.50400001928E-02 0.  1.
    10030    2    1    2    0    0  0.00000000000E+00  0.00000000000E+00  0.25911985083E+03  0.84388571544E+03  0.80311892247E+03 0.  0.
        3    1    3    3  502    0 -0.32690301328E+03 -0.23316572035E+03  0.13403738278E+03  0.42331768616E+03  0.10100000352E+00 0.  1.
       -3    1    3    3    0  502  0.32690301328E+03  0.23316572035E+03  0.12508246806E+03  0.42056802928E+03  0.10100000352E+00 0. -1.
</event>
<event>
 5   0  0.1656051E-03  0.7977284E+03  0.7818609E-02  0.9563311E-01
       -1   -1    0    0    0  501  0.00000000000E+00  0.00000000000E+00  0.22152758698E+03  0.22152758704E+03  0.50400001928E-02 0. -1.
        1   -1    0    0  501    0  0.00000000000E+00  0.00000000000E+00 -0.71816181339E+03  0.71816181341E+03  0.50400001928E-02 0.  1.
    10030    2    1    2    0    0  0.00000000000E+00  0.00000000000E+00 -0.49663422641E+03  0.93968940045E+03  0.79772840896E+03 0.  0.
        3    1    3    3  502    0 -0.24345255494E+03  0.17740578269E+03  0.59647421433E+02  0.30708269785E+03  0.10100000352E+00 0. -1.
       -3    1    3    3    0  502  0.24345255494E+03 -0.17740578269E+03 -0.55628164784E+03  0.63260670259E+03  0.10100000352E+00 0.  1.
</event>
<event>
 5   0  0.2910501E-03  0.8014541E+03  0.7818609E-02  0.9557915E-01
        2   -1    0    0  501    0  0.00000000000E+00  0.00000000000E+00  0.96074508075E+03  0.96074508075E+03  0.25500000920E-02 0. -1.
       -2   -1    0    0    0  501  0.00000000000E+00  0.00000000000E+00 -0.16714335299E+03  0.16714335301E+03  0.25500000920E-02 0.  1.
    10030    2    1    2    0    0  0.00000000000E+00  0.00000000000E+00  0.79360172776E+03  0.11278884338E+04  0.80145406402E+03 0.  0.
        1    1    3    3  502    0  0.29141030249E+03  0.21138589308E+03  0.64449490289E+03  0.73822600879E+03  0.50400001928E-02 0. -1.
       -1    1    3    3    0  502 -0.29141030249E+03 -0.21138589308E+03  0.14910682487E+03  0.38966242497E+03  0.50400001928E-02 0.  1.
</event>
<event>
 5   0  0.1617491E-03  0.8000609E+03  0.7818609E-02  0.9559929E-01
        1   -1    0    0  501    0  0.00000000000E+00  0.00000000000E+00  0.79294916037E+03  0.79294916039E+03  0.50400001928E-02 0. -1.
       -1   -1    0    0    0  501  0.00000000000E+00  0.00000000000E+00 -0.20180913023E+03  0.20180913029E+03  0.50400001928E-02 0.  1.
    10030    2    1    2    0    0  0.00000000000E+00  0.00000000000E+00  0.59114003014E+03  0.99475829068E+03  0.80006094871E+03 0.  0.
        1    1    3    3  502    0 -0.26454451800E+03  0.26677646582E+03  0.12476888046E+03  0.39587972703E+03  0.50400001928E-02 0. -1.
       -1    1    3    3    0  502  0.26454451800E+03 -0.26677646582E+03  0.46637114968E+03  0.59887856365E+03  0.50400001928E-02 0.  1.
</event>
<event>
 5   0  0.1637228E-03  0.7999143E+03  0.7818609E-02  0.9560141E-01
        1   -1    0    0  501    0  0.00000000000E+00  0.00000000000E+00  0.17619341653E+03  0.17619341660E+03  0.50400001928E-02 0.  1.
       -1   -1    0    0    0  501  0.00000000000E+00  0.00000000000E+00 -0.90789843934E+03  0.90789843936E+03  0.50400001928E-02 0. -1.
    10030    2    1    2    0    0  0.00000000000E+00  0.00000000000E+00 -0.73170502281E+03  0.10840918560E+04  0.79991431525E+03 0.  0.
        2    1    3    3  502    0 -0.38412326538E+03 -0.34835249547E+02 -0.22241535071E+03  0.44523338358E+03  0.25500000920E-02 0.  1.
       -2    1    3    3    0  502  0.38412326538E+03  0.34835249547E+02 -0.50928967210E+03  0.63885847238E+03  0.25500000920E-02 0. -1.
</event>
<event>
 5   0  0.1712793E-03  0.7994917E+03  0.7818609E-02  0.9560753E-01
       -1   -1    0    0    0  501  0.00000000000E+00  0.00000000000E+00  0.82157837065E+03  0.82157837066E+03  0.50400001928E-02 0. -1.
        1   -1    0    0  501    0  0.00000000000E+00  0.00000000000E+00 -0.19449969790E+03  0.19449969797E+03  0.50400001928E-02 0.  1.
    10030    2    1    2    0    0  0.00000000000E+00  0.00000000000E+00  0.62707867275E+03  0.10160780686E+04  0.79949170086E+03 0.  0.
        4    1    3    3  502    0  0.36481277882E+03  0.98156173560E+02  0.14748239915E+03  0.40555599978E+03  0.12699999809E+01 0. -1.
       -4    1    3    3    0  502 -0.36481277882E+03 -0.98156173560E+02  0.47959627360E+03  0.61052206885E+03  0.12699999809E+01 0.  1.
</event>
<event>
 5   0  0.1637228E-03  0.8033830E+03  0.7818609E-02  0.9555133E-01
        1   -1    0    0  501    0  0.00000000000E+00  0.00000000000E+00  0.66325350378E+03  0.66325350380E+03  0.50400001928E-02 0. -1.
       -1   -1    0    0    0  501  0.00000000000E+00  0.00000000000E+00 -0.24327963582E+03  0.24327963587E+03  0.50400001928E-02 0.  1.
    10030    2    1    2    0    0  0.00000000000E+00  0.00000000000E+00  0.41997386796E+03  0.90653313967E+03  0.80338302418E+03 0.  0.
        2    1    3    3  502    0 -0.66944773574E+01 -0.25196312079E+03 -0.14294245851E+03  0.28976331155E+03  0.25500000920E-02 0.  1.
       -2    1    3    3    0  502  0.66944773574E+01  0.25196312079E+03  0.56291632647E+03  0.61676982812E+03  0.25500000920E-02 0. -1.
</event>
<event>
 5   0  0.1617491E-03  0.7997528E+03  0.7818609E-02  0.9560375E-01
        1   -1    0    0  501    0  0.00000000000E+00  0.00000000000E+00  0.56408011487E+03  0.56408011489E+03  0.50400001928E-02 0.  1.
       -1   -1    0    0    0  501  0.00000000000E+00  0.00000000000E+00 -0.28347241122E+03  0.28347241126E+03  0.50400001928E-02 0. -1.
    10030    2    1    2    0    0  0.00000000000E+00  0.00000000000E+00  0.28060770365E+03  0.84755252616E+03  0.79975283760E+03 0.  0.
        1    1    3    3  502    0 -0.17513890374E+03 -0.47801581087E+02 -0.23728085571E+03  0.29876551219E+03  0.50400001928E-02 0. -1.
       -1    1    3    3    0  502  0.17513890374E+03  0.47801581087E+02  0.51788855936E+03  0.54878701397E+03  0.50400001928E-02 0.  1.
</event>
<event>
 5   0  0.1656051E-03  0.7995425E+03  0.7818609E-02  0.9560680E-01
       -1   -1    0    0    0  501  0.00000000000E+00  0.00000000000E+00  0.20631360455E+03  0.20631360461E+03  0.50400001928E-02 0. -1.
        1   -1    0    0  501    0  0.00000000000E+00  0.00000000000E+00 -0.77463169941E+03  0.77463169943E+03  0.50400001928E-02 0.  1.
    10030    2    1    2    0    0  0.00000000000E+00  0.00000000000E+00 -0.56831809486E+03  0.98094530404E+03  0.79954251455E+03 0.  0.
        3    1    3    3  502    0  0.28451294412E+03  0.23681987401E+03 -0.46935657277E+03  0.59776824164E+03  0.10100000352E+00 0.  1.
       -3    1    3    3    0  502 -0.28451294412E+03 -0.23681987401E+03 -0.98961522087E+02  0.38317706241E+03  0.10100000352E+00 0. -1.
</event>
<event>
 5   0  0.1712793E-03  0.8004982E+03  0.7818609E-02  0.9559296E-01
        1   -1    0    0  501    0  0.00000000000E+00  0.00000000000E+00  0.11266438970E+04  0.11266438971E+04  0.50400001928E-02 0.  1.
       -1   -1    0    0    0  501  0.00000000000E+00  0.00000000000E+00 -0.14219165419E+03  0.14219165428E+03  0.50400001928E-02 0. -1.
    10030    2    1    2    0    0  0.00000000000E+00  0.00000000000E+00  0.98445224285E+03  0.12688355513E+04  0.80049824350E+03 0.  0.
        4    1    3    3  502    0  0.14041749440E+03 -0.35378306856E+03  0.29604869869E+03  0.48220947443E+03  0.12699999809E+01 0. -1.
       -4    1    3    3    0  502 -0.14041749440E+03  0.35378306856E+03  0.68840354417E+03  0.78662607690E+03  0.12699999809E+01 0.  1.
</event>
<event>
 5   0  0.2690809E-03  0.7997287E+03  0.7818609E-02  0.9560410E-01
        2   -1    0    0  501    0  0.00000000000E+00  0.00000000000E+00  0.40177189491E+03  0.40177189492E+03  0.25500000920E-02 0. -1.
       -2   -1    0    0    0  501  0.00000000000E+00  0.00000000000E+00 -0.39796583692E+03  0.39796583693E+03  0.25500000920E-02 0.  1.
    10030    2    1    2    0    0  0.00000000000E+00  0.00000000000E+00  0.38060579941E+01  0.79973773185E+03  0.79972867503E+03 0.  0.
        5    1    3    3  502    0  0.52502724650E+02  0.34795563381E+03  0.19174653169E+03  0.40077235634E+03  0.46999998093E+01 0. -1.
       -5    1    3    3    0  502 -0.52502724650E+02 -0.34795563381E+03 -0.18794047370E+03  0.39896537550E+03  0.46999998093E+01 0.  1.
</event>
<event>
 5   0  0.1637228E-03  0.8001968E+03  0.7818609E-02  0.9559732E-01
       -1   -1    0    0    0  501  0.00000000000E+00  0.00000000000E+00  0.12778679683E+03  0.12778679693E+03  0.50400001928E-02 0. -1.
        1   -1    0    0  501    0  0.00000000000E+00  0.00000000000E+00 -0.12527016239E+04  0.12527016239E+04  0.50400001928E-02 0.  1.
    10030    2    1    2    0    0  0.00000000000E+00  0.00000000000E+00 -0.11249148271E+04  0.13804884209E+04  0.80019679575E+03 0.  0.
        2    1    3    3  502    0  0.16273407416E+03 -0.20589380987E+03 -0.41450947679E+02  0.26569309533E+03  0.25500000920E-02 0. -1.
       -2    1    3    3    0  502 -0.16273407416E+03  0.20589380987E+03 -0.10834638794E+04  0.11147953255E+04  0.25500000920E-02 0.  1.
</event>
<event>
 5   0  0.1656051E-03  0.7996018E+03  0.7818609E-02  0.9560594E-01
        1   -1    0    0  501    0  0.00000000000E+00  0.00000000000E+00  0.19329348182E+03  0.19329348189E+03  0.50400001928E-02 0. -1.
       -1   -1    0    0    0  501  0.00000000000E+00  0.00000000000E+00 -0.82693307843E+03  0.82693307844E+03  0.50400001928E-02 0.  1.
    10030    2    1    2    0    0  0.00000000000E+00  0.00000000000E+00 -0.63363959660E+03  0.10202265603E+04  0.79960183593E+03 0.  0.
        3    1    3    3  502    0 -0.29899372185E+03 -0.18439174302E+03 -0.56039390270E+03  0.66139163662E+03  0.10100000352E+00 0.  1.
       -3    1    3    3    0  502  0.29899372185E+03  0.18439174302E+03 -0.73245693898E+02  0.35883492371E+03  0.10100000352E+00 0. -1.
</event>
<event>
 5   0  0.1095350E-03  0.7993852E+03  0.7818609E-02  0.9560907E-01
       -4   -1    0    0    0  501  0.00000000000E+00  0.00000000000E+00  0.81937978683E+03  0.81938077105E+03  0.12699999809E+01 0. -1.
        4   -1    0    0  501    0  0.00000000000E+00  0.00000000000E+00 -0.19496646185E+03  0.19497059816E+03  0.12699999809E+01 0.  1.
    10030    2    1    2    0    0  0.00000000000E+00  0.00000000000E+00  0.62441332498E+03  0.10143513692E+04  0.79938520115E+03 0.  0.
        5    1    3    3  502    0 -0.28619800880E+03 -0.85929042462E+02 -0.24567572677E+02  0.29986456311E+03  0.46999998093E+01 0.  1.
       -5    1    3    3    0  502  0.28619800880E+03  0.85929042462E+02  0.64898089766E+03  0.71448680611E+03  0.46999998093E+01 0. -1.
</event>
<event>
 5   0  0.2910501E-03  0.7995860E+03  0.7818609E-02  0.9560617E-01
        2   -1    0    0  501    0  0.00000000000E+00  0.00000000000E+00  0.11328343299E+04  0.11328343299E+04  0.25500000920E-02 0.  1.
       -2   -1    0    0    0  501  0.00000000000E+00  0.00000000000E+00 -0.14109250776E+03  0.14109250778E+03  0.25500000920E-02 0. -1.
    10030    2    1    2    0    0  0.00000000000E+00  0.00000000000E+00  0.99174182216E+03  0.12739268377E+04  0.79958598412E+03 0.  0.
        1    1    3    3  502    0  0.10209306274E+03  0.36978246263E+03  0.31651805627E+03  0.49733866037E+03  0.50400001928E-02 0. -1.
       -1    1    3    3    0  502 -0.10209306274E+03 -0.36978246263E+03  0.67522376589E+03  0.77658817733E+03  0.50400001928E-02 0.  1.
</event>
<event>
 5   0  0.1095350E-03  0.7989558E+03  0.7818609E-02  0.9561530E-01
        3   -1    0    0  501    0  0.00000000000E+00  0.00000000000E+00  0.40482084628E+03  0.40482085888E+03  0.10100000352E+00 0. -1.
       -3   -1    0    0    0  501  0.00000000000E+00  0.00000000000E+00 -0.39420544234E+03  0.39420545528E+03  0.10100000352E+00 0.  1.
    10030    2    1    2    0    0  0.00000000000E+00  0.00000000000E+00  0.10615403940E+02  0.79902631417E+03  0.79895579598E+03 0.  0.
        3    1    3    3  502    0 -0.14607146210E+03 -0.10149698957E+02 -0.36640062345E+03  0.39457485411E+03  0.10100000352E+00 0.  1.
       -3    1    3    3    0  502  0.14607146210E+03  0.10149698957E+02  0.37701602739E+03  0.40445146006E+03  0.10100000352E+00 0. -1.
</event>
<event>
 5   0  0.1617491E-03  0.7985244E+03  0.7818609E-02  0.9562155E-01
       -1   -1    0    0    0  501  0.00000000000E+00  0.00000000000E+00  0.63815483275E+03  0.63815483277E+03  0.50400001928E-02 0. -1.
        1   -1    0    0  501    0  0.00000000000E+00  0.00000000000E+00 -0.24979879548E+03  0.24979879553E+03  0.50400001928E-02 0.  1.
    10030    2    1    2    0    0  0.00000000000E+00  0.00000000000E+00  0.38835603727E+03  0.88795362830E+03  0.79852441060E+03 0.  0.
        1    1    3    3  502    0 -0.26779874875E+03 -0.24534700591E+03  0.37857780968E+03  0.52462603934E+03  0.50400001928E-02 0. -1.
       -1    1    3    3    0  502  0.26779874875E+03  0.24534700591E+03  0.97782275907E+01  0.36332758896E+03  0.50400001928E-02 0.  1.
</event>
<event>
 5   0  0.2873212E-03  0.8015050E+03  0.7818609E-02  0.9557841E-01
        2   -1    0    0  501    0  0.00000000000E+00  0.00000000000E+00  0.35058494025E+03  0.35058494025E+03  0.25500000920E-02 0. -1.
       -2   -1    0    0    0  501  0.00000000000E+00  0.00000000000E+00 -0.45809889719E+03  0.45809889720E+03  0.25500000920E-02 0.  1.
    10030    2    1    2    0    0  0.00000000000E+00  0.00000000000E+00 -0.10751395694E+03  0.80868383745E+03  0.80150502058E+03 0.  0.
        2    1    3    3  502    0  0.21024928024E+03  0.38696850364E+02  0.28824862906E+03  0.35887250972E+03  0.25500000920E-02 0. -1.
       -2    1    3    3    0  502 -0.21024928024E+03 -0.38696850364E+02 -0.39576258600E+03  0.44981132773E+03  0.25500000920E-02 0.  1.
</event>
<event>
 5   0  0.1640035E-03  0.7980525E+03  0.7818609E-02  0.9562840E-01
       -1   -1    0    0    0  501  0.00000000000E+00  0.00000000000E+00  0.11570959676E+03  0.11570959687E+03  0.50400001928E-02 0.  1.
        1   -1    0    0  501    0  0.00000000000E+00  0.00000000000E+00 -0.13760480038E+04  0.13760480038E+04  0.50400001928E-02 0. -1.
    10030    2    1    2    0    0  0.00000000000E+00  0.00000000000E+00 -0.12603384070E+04  0.14917576007E+04  0.79805252892E+03 0.  0.
        5    1    3    3  502    0  0.35029986751E+03 -0.18025341604E+03 -0.74836978078E+03  0.84574269725E+03  0.46999998093E+01 0. -1.
       -5    1    3    3    0  502 -0.35029986751E+03  0.18025341604E+03 -0.51196862624E+03  0.64601490341E+03  0.46999998093E+01 0.  1.
</event>
<event>
 5   0  0.1712793E-03  0.7999070E+03  0.7818609E-02  0.9560152E-01
       -1   -1    0    0    0  501  0.00000000000E+00  0.00000000000E+00  0.22606667838E+03  0.22606667844E+03  0.50400001928E-02 0.  1.
        1   -1    0    0  501    0  0.00000000000E+00  0.00000000000E+00 -0.70759132539E+03  0.70759132541E+03  0.50400001928E-02 0. -1.
    10030    2    1    2    0    0  0.00000000000E+00  0.00000000000E+00 -0.48152464701E+03  0.93365800385E+03  0.79990704615E+03 0.  0.
        4    1    3    3  502    0 -0.34721691183E+02 -0.31343710387E+03  0.46363268941E+02  0.31874688944E+03  0.12699999809E+01 0. -1.
       -4    1    3    3    0  502  0.34721691183E+02  0.31343710387E+03 -0.52788791595E+03  0.61491111441E+03  0.12699999809E+01 0.  1.
</event>
<event>
 5   0  0.1656051E-03  0.7975652E+03  0.7818609E-02  0.9563548E-01
       -1   -1    0    0    0  501  0.00000000000E+00  0.00000000000E+00  0.52766602669E+03  0.52766602671E+03  0.50400001928E-02 0. -1.
        1   -1    0    0  501    0  0.00000000000E+00  0.00000000000E+00 -0.30137922243E+03  0.30137922248E+03  0.50400001928E-02 0.  1.
    10030    2    1    2    0    0  0.00000000000E+00  0.00000000000E+00  0.22628680425E+03  0.82904524919E+03  0.79756523709E+03 0.  0.
        3    1    3    3  502    0 -0.19600518491E+03  0.65296526536E+02  0.46770162021E+03  0.51129882127E+03  0.10100000352E+00 0.  1.
       -3    1    3    3    0  502  0.19600518491E+03 -0.65296526536E+02 -0.24141481596E+03  0.31774642791E+03  0.10100000352E+00 0. -1.
</event>
<event>
 5   0  0.1095350E-03  0.7994111E+03  0.7818609E-02  0.9560870E-01
        3   -1    0    0  501    0  0.00000000000E+00  0.00000000000E+00  0.16160673322E+03  0.16160676478E+03  0.10100000352E+00 0. -1.
       -3   -1    0    0    0  501  0.00000000000E+00  0.00000000000E+00 -0.98860051115E+03  0.98860051631E+03  0.10100000352E+00 0.  1.
    10030    2    1    2    0    0  0.00000000000E+00  0.00000000000E+00 -0.82699377793E+03  0.11502072811E+04  0.79941108370E+03 0.  0.
        4    1    3    3  502    0  0.14249336911E+03  0.39799205372E+02 -0.94775119724E+03  0.95923004631E+03  0.12699999809E+01 0.  1.
       -4    1    3    3    0  502 -0.14249336911E+03 -0.39799205372E+02  0.12075741931E+03  0.19097723478E+03  0.12699999809E+01 0. -1.
</event>
<event>
 5   0  0.2763587E-03  0.8028571E+03  0.7818609E-02  0.9555891E-01
        2   -1    0    0  501    0  0.00000000000E+00  0.00000000000E+00  0.28393154262E+03  0.28393154264E+03  0.25500000920E-02 0.  1.
       -2   -1    0    0    0  501  0.00000000000E+00  0.00000000000E+00 -0.56754833591E+03  0.56754833591E+03  0.25500000920E-02 0. -1.
    10030    2    1    2    0    0  0.00000000000E+00  0.00000000000E+00 -0.28361679328E+03  0.85147987855E+03  0.80285708451E+03 0.  0.
        3    1    3    3  502    0 -0.26569371197E+03  0.29919146255E+03 -0.10766909049E+03  0.41436858362E+03  0.10100000352E+00 0. -1.
       -3    1    3    3    0  502  0.26569371197E+03 -0.29919146255E+03 -0.17594770279E+03  0.43711129493E+03  0.10100000352E+00 0.  1.
</event>
<event>
 5   0  0.2768834E-03  0.7974375E+03  0.7818609E-02  0.9563734E-01
        2   -1    0    0  501    0  0.00000000000E+00  0.00000000000E+00  0.14812048977E+04  0.14812048977E+04  0.25500000920E-02 0. -1.
       -2   -1    0    0    0  501  0.00000000000E+00  0.00000000000E+00 -0.10732926604E+03  0.10732926607E+03  0.25500000920E-02 0.  1.
    10030    2    1    2    0    0  0.00000000000E+00  0.00000000000E+00  0.13738756317E+04  0.15885341638E+04  0.79743748230E+03 0.  0.
        4    1    3    3  502    0 -0.16179254968E+03  0.69326668676E+02 -0.25736875546E+02  0.17789608142E+03  0.12699999809E+01 0.  1.
       -4    1    3    3    0  502  0.16179254968E+03 -0.69326668676E+02  0.13996125072E+04  0.14106380823E+04  0.12699999809E+01 0. -1.
</event>
<event>
 5   0  0.1712793E-03  0.8000095E+03  0.7818609E-02  0.9560003E-01
        1   -1    0    0  501    0  0.00000000000E+00  0.00000000000E+00  0.18961353158E+03  0.18961353164E+03  0.50400001928E-02 0. -1.
       -1   -1    0    0    0  501  0.00000000000E+00  0.00000000000E+00 -0.84384171934E+03  0.84384171935E+03  0.50400001928E-02 0.  1.
    10030    2    1    2    0    0  0.00000000000E+00  0.00000000000E+00 -0.65422818776E+03  0.10334552510E+04  0.80000952129E+03 0.  0.
        4    1    3    3  502    0 -0.12179480843E+03 -0.19287342860E+03  0.97353139942E+02  0.24801891375E+03  0.12699999809E+01 0. -1.
       -4    1    3    3    0  502  0.12179480843E+03  0.19287342860E+03 -0.75158132770E+03  0.78543633725E+03  0.12699999809E+01 0.  1.
</event>
<event>
 5   0  0.1640035E-03  0.8000557E+03  0.7818609E-02  0.9559936E-01
        1   -1    0    0  501    0  0.00000000000E+00  0.00000000000E+00  0.35512803047E+03  0.35512803051E+03  0.50400001928E-02 0. -1.
       -1   -1    0    0    0  501  0.00000000000E+00  0.00000000000E+00 -0.45060447842E+03  0.45060447845E+03  0.50400001928E-02 0.  1.
    10030    2    1    2    0    0  0.00000000000E+00  0.00000000000E+00 -0.95476447954E+02  0.80573250896E+03  0.80005570048E+03 0.  0.
        5    1    3    3  502    0  0.39566090927E+03  0.18967411715E+02  0.82699890197E+01  0.39622947965E+03  0.46999998093E+01 0.  1.
       -5    1    3    3    0  502 -0.39566090927E+03 -0.18967411715E+02 -0.10374643697E+03  0.40950302931E+03  0.46999998093E+01 0. -1.
</event>
<event>
 5   0  0.2763587E-03  0.7978640E+03  0.7818609E-02  0.9563114E-01
       -2   -1    0    0    0  501  0.00000000000E+00  0.00000000000E+00  0.29397734961E+03  0.29397734963E+03  0.25500000920E-02 0.  1.
        2   -1    0    0  501    0  0.00000000000E+00  0.00000000000E+00 -0.54135712301E+03  0.54135712302E+03  0.25500000920E-02 0. -1.
    10030    2    1    2    0    0  0.00000000000E+00  0.00000000000E+00 -0.24737977340E+03  0.83533447265E+03  0.79786397895E+03 0.  0.
        3    1    3    3  502    0 -0.36084707127E+02  0.23375448643E+03 -0.46003000008E+03  0.51727253666E+03  0.10100000352E+00 0. -1.
       -3    1    3    3    0  502  0.36084707127E+02 -0.23375448643E+03  0.21265022668E+03  0.31806193598E+03  0.10100000352E+00 0.  1.
</event>
<event>
 5   0  0.1712793E-03  0.7998428E+03  0.7818609E-02  0.9560245E-01
        1   -1    0    0  501    0  0.00000000000E+00  0.00000000000E+00  0.62313619933E+03  0.62313619935E+03  0.50400001928E-02 0.  1.
       -1   -1    0    0    0  501  0.00000000000E+00  0.00000000000E+00 -0.25666481594E+03  0.25666481599E+03  0.50400001928E-02 0. -1.
    10030    2    1    2    0    0  0.00000000000E+00  0.00000000000E+00  0.36647138339E+03  0.87980101534E+03  0.79984282940E+03 0.  0.
        4    1    3    3  502    0  0.28755459691E+03  0.25852137866E+03  0.70982010567E+02  0.39314247819E+03  0.12699999809E+01 0. -1.
       -4    1    3    3    0  502 -0.28755459691E+03 -0.25852137866E+03  0.29548937282E+03  0.48665853715E+03  0.12699999809E+01 0.  1.
</event>
<event>
 5   0  0.2763587E-03  0.7987240E+03  0.7818609E-02  0.9561866E-01
       -2   -1    0    0    0  501  0.00000000000E+00  0.00000000000E+00  0.99933513410E+03  0.99933513411E+03  0.25500000920E-02 0.  1.
        2   -1    0    0  501    0  0.00000000000E+00  0.00000000000E+00 -0.15959610337E+03  0.15959610339E+03  0.25500000920E-02 0. -1.
    10030    2    1    2    0    0  0.00000000000E+00  0.00000000000E+00  0.83973903074E+03  0.11589312375E+04  0.79872396577E+03 0.  0.
        3    1    3    3  502    0  0.18947966855E+02 -0.39289781204E+03  0.31973868339E+03  0.50691276568E+03  0.10100000352E+00 0. -1.
       -3    1    3    3    0  502 -0.18947966855E+02  0.39289781204E+03  0.52000034734E+03  0.65201847182E+03  0.10100000352E+00 0.  1.
</event>
<event>
 5   0  0.1640035E-03  0.7900950E+03  0.7818609E-02  0.9574466E-01
        1   -1    0    0  501    0  0.00000000000E+00  0.00000000000E+00  0.85956553198E+03  0.85956553200E+03  0.50400001928E-02 0.  1.
       -1   -1    0    0    0  501  0.00000000000E+00  0.00000000000E+00 -0.18155978925E+03  0.18155978932E+03  0.50400001928E-02 0. -1.
    10030    2    1    2    0    0  0.00000000000E+00  0.00000000000E+00  0.67800574273E+03  0.10411253213E+04  0.79009502436E+03 0.  0.
        5    1    3    3  502    0  0.36993760973E+03 -0.78735797674E+02  0.48917276867E+03  0.61835689414E+03  0.46999998093E+01 0. -1.
       -5    1    3    3    0  502 -0.36993760973E+03  0.78735797674E+02  0.18883297406E+03  0.42276842718E+03  0.46999998093E+01 0.  1.
</event>
<event>
 5   0  0.1637228E-03  0.8001171E+03  0.7818609E-02  0.9559848E-01
        1   -1    0    0  501    0  0.00000000000E+00  0.00000000000E+00  0.93408319742E+03  0.93408319744E+03  0.50400001928E-02 0. -1.
       -1   -1    0    0    0  501  0.00000000000E+00  0.00000000000E+00 -0.17134111497E+03  0.17134111504E+03  0.50400001928E-02 0.  1.
    10030    2    1    2    0    0  0.00000000000E+00  0.00000000000E+00  0.76274208246E+03  0.11054243125E+04  0.80011713284E+03 0.  0.
        2    1    3    3  502    0  0.24152487983E+03 -0.31892396181E+03  0.38179814624E+03  0.55300685843E+03  0.25500000920E-02 0. -1.
       -2    1    3    3    0  502 -0.24152487983E+03  0.31892396181E+03  0.38094393621E+03  0.55241745405E+03  0.25500000920E-02 0.  1.
</event>
<event>
 5   0  0.2690809E-03  0.7994991E+03  0.7818609E-02  0.9560742E-01
        2   -1    0    0  501    0  0.00000000000E+00  0.00000000000E+00  0.73892119280E+03  0.73892119280E+03  0.25500000920E-02 0.  1.
       -2   -1    0    0    0  501  0.00000000000E+00  0.00000000000E+00 -0.21626079380E+03  0.21626079381E+03  0.25500000920E-02 0. -1.
    10030    2    1    2    0    0  0.00000000000E+00  0.00000000000E+00  0.52266039900E+03  0.95518198661E+03  0.79949905245E+03 0.  0.
        5    1    3    3  502    0 -0.90493551760E+02 -0.19809352493E+03  0.66178159492E+03  0.69671163109E+03  0.46999998093E+01 0.  1.
       -5    1    3    3    0  502  0.90493551760E+02  0.19809352493E+03 -0.13912119592E+03  0.25847035552E+03  0.46999998093E+01 0. -1.
</event>
<event>
 5   0  0.1617491E-03  0.8044225E+03  0.7818609E-02  0.9553638E-01
        1   -1    0    0  501    0  0.00000000000E+00  0.00000000000E+00  0.34471920573E+03  0.34471920576E+03  0.50400001928E-02 0. -1.
       -1   -1    0    0    0  501  0.00000000000E+00  0.00000000000E+00 -0.46929183312E+03  0.46929183315E+03  0.50400001928E-02 0.  1.
    10030    2    1    2    0    0  0.00000000000E+00  0.00000000000E+00 -0.12457262739E+03  0.81401103891E+03  0.80442254567E+03 0.  0.
        1    1    3    3  502    0  0.26826998922E+03  0.26230497471E+03  0.84359048946E+02  0.38456356567E+03  0.50400001928E-02 0. -1.
       -1    1    3    3    0  502 -0.26826998922E+03 -0.26230497471E+03 -0.20893167634E+03  0.42944747324E+03  0.50400001928E-02 0.  1.
</event>
<event>
 5   0  0.1617491E-03  0.7996441E+03  0.7818609E-02  0.9560532E-01
        1   -1    0    0  501    0  0.00000000000E+00  0.00000000000E+00  0.25616831695E+04  0.25616831695E+04  0.50400001928E-02 0.  1.
       -1   -1    0    0    0  501  0.00000000000E+00  0.00000000000E+00 -0.62403379444E+02  0.62403379647E+02  0.50400001928E-02 0. -1.
    10030    2    1    2    0    0  0.00000000000E+00  0.00000000000E+00  0.24992797900E+04  0.26240865491E+04  0.79964413863E+03 0.  0.
        1    1    3    3  502    0 -0.99728543425E+02  0.37653785317E+03  0.15455483531E+04  0.15938777397E+04  0.50400001928E-02 0.  1.
       -1    1    3    3    0  502  0.99728543425E+02 -0.37653785317E+03  0.95373143687E+03  0.10302088094E+04  0.50400001928E-02 0. -1.
</event>
<event>
 5   0  0.2690809E-03  0.8004030E+03  0.7818609E-02  0.9559434E-01
        2   -1    0    0  501    0  0.00000000000E+00  0.00000000000E+00  0.16168500443E+04  0.16168500443E+04  0.25500000920E-02 0.  1.
       -2   -1    0    0    0  501  0.00000000000E+00  0.00000000000E+00 -0.99057562259E+02  0.99057562292E+02  0.25500000920E-02 0. -1.
    10030    2    1    2    0    0  0.00000000000E+00  0.00000000000E+00  0.15177924820E+04  0.17159076066E+04  0.80040295840E+03 0.  0.
        5    1    3    3  502    0  0.18412903698E+03  0.34257720523E+03  0.96087507096E+03  0.10366125775E+04  0.46999998093E+01 0.  1.
       -5    1    3    3    0  502 -0.18412903698E+03 -0.34257720523E+03  0.55691741105E+03  0.67929502908E+03  0.46999998093E+01 0. -1.
</event>
<event>
 5   0  0.1712793E-03  0.7992025E+03  0.7818609E-02  0.9561172E-01
        1   -1    0    0  501    0  0.00000000000E+00  0.00000000000E+00  0.17459909428E+04  0.17459909428E+04  0.50400001928E-02 0.  1.
       -1   -1    0    0    0  501  0.00000000000E+00  0.00000000000E+00 -0.91455897103E+02  0.91455897242E+02  0.50400001928E-02 0. -1.
    10030    2    1    2    0    0  0.00000000000E+00  0.00000000000E+00  0.16545350457E+04  0.18374468400E+04  0.79920252287E+03 0.  0.
        4    1    3    3  502    0 -0.11145638980E+03 -0.32610938067E+03  0.12922869381E+04  0.13374516807E+04  0.12699999809E+01 0.  1.
       -4    1    3    3    0  502  0.11145638980E+03  0.32610938067E+03  0.36224810759E+03  0.49999515932E+03  0.12699999809E+01 0. -1.
</event>
<event>
 5   0  0.1617491E-03  0.7992308E+03  0.7818609E-02  0.9561131E-01
       -1   -1    0    0    0  501  0.00000000000E+00  0.00000000000E+00  0.36345828221E+03  0.36345828225E+03  0.50400001928E-02 0.  1.
        1   -1    0    0  501    0  0.00000000000E+00  0.00000000000E+00 -0.43936943969E+03  0.43936943972E+03  0.50400001928E-02 0. -1.
    10030    2    1    2    0    0  0.00000000000E+00  0.00000000000E+00 -0.75911157478E+02  0.80282772196E+03  0.79923078477E+03 0.  0.
        1    1    3    3  502    0  0.34678848613E+03  0.19032331930E+03 -0.94842968937E+02  0.40679283273E+03  0.50400001928E-02 0. -1.
       -1    1    3    3    0  502 -0.34678848613E+03 -0.19032331930E+03  0.18931811459E+02  0.39603488923E+03  0.50400001928E-02 0.  1.
</event>
<event>
 5   0  0.2690809E-03  0.7994320E+03  0.7818609E-02  0.9560840E-01
       -2   -1    0    0    0  501  0.00000000000E+00  0.00000000000E+00  0.26085733814E+03  0.26085733816E+03  0.25500000920E-02 0.  1.
        2   -1    0    0  501    0  0.00000000000E+00  0.00000000000E+00 -0.61249146114E+03  0.61249146115E+03  0.25500000920E-02 0. -1.
    10030    2    1    2    0    0  0.00000000000E+00  0.00000000000E+00 -0.35163412300E+03  0.87334879931E+03  0.79943202887E+03 0.  0.
        5    1    3    3  502    0  0.28690326681E+02 -0.16799771430E+03  0.21914133049E+03  0.27765334426E+03  0.46999998093E+01 0.  1.
       -5    1    3    3    0  502 -0.28690326681E+02  0.16799771430E+03 -0.57077545349E+03  0.59569545504E+03  0.46999998093E+01 0. -1.
</event>
<event>
 5   0  0.1640035E-03  0.8000424E+03  0.7818609E-02  0.9559956E-01
       -1   -1    0    0    0  501  0.00000000000E+00  0.00000000000E+00  0.23663987674E+03  0.23663987680E+03  0.50400001928E-02 0.  1.
        1   -1    0    0  501    0  0.00000000000E+00  0.00000000000E+00 -0.67620459717E+03  0.67620459719E+03  0.50400001928E-02 0. -1.
    10030    2    1    2    0    0  0.00000000000E+00  0.00000000000E+00 -0.43956472043E+03  0.91284447399E+03  0.80004243027E+03 0.  0.
        5    1    3    3  502    0 -0.15968337441E+03  0.93626087100E+02 -0.62436167483E+03  0.65124052027E+03  0.46999998093E+01 0. -1.
       -5    1    3    3    0  502  0.15968337441E+03 -0.93626087100E+02  0.18479695439E+03  0.26160395372E+03  0.46999998093E+01 0.  1.
</event>
<event>
 5   0  0.2763587E-03  0.7984233E+03  0.7818609E-02  0.9562302E-01
       -2   -1    0    0    0  501  0.00000000000E+00  0.00000000000E+00  0.10236903825E+04  0.10236903825E+04  0.25500000920E-02 0.  1.
        2   -1    0    0  501    0  0.00000000000E+00  0.00000000000E+00 -0.15568178852E+03  0.15568178854E+03  0.25500000920E-02 0. -1.
    10030    2    1    2    0    0  0.00000000000E+00  0.00000000000E+00  0.86800859396E+03  0.11793721710E+04  0.79842332043E+03 0.  0.
        3    1    3    3  502    0  0.38845095671E+03 -0.88931975581E+02  0.46917409655E+03  0.61557077995E+03  0.10100000352E+00 0. -1.
       -3    1    3    3    0  502 -0.38845095671E+03  0.88931975581E+02  0.39883449741E+03  0.56380139108E+03  0.10100000352E+00 0.  1.
</event>
<event>
 5   0  0.1637228E-03  0.8005150E+03  0.7818609E-02  0.9559272E-01
        1   -1    0    0  501    0  0.00000000000E+00  0.00000000000E+00  0.22458980922E+03  0.22458980928E+03  0.50400001928E-02 0. -1.
       -1   -1    0    0    0  501  0.00000000000E+00  0.00000000000E+00 -0.71332746771E+03  0.71332746773E+03  0.50400001928E-02 0.  1.
    10030    2    1    2    0    0  0.00000000000E+00  0.00000000000E+00 -0.48873765849E+03  0.93791727700E+03  0.80051503401E+03 0.  0.
        2    1    3    3  502    0 -0.16054970128E+03  0.47648411320E+02  0.18156706520E+03  0.24700845503E+03  0.25500000920E-02 0. -1.
       -2    1    3    3    0  502  0.16054970128E+03 -0.47648411320E+02 -0.67030472369E+03  0.69090882198E+03  0.25500000920E-02 0.  1.
</event>
<event>
 5   0  0.1712793E-03  0.7974813E+03  0.7818609E-02  0.9563670E-01
       -1   -1    0    0    0  501  0.00000000000E+00  0.00000000000E+00  0.38096953853E+03  0.38096953856E+03  0.50400001928E-02 0. -1.
        1   -1    0    0  501    0  0.00000000000E+00  0.00000000000E+00 -0.41734073893E+03  0.41734073896E+03  0.50400001928E-02 0.  1.
    10030    2    1    2    0    0  0.00000000000E+00  0.00000000000E+00 -0.36371200402E+02  0.79831027753E+03  0.79748130698E+03 0.  0.
        4    1    3    3  502    0 -0.29416629278E+03  0.26914964360E+03 -0.22332053305E+02  0.39934405212E+03  0.12699999809E+01 0.  1.
       -4    1    3    3    0  502  0.29416629278E+03 -0.26914964360E+03 -0.14039147098E+02  0.39896622540E+03  0.12699999809E+01 0. -1.
</event>
<event>
 5   0  0.1617491E-03  0.8055530E+03  0.7818609E-02  0.9552014E-01
        1   -1    0    0  501    0  0.00000000000E+00  0.00000000000E+00  0.87782122105E+03  0.87782122107E+03  0.50400001928E-02 0. -1.
       -1   -1    0    0    0  501  0.00000000000E+00  0.00000000000E+00 -0.18480857952E+03  0.18480857959E+03  0.50400001928E-02 0.  1.
    10030    2    1    2    0    0  0.00000000000E+00  0.00000000000E+00  0.69301264153E+03  0.10626298007E+04  0.80555296034E+03 0.  0.
        1    1    3    3  502    0  0.36679610972E+02  0.38253766476E+03  0.18739685434E+03  0.42754887424E+03  0.50400001928E-02 0.  1.
       -1    1    3    3    0  502 -0.36679610972E+02 -0.38253766476E+03  0.50561578719E+03  0.63508092642E+03  0.50400001928E-02 0. -1.
</event>
<event>
 5   0  0.1712793E-03  0.8002936E+03  0.7818609E-02  0.9559592E-01
        1   -1    0    0  501    0  0.00000000000E+00  0.00000000000E+00  0.10193188236E+04  0.10193188236E+04  0.50400001928E-02 0. -1.
       -1   -1    0    0    0  501  0.00000000000E+00  0.00000000000E+00 -0.15708280287E+03  0.15708280295E+03  0.50400001928E-02 0.  1.
    10030    2    1    2    0    0  0.00000000000E+00  0.00000000000E+00  0.86223602076E+03  0.11764016266E+04  0.80029359086E+03 0.  0.
        4    1    3    3  502    0 -0.15187509017E+02 -0.15283642912E+03  0.97426114626E+03  0.98629408824E+03  0.12699999809E+01 0. -1.
       -4    1    3    3    0  502  0.15187509017E+02  0.15283642912E+03 -0.11202512550E+03  0.19010753835E+03  0.12699999809E+01 0.  1.
</event>
<event>
 5   0  0.2873212E-03  0.8089848E+03  0.7818609E-02  0.9547102E-01
       -2   -1    0    0    0  501  0.00000000000E+00  0.00000000000E+00  0.21966810077E+03  0.21966810079E+03  0.25500000920E-02 0.  1.
        2   -1    0    0  501    0  0.00000000000E+00  0.00000000000E+00 -0.74482419610E+03  0.74482419610E+03  0.25500000920E-02 0. -1.
    10030    2    1    2    0    0  0.00000000000E+00  0.00000000000E+00 -0.52515609532E+03  0.96449229689E+03  0.80898483688E+03 0.  0.
        2    1    3    3  502    0  0.24146350090E+03  0.14070653735E+03 -0.61121209091E+03  0.67207378464E+03  0.25500000920E-02 0. -1.
       -2    1    3    3    0  502 -0.24146350090E+03 -0.14070653735E+03  0.86055995584E+02  0.29241851225E+03  0.25500000920E-02 0.  1.
</event>
<event>
 5   0  0.2910501E-03  0.8006815E+03  0.7818609E-02  0.9559031E-01
       -2   -1    0    0    0  501  0.00000000000E+00  0.00000000000E+00  0.83646040434E+02  0.83646040473E+02  0.25500000920E-02 0.  1.
        2   -1    0    0  501    0  0.00000000000E+00  0.00000000000E+00 -0.19160826388E+04  0.19160826388E+04  0.25500000920E-02 0. -1.
    10030    2    1    2    0    0  0.00000000000E+00  0.00000000000E+00 -0.18324365984E+04  0.19997286793E+04  0.80068152451E+03 0.  0.
        1    1    3    3  502    0  0.51296174036E+02  0.36852285102E+03 -0.12852480483E+04  0.13380220233E+04  0.50400001928E-02 0.  1.
       -1    1    3    3    0  502 -0.51296174036E+02 -0.36852285102E+03 -0.54718855008E+03  0.66170665597E+03  0.50400001928E-02 0. -1.
</event>
<event>
 5   0  0.2763587E-03  0.8008264E+03  0.7818609E-02  0.9558822E-01
        2   -1    0    0  501    0  0.00000000000E+00  0.00000000000E+00  0.18019594728E+04  0.18019594728E+04  0.25500000920E-02 0. -1.
       -2   -1    0    0    0  501  0.00000000000E+00  0.00000000000E+00 -0.88975760017E+02  0.88975760054E+02  0.25500000920E-02 0.  1.
    10030    2    1    2    0    0  0.00000000000E+00  0.00000000000E+00  0.17129837128E+04  0.18909352328E+04  0.80082635733E+03 0.  0.
        3    1    3    3  502    0  0.30162577880E+03 -0.11204679748E+03  0.14192285450E+04  0.14552464632E+04  0.10100000352E+00 0. -1.
       -3    1    3    3    0  502 -0.30162577880E+03  0.11204679748E+03  0.29375516771E+03  0.43568876967E+03  0.10100000352E+00 0.  1.
</event>
<event>
 5   0  0.2910501E-03  0.7978760E+03  0.7818609E-02  0.9563097E-01
       -2   -1    0    0    0  501  0.00000000000E+00  0.00000000000E+00  0.37518886421E+03  0.37518886422E+03  0.25500000920E-02 0. -1.
        2   -1    0    0  501    0  0.00000000000E+00  0.00000000000E+00 -0.42419047537E+03  0.42419047538E+03  0.25500000920E-02 0.  1.
    10030    2    1    2    0    0  0.00000000000E+00  0.00000000000E+00 -0.49001611162E+02  0.79937933960E+03  0.79787603716E+03 0.  0.
        1    1    3    3  502    0  0.20282360081E+03  0.12299630364E+03 -0.34586369320E+03  0.41938907718E+03  0.50400001928E-02 0.  1.
       -1    1    3    3    0  502 -0.20282360081E+03 -0.12299630364E+03  0.29686208204E+03  0.37999026242E+03  0.50400001928E-02 0. -1.
</event>
<event>
 5   0  0.2768834E-03  0.7987616E+03  0.7818609E-02  0.9561811E-01
        2   -1    0    0  501    0  0.00000000000E+00  0.00000000000E+00  0.29491201697E+03  0.29491201698E+03  0.25500000920E-02 0.  1.
       -2   -1    0    0    0  501  0.00000000000E+00  0.00000000000E+00 -0.54085635213E+03  0.54085635213E+03  0.25500000920E-02 0. -1.
    10030    2    1    2    0    0  0.00000000000E+00  0.00000000000E+00 -0.24594433516E+03  0.83576836911E+03  0.79876163579E+03 0.  0.
        4    1    3    3  502    0  0.34538394145E+02 -0.71760704092E+02 -0.53246162389E+03  0.53838600756E+03  0.12699999809E+01 0. -1.
       -4    1    3    3    0  502 -0.34538394145E+02  0.71760704092E+02  0.28651728873E+03  0.29738236155E+03  0.12699999809E+01 0.  1.
</event>
<event>
 5   0  0.1656051E-03  0.8008953E+03  0.7818609E-02  0.9558722E-01
        1   -1    0    0  501    0  0.00000000000E+00  0.00000000000E+00  0.56863054806E+03  0.56863054808E+03  0.50400001928E-02 0. -1.
       -1   -1    0    0    0  501  0.00000000000E+00  0.00000000000E+00 -0.28200794823E+03  0.28200794828E+03  0.50400001928E-02 0.  1.
    10030    2    1    2    0    0  0.00000000000E+00  0.00000000000E+00  0.28662259983E+03  0.85063849636E+03  0.80089533446E+03 0.  0.
        3    1    3    3  502    0 -0.17044454365E+03 -0.67694591545E+02  0.52140499217E+03  0.55271789933E+03  0.10100000352E+00 0. -1.
       -3    1    3    3    0  502  0.17044454365E+03  0.67694591545E+02 -0.23478239234E+03  0.29792059703E+03  0.10100000352E+00 0.  1.
</event>
<event>
 5   0  0.1617491E-03  0.8009905E+03  0.7818609E-02  0.9558584E-01
        1   -1    0    0  501    0  0.00000000000E+00  0.00000000000E+00  0.80579713838E+03  0.80579713840E+03  0.50400001928E-02 0.  1.
       -1   -1    0    0    0  501  0.00000000000E+00  0.00000000000E+00 -0.19905314166E+03  0.19905314173E+03  0.50400001928E-02 0. -1.
    10030    2    1    2    0    0  0.00000000000E+00  0.00000000000E+00  0.60674399672E+03  0.10048502801E+04  0.80099051674E+03 0.  0.
        1    1    3    3  502    0 -0.30117368130E+03  0.20284552801E+02 -0.26827227324E+02  0.30304578787E+03  0.50400001928E-02 0. -1.
       -1    1    3    3    0  502  0.30117368130E+03 -0.20284552801E+02  0.63357122404E+03  0.70180449226E+03  0.50400001928E-02 0.  1.
</event>
<event>
 5   0  0.1640035E-03  0.7994340E+03  0.7818609E-02  0.9560837E-01
        1   -1    0    0  501    0  0.00000000000E+00  0.00000000000E+00  0.61343221113E+03  0.61343221115E+03  0.50400001928E-02 0.  1.
       -1   -1    0    0    0  501  0.00000000000E+00  0.00000000000E+00 -0.26045854866E+03  0.26045854871E+03  0.50400001928E-02 0. -1.
    10030    2    1    2    0    0  0.00000000000E+00  0.00000000000E+00  0.35297366247E+03  0.87389075986E+03  0.79943395835E+03 0.  0.
        5    1    3    3  502    0 -0.22711896487E+03  0.15723834723E+03 -0.13928530662E+03  0.30940169469E+03  0.46999998093E+01 0. -1.
       -5    1    3    3    0  502  0.22711896487E+03 -0.15723834723E+03  0.49225896909E+03  0.56448906516E+03  0.46999998093E+01 0.  1.
</event>
<event>
 5   0  0.1617491E-03  0.7967537E+03  0.7818609E-02  0.9564728E-01
       -1   -1    0    0    0  501  0.00000000000E+00  0.00000000000E+00  0.90043960901E+02  0.90043961042E+02  0.50400001928E-02 0.  1.
        1   -1    0    0  501    0  0.00000000000E+00  0.00000000000E+00 -0.17625180325E+04  0.17625180325E+04  0.50400001928E-02 0. -1.
    10030    2    1    2    0    0  0.00000000000E+00  0.00000000000E+00 -0.16724740716E+04  0.18525619935E+04  0.79675367571E+03 0.  0.
        1    1    3    3  502    0 -0.21904124743E+03 -0.25623277286E+03 -0.13298556221E+04  0.13719148216E+04  0.50400001928E-02 0. -1.
       -1    1    3    3    0  502  0.21904124743E+03  0.25623277286E+03 -0.34261844943E+03  0.48064717192E+03  0.50400001928E-02 0.  1.
</event>
<event>
 5   0  0.1712793E-03  0.8003756E+03  0.7818609E-02  0.9559474E-01
       -1   -1    0    0    0  501  0.00000000000E+00  0.00000000000E+00  0.41380230928E+03  0.41380230931E+03  0.50400001928E-02 0.  1.
        1   -1    0    0  501    0  0.00000000000E+00  0.00000000000E+00 -0.38702126636E+03  0.38702126639E+03  0.50400001928E-02 0. -1.
    10030    2    1    2    0    0  0.00000000000E+00  0.00000000000E+00  0.26781042925E+02  0.80082357570E+03  0.80037564627E+03 0.  0.
        4    1    3    3  502    0  0.94605302869E+01  0.10778634960E+03 -0.37210588399E+03  0.38752006476E+03  0.12699999809E+01 0. -1.
       -4    1    3    3    0  502 -0.94605302869E+01 -0.10778634960E+03  0.39888692691E+03  0.41330351094E+03  0.12699999809E+01 0.  1.
</event>
<event>
 5   0  0.1656051E-03  0.7995922E+03  0.7818609E-02  0.9560608E-01
       -1   -1    0    0    0  501  0.00000000000E+00  0.00000000000E+00  0.87697862833E+02  0.87697862978E+02  0.50400001928E-02 0. -1.
        1   -1    0    0  501    0  0.00000000000E+00  0.00000000000E+00 -0.18225864473E+04  0.18225864473E+04  0.50400001928E-02 0.  1.
    10030    2    1    2    0    0  0.00000000000E+00  0.00000000000E+00 -0.17348885844E+04  0.19102843103E+04  0.79959223708E+03 0.  0.
        3    1    3    3  502    0  0.26422111992E+03 -0.23772839526E+03 -0.13047773949E+04  0.13523208386E+04  0.10100000352E+00 0.  1.
       -3    1    3    3    0  502 -0.26422111992E+03  0.23772839526E+03 -0.43011118959E+03  0.55796347169E+03  0.10100000352E+00 0. -1.
</event>
<event>
 5   0  0.2768834E-03  0.7984896E+03  0.7818609E-02  0.9562206E-01
       -2   -1    0    0    0  501  0.00000000000E+00  0.00000000000E+00  0.92011877404E+02  0.92011877439E+02  0.25500000920E-02 0. -1.
        2   -1    0    0  501    0  0.00000000000E+00  0.00000000000E+00 -0.17323459924E+04  0.17323459924E+04  0.25500000920E-02 0.  1.
    10030    2    1    2    0    0  0.00000000000E+00  0.00000000000E+00 -0.16403341150E+04  0.18243578698E+04  0.79848959193E+03 0.  0.
        4    1    3    3  502    0 -0.10418553586E+02  0.38378686177E+03 -0.56994772912E+03  0.68719933670E+03  0.12699999809E+01 0.  1.
       -4    1    3    3    0  502  0.10418553586E+02 -0.38378686177E+03 -0.10703863858E+04  0.11371585331E+04  0.12699999809E+01 0. -1.
</event>
<event>
 5   0  0.1637228E-03  0.8017704E+03  0.7818609E-02  0.9557458E-01
        1   -1    0    0  501    0  0.00000000000E+00  0.00000000000E+00  0.35741600947E+03  0.35741600950E+03  0.50400001928E-02 0. -1.
       -1   -1    0    0    0  501  0.00000000000E+00  0.00000000000E+00 -0.44964114361E+03  0.44964114364E+03  0.50400001928E-02 0.  1.
    10030    2    1    2    0    0  0.00000000000E+00  0.00000000000E+00 -0.92225134146E+02  0.80705715315E+03  0.80177039923E+03 0.  0.
        2    1    3    3  502    0  0.33504830008E+03 -0.20245154459E+03 -0.13308222896E+03  0.41346689222E+03  0.25500000920E-02 0. -1.
       -2    1    3    3    0  502 -0.33504830008E+03  0.20245154459E+03  0.40857094811E+02  0.39359026093E+03  0.25500000920E-02 0.  1.
</event>
<event>
 5   0  0.1656051E-03  0.7998602E+03  0.7818609E-02  0.9560220E-01
        1   -1    0    0  501    0  0.00000000000E+00  0.00000000000E+00  0.53055605193E+03  0.53055605195E+03  0.50400001928E-02 0. -1.
       -1   -1    0    0    0  501  0.00000000000E+00  0.00000000000E+00 -0.30146499900E+03  0.30146499904E+03  0.50400001928E-02 0.  1.
    10030    2    1    2    0    0  0.00000000000E+00  0.00000000000E+00  0.22909105293E+03  0.83202105099E+03  0.79986018700E+03 0.  0.
        3    1    3    3  502    0  0.24056226610E+03 -0.25001984951E+03  0.32145005874E+03  0.47298021045E+03  0.10100000352E+00 0. -1.
       -3    1    3    3    0  502 -0.24056226610E+03  0.25001984951E+03 -0.92359005804E+02  0.35904084054E+03  0.10100000352E+00 0.  1.
</event>
<event>
 5   0  0.2690809E-03  0.8005352E+03  0.7818609E-02  0.9559243E-01
        2   -1    0    0  501    0  0.00000000000E+00  0.00000000000E+00  0.11170847290E+03  0.11170847292E+03  0.25500000920E-02 0.  1.
       -2   -1    0    0    0  501  0.00000000000E+00  0.00000000000E+00 -0.14342165900E+04  0.14342165900E+04  0.25500000920E-02 0. -1.
    10030    2    1    2    0    0  0.00000000000E+00  0.00000000000E+00 -0.13225081171E+04  0.15459250629E+04  0.80053518372E+03 0.  0.
        5    1    3    3  502    0 -0.81261703449E+02  0.61043576802E+02 -0.14088280281E+04  0.14124971807E+04  0.46999998093E+01 0. -1.
       -5    1    3    3    0  502  0.81261703449E+02 -0.61043576802E+02  0.86319911013E+02  0.13342788221E+03  0.46999998093E+01 0.  1.
</event>
<event>
 5   0  0.1637228E-03  0.8030742E+03  0.7818609E-02  0.9555578E-01
        1   -1    0    0  501    0  0.00000000000E+00  0.00000000000E+00  0.42641187731E+03  0.42641187734E+03  0.50400001928E-02 0.  1.
       -1   -1    0    0    0  501  0.00000000000E+00  0.00000000000E+00 -0.37811343185E+03  0.37811343188E+03  0.50400001928E-02 0. -1.
    10030    2    1    2    0    0  0.00000000000E+00  0.00000000000E+00  0.48298445467E+02  0.80452530923E+03  0.80307423900E+03 0.  0.
        2    1    3    3  502    0  0.17832951108E+03  0.23865388162E+03  0.29384741410E+03  0.41845357271E+03  0.25500000920E-02 0.  1.
       -2    1    3    3    0  502 -0.17832951108E+03 -0.23865388162E+03 -0.24554896863E+03  0.38607173652E+03  0.25500000920E-02 0. -1.
</event>
<event>
 5   0  0.1656051E-03  0.7999495E+03  0.7818609E-02  0.9560090E-01
       -1   -1    0    0    0  501  0.00000000000E+00  0.00000000000E+00  0.53479046062E+03  0.53479046065E+03  0.50400001928E-02 0.  1.
        1   -1    0    0  501    0  0.00000000000E+00  0.00000000000E+00 -0.29914481363E+03  0.29914481367E+03  0.50400001928E-02 0. -1.
    10030    2    1    2    0    0  0.00000000000E+00  0.00000000000E+00  0.23564564700E+03  0.83393527432E+03  0.79994948016E+03 0.  0.
        3    1    3    3  502    0  0.33928390881E+03  0.13484811669E+03 -0.52463817226E+02  0.36884962745E+03  0.10100000352E+00 0. -1.
       -3    1    3    3    0  502 -0.33928390881E+03 -0.13484811669E+03  0.28810946422E+03  0.46508564687E+03  0.10100000352E+00 0.  1.
</event>
<event>
 5   0  0.1640035E-03  0.7997262E+03  0.7818609E-02  0.9560413E-01
        1   -1    0    0  501    0  0.00000000000E+00  0.00000000000E+00  0.25099609967E+03  0.25099609972E+03  0.50400001928E-02 0.  1.
       -1   -1    0    0    0  501  0.00000000000E+00  0.00000000000E+00 -0.63702385214E+03  0.63702385216E+03  0.50400001928E-02 0. -1.
    10030    2    1    2    0    0  0.00000000000E+00  0.00000000000E+00 -0.38602775247E+03  0.88801995188E+03  0.79972620894E+03 0.  0.
        5    1    3    3  502    0  0.38897034393E+03 -0.17019007727E+02 -0.91968017616E+02  0.40008471771E+03  0.46999998093E+01 0.  1.
       -5    1    3    3    0  502 -0.38897034393E+03  0.17019007727E+02 -0.29405973485E+03  0.48793523417E+03  0.46999998093E+01 0. -1.
</event>
<event>
 5   0  0.2873212E-03  0.7998787E+03  0.7818609E-02  0.9560193E-01
       -2   -1    0    0    0  501  0.00000000000E+00  0.00000000000E+00  0.18156197347E+03  0.18156197349E+03  0.25500000920E-02 0.  1.
        2   -1    0    0  501    0  0.00000000000E+00  0.00000000000E+00 -0.88097449370E+03  0.88097449370E+03  0.25500000920E-02 0. -1.
    10030    2    1    2    0    0  0.00000000000E+00  0.00000000000E+00 -0.69941252023E+03  0.10625364672E+04  0.79987865995E+03 0.  0.
        2    1    3    3  502    0  0.37238519224E+03  0.12084814106E+02 -0.15659050294E+03  0.40415016980E+03  0.25500000920E-02 0.  1.
       -2    1    3    3    0  502 -0.37238519224E+03 -0.12084814106E+02 -0.54282201729E+03  0.65838629739E+03  0.25500000920E-02 0. -1.
</event>
<event>
 5   0  0.2873212E-03  0.8104763E+03  0.7818609E-02  0.9544976E-01
       -2   -1    0    0    0  501  0.00000000000E+00  0.00000000000E+00  0.19658788928E+03  0.19658788929E+03  0.25500000920E-02 0. -1.
        2   -1    0    0  501    0  0.00000000000E+00  0.00000000000E+00 -0.83534112729E+03  0.83534112729E+03  0.25500000920E-02 0.  1.
    10030    2    1    2    0    0  0.00000000000E+00  0.00000000000E+00 -0.63875323801E+03  0.10319290166E+04  0.81047627738E+03 0.  0.
        2    1    3    3  502    0  0.60950517245E+02  0.34538078681E+03 -0.60890234158E+02  0.35596414717E+03  0.25500000920E-02 0.  1.
       -2    1    3    3    0  502 -0.60950517245E+02 -0.34538078681E+03 -0.57786300385E+03  0.67596486941E+03  0.25500000920E-02 0. -1.
</event>
<event>
 5   0  0.2690809E-03  0.7991345E+03  0.7818609E-02  0.9561271E-01
        2   -1    0    0  501    0  0.00000000000E+00  0.00000000000E+00  0.12693615805E+04  0.12693615805E+04  0.25500000920E-02 0. -1.
       -2   -1    0    0    0  501  0.00000000000E+00  0.00000000000E+00 -0.12577503390E+03  0.12577503392E+03  0.25500000920E-02 0.  1.
    10030    2    1    2    0    0  0.00000000000E+00  0.00000000000E+00  0.11435865466E+04  0.13951366145E+04  0.79913452143E+03 0.  0.
        5    1    3    3  502    0 -0.18543710743E+03 -0.98249662195E+02  0.11653479250E+04  0.11841021042E+04  0.46999998093E+01 0. -1.
       -5    1    3    3    0  502  0.18543710743E+03  0.98249662195E+02 -0.21761378336E+02  0.21103451026E+03  0.46999998093E+01 0.  1.
</event>
<event>
 5   0  0.2768834E-03  0.7933770E+03  0.7818609E-02  0.9569653E-01
        2   -1    0    0  501    0  0.00000000000E+00  0.00000000000E+00  0.16042624590E+04  0.16042624590E+04  0.25500000920E-02 0. -1.
       -2   -1    0    0    0  501  0.00000000000E+00  0.00000000000E+00 -0.98089782971E+02  0.98089783004E+02  0.25500000920E-02 0.  1.
    10030    2    1    2    0    0  0.00000000000E+00  0.00000000000E+00  0.15061726760E+04  0.17023522420E+04  0.79337697586E+03 0.  0.
        4    1    3    3  502    0 -0.37208644946E+03 -0.10845679946E+03  0.93450863876E+03  0.10116912632E+04  0.12699999809E+01 0.  1.
       -4    1    3    3    0  502  0.37208644946E+03  0.10845679946E+03  0.57166403723E+03  0.69066097876E+03  0.12699999809E+01 0. -1.
</event>
<event>
 5   0  0.1617491E-03  0.8198049E+03  0.7818609E-02  0.9531785E-01
        1   -1    0    0  501    0  0.00000000000E+00  0.00000000000E+00  0.34116807885E+03  0.34116807889E+03  0.50400001928E-02 0. -1.
       -1   -1    0    0    0  501  0.00000000000E+00  0.00000000000E+00 -0.49248452176E+03  0.49248452179E+03  0.50400001928E-02 0.  1.
    10030    2    1    2    0    0  0.00000000000E+00  0.00000000000E+00 -0.15131644291E+03  0.83365260068E+03  0.81980485039E+03 0.  0.
        1    1    3    3  502    0  0.31967738000E+03 -0.14422359329E+02  0.18482954567E+03  0.36954511593E+03  0.50400001928E-02 0. -1.
       -1    1    3    3    0  502 -0.31967738000E+03  0.14422359329E+02 -0.33614598858E+03  0.46410748474E+03  0.50400001928E-02 0.  1.
</event>
<event>
 5   0  0.2768834E-03  0.7990481E+03  0.7818609E-02  0.9561396E-01
       -2   -1    0    0    0  501  0.00000000000E+00  0.00000000000E+00  0.20728799040E+03  0.20728799041E+03  0.25500000920E-02 0. -1.
        2   -1    0    0  501    0  0.00000000000E+00  0.00000000000E+00 -0.77003712471E+03  0.77003712471E+03  0.25500000920E-02 0.  1.
    10030    2    1    2    0    0  0.00000000000E+00  0.00000000000E+00 -0.56274913431E+03  0.97732511512E+03  0.79904805393E+03 0.  0.
        4    1    3    3  502    0  0.67904244839E+02  0.26494038758E+03 -0.63757832747E+03  0.69376662647E+03  0.12699999809E+01 0.  1.
       -4    1    3    3    0  502 -0.67904244839E+02 -0.26494038758E+03  0.74829193162E+02  0.28355848865E+03  0.12699999809E+01 0. -1.
</event>
<event>
 5   0  0.1712793E-03  0.8021079E+03  0.7818609E-02  0.9556971E-01
       -1   -1    0    0    0  501  0.00000000000E+00  0.00000000000E+00  0.42285186782E+03  0.42285186785E+03  0.50400001928E-02 0.  1.
        1   -1    0    0  501    0  0.00000000000E+00  0.00000000000E+00 -0.38037975622E+03  0.38037975625E+03  0.50400001928E-02 0. -1.
    10030    2    1    2    0    0  0.00000000000E+00  0.00000000000E+00  0.42472111606E+02  0.80323162410E+03  0.80210794890E+03 0.  0.
        4    1    3    3  502    0 -0.76904771514E+02 -0.39318317932E+03  0.39573484929E+02  0.40258543191E+03  0.12699999809E+01 0. -1.
       -4    1    3    3    0  502  0.76904771514E+02  0.39318317932E+03  0.28986266775E+01  0.40064619219E+03  0.12699999809E+01 0.  1.
</event>
<event>
 5   0  0.2910501E-03  0.8000003E+03  0.7818609E-02  0.9560017E-01
        2   -1    0    0  501    0  0.00000000000E+00  0.00000000000E+00  0.52865724885E+03  0.52865724886E+03  0.25500000920E-02 0. -1.
       -2   -1    0    0    0  501  0.00000000000E+00  0.00000000000E+00 -0.30265381701E+03  0.30265381702E+03  0.25500000920E-02 0.  1.
    10030    2    1    2    0    0  0.00000000000E+00  0.00000000000E+00  0.22600343184E+03  0.83131106588E+03  0.80000033566E+03 0.  0.
        1    1    3    3  502    0  0.35132497114E+03 -0.12004377783E+03 -0.41688232594E+02  0.37360092706E+03  0.50400001928E-02 0.  1.
       -1    1    3    3    0  502 -0.35132497114E+03  0.12004377783E+03  0.26769166443E+03  0.45771013882E+03  0.50400001928E-02 0. -1.
</event>
<event>
 5   0  0.1656051E-03  0.8002874E+03  0.7818609E-02  0.9559601E-01
        1   -1    0    0  501    0  0.00000000000E+00  0.00000000000E+00  0.30191917806E+03  0.30191917810E+03  0.50400001928E-02 0. -1.
       -1   -1    0    0    0  501  0.00000000000E+00  0.00000000000E+00 -0.53032404286E+03  0.53032404288E+03  0.50400001928E-02 0.  1.
    10030    2    1    2    0    0  0.00000000000E+00  0.00000000000E+00 -0.22840486480E+03  0.83224322099E+03  0.80028744625E+03 0.  0.
        3    1    3    3  502    0 -0.11262625946E+03  0.25532741267E+03  0.18402056519E+03  0.33427584507E+03  0.10100000352E+00 0. -1.
       -3    1    3    3    0  502  0.11262625946E+03 -0.25532741267E+03 -0.41242542999E+03  0.49796737592E+03  0.10100000352E+00 0.  1.
</event>
<event>
 5   0  0.2763587E-03  0.7935837E+03  0.7818609E-02  0.9569351E-01
        2   -1    0    0  501    0  0.00000000000E+00  0.00000000000E+00  0.13896211640E+04  0.13896211640E+04  0.25500000920E-02 0. -1.
       -2   -1    0    0    0  501  0.00000000000E+00  0.00000000000E+00 -0.11329976700E+03  0.11329976702E+03  0.25500000920E-02 0.  1.
    10030    2    1    2    0    0  0.00000000000E+00  0.00000000000E+00  0.12763213970E+04  0.15029209310E+04  0.79358365435E+03 0.  0.
        3    1    3    3  502    0 -0.38244657789E+02  0.34137378628E+03  0.10142920667E+04  0.10708814699E+04  0.10100000352E+00 0. -1.
       -3    1    3    3    0  502  0.38244657789E+02 -0.34137378628E+03  0.26202933024E+03  0.43203946106E+03  0.10100000352E+00 0.  1.
</event>
<event>
 5   0  0.1640035E-03  0.8029496E+03  0.7818609E-02  0.9555757E-01
       -1   -1    0    0    0  501  0.00000000000E+00  0.00000000000E+00  0.32937280853E+03  0.32937280857E+03  0.50400001928E-02 0. -1.
        1   -1    0    0  501    0  0.00000000000E+00  0.00000000000E+00 -0.48936044914E+03  0.48936044917E+03  0.50400001928E-02 0.  1.
    10030    2    1    2    0    0  0.00000000000E+00  0.00000000000E+00 -0.15998764061E+03  0.81873325774E+03  0.80294962618E+03 0.  0.
        5    1    3    3  502    0 -0.20021786680E+03 -0.34636071710E+03 -0.11391937553E+03  0.41599597913E+03  0.46999998093E+01 0. -1.
       -5    1    3    3    0  502  0.20021786680E+03  0.34636071710E+03 -0.46068265085E+02  0.40273727861E+03  0.46999998093E+01 0.  1.
</event>
<event>
 5   0  0.2910501E-03  0.7998056E+03  0.7818609E-02  0.9560298E-01
       -2   -1    0    0    0  501  0.00000000000E+00  0.00000000000E+00  0.12712623307E+03  0.12712623310E+03  0.25500000920E-02 0. -1.
        2   -1    0    0  501    0  0.00000000000E+00  0.00000000000E+00 -0.12579800169E+04  0.12579800169E+04  0.25500000920E-02 0.  1.
    10030    2    1    2    0    0  0.00000000000E+00  0.00000000000E+00 -0.11308537839E+04  0.13851062500E+04  0.79980562852E+03 0.  0.
        1    1    3    3  502    0 -0.39881397878E+03  0.33523726692E+01 -0.61616704495E+03  0.73397932899E+03  0.50400001928E-02 0. -1.
       -1    1    3    3    0  502  0.39881397878E+03 -0.33523726692E+01 -0.51468673892E+03  0.65112692105E+03  0.50400001928E-02 0.  1.
</event>
<event>
 5   0  0.2763587E-03  0.8037390E+03  0.7818609E-02  0.9554621E-01
       -2   -1    0    0    0  501  0.00000000000E+00  0.00000000000E+00  0.22600874383E+03  0.22600874384E+03  0.25500000920E-02 0.  1.
        2   -1    0    0  501    0  0.00000000000E+00  0.00000000000E+00 -0.71457013626E+03  0.71457013626E+03  0.25500000920E-02 0. -1.
    10030    2    1    2    0    0  0.00000000000E+00  0.00000000000E+00 -0.48856139243E+03  0.94057888010E+03  0.80373900958E+03 0.  0.
        3    1    3    3  502    0 -0.56425970489E+02  0.32680819854E+02  0.21977657742E+03  0.22924589488E+03  0.10100000352E+00 0.  1.
       -3    1    3    3    0  502  0.56425970489E+02 -0.32680819854E+02 -0.70833796986E+03  0.71133298523E+03  0.10100000352E+00 0. -1.
</event>
<event>
 5   0  0.1640035E-03  0.7996298E+03  0.7818609E-02  0.9560553E-01
        1   -1    0    0  501    0  0.00000000000E+00  0.00000000000E+00  0.69916021919E+03  0.69916021921E+03  0.50400001928E-02 0. -1.
       -1   -1    0    0    0  501  0.00000000000E+00  0.00000000000E+00 -0.22863421667E+03  0.22863421672E+03  0.50400001928E-02 0.  1.
    10030    2    1    2    0    0  0.00000000000E+00  0.00000000000E+00  0.47052600252E+03  0.92779443593E+03  0.79962978702E+03 0.  0.
        5    1    3    3  502    0  0.16154045205E+02 -0.39010030833E+03  0.13551498330E+03  0.41331054237E+03  0.46999998093E+01 0.  1.
       -5    1    3    3    0  502 -0.16154045205E+02  0.39010030833E+03  0.33501101923E+03  0.51448389356E+03  0.46999998093E+01 0. -1.
</event>
<event>
 5   0  0.1712793E-03  0.7981275E+03  0.7818609E-02  0.9562732E-01
        1   -1    0    0  501    0  0.00000000000E+00  0.00000000000E+00  0.60686003365E+03  0.60686003367E+03  0.50400001928E-02 0.  1.
       -1   -1    0    0    0  501  0.00000000000E+00  0.00000000000E+00 -0.26241941799E+03  0.26241941804E+03  0.50400001928E-02 0. -1.
    10030    2    1    2    0    0  0.00000000000E+00  0.00000000000E+00  0.34444061566E+03  0.86927945171E+03  0.79812745063E+03 0.  0.
        4    1    3    3  502    0 -0.20792496925E+03 -0.24192297230E+03 -0.88927307493E+02  0.33116339816E+03  0.12699999809E+01 0. -1.
       -4    1    3    3    0  502  0.20792496925E+03  0.24192297230E+03  0.43336792315E+03  0.53811605354E+03  0.12699999809E+01 0.  1.
</event>
<event>
 5   0  0.1637228E-03  0.7952123E+03  0.7818609E-02  0.9566973E-01
       -1   -1    0    0    0  501  0.00000000000E+00  0.00000000000E+00  0.28421400394E+03  0.28421400398E+03  0.50400001928E-02 0.  1.
        1   -1    0    0  501    0  0.00000000000E+00  0.00000000000E+00 -0.55623811704E+03  0.55623811706E+03  0.50400001928E-02 0. -1.
    10030    2    1    2    0    0  0.00000000000E+00  0.00000000000E+00 -0.27202411310E+03  0.84045212104E+03  0.79521232992E+03 0.  0.
        2    1    3    3  502    0 -0.17921443183E+03  0.32349239254E+03 -0.29035248642E+03  0.47018050468E+03  0.25500000920E-02 0. -1.
       -2    1    3    3    0  502  0.17921443183E+03 -0.32349239254E+03  0.18328373322E+02  0.37027161636E+03  0.25500000920E-02 0.  1.
</event>
<event>
 5   0  0.2768834E-03  0.8019775E+03  0.7818609E-02  0.9557159E-01
       -2   -1    0    0    0  501  0.00000000000E+00  0.00000000000E+00  0.16448222895E+03  0.16448222897E+03  0.25500000920E-02 0.  1.
        2   -1    0    0  501    0  0.00000000000E+00  0.00000000000E+00 -0.97756454314E+03  0.97756454314E+03  0.25500000920E-02 0. -1.
    10030    2    1    2    0    0  0.00000000000E+00  0.00000000000E+00 -0.81308231419E+03  0.11420467721E+04  0.80197754336E+03 0.  0.
        4    1    3    3  502    0 -0.15607275234E+03  0.83905755646E+02 -0.91878242135E+03  0.93571450269E+03  0.12699999809E+01 0. -1.
       -4    1    3    3    0  502  0.15607275234E+03 -0.83905755646E+02  0.10570010716E+03  0.20633226943E+03  0.12699999809E+01 0.  1.
</event>
<event>
 5   0  0.2910501E-03  0.7998026E+03  0.7818609E-02  0.9560303E-01
        2   -1    0    0  501    0  0.00000000000E+00  0.00000000000E+00  0.62921498251E+03  0.62921498252E+03  0.25500000920E-02 0.  1.
       -2   -1    0    0    0  501  0.00000000000E+00  0.00000000000E+00 -0.25415966231E+03  0.25415966233E+03  0.25500000920E-02 0. -1.
    10030    2    1    2    0    0  0.00000000000E+00  0.00000000000E+00  0.37505532020E+03  0.88337464485E+03  0.79980264437E+03 0.  0.
        1    1    3    3  502    0 -0.45033281951E+02 -0.82677337775E+02 -0.24174505161E+03  0.25943054691E+03  0.50400001928E-02 0. -1.
       -1    1    3    3    0  502  0.45033281951E+02  0.82677337775E+02  0.61680037181E+03  0.62394409794E+03  0.50400001928E-02 0.  1.
</event>
<event>
 5   0  0.1617491E-03  0.8000062E+03  0.7818609E-02  0.9560008E-01
        1   -1    0    0  501    0  0.00000000000E+00  0.00000000000E+00  0.19986319338E+03  0.19986319344E+03  0.50400001928E-02 0.  1.
       -1   -1    0    0    0  501  0.00000000000E+00  0.00000000000E+00 -0.80055994863E+03  0.80055994864E+03  0.50400001928E-02 0. -1.
    10030    2    1    2    0    0  0.00000000000E+00  0.00000000000E+00 -0.60069675525E+03  0.10004231421E+04  0.80000616963E+03 0.  0.
        1    1    3    3  502    0 -0.23082746677E+03  0.34920656187E+02 -0.70652985430E+03  0.74410026655E+03  0.50400001928E-02 0. -1.
       -1    1    3    3    0  502  0.23082746677E+03 -0.34920656187E+02  0.10583309904E+03  0.25632287553E+03  0.50400001928E-02 0.  1.
</event>
<event>
 5   0  0.2690809E-03  0.7932280E+03  0.7818609E-02  0.9569871E-01
       -2   -1    0    0    0  501  0.00000000000E+00  0.00000000000E+00  0.59122895358E+03  0.59122895359E+03  0.25500000920E-02 0. -1.
        2   -1    0    0  501    0  0.00000000000E+00  0.00000000000E+00 -0.26606047082E+03  0.26606047083E+03  0.25500000920E-02 0.  1.
    10030    2    1    2    0    0  0.00000000000E+00  0.00000000000E+00  0.32516848276E+03  0.85728942442E+03  0.79322797167E+03 0.  0.
        5    1    3    3  502    0  0.13093166135E+03  0.34394761583E+03  0.28746793845E+01  0.36806713540E+03  0.46999998093E+01 0.  1.
       -5    1    3    3    0  502 -0.13093166135E+03 -0.34394761583E+03  0.32229380338E+03  0.48922228902E+03  0.46999998093E+01 0. -1.
</event>
<event>
 5   0  0.1712793E-03  0.7980849E+03  0.7818609E-02  0.9562793E-01
       -1   -1    0    0    0  501  0.00000000000E+00  0.00000000000E+00  0.51234555667E+03  0.51234555670E+03  0.50400001928E-02 0. -1.
        1   -1    0    0  501    0  0.00000000000E+00  0.00000000000E+00 -0.31079582170E+03  0.31079582174E+03  0.50400001928E-02 0.  1.
    10030    2    1    2    0    0  0.00000000000E+00  0.00000000000E+00  0.20154973497E+03  0.82314137844E+03  0.79808485340E+03 0.  0.
        4    1    3    3  502    0 -0.31079112282E+03 -0.15493749300E+03 -0.10195803363E+03  0.36193065950E+03  0.12699999809E+01 0.  1.
       -4    1    3    3    0  502  0.31079112282E+03  0.15493749300E+03  0.30350776860E+03  0.46121071894E+03  0.12699999809E+01 0. -1.
</event>
<event>
 5   0  0.1656051E-03  0.7981990E+03  0.7818609E-02  0.9562628E-01
        1   -1    0    0  501    0  0.00000000000E+00  0.00000000000E+00  0.13044764853E+04  0.13044764853E+04  0.50400001928E-02 0. -1.
       -1   -1    0    0    0  501  0.00000000000E+00  0.00000000000E+00 -0.12210292614E+03  0.12210292624E+03  0.50400001928E-02 0.  1.
    10030    2    1    2    0    0  0.00000000000E+00  0.00000000000E+00  0.11823735592E+04  0.14265794116E+04  0.79819896271E+03 0.  0.
        3    1    3    3  502    0 -0.13540716460E+03 -0.23980850127E+03  0.11074421366E+04  0.11411710273E+04  0.10100000352E+00 0. -1.
       -3    1    3    3    0  502  0.13540716460E+03  0.23980850127E+03  0.74931422587E+02  0.28540838424E+03  0.10100000352E+00 0.  1.
</event>
<event>
 5   0  0.1095350E-03  0.8086905E+03  0.7818609E-02  0.9547522E-01
        3   -1    0    0  501    0  0.00000000000E+00  0.00000000000E+00  0.68138617797E+03  0.68138618546E+03  0.10100000352E+00 0.  1.
       -3   -1    0    0    0  501  0.00000000000E+00  0.00000000000E+00 -0.23994481232E+03  0.23994483358E+03  0.10100000352E+00 0. -1.
    10030    2    1    2    0    0  0.00000000000E+00  0.00000000000E+00  0.44144136565E+03  0.92133101904E+03  0.80869052631E+03 0.  0.
        1    1    3    3  502    0 -0.27442048450E+03  0.38493246275E+02  0.55619541543E+03  0.62140298719E+03  0.50400001928E-02 0.  1.
       -1    1    3    3    0  502  0.27442048450E+03 -0.38493246275E+02 -0.11475404978E+03  0.29992803185E+03  0.50400001928E-02 0. -1.
</event>
<event>
 5   0  0.1637228E-03  0.8001832E+03  0.7818609E-02  0.9559752E-01
       -1   -1    0    0    0  501  0.00000000000E+00  0.00000000000E+00  0.35436439688E+03  0.35436439692E+03  0.50400001928E-02 0. -1.
        1   -1    0    0  501    0  0.00000000000E+00  0.00000000000E+00 -0.45171943112E+03  0.45171943115E+03  0.50400001928E-02 0.  1.
    10030    2    1    2    0    0  0.00000000000E+00  0.00000000000E+00 -0.97355034242E+02  0.80608382807E+03  0.80018318851E+03 0.  0.
        2    1    3    3  502    0 -0.32313163822E+03 -0.11965269123E+03 -0.25350534127E+03  0.42778006054E+03  0.25500000920E-02 0.  1.
       -2    1    3    3    0  502  0.32313163822E+03  0.11965269123E+03  0.15615030703E+03  0.37830376753E+03  0.25500000920E-02 0. -1.
</event>
<event>
 5   0  0.1095350E-03  0.8000790E+03  0.7818609E-02  0.9559903E-01
        3   -1    0    0  501    0  0.00000000000E+00  0.00000000000E+00  0.31876257969E+03  0.31876259569E+03  0.10100000352E+00 0. -1.
       -3   -1    0    0    0  501  0.00000000000E+00  0.00000000000E+00 -0.50204002673E+03  0.50204003689E+03  0.10100000352E+00 0.  1.
    10030    2    1    2    0    0  0.00000000000E+00  0.00000000000E+00 -0.18327744705E+03  0.82080263258E+03  0.80007895801E+03 0.  0.
        3    1    3    3  502    0  0.17451015264E+03 -0.16618606098E+03  0.23594382005E+03  0.33725523963E+03  0.10100000352E+00 0. -1.
       -3    1    3    3    0  502 -0.17451015264E+03  0.16618606098E+03 -0.41922126710E+03  0.48354739295E+03  0.10100000352E+00 0.  1.
</event>
<event>
 5   0  0.2768834E-03  0.7986593E+03  0.7818609E-02  0.9561960E-01
       -2   -1    0    0    0  501  0.00000000000E+00  0.00000000000E+00  0.93111440276E+02  0.93111440311E+02  0.25500000920E-02 0.  1.
        2   -1    0    0  501    0  0.00000000000E+00  0.00000000000E+00 -0.17126163415E+04  0.17126163416E+04  0.25500000920E-02 0. -1.
    10030    2    1    2    0    0  0.00000000000E+00  0.00000000000E+00 -0.16195049013E+04  0.18057277819E+04  0.79865931219E+03 0.  0.
        4    1    3    3  502    0 -0.29477064427E+03 -0.26151900273E+03 -0.95594057590E+03  0.10339757826E+04  0.12699999809E+01 0.  1.
       -4    1    3    3    0  502  0.29477064427E+03  0.26151900273E+03 -0.66356432537E+03  0.77175199923E+03  0.12699999809E+01 0. -1.
</event>
<event>
 5   0  0.1617491E-03  0.8000151E+03  0.7818609E-02  0.9559995E-01
        1   -1    0    0  501    0  0.00000000000E+00  0.00000000000E+00  0.16928075033E+04  0.16928075034E+04  0.50400001928E-02 0.  1.
       -1   -1    0    0    0  501  0.00000000000E+00  0.00000000000E+00 -0.94521106577E+02  0.94521106711E+02  0.50400001928E-02 0. -1.
    10030    2    1    2    0    0  0.00000000000E+00  0.00000000000E+00  0.15982863968E+04  0.17873286101E+04  0.80001509627E+03 0.  0.
        1    1    3    3  502    0 -0.19961390802E+03 -0.45308598148E+02  0.15669375004E+04  0.15802505217E+04  0.50400001928E-02 0.  1.
       -1    1    3    3    0  502  0.19961390802E+03  0.45308598148E+02  0.31348896406E+02  0.20707808834E+03  0.50400001928E-02 0. -1.
</event>
<event>
 5   0  0.1656051E-03  0.7999208E+03  0.7818609E-02  0.9560132E-01
        1   -1    0    0  501    0  0.00000000000E+00  0.00000000000E+00  0.12169232550E+04  0.12169232550E+04  0.50400001928E-02 0. -1.
       -1   -1    0    0    0  501  0.00000000000E+00  0.00000000000E+00 -0.13145308278E+03  0.13145308287E+03  0.50400001928E-02 0.  1.
    10030    2    1    2    0    0  0.00000000000E+00  0.00000000000E+00  0.10854701722E+04  0.13483763378E+04  0.79992077968E+03 0.  0.
        3    1    3    3  502    0 -0.34265291869E+02 -0.25661710218E+03  0.10566246689E+04  0.10878796572E+04  0.10100000352E+00 0. -1.
       -3    1    3    3    0  502  0.34265291869E+02  0.25661710218E+03  0.28845503238E+02  0.26049668063E+03  0.10100000352E+00 0.  1.
</event>
<event>
 5   0  0.2873212E-03  0.8005732E+03  0.7818609E-02  0.9559188E-01
       -2   -1    0    0    0  501  0.00000000000E+00  0.00000000000E+00  0.17588786722E+03  0.17588786723E+03  0.25500000920E-02 0. -1.
        2   -1    0    0  501    0  0.00000000000E+00  0.00000000000E+00 -0.91097457186E+03  0.91097457187E+03  0.25500000920E-02 0.  1.
    10030    2    1    2    0    0  0.00000000000E+00  0.00000000000E+00 -0.73508670465E+03  0.10868624391E+04  0.80057323099E+03 0.  0.
        2    1    3    3  502    0 -0.35055076721E+03  0.13839342039E+03 -0.55064799652E+03  0.66727190506E+03  0.25500000920E-02 0.  1.
       -2    1    3    3    0  502  0.35055076721E+03 -0.13839342039E+03 -0.18443870812E+03  0.41959053404E+03  0.25500000920E-02 0. -1.
</event>
<event>
 5   0  0.2768834E-03  0.8003193E+03  0.7818609E-02  0.9559555E-01
        2   -1    0    0  501    0  0.00000000000E+00  0.00000000000E+00  0.43644550431E+03  0.43644550431E+03  0.25500000920E-02 0. -1.
       -2   -1    0    0    0  501  0.00000000000E+00  0.00000000000E+00 -0.36689054240E+03  0.36689054241E+03  0.25500000920E-02 0.  1.
    10030    2    1    2    0    0  0.00000000000E+00  0.00000000000E+00  0.69554961904E+02  0.80333604672E+03  0.80031925582E+03 0.  0.
        4    1    3    3  502    0 -0.33358756163E+03 -0.19122569132E+03 -0.76447192355E+02  0.39203789666E+03  0.12699999809E+01 0.  1.
       -4    1    3    3    0  502  0.33358756163E+03  0.19122569132E+03  0.14600215426E+03  0.41129815006E+03  0.12699999809E+01 0. -1.
</event>
<event>
 5   0  0.1640035E-03  0.7971061E+03  0.7818609E-02  0.9564215E-01
        1   -1    0    0  501    0  0.00000000000E+00  0.00000000000E+00  0.61149351743E+03  0.61149351745E+03  0.50400001928E-02 0. -1.
       -1   -1    0    0    0  501  0.00000000000E+00  0.00000000000E+00 -0.25976485478E+03  0.25976485482E+03  0.50400001928E-02 0.  1.
    10030    2    1    2    0    0  0.00000000000E+00  0.00000000000E+00  0.35172866266E+03  0.87125837228E+03  0.79710607771E+03 0.  0.
        5    1    3    3  502    0 -0.14448441201E+03  0.24063776588E+03 -0.13336793596E+03  0.31079153145E+03  0.46999998093E+01 0.  1.
       -5    1    3    3    0  502  0.14448441201E+03 -0.24063776588E+03  0.48509659862E+03  0.56046684083E+03  0.46999998093E+01 0. -1.
</event>
<event>
 5   0  0.2768834E-03  0.8004110E+03  0.7818609E-02  0.9559422E-01
        2   -1    0    0  501    0  0.00000000000E+00  0.00000000000E+00  0.62834040301E+03  0.62834040302E+03  0.25500000920E-02 0. -1.
       -2   -1    0    0    0  501  0.00000000000E+00  0.00000000000E+00 -0.25490076328E+03  0.25490076330E+03  0.25500000920E-02 0.  1.
    10030    2    1    2    0    0  0.00000000000E+00  0.00000000000E+00  0.37343963973E+03  0.88324116631E+03  0.80041101526E+03 0.  0.
        4    1    3    3  502    0  0.37417011863E+03  0.78635362298E+02  0.56265556935E+02  0.38646374173E+03  0.12699999809E+01 0.  1.
       -4    1    3    3    0  502 -0.37417011863E+03 -0.78635362298E+02  0.31717408279E+03  0.49677742458E+03  0.12699999809E+01 0. -1.
</event>
<event>
 5   0  0.1637228E-03  0.8003898E+03  0.7818609E-02  0.9559453E-01
       -1   -1    0    0    0  501  0.00000000000E+00  0.00000000000E+00  0.21711950711E+03  0.21711950717E+03  0.50400001928E-02 0.  1.
        1   -1    0    0  501    0  0.00000000000E+00  0.00000000000E+00 -0.73763957713E+03  0.73763957715E+03  0.50400001928E-02 0. -1.
    10030    2    1    2    0    0  0.00000000000E+00  0.00000000000E+00 -0.52052007001E+03  0.95475908432E+03  0.80038975868E+03 0.  0.
        2    1    3    3  502    0  0.10340491046E+03  0.18705528910E+03 -0.66385441254E+03  0.69741303239E+03  0.25500000920E-02 0. -1.
       -2    1    3    3    0  502 -0.10340491046E+03 -0.18705528910E+03  0.14333434253E+03  0.25734605193E+03  0.25500000920E-02 0.  1.
</event>
<event>
 5   0  0.2690809E-03  0.8001423E+03  0.7818609E-02  0.9559811E-01
       -2   -1    0    0    0  501  0.00000000000E+00  0.00000000000E+00  0.97081676678E+02  0.97081676711E+02  0.25500000920E-02 0.  1.
        2   -1    0    0  501    0  0.00000000000E+00  0.00000000000E+00 -0.16486831035E+04  0.16486831035E+04  0.25500000920E-02 0. -1.
    10030    2    1    2    0    0  0.00000000000E+00  0.00000000000E+00 -0.15516014269E+04  0.17457647802E+04  0.80014228743E+03 0.  0.
        5    1    3    3  502    0 -0.68847145912E+02  0.28072149310E+03 -0.13792236455E+04  0.14091928330E+04  0.46999998093E+01 0. -1.
       -5    1    3    3    0  502  0.68847145912E+02 -0.28072149310E+03 -0.17237778135E+03  0.33657194727E+03  0.46999998093E+01 0.  1.
</event>
<event>
 5   0  0.1637228E-03  0.7998087E+03  0.7818609E-02  0.9560294E-01
        1   -1    0    0  501    0  0.00000000000E+00  0.00000000000E+00  0.21778622346E+03  0.21778622352E+03  0.50400001928E-02 0. -1.
       -1   -1    0    0    0  501  0.00000000000E+00  0.00000000000E+00 -0.73431415163E+03  0.73431415165E+03  0.50400001928E-02 0.  1.
    10030    2    1    2    0    0  0.00000000000E+00  0.00000000000E+00 -0.51652792817E+03  0.95210037516E+03  0.79980874202E+03 0.  0.
        2    1    3    3  502    0 -0.15191879487E+03 -0.26148350816E+03  0.53229208157E+02  0.30706073322E+03  0.25500000920E-02 0. -1.
       -2    1    3    3    0  502  0.15191879487E+03  0.26148350816E+03 -0.56975713633E+03  0.64503964194E+03  0.25500000920E-02 0.  1.
</event>
<event>
 5   0  0.2763587E-03  0.8002527E+03  0.7818609E-02  0.9559651E-01
        2   -1    0    0  501    0  0.00000000000E+00  0.00000000000E+00  0.73744234728E+03  0.73744234728E+03  0.25500000920E-02 0.  1.
       -2   -1    0    0    0  501  0.00000000000E+00  0.00000000000E+00 -0.21710319875E+03  0.21710319877E+03  0.25500000920E-02 0. -1.
    10030    2    1    2    0    0  0.00000000000E+00  0.00000000000E+00  0.52033914853E+03  0.95454554605E+03  0.80025269134E+03 0.  0.
        3    1    3    3  502    0  0.36860926782E+02 -0.76139657190E+02  0.72665416882E+03  0.73156152618E+03  0.10100000352E+00 0.  1.
       -3    1    3    3    0  502 -0.36860926782E+02  0.76139657190E+02 -0.20631502029E+03  0.22298401987E+03  0.10100000352E+00 0. -1.
</event>
<event>
 5   0  0.1095350E-03  0.7997534E+03  0.7818609E-02  0.9560374E-01
        4   -1    0    0  501    0  0.00000000000E+00  0.00000000000E+00  0.21819825513E+03  0.21820195105E+03  0.12699999809E+01 0.  1.
       -4   -1    0    0    0  501  0.00000000000E+00  0.00000000000E+00 -0.73281558470E+03  0.73281668518E+03  0.12699999809E+01 0. -1.
    10030    2    1    2    0    0  0.00000000000E+00  0.00000000000E+00 -0.51461732957E+03  0.95101863624E+03  0.79975336859E+03 0.  0.
        4    1    3    3  502    0 -0.25067314836E+03  0.82898654352E+02 -0.61442805580E+03  0.66875456100E+03  0.12699999809E+01 0. -1.
       -4    1    3    3    0  502  0.25067314836E+03 -0.82898654352E+02  0.99810726231E+02  0.28226407524E+03  0.12699999809E+01 0.  1.
</event>
<event>
 5   0  0.2873212E-03  0.7996210E+03  0.7818609E-02  0.9560566E-01
       -2   -1    0    0    0  501  0.00000000000E+00  0.00000000000E+00  0.26059523612E+03  0.26059523613E+03  0.25500000920E-02 0. -1.
        2   -1    0    0  501    0  0.00000000000E+00  0.00000000000E+00 -0.61339732202E+03  0.61339732202E+03  0.25500000920E-02 0.  1.
    10030    2    1    2    0    0  0.00000000000E+00  0.00000000000E+00 -0.35280208590E+03  0.87399255815E+03  0.79962096013E+03 0.  0.
        2    1    3    3  502    0 -0.22331544444E+03  0.24942949882E+03  0.62474615742E+02  0.34057002250E+03  0.25500000920E-02 0. -1.
       -2    1    3    3    0  502  0.22331544444E+03 -0.24942949882E+03 -0.41527670164E+03  0.53342253565E+03  0.25500000920E-02 0.  1.
</event>
<event>
 5   0  0.1640035E-03  0.8004559E+03  0.7818609E-02  0.9559357E-01
       -1   -1    0    0    0  501  0.00000000000E+00  0.00000000000E+00  0.11113771529E+03  0.11113771541E+03  0.50400001928E-02 0. -1.
        1   -1    0    0  501    0  0.00000000000E+00  0.00000000000E+00 -0.14412966821E+04  0.14412966821E+04  0.50400001928E-02 0.  1.
    10030    2    1    2    0    0  0.00000000000E+00  0.00000000000E+00 -0.13301589668E+04  0.15524343975E+04  0.80045592110E+03 0.  0.
        5    1    3    3  502    0 -0.21336301902E+03  0.88604093771E+02 -0.31307955607E+02  0.23318821025E+03  0.46999998093E+01 0. -1.
       -5    1    3    3    0  502  0.21336301902E+03 -0.88604093771E+02 -0.12988510112E+04  0.13192461873E+04  0.46999998093E+01 0.  1.
</event>
<event>
 5   0  0.2768834E-03  0.8042868E+03  0.7818609E-02  0.9553833E-01
        2   -1    0    0  501    0  0.00000000000E+00  0.00000000000E+00  0.44872005997E+03  0.44872005997E+03  0.25500000920E-02 0.  1.
       -2   -1    0    0    0  501  0.00000000000E+00  0.00000000000E+00 -0.36040138672E+03  0.36040138673E+03  0.25500000920E-02 0. -1.
    10030    2    1    2    0    0  0.00000000000E+00  0.00000000000E+00  0.88318673248E+02  0.80912144670E+03  0.80428684402E+03 0.  0.
        4    1    3    3  502    0  0.72037058913E+02  0.21934020813E+03  0.37540786143E+03  0.44071775558E+03  0.12699999809E+01 0.  1.
       -4    1    3    3    0  502 -0.72037058913E+02 -0.21934020813E+03 -0.28708918818E+03  0.36840369112E+03  0.12699999809E+01 0. -1.
</event>
<event>
 5   0  0.2690809E-03  0.7998102E+03  0.7818609E-02  0.9560292E-01
        2   -1    0    0  501    0  0.00000000000E+00  0.00000000000E+00  0.73407467997E+03  0.73407467998E+03  0.25500000920E-02 0.  1.
       -2   -1    0    0    0  501  0.00000000000E+00  0.00000000000E+00 -0.21785807434E+03  0.21785807435E+03  0.25500000920E-02 0. -1.
    10030    2    1    2    0    0  0.00000000000E+00  0.00000000000E+00  0.51621660564E+03  0.95193275433E+03  0.79981021801E+03 0.  0.
        5    1    3    3  502    0  0.30609610858E+03 -0.25158958353E+03  0.32231130961E+03  0.51078255308E+03  0.46999998093E+01 0.  1.
       -5    1    3    3    0  502 -0.30609610858E+03  0.25158958353E+03  0.19390529603E+03  0.44115020125E+03  0.46999998093E+01 0. -1.
</event>
<event>
 5   0  0.1712793E-03  0.7977828E+03  0.7818609E-02  0.9563232E-01
        1   -1    0    0  501    0  0.00000000000E+00  0.00000000000E+00  0.55671685315E+03  0.55671685318E+03  0.50400001928E-02 0.  1.
       -1   -1    0    0    0  501  0.00000000000E+00  0.00000000000E+00 -0.28580839365E+03  0.28580839369E+03  0.50400001928E-02 0. -1.
    10030    2    1    2    0    0  0.00000000000E+00  0.00000000000E+00  0.27090845951E+03  0.84252524687E+03  0.79778280138E+03 0.  0.
        4    1    3    3  502    0 -0.12624032996E+03 -0.24980775856E+03 -0.16468945422E+03  0.32475339317E+03  0.12699999809E+01 0. -1.
       -4    1    3    3    0  502  0.12624032996E+03  0.24980775856E+03  0.43559791372E+03  0.51777185370E+03  0.12699999809E+01 0.  1.
</event>
<event>
 5   0  0.1095350E-03  0.7960766E+03  0.7818609E-02  0.9565714E-01
       -4   -1    0    0    0  501  0.00000000000E+00  0.00000000000E+00  0.62498417085E+03  0.62498546120E+03  0.12699999809E+01 0. -1.
        4   -1    0    0  501    0  0.00000000000E+00  0.00000000000E+00 -0.25349844173E+03  0.25350162300E+03  0.12699999809E+01 0.  1.
    10030    2    1    2    0    0  0.00000000000E+00  0.00000000000E+00  0.37148572912E+03  0.87848708420E+03  0.79607657306E+03 0.  0.
        1    1    3    3  502    0 -0.15276433219E+03  0.35003918752E+03  0.62020000665E+02  0.38692486932E+03  0.50400001928E-02 0.  1.
       -1    1    3    3    0  502  0.15276433219E+03 -0.35003918752E+03  0.30946572845E+03  0.49156221488E+03  0.50400001928E-02 0. -1.
</event>
<event>
 5   0  0.2690809E-03  0.8044229E+03  0.7818609E-02  0.9553637E-01
        2   -1    0    0  501    0  0.00000000000E+00  0.00000000000E+00  0.73776445166E+03  0.73776445166E+03  0.25500000920E-02 0. -1.
       -2   -1    0    0    0  501  0.00000000000E+00  0.00000000000E+00 -0.21927604159E+03  0.21927604160E+03  0.25500000920E-02 0.  1.
    10030    2    1    2    0    0  0.00000000000E+00  0.00000000000E+00  0.51848841007E+03  0.95704049326E+03  0.80442294495E+03 0.  0.
        5    1    3    3  502    0 -0.33556946737E+03 -0.19775977640E+03  0.37843154525E+03  0.54309144812E+03  0.46999998093E+01 0.  1.
       -5    1    3    3    0  502  0.33556946737E+03  0.19775977640E+03  0.14005686482E+03  0.41394904514E+03  0.46999998093E+01 0. -1.
</event>
<event>
 5   0  0.1656051E-03  0.7980072E+03  0.7818609E-02  0.9562906E-01
       -1   -1    0    0    0  501  0.00000000000E+00  0.00000000000E+00  0.37478910266E+03  0.37478910270E+03  0.50400001928E-02 0.  1.
        1   -1    0    0  501    0  0.00000000000E+00  0.00000000000E+00 -0.42478260398E+03  0.42478260401E+03  0.50400001928E-02 0. -1.
    10030    2    1    2    0    0  0.00000000000E+00  0.00000000000E+00 -0.49993501316E+02  0.79957170671E+03  0.79800724558E+03 0.  0.
        3    1    3    3  502    0 -0.98884614547E+02  0.17590760575E+03  0.31989053921E+03  0.37822165463E+03  0.10100000352E+00 0.  1.
       -3    1    3    3    0  502  0.98884614547E+02 -0.17590760575E+03 -0.36988404052E+03  0.42135005208E+03  0.10100000352E+00 0. -1.
</event>
<event>
 5   0  0.2910501E-03  0.8153640E+03  0.7818609E-02  0.9538041E-01
       -2   -1    0    0    0  501  0.00000000000E+00  0.00000000000E+00  0.14099180283E+03  0.14099180285E+03  0.25500000920E-02 0.  1.
        2   -1    0    0  501    0  0.00000000000E+00  0.00000000000E+00 -0.11788247892E+04  0.11788247892E+04  0.25500000920E-02 0. -1.
    10030    2    1    2    0    0  0.00000000000E+00  0.00000000000E+00 -0.10378329863E+04  0.13198165920E+04  0.81536404694E+03 0.  0.
        1    1    3    3  502    0 -0.31207679575E+03 -0.24563502326E+03 -0.36989081184E+03  0.54272249244E+03  0.50400001928E-02 0. -1.
       -1    1    3    3    0  502  0.31207679575E+03  0.24563502326E+03 -0.66794217449E+03  0.77709409957E+03  0.50400001928E-02 0.  1.
</event>
<event>
 5   0  0.1617491E-03  0.7997952E+03  0.7818609E-02  0.9560314E-01
       -1   -1    0    0    0  501  0.00000000000E+00  0.00000000000E+00  0.22260561167E+03  0.22260561173E+03  0.50400001928E-02 0.  1.
        1   -1    0    0  501    0  0.00000000000E+00  0.00000000000E+00 -0.71839193533E+03  0.71839193535E+03  0.50400001928E-02 0. -1.
    10030    2    1    2    0    0  0.00000000000E+00  0.00000000000E+00 -0.49578632366E+03  0.94099754708E+03  0.79979516433E+03 0.  0.
        1    1    3    3  502    0  0.31562900752E+03 -0.22853899312E+03 -0.14222410543E+03  0.41482458697E+03  0.50400001928E-02 0.  1.
       -1    1    3    3    0  502 -0.31562900752E+03  0.22853899312E+03 -0.35356221824E+03  0.52617296011E+03  0.50400001928E-02 0. -1.
</event>
<event>
 5   0  0.2910501E-03  0.8046336E+03  0.7818609E-02  0.9553334E-01
        2   -1    0    0  501    0  0.00000000000E+00  0.00000000000E+00  0.11553951763E+04  0.11553951763E+04  0.25500000920E-02 0. -1.
       -2   -1    0    0    0  501  0.00000000000E+00  0.00000000000E+00 -0.14008955875E+03  0.14008955878E+03  0.25500000920E-02 0.  1.
    10030    2    1    2    0    0  0.00000000000E+00  0.00000000000E+00  0.10153056175E+04  0.12954847350E+04  0.80463358231E+03 0.  0.
        1    1    3    3  502    0  0.21603599285E+03 -0.21636669876E+03  0.92864643107E+03  0.97768619327E+03  0.50400001928E-02 0.  1.
       -1    1    3    3    0  502 -0.21603599285E+03  0.21636669876E+03  0.86659186441E+02  0.31779854178E+03  0.50400001928E-02 0. -1.
</event>
<event>
 5   0  0.2910501E-03  0.8001792E+03  0.7818609E-02  0.9559758E-01
       -2   -1    0    0    0  501  0.00000000000E+00  0.00000000000E+00  0.38491816782E+03  0.38491816783E+03  0.25500000920E-02 0.  1.
        2   -1    0    0  501    0  0.00000000000E+00  0.00000000000E+00 -0.41585904909E+03  0.41585904909E+03  0.25500000920E-02 0. -1.
    10030    2    1    2    0    0  0.00000000000E+00  0.00000000000E+00 -0.30940881264E+02  0.80077721692E+03  0.80017923805E+03 0.  0.
        1    1    3    3  502    0  0.15500760767E+03 -0.30393724103E+03  0.19365102449E+03  0.39230845547E+03  0.50400001928E-02 0.  1.
       -1    1    3    3    0  502 -0.15500760767E+03  0.30393724103E+03 -0.22459190576E+03  0.40846876145E+03  0.50400001928E-02 0. -1.
</event>
<event>
 5   0  0.2690809E-03  0.7989997E+03  0.7818609E-02  0.9561466E-01
        2   -1    0    0  501    0  0.00000000000E+00  0.00000000000E+00  0.72231665324E+03  0.72231665324E+03  0.25500000920E-02 0.  1.
       -2   -1    0    0    0  501  0.00000000000E+00  0.00000000000E+00 -0.22095592564E+03  0.22095592565E+03  0.25500000920E-02 0. -1.
    10030    2    1    2    0    0  0.00000000000E+00  0.00000000000E+00  0.50136072760E+03  0.94327257890E+03  0.79899973650E+03 0.  0.
        5    1    3    3  502    0  0.20380214812E+02  0.35681497461E+03  0.46135705452E+03  0.58361348598E+03  0.46999998093E+01 0.  1.
       -5    1    3    3    0  502 -0.20380214812E+02 -0.35681497461E+03  0.40003673077E+02  0.35965909292E+03  0.46999998093E+01 0. -1.
</event>
<event>
 5   0  0.2763587E-03  0.8019537E+03  0.7818609E-02  0.9557194E-01
        2   -1    0    0  501    0  0.00000000000E+00  0.00000000000E+00  0.47967259750E+03  0.47967259750E+03  0.25500000920E-02 0.  1.
       -2   -1    0    0    0  501  0.00000000000E+00  0.00000000000E+00 -0.33519199919E+03  0.33519199920E+03  0.25500000920E-02 0. -1.
    10030    2    1    2    0    0  0.00000000000E+00  0.00000000000E+00  0.14448059831E+03  0.81486459670E+03  0.80195365681E+03 0.  0.
        3    1    3    3  502    0 -0.12017018411E+03 -0.23147402500E+03  0.38171105273E+03  0.46230340186E+03  0.10100000352E+00 0.  1.
       -3    1    3    3    0  502  0.12017018411E+03  0.23147402500E+03 -0.23723045442E+03  0.35256119484E+03  0.10100000352E+00 0. -1.
</event>
<event>
 5   0  0.1637228E-03  0.7994311E+03  0.7818609E-02  0.9560841E-01
       -1   -1    0    0    0  501  0.00000000000E+00  0.00000000000E+00  0.12515897054E+03  0.12515897064E+03  0.50400001928E-02 0.  1.
        1   -1    0    0  501    0  0.00000000000E+00  0.00000000000E+00 -0.12765567209E+04  0.12765567209E+04  0.50400001928E-02 0. -1.
    10030    2    1    2    0    0  0.00000000000E+00  0.00000000000E+00 -0.11513977504E+04  0.14017156916E+04  0.79943111050E+03 0.  0.
        2    1    3    3  502    0 -0.32854113651E+03  0.21979685224E+03 -0.47163261020E+03  0.61537570121E+03  0.25500000920E-02 0.  1.
       -2    1    3    3    0  502  0.32854113651E+03 -0.21979685224E+03 -0.67976514019E+03  0.78633999037E+03  0.25500000920E-02 0. -1.
</event>
<event>
 5   0  0.1656051E-03  0.7844517E+03  0.7818609E-02  0.9582799E-01
        1   -1    0    0  501    0  0.00000000000E+00  0.00000000000E+00  0.20770676995E+03  0.20770677001E+03  0.50400001928E-02 0.  1.
       -1   -1    0    0    0  501  0.00000000000E+00  0.00000000000E+00 -0.74066497686E+03  0.74066497687E+03  0.50400001928E-02 0. -1.
    10030    2    1    2    0    0  0.00000000000E+00  0.00000000000E+00 -0.53295820690E+03  0.94837174689E+03  0.78445173210E+03 0.  0.
        3    1    3    3  502    0 -0.37951732783E+02 -0.34636992019E+03 -0.48769838935E+02  0.35183939947E+03  0.10100000352E+00 0.  1.
       -3    1    3    3    0  502  0.37951732783E+02  0.34636992019E+03 -0.48418836797E+03  0.59653234741E+03  0.10100000352E+00 0. -1.
</event>
<event>
 5   0  0.1095350E-03  0.7997303E+03  0.7818609E-02  0.9560408E-01
        3   -1    0    0  501    0  0.00000000000E+00  0.00000000000E+00  0.44204660595E+03  0.44204661749E+03  0.10100000352E+00 0. -1.
       -3   -1    0    0    0  501  0.00000000000E+00  0.00000000000E+00 -0.36170879430E+03  0.36170880840E+03  0.10100000352E+00 0.  1.
    10030    2    1    2    0    0  0.00000000000E+00  0.00000000000E+00  0.80337811651E+02  0.80375542590E+03  0.79973034248E+03 0.  0.
        2    1    3    3  502    0 -0.23953531399E+03  0.28754843194E+03 -0.10136204442E+03  0.38773126185E+03  0.25500000920E-02 0. -1.
       -2    1    3    3    0  502  0.23953531399E+03 -0.28754843194E+03  0.18169985608E+03  0.41602416404E+03  0.25500000920E-02 0.  1.
</event>
<event>
 5   0  0.1095350E-03  0.8037671E+03  0.7818609E-02  0.9554580E-01
        3   -1    0    0  501    0  0.00000000000E+00  0.00000000000E+00  0.11763625266E+03  0.11763629602E+03  0.10100000352E+00 0.  1.
       -3   -1    0    0    0  501  0.00000000000E+00  0.00000000000E+00 -0.13729641204E+04  0.13729641241E+04  0.10100000352E+00 0. -1.
    10030    2    1    2    0    0  0.00000000000E+00  0.00000000000E+00 -0.12553278678E+04  0.14906004202E+04  0.80376710369E+03 0.  0.
        3    1    3    3  502    0  0.69125131237E+02 -0.26850262119E+03 -0.88134887111E+02  0.29092904613E+03  0.10100000352E+00 0.  1.
       -3    1    3    3    0  502 -0.69125131237E+02  0.26850262119E+03 -0.11671929807E+04  0.11996713740E+04  0.10100000352E+00 0. -1.
</event>
<event>
 5   0  0.1637228E-03  0.7988928E+03  0.7818609E-02  0.9561621E-01
        1   -1    0    0  501    0  0.00000000000E+00  0.00000000000E+00  0.55454876825E+03  0.55454876827E+03  0.50400001928E-02 0.  1.
       -1   -1    0    0    0  501  0.00000000000E+00  0.00000000000E+00 -0.28772476349E+03  0.28772476353E+03  0.50400001928E-02 0. -1.
    10030    2    1    2    0    0  0.00000000000E+00  0.00000000000E+00  0.26682400476E+03  0.84227353181E+03  0.79889276681E+03 0.  0.
        2    1    3    3  502    0  0.89903465321E+02  0.85971840567E+02  0.53360729336E+03  0.54791471415E+03  0.25500000920E-02 0.  1.
       -2    1    3    3    0  502 -0.89903465321E+02 -0.85971840567E+02 -0.26678328860E+03  0.29435881766E+03  0.25500000920E-02 0. -1.
</event>
<event>
 5   0  0.1617491E-03  0.8001891E+03  0.7818609E-02  0.9559743E-01
       -1   -1    0    0    0  501  0.00000000000E+00  0.00000000000E+00  0.12632838670E+03  0.12632838680E+03  0.50400001928E-02 0.  1.
        1   -1    0    0  501    0  0.00000000000E+00  0.00000000000E+00 -0.12671392612E+04  0.12671392613E+04  0.50400001928E-02 0. -1.
    10030    2    1    2    0    0  0.00000000000E+00  0.00000000000E+00 -0.11408108745E+04  0.13934676480E+04  0.80018912432E+03 0.  0.
        1    1    3    3  502    0  0.14048026008E+03  0.20792469806E+03 -0.27739745293E+02  0.25246163477E+03  0.50400001928E-02 0.  1.
       -1    1    3    3    0  502 -0.14048026008E+03 -0.20792469806E+03 -0.11130711293E+04  0.11410060133E+04  0.50400001928E-02 0. -1.
</event>
<event>
 5   0  0.2910501E-03  0.8034831E+03  0.7818609E-02  0.9554989E-01
        2   -1    0    0  501    0  0.00000000000E+00  0.00000000000E+00  0.28328507332E+03  0.28328507334E+03  0.25500000920E-02 0.  1.
       -2   -1    0    0    0  501  0.00000000000E+00  0.00000000000E+00 -0.56973088489E+03  0.56973088489E+03  0.25500000920E-02 0. -1.
    10030    2    1    2    0    0  0.00000000000E+00  0.00000000000E+00 -0.28644581156E+03  0.85301595823E+03  0.80348305647E+03 0.  0.
        1    1    3    3  502    0  0.36897385427E+03  0.10793295188E+03 -0.19391684284E+02  0.38492501177E+03  0.50400001928E-02 0. -1.
       -1    1    3    3    0  502 -0.36897385427E+03 -0.10793295188E+03 -0.26705412728E+03  0.46809094646E+03  0.50400001928E-02 0.  1.
</event>
<event>
 5   0  0.1656051E-03  0.8008569E+03  0.7818609E-02  0.9558778E-01
       -1   -1    0    0    0  501  0.00000000000E+00  0.00000000000E+00  0.62336197385E+03  0.62336197387E+03  0.50400001928E-02 0. -1.
        1   -1    0    0  501    0  0.00000000000E+00  0.00000000000E+00 -0.25722284127E+03  0.25722284132E+03  0.50400001928E-02 0.  1.
    10030    2    1    2    0    0  0.00000000000E+00  0.00000000000E+00  0.36613913258E+03  0.88058481518E+03  0.80085688629E+03 0.  0.
        3    1    3    3  502    0  0.25044602063E+03 -0.20277691848E+03  0.44443326493E+03  0.54896504906E+03  0.10100000352E+00 0. -1.
       -3    1    3    3    0  502 -0.25044602063E+03  0.20277691848E+03 -0.78294132345E+02  0.33161976612E+03  0.10100000352E+00 0.  1.
</event>
<event>
 5   0  0.2873212E-03  0.7997050E+03  0.7818609E-02  0.9560444E-01
       -2   -1    0    0    0  501  0.00000000000E+00  0.00000000000E+00  0.99887884434E+02  0.99887884466E+02  0.25500000920E-02 0. -1.
        2   -1    0    0  501    0  0.00000000000E+00  0.00000000000E+00 -0.16006145772E+04  0.16006145772E+04  0.25500000920E-02 0.  1.
    10030    2    1    2    0    0  0.00000000000E+00  0.00000000000E+00 -0.15007266928E+04  0.17005024617E+04  0.79970495544E+03 0.  0.
        2    1    3    3  502    0 -0.48395082501E+02 -0.36292276466E+03 -0.40863236939E+03  0.54866695766E+03  0.25500000920E-02 0.  1.
       -2    1    3    3    0  502  0.48395082501E+02  0.36292276466E+03 -0.10920943234E+04  0.11518355040E+04  0.25500000920E-02 0. -1.
</event>
<event>
 5   0  0.1640035E-03  0.8048428E+03  0.7818609E-02  0.9553034E-01
       -1   -1    0    0    0  501  0.00000000000E+00  0.00000000000E+00  0.25259454115E+03  0.25259454120E+03  0.50400001928E-02 0. -1.
        1   -1    0    0  501    0  0.00000000000E+00  0.00000000000E+00 -0.64111827837E+03  0.64111827839E+03  0.50400001928E-02 0.  1.
    10030    2    1    2    0    0  0.00000000000E+00  0.00000000000E+00 -0.38852373723E+03  0.89371281959E+03  0.80484278559E+03 0.  0.
        5    1    3    3  502    0  0.17888597167E+03 -0.35238954712E+03 -0.11011654070E+03  0.41027591486E+03  0.46999998093E+01 0. -1.
       -5    1    3    3    0  502 -0.17888597167E+03  0.35238954712E+03 -0.27840719653E+03  0.48343690473E+03  0.46999998093E+01 0.  1.
</event>
<event>
 5   0  0.2768834E-03  0.7820360E+03  0.7818609E-02  0.9586390E-01
       -2   -1    0    0    0  501  0.00000000000E+00  0.00000000000E+00  0.19939685562E+03  0.19939685564E+03  0.25500000920E-02 0. -1.
        2   -1    0    0  501    0  0.00000000000E+00  0.00000000000E+00 -0.76678778852E+03  0.76678778852E+03  0.25500000920E-02 0.  1.
    10030    2    1    2    0    0  0.00000000000E+00  0.00000000000E+00 -0.56739093289E+03  0.96618464416E+03  0.78203599398E+03 0.  0.
        4    1    3    3  502    0 -0.50863065169E+02  0.32744226644E+02 -0.76096927944E+03  0.76337087508E+03  0.12699999809E+01 0.  1.
       -4    1    3    3    0  502  0.50863065169E+02 -0.32744226644E+02  0.19357834654E+03  0.20281376908E+03  0.12699999809E+01 0. -1.
</event>
<event>
 5   0  0.2910501E-03  0.8017949E+03  0.7818609E-02  0.9557423E-01
        2   -1    0    0  501    0  0.00000000000E+00  0.00000000000E+00  0.89574112108E+03  0.89574112108E+03  0.25500000920E-02 0. -1.
       -2   -1    0    0    0  501  0.00000000000E+00  0.00000000000E+00 -0.17942545876E+03  0.17942545878E+03  0.25500000920E-02 0.  1.
    10030    2    1    2    0    0  0.00000000000E+00  0.00000000000E+00  0.71631566232E+03  0.10751665799E+04  0.80179489046E+03 0.  0.
        1    1    3    3  502    0  0.21200815321E+03 -0.30017331968E+03  0.57299153652E+03  0.68071343444E+03  0.50400001928E-02 0. -1.
       -1    1    3    3    0  502 -0.21200815321E+03  0.30017331968E+03  0.14332412580E+03  0.39445314542E+03  0.50400001928E-02 0.  1.
</event>
<event>
 5   0  0.2763587E-03  0.7982148E+03  0.7818609E-02  0.9562605E-01
        2   -1    0    0  501    0  0.00000000000E+00  0.00000000000E+00  0.63553768885E+03  0.63553768885E+03  0.25500000920E-02 0. -1.
       -2   -1    0    0    0  501  0.00000000000E+00  0.00000000000E+00 -0.25063300883E+03  0.25063300884E+03  0.25500000920E-02 0.  1.
    10030    2    1    2    0    0  0.00000000000E+00  0.00000000000E+00  0.38490468002E+03  0.88617069770E+03  0.79821481617E+03 0.  0.
        3    1    3    3  502    0  0.19174843086E+03 -0.34705172917E+03  0.14188867226E+03  0.42112322303E+03  0.10100000352E+00 0.  1.
       -3    1    3    3    0  502 -0.19174843086E+03  0.34705172917E+03  0.24301600776E+03  0.46504747466E+03  0.10100000352E+00 0. -1.
</event>
<event>
 5   0  0.1712793E-03  0.7995995E+03  0.7818609E-02  0.9560597E-01
        1   -1    0    0  501    0  0.00000000000E+00  0.00000000000E+00  0.14155997925E+04  0.14155997925E+04  0.50400001928E-02 0.  1.
       -1   -1    0    0    0  501  0.00000000000E+00  0.00000000000E+00 -0.11291314636E+03  0.11291314648E+03  0.50400001928E-02 0. -1.
    10030    2    1    2    0    0  0.00000000000E+00  0.00000000000E+00  0.13026866462E+04  0.15285129390E+04  0.79959946639E+03 0.  0.
        4    1    3    3  502    0 -0.38981577779E+03  0.74321968040E+02  0.74417141214E+03  0.84336990644E+03  0.12699999809E+01 0. -1.
       -4    1    3    3    0  502  0.38981577779E+03 -0.74321968040E+02  0.55851523403E+03  0.68514303258E+03  0.12699999809E+01 0.  1.
</event>
<event>
 5   0  0.2768834E-03  0.7998161E+03  0.7818609E-02  0.9560283E-01
        2   -1    0    0  501    0  0.00000000000E+00  0.00000000000E+00  0.99732759431E+03  0.99732759431E+03  0.25500000920E-02 0.  1.
       -2   -1    0    0    0  501  0.00000000000E+00  0.00000000000E+00 -0.16035500055E+03  0.16035500057E+03  0.25500000920E-02 0. -1.
    10030    2    1    2    0    0  0.00000000000E+00  0.00000000000E+00  0.83697259376E+03  0.11576825949E+04  0.79981614624E+03 0.  0.
        4    1    3    3  502    0  0.25876222855E+03  0.28404663235E+03  0.25805924026E+03  0.46285695918E+03  0.12699999809E+01 0. -1.
       -4    1    3    3    0  502 -0.25876222855E+03 -0.28404663235E+03  0.57891335350E+03  0.69482563571E+03  0.12699999809E+01 0.  1.
</event>
<event>
 5   0  0.2768834E-03  0.7958843E+03  0.7818609E-02  0.9565994E-01
       -2   -1    0    0    0  501  0.00000000000E+00  0.00000000000E+00  0.62995547319E+03  0.62995547320E+03  0.25500000920E-02 0.  1.
        2   -1    0    0  501    0  0.00000000000E+00  0.00000000000E+00 -0.25137962498E+03  0.25137962500E+03  0.25500000920E-02 0. -1.
    10030    2    1    2    0    0  0.00000000000E+00  0.00000000000E+00  0.37857584821E+03  0.88133509820E+03  0.79588433988E+03 0.  0.
        4    1    3    3  502    0 -0.22209654872E+03 -0.29363967554E+02  0.55348711517E+03  0.59710863258E+03  0.12699999809E+01 0.  1.
       -4    1    3    3    0  502  0.22209654872E+03  0.29363967554E+02 -0.17491126696E+03  0.28422646561E+03  0.12699999809E+01 0. -1.
</event>
<event>
 5   0  0.1095350E-03  0.7996229E+03  0.7818609E-02  0.9560563E-01
        4   -1    0    0  501    0  0.00000000000E+00  0.00000000000E+00  0.45804819774E+03  0.45804995836E+03  0.12699999809E+01 0. -1.
       -4   -1    0    0    0  501  0.00000000000E+00  0.00000000000E+00 -0.34897541961E+03  0.34897773051E+03  0.12699999809E+01 0.  1.
    10030    2    1    2    0    0  0.00000000000E+00  0.00000000000E+00  0.10907277813E+03  0.80702768886E+03  0.79962292342E+03 0.  0.
        3    1    3    3  502    0  0.22558163537E+03  0.23381637848E+02  0.38685045711E+03  0.44842732028E+03  0.10100000352E+00 0. -1.
       -3    1    3    3    0  502 -0.22558163537E+03 -0.23381637848E+02 -0.27777767898E+03  0.35860036858E+03  0.10100000352E+00 0.  1.
</event>
<event>
 5   0  0.2910501E-03  0.7997572E+03  0.7818609E-02  0.9560369E-01
       -2   -1    0    0    0  501  0.00000000000E+00  0.00000000000E+00  0.65173293657E+03  0.65173293657E+03  0.25500000920E-02 0.  1.
        2   -1    0    0  501    0  0.00000000000E+00  0.00000000000E+00 -0.24535034314E+03  0.24535034316E+03  0.25500000920E-02 0. -1.
    10030    2    1    2    0    0  0.00000000000E+00  0.00000000000E+00  0.40638259343E+03  0.89708327973E+03  0.79975721224E+03 0.  0.
        1    1    3    3  502    0 -0.31051181724E+03 -0.10762097352E+03  0.45873841162E+03  0.56430558469E+03  0.50400001928E-02 0.  1.
       -1    1    3    3    0  502  0.31051181724E+03  0.10762097352E+03 -0.52355818199E+02  0.33277769504E+03  0.50400001928E-02 0. -1.
</event>
<event>
 5   0  0.1656051E-03  0.8002404E+03  0.7818609E-02  0.9559669E-01
        1   -1    0    0  501    0  0.00000000000E+00  0.00000000000E+00  0.19925698175E+04  0.19925698176E+04  0.50400001928E-02 0. -1.
       -1   -1    0    0    0  501  0.00000000000E+00  0.00000000000E+00 -0.80346580981E+02  0.80346581139E+02  0.50400001928E-02 0.  1.
    10030    2    1    2    0    0  0.00000000000E+00  0.00000000000E+00  0.19122232366E+04  0.20729163987E+04  0.80024039482E+03 0.  0.
        3    1    3    3  502    0  0.24187927517E+03  0.31685970604E+03  0.10454888602E+04  0.11189068880E+04  0.10100000352E+00 0. -1.
       -3    1    3    3    0  502 -0.24187927517E+03 -0.31685970604E+03  0.86673437636E+03  0.95400951066E+03  0.10100000352E+00 0.  1.
</event>
<event>
 5   0  0.1640035E-03  0.7995972E+03  0.7818609E-02  0.9560600E-01
       -1   -1    0    0    0  501  0.00000000000E+00  0.00000000000E+00  0.20428699259E+03  0.20428699265E+03  0.50400001928E-02 0. -1.
        1   -1    0    0  501    0  0.00000000000E+00  0.00000000000E+00 -0.78242339209E+03  0.78242339211E+03  0.50400001928E-02 0.  1.
    10030    2    1    2    0    0  0.00000000000E+00  0.00000000000E+00 -0.57813639950E+03  0.98671038476E+03  0.79959720295E+03 0.  0.
        5    1    3    3  502    0 -0.41533422089E+02 -0.35711548882E+03 -0.50479171207E+03  0.61975257973E+03  0.46999998093E+01 0. -1.
       -5    1    3    3    0  502  0.41533422089E+02  0.35711548882E+03 -0.73344687434E+02  0.36695780504E+03  0.46999998093E+01 0.  1.
</event>
<event>
 5   0  0.1640035E-03  0.8000050E+03  0.7818609E-02  0.9560010E-01
       -1   -1    0    0    0  501  0.00000000000E+00  0.00000000000E+00  0.55148098228E+03  0.55148098230E+03  0.50400001928E-02 0. -1.
        1   -1    0    0  501    0  0.00000000000E+00  0.00000000000E+00 -0.29013152668E+03  0.29013152672E+03  0.50400001928E-02 0.  1.
    10030    2    1    2    0    0  0.00000000000E+00  0.00000000000E+00  0.26134945560E+03  0.84161250902E+03  0.80000504836E+03 0.  0.
        5    1    3    3  502    0  0.56514174588E+02  0.21655980759E+03 -0.21805939562E+03  0.31251238729E+03  0.46999998093E+01 0.  1.
       -5    1    3    3    0  502 -0.56514174588E+02 -0.21655980759E+03  0.47940885122E+03  0.52910012173E+03  0.46999998093E+01 0. -1.
</event>
<event>
 5   0  0.1637228E-03  0.8002457E+03  0.7818609E-02  0.9559661E-01
       -1   -1    0    0    0  501  0.00000000000E+00  0.00000000000E+00  0.24765504539E+03  0.24765504544E+03  0.50400001928E-02 0. -1.
        1   -1    0    0  501    0  0.00000000000E+00  0.00000000000E+00 -0.64645688763E+03  0.64645688765E+03  0.50400001928E-02 0.  1.
    10030    2    1    2    0    0  0.00000000000E+00  0.00000000000E+00 -0.39880184224E+03  0.89411193309E+03  0.80024573695E+03 0.  0.
        2    1    3    3  502    0  0.28895988769E+03  0.24180869592E+03 -0.34983839023E+03  0.51415577542E+03  0.25500000920E-02 0.  1.
       -2    1    3    3    0  502 -0.28895988769E+03 -0.24180869592E+03 -0.48963452017E+02  0.37995615767E+03  0.25500000920E-02 0. -1.
</event>
<event>
 5   0  0.2763587E-03  0.7962908E+03  0.7818609E-02  0.9565402E-01
        2   -1    0    0  501    0  0.00000000000E+00  0.00000000000E+00  0.42491384038E+03  0.42491384039E+03  0.25500000920E-02 0.  1.
       -2   -1    0    0    0  501  0.00000000000E+00  0.00000000000E+00 -0.37306334643E+03  0.37306334644E+03  0.25500000920E-02 0. -1.
    10030    2    1    2    0    0  0.00000000000E+00  0.00000000000E+00  0.51850493957E+02  0.79797718683E+03  0.79629084948E+03 0.  0.
        3    1    3    3  502    0 -0.20963576798E+03 -0.53047585369E+02  0.36093632143E+03  0.42075674666E+03  0.10100000352E+00 0.  1.
       -3    1    3    3    0  502  0.20963576798E+03  0.53047585369E+02 -0.30908582748E+03  0.37722044016E+03  0.10100000352E+00 0. -1.
</event>
<event>
 5   0  0.2690809E-03  0.8005830E+03  0.7818609E-02  0.9559174E-01
       -2   -1    0    0    0  501  0.00000000000E+00  0.00000000000E+00  0.14575304431E+03  0.14575304433E+03  0.25500000920E-02 0. -1.
        2   -1    0    0  501    0  0.00000000000E+00  0.00000000000E+00 -0.10993477418E+04  0.10993477418E+04  0.25500000920E-02 0.  1.
    10030    2    1    2    0    0  0.00000000000E+00  0.00000000000E+00 -0.95359469749E+03  0.12451007861E+04  0.80058298793E+03 0.  0.
        5    1    3    3  502    0 -0.27835825613E+03 -0.13455050198E+03 -0.81435115215E+02  0.31975134766E+03  0.46999998093E+01 0. -1.
       -5    1    3    3    0  502  0.27835825613E+03  0.13455050198E+03 -0.87215958228E+03  0.92534943848E+03  0.46999998093E+01 0.  1.
</event>
<event>
 5   0  0.2873212E-03  0.7997019E+03  0.7818609E-02  0.9560449E-01
        2   -1    0    0  501    0  0.00000000000E+00  0.00000000000E+00  0.57643162350E+03  0.57643162350E+03  0.25500000920E-02 0.  1.
       -2   -1    0    0    0  501  0.00000000000E+00  0.00000000000E+00 -0.27736299619E+03  0.27736299620E+03  0.25500000920E-02 0. -1.
    10030    2    1    2    0    0  0.00000000000E+00  0.00000000000E+00  0.29906862731E+03  0.85379461970E+03  0.79970194997E+03 0.  0.
        2    1    3    3  502    0 -0.21928485338E+02 -0.37434329527E+03  0.13395803229E+01  0.37498740734E+03  0.25500000920E-02 0. -1.
       -2    1    3    3    0  502  0.21928485338E+02  0.37434329527E+03  0.29772904698E+03  0.47880721236E+03  0.25500000920E-02 0.  1.
</event>
<event>
 5   0  0.1637228E-03  0.8042346E+03  0.7818609E-02  0.9553908E-01
        1   -1    0    0  501    0  0.00000000000E+00  0.00000000000E+00  0.65421873870E+03  0.65421873872E+03  0.50400001928E-02 0. -1.
       -1   -1    0    0    0  501  0.00000000000E+00  0.00000000000E+00 -0.24716245713E+03  0.24716245718E+03  0.50400001928E-02 0.  1.
    10030    2    1    2    0    0  0.00000000000E+00  0.00000000000E+00  0.40705628157E+03  0.90138119590E+03  0.80423457023E+03 0.  0.
        2    1    3    3  502    0 -0.21076703948E+03  0.28471183932E+03  0.41681711709E+03  0.54701013289E+03  0.25500000920E-02 0. -1.
       -2    1    3    3    0  502  0.21076703948E+03 -0.28471183932E+03 -0.97608355251E+01  0.35437106301E+03  0.25500000920E-02 0.  1.
</event>
<event>
 5   0  0.2910501E-03  0.8023990E+03  0.7818609E-02  0.9556551E-01
       -2   -1    0    0    0  501  0.00000000000E+00  0.00000000000E+00  0.46781918654E+03  0.46781918655E+03  0.25500000920E-02 0.  1.
        2   -1    0    0  501    0  0.00000000000E+00  0.00000000000E+00 -0.34406677743E+03  0.34406677744E+03  0.25500000920E-02 0. -1.
    10030    2    1    2    0    0  0.00000000000E+00  0.00000000000E+00  0.12375240911E+03  0.81188596399E+03  0.80239900284E+03 0.  0.
        1    1    3    3  502    0  0.88992563112E+01  0.38564892385E+03  0.17343746391E+03  0.42294780191E+03  0.50400001928E-02 0.  1.
       -1    1    3    3    0  502 -0.88992563112E+01 -0.38564892385E+03 -0.49685054804E+02  0.38893816208E+03  0.50400001928E-02 0. -1.
</event>
<event>
 5   0  0.1095350E-03  0.7978471E+03  0.7818609E-02  0.9563139E-01
        3   -1    0    0  501    0  0.00000000000E+00  0.00000000000E+00  0.14084365466E+04  0.14084365503E+04  0.10100000352E+00 0. -1.
       -3   -1    0    0    0  501  0.00000000000E+00  0.00000000000E+00 -0.11299050715E+03  0.11299055230E+03  0.10100000352E+00 0.  1.
    10030    2    1    2    0    0  0.00000000000E+00  0.00000000000E+00  0.12954460395E+04  0.15214271025E+04  0.79784709511E+03 0.  0.
        4    1    3    3  502    0  0.75894303555E+01  0.38172973092E+03  0.42728491659E+03  0.57301762605E+03  0.12699999809E+01 0.  1.
       -4    1    3    3    0  502 -0.75894303555E+01 -0.38172973092E+03  0.86816112289E+03  0.94840947650E+03  0.12699999809E+01 0. -1.
</event>
<event>
 5   0  0.1095350E-03  0.8030377E+03  0.7818609E-02  0.9555631E-01
       -4   -1    0    0    0  501  0.00000000000E+00  0.00000000000E+00  0.18043909304E+03  0.18044356236E+03  0.12699999809E+01 0. -1.
        4   -1    0    0  501    0  0.00000000000E+00  0.00000000000E+00 -0.89345664510E+03  0.89345754772E+03  0.12699999809E+01 0.  1.
    10030    2    1    2    0    0  0.00000000000E+00  0.00000000000E+00 -0.71301755206E+03  0.10739011101E+04  0.80303771063E+03 0.  0.
        1    1    3    3  502    0 -0.79244444060E+02 -0.39323373042E+03 -0.33315606399E+03  0.52144550209E+03  0.50400001928E-02 0.  1.
       -1    1    3    3    0  502  0.79244444060E+02  0.39323373042E+03 -0.37986148807E+03  0.55245560799E+03  0.50400001928E-02 0. -1.
</event>
<event>
 5   0  0.1617491E-03  0.8001365E+03  0.7818609E-02  0.9559820E-01
        1   -1    0    0  501    0  0.00000000000E+00  0.00000000000E+00  0.32670943670E+03  0.32670943674E+03  0.50400001928E-02 0. -1.
       -1   -1    0    0    0  501  0.00000000000E+00  0.00000000000E+00 -0.48989896016E+03  0.48989896018E+03  0.50400001928E-02 0.  1.
    10030    2    1    2    0    0  0.00000000000E+00  0.00000000000E+00 -0.16318952346E+03  0.81660839692E+03  0.80013652170E+03 0.  0.
        1    1    3    3  502    0  0.28695199194E+03  0.37418194545E+02 -0.36352985860E+03  0.46464559083E+03  0.50400001928E-02 0.  1.
       -1    1    3    3    0  502 -0.28695199194E+03 -0.37418194545E+02  0.20034033514E+03  0.35196280609E+03  0.50400001928E-02 0. -1.
</event>
<event>
 5   0  0.1095350E-03  0.8011396E+03  0.7818609E-02  0.9558369E-01
        3   -1    0    0  501    0  0.00000000000E+00  0.00000000000E+00  0.65179558196E+03  0.65179558979E+03  0.10100000352E+00 0. -1.
       -3   -1    0    0    0  501  0.00000000000E+00  0.00000000000E+00 -0.24617560518E+03  0.24617562590E+03  0.10100000352E+00 0.  1.
    10030    2    1    2    0    0  0.00000000000E+00  0.00000000000E+00  0.40561997678E+03  0.89797121569E+03  0.80113964990E+03 0.  0.
        5    1    3    3  502    0  0.85929721320E+02 -0.11598090349E+03 -0.21597849749E+03  0.25981587395E+03  0.46999998093E+01 0.  1.
       -5    1    3    3    0  502 -0.85929721320E+02  0.11598090349E+03  0.62159847427E+03  0.63815534174E+03  0.46999998093E+01 0. -1.
</event>
<event>
 5   0  0.1656051E-03  0.7985841E+03  0.7818609E-02  0.9562069E-01
        1   -1    0    0  501    0  0.00000000000E+00  0.00000000000E+00  0.14254455759E+04  0.14254455759E+04  0.50400001928E-02 0. -1.
       -1   -1    0    0    0  501  0.00000000000E+00  0.00000000000E+00 -0.11184863353E+03  0.11184863364E+03  0.50400001928E-02 0.  1.
    10030    2    1    2    0    0  0.00000000000E+00  0.00000000000E+00  0.13135969423E+04  0.15372942095E+04  0.79858409683E+03 0.  0.
        3    1    3    3  502    0  0.37834616290E+03 -0.61787893131E+02  0.44182769023E+03  0.58495750340E+03  0.10100000352E+00 0.  1.
       -3    1    3    3    0  502 -0.37834616290E+03  0.61787893131E+02  0.87176925209E+03  0.95233670611E+03  0.10100000352E+00 0. -1.
</event>
<event>
 5   0  0.1637228E-03  0.7995336E+03  0.7818609E-02  0.9560692E-01
        1   -1    0    0  501    0  0.00000000000E+00  0.00000000000E+00  0.73727287336E+03  0.73727287338E+03  0.50400001928E-02 0.  1.
       -1   -1    0    0    0  501  0.00000000000E+00  0.00000000000E+00 -0.21676304560E+03  0.21676304566E+03  0.50400001928E-02 0. -1.
    10030    2    1    2    0    0  0.00000000000E+00  0.00000000000E+00  0.52050982776E+03  0.95403591904E+03  0.79953364783E+03 0.  0.
        2    1    3    3  502    0  0.12698539992E+02 -0.47361423492E+02 -0.21316113436E+03  0.21872820249E+03  0.25500000920E-02 0. -1.
       -2    1    3    3    0  502 -0.12698539992E+02  0.47361423492E+02  0.73367096212E+03  0.73530771655E+03  0.25500000920E-02 0.  1.
</event>
<event>
 5   0  0.1656051E-03  0.7981680E+03  0.7818609E-02  0.9562673E-01
        1   -1    0    0  501    0  0.00000000000E+00  0.00000000000E+00  0.30729606899E+03  0.30729606903E+03  0.50400001928E-02 0.  1.
       -1   -1    0    0    0  501  0.00000000000E+00  0.00000000000E+00 -0.51828852383E+03  0.51828852386E+03  0.50400001928E-02 0. -1.
    10030    2    1    2    0    0  0.00000000000E+00  0.00000000000E+00 -0.21099245484E+03  0.82558459289E+03  0.79816796729E+03 0.  0.
        3    1    3    3  502    0 -0.32137849360E+03  0.17542262224E+03 -0.26972923818E+03  0.45476488945E+03  0.10100000352E+00 0. -1.
       -3    1    3    3    0  502  0.32137849360E+03 -0.17542262224E+03  0.58736783338E+02  0.37081970344E+03  0.10100000352E+00 0.  1.
</event>
<event>
 5   0  0.1712793E-03  0.7999016E+03  0.7818609E-02  0.9560160E-01
       -1   -1    0    0    0  501  0.00000000000E+00  0.00000000000E+00  0.16882359191E+03  0.16882359199E+03  0.50400001928E-02 0.  1.
        1   -1    0    0  501    0  0.00000000000E+00  0.00000000000E+00 -0.94750176613E+03  0.94750176614E+03  0.50400001928E-02 0. -1.
    10030    2    1    2    0    0  0.00000000000E+00  0.00000000000E+00 -0.77867817422E+03  0.11163253581E+04  0.79990162282E+03 0.  0.
        4    1    3    3  502    0  0.17650005208E+03 -0.52285393182E+01  0.11147607198E+03  0.20882560555E+03  0.12699999809E+01 0.  1.
       -4    1    3    3    0  502 -0.17650005208E+03  0.52285393182E+01 -0.89015424620E+03  0.90749975258E+03  0.12699999809E+01 0. -1.
</event>
<event>
 5   0  0.1637228E-03  0.7945636E+03  0.7818609E-02  0.9567920E-01
        1   -1    0    0  501    0  0.00000000000E+00  0.00000000000E+00  0.36147389883E+03  0.36147389887E+03  0.50400001928E-02 0. -1.
       -1   -1    0    0    0  501  0.00000000000E+00  0.00000000000E+00 -0.43663682375E+03  0.43663682378E+03  0.50400001928E-02 0.  1.
    10030    2    1    2    0    0  0.00000000000E+00  0.00000000000E+00 -0.75162924912E+02  0.79811072265E+03  0.79456356594E+03 0.  0.
        2    1    3    3  502    0  0.22996914344E+03 -0.26005705277E+03 -0.23162081797E+03  0.41732922370E+03  0.25500000920E-02 0.  1.
       -2    1    3    3    0  502 -0.22996914344E+03  0.26005705277E+03  0.15645789306E+03  0.38078149894E+03  0.25500000920E-02 0. -1.
</event>
<event>
 5   0  0.2873212E-03  0.8008160E+03  0.7818609E-02  0.9558837E-01
       -2   -1    0    0    0  501  0.00000000000E+00  0.00000000000E+00  0.13321283861E+03  0.13321283863E+03  0.25500000920E-02 0. -1.
        2   -1    0    0  501    0  0.00000000000E+00  0.00000000000E+00 -0.12035368317E+04  0.12035368317E+04  0.25500000920E-02 0.  1.
    10030    2    1    2    0    0  0.00000000000E+00  0.00000000000E+00 -0.10703239931E+04  0.13367496703E+04  0.80081597820E+03 0.  0.
        2    1    3    3  502    0  0.26297005728E+03  0.42671936740E+02 -0.10341274726E+04  0.10678922112E+04  0.25500000920E-02 0.  1.
       -2    1    3    3    0  502 -0.26297005728E+03 -0.42671936740E+02 -0.36196520488E+02  0.26885745910E+03  0.25500000920E-02 0. -1.
</event>
<event>
 5   0  0.1637228E-03  0.8008577E+03  0.7818609E-02  0.9558776E-01
        1   -1    0    0  501    0  0.00000000000E+00  0.00000000000E+00  0.16469937732E+03  0.16469937739E+03  0.50400001928E-02 0.  1.
       -1   -1    0    0    0  501  0.00000000000E+00  0.00000000000E+00 -0.97355109679E+03  0.97355109681E+03  0.50400001928E-02 0. -1.
    10030    2    1    2    0    0  0.00000000000E+00  0.00000000000E+00 -0.80885171948E+03  0.11382504742E+04  0.80085768893E+03 0.  0.
        2    1    3    3  502    0 -0.16665773234E+03 -0.34780872741E+03 -0.25136448988E+03  0.46035835758E+03  0.25500000920E-02 0.  1.
       -2    1    3    3    0  502  0.16665773234E+03  0.34780872741E+03 -0.55748722959E+03  0.67789211662E+03  0.25500000920E-02 0. -1.
</event>
<event>
 5   0  0.1640035E-03  0.7995839E+03  0.7818609E-02  0.9560620E-01
       -1   -1    0    0    0  501  0.00000000000E+00  0.00000000000E+00  0.10709235976E+03  0.10709235988E+03  0.50400001928E-02 0. -1.
        1   -1    0    0  501    0  0.00000000000E+00  0.00000000000E+00 -0.14924837946E+04  0.14924837946E+04  0.50400001928E-02 0.  1.
    10030    2    1    2    0    0  0.00000000000E+00  0.00000000000E+00 -0.13853914348E+04  0.15995761545E+04  0.79958392071E+03 0.  0.
        5    1    3    3  502    0  0.12412226884E+03  0.26192335358E+03 -0.14191425726E+03  0.32275676164E+03  0.46999998093E+01 0. -1.
       -5    1    3    3    0  502 -0.12412226884E+03 -0.26192335358E+03 -0.12434771776E+04  0.12768193928E+04  0.46999998093E+01 0.  1.
</event>
<event>
 5   0  0.1095350E-03  0.7991896E+03  0.7818609E-02  0.9561191E-01
       -3   -1    0    0    0  501  0.00000000000E+00  0.00000000000E+00  0.33527301707E+03  0.33527303228E+03  0.10100000352E+00 0. -1.
        3   -1    0    0  501    0  0.00000000000E+00  0.00000000000E+00 -0.47625656107E+03  0.47625657178E+03  0.10100000352E+00 0.  1.
    10030    2    1    2    0    0  0.00000000000E+00  0.00000000000E+00 -0.14098354400E+03  0.81152960406E+03  0.79918955110E+03 0.  0.
        2    1    3    3  502    0 -0.25879474955E+03 -0.19111790108E+03 -0.31116452341E+03  0.44757584289E+03  0.25500000920E-02 0.  1.
       -2    1    3    3    0  502  0.25879474955E+03  0.19111790108E+03  0.17018097941E+03  0.36395376117E+03  0.25500000920E-02 0. -1.
</event>
<event>
 5   0  0.2763587E-03  0.7972303E+03  0.7818609E-02  0.9564035E-01
        2   -1    0    0  501    0  0.00000000000E+00  0.00000000000E+00  0.11642741343E+03  0.11642741346E+03  0.25500000920E-02 0.  1.
       -2   -1    0    0    0  501  0.00000000000E+00  0.00000000000E+00 -0.13647476273E+04  0.13647476273E+04  0.25500000920E-02 0. -1.
    10030    2    1    2    0    0  0.00000000000E+00  0.00000000000E+00 -0.12483202138E+04  0.14811750407E+04  0.79723029608E+03 0.  0.
        3    1    3    3  502    0  0.11342812089E+03  0.13790417650E+03  0.37968645840E+02  0.18255171534E+03  0.10100000352E+00 0.  1.
       -3    1    3    3    0  502 -0.11342812089E+03 -0.13790417650E+03 -0.12862888597E+04  0.12986233254E+04  0.10100000352E+00 0. -1.
</event>
<event>
 5   0  0.2763587E-03  0.7997193E+03  0.7818609E-02  0.9560423E-01
        2   -1    0    0  501    0  0.00000000000E+00  0.00000000000E+00  0.29676538096E+03  0.29676538097E+03  0.25500000920E-02 0. -1.
       -2   -1    0    0    0  501  0.00000000000E+00  0.00000000000E+00 -0.53876816608E+03  0.53876816608E+03  0.25500000920E-02 0.  1.
    10030    2    1    2    0    0  0.00000000000E+00  0.00000000000E+00 -0.24200278512E+03  0.83553354705E+03  0.79971930090E+03 0.  0.
        3    1    3    3  502    0 -0.72904694050E+02 -0.16079752833E+03  0.25383686887E+03  0.30919913605E+03  0.10100000352E+00 0. -1.
       -3    1    3    3    0  502  0.72904694050E+02  0.16079752833E+03 -0.49583965399E+03  0.52633441100E+03  0.10100000352E+00 0.  1.
</event>
<event>
 5   0  0.2768834E-03  0.7980816E+03  0.7818609E-02  0.9562798E-01
       -2   -1    0    0    0  501  0.00000000000E+00  0.00000000000E+00  0.16205017896E+03  0.16205017898E+03  0.25500000920E-02 0. -1.
        2   -1    0    0  501    0  0.00000000000E+00  0.00000000000E+00 -0.98261886454E+03  0.98261886454E+03  0.25500000920E-02 0.  1.
    10030    2    1    2    0    0  0.00000000000E+00  0.00000000000E+00 -0.82056868558E+03  0.11446690435E+04  0.79808160701E+03 0.  0.
        4    1    3    3  502    0  0.43040663891E+02  0.23753057200E+03  0.45442347837E+02  0.24564179462E+03  0.12699999809E+01 0. -1.
       -4    1    3    3    0  502 -0.43040663891E+02 -0.23753057200E+03 -0.86601103342E+03  0.89902724891E+03  0.12699999809E+01 0.  1.
</event>
<event>
 5   0  0.2763587E-03  0.8049907E+03  0.7818609E-02  0.9552821E-01
        2   -1    0    0  501    0  0.00000000000E+00  0.00000000000E+00  0.11534103180E+04  0.11534103180E+04  0.25500000920E-02 0.  1.
       -2   -1    0    0    0  501  0.00000000000E+00  0.00000000000E+00 -0.14045522478E+03  0.14045522481E+03  0.25500000920E-02 0. -1.
    10030    2    1    2    0    0  0.00000000000E+00  0.00000000000E+00  0.10129550932E+04  0.12938655428E+04  0.80499069683E+03 0.  0.
        3    1    3    3  502    0 -0.19212061991E+03  0.12449762226E+03  0.10385719762E+04  0.10635044666E+04  0.10100000352E+00 0.  1.
       -3    1    3    3    0  502  0.19212061991E+03 -0.12449762226E+03 -0.25616882969E+02  0.23036107622E+03  0.10100000352E+00 0. -1.
</event>
<event>
 5   0  0.2910501E-03  0.8016116E+03  0.7818609E-02  0.9557687E-01
        2   -1    0    0  501    0  0.00000000000E+00  0.00000000000E+00  0.96351296433E+03  0.96351296434E+03  0.25500000920E-02 0.  1.
       -2   -1    0    0    0  501  0.00000000000E+00  0.00000000000E+00 -0.16672871926E+03  0.16672871928E+03  0.25500000920E-02 0. -1.
    10030    2    1    2    0    0  0.00000000000E+00  0.00000000000E+00  0.79678424508E+03  0.11302416836E+04  0.80161158311E+03 0.  0.
        1    1    3    3  502    0 -0.28256685883E+03 -0.28060012428E+03  0.33432300267E+03  0.51995416104E+03  0.50400001928E-02 0. -1.
       -1    1    3    3    0  502  0.28256685883E+03  0.28060012428E+03  0.46246124241E+03  0.61028752257E+03  0.50400001928E-02 0.  1.
</event>
<event>
 5   0  0.2690809E-03  0.7988821E+03  0.7818609E-02  0.9561637E-01
       -2   -1    0    0    0  501  0.00000000000E+00  0.00000000000E+00  0.49832575550E+02  0.49832575616E+02  0.25500000920E-02 0.  1.
        2   -1    0    0  501    0  0.00000000000E+00  0.00000000000E+00 -0.32017844970E+04  0.32017844970E+04  0.25500000920E-02 0. -1.
    10030    2    1    2    0    0  0.00000000000E+00  0.00000000000E+00 -0.31519519214E+04  0.32516170726E+04  0.79888213887E+03 0.  0.
        5    1    3    3  502    0 -0.13068554909E+03 -0.15034640750E+03 -0.29850462714E+04  0.29916895038E+04  0.46999998093E+01 0. -1.
       -5    1    3    3    0  502  0.13068554909E+03  0.15034640750E+03 -0.16690565002E+03  0.25992756875E+03  0.46999998093E+01 0.  1.
</event>
<event>
 5   0  0.2690809E-03  0.7996783E+03  0.7818609E-02  0.9560483E-01
       -2   -1    0    0    0  501  0.00000000000E+00  0.00000000000E+00  0.15303568914E+03  0.15303568916E+03  0.25500000920E-02 0. -1.
        2   -1    0    0  501    0  0.00000000000E+00  0.00000000000E+00 -0.10446671621E+04  0.10446671621E+04  0.25500000920E-02 0.  1.
    10030    2    1    2    0    0  0.00000000000E+00  0.00000000000E+00 -0.89163147296E+03  0.11977028513E+04  0.79967833304E+03 0.  0.
        5    1    3    3  502    0  0.13700561103E+03  0.37519036794E+03 -0.47222508500E+03  0.61851190009E+03  0.46999998093E+01 0. -1.
       -5    1    3    3    0  502 -0.13700561103E+03 -0.37519036794E+03 -0.41940638796E+03  0.57919095117E+03  0.46999998093E+01 0.  1.
</event>
<event>
 5   0  0.1656051E-03  0.7995820E+03  0.7818609E-02  0.9560622E-01
        1   -1    0    0  501    0  0.00000000000E+00  0.00000000000E+00  0.21142263974E+03  0.21142263980E+03  0.50400001928E-02 0. -1.
       -1   -1    0    0    0  501  0.00000000000E+00  0.00000000000E+00 -0.75598734783E+03  0.75598734785E+03  0.50400001928E-02 0.  1.
    10030    2    1    2    0    0  0.00000000000E+00  0.00000000000E+00 -0.54456470809E+03  0.96740998765E+03  0.79958199261E+03 0.  0.
        3    1    3    3  502    0 -0.27035469962E+03 -0.84416233180E+02  0.69103241933E+02  0.29153564495E+03  0.10100000352E+00 0. -1.
       -3    1    3    3    0  502  0.27035469962E+03  0.84416233180E+02 -0.61366795002E+03  0.67587434269E+03  0.10100000352E+00 0.  1.
</event>
<event>
 5   0  0.1095350E-03  0.7971427E+03  0.7818609E-02  0.9564162E-01
        3   -1    0    0  501    0  0.00000000000E+00  0.00000000000E+00  0.24350096712E+03  0.24350098807E+03  0.10100000352E+00 0.  1.
       -3   -1    0    0    0  501  0.00000000000E+00  0.00000000000E+00 -0.65239618865E+03  0.65239619647E+03  0.10100000352E+00 0. -1.
    10030    2    1    2    0    0  0.00000000000E+00  0.00000000000E+00 -0.40889522153E+03  0.89589718454E+03  0.79714268677E+03 0.  0.
        5    1    3    3  502    0 -0.35936059418E+03 -0.88318450439E+02 -0.37075549268E+03  0.52385294758E+03  0.46999998093E+01 0.  1.
       -5    1    3    3    0  502  0.35936059418E+03  0.88318450439E+02 -0.38139728849E+02  0.37204423696E+03  0.46999998093E+01 0. -1.
</event>
<event>
 5   0  0.1617491E-03  0.8004702E+03  0.7818609E-02  0.9559337E-01
        1   -1    0    0  501    0  0.00000000000E+00  0.00000000000E+00  0.13512928950E+04  0.13512928950E+04  0.50400001928E-02 0.  1.
       -1   -1    0    0    0  501  0.00000000000E+00  0.00000000000E+00 -0.11854436221E+03  0.11854436232E+03  0.50400001928E-02 0. -1.
    10030    2    1    2    0    0  0.00000000000E+00  0.00000000000E+00  0.12327485328E+04  0.14698372573E+04  0.80047024799E+03 0.  0.
        1    1    3    3  502    0 -0.23062459824E+03 -0.31219176184E+03  0.43705608576E+03  0.58452495550E+03  0.50400001928E-02 0. -1.
       -1    1    3    3    0  502  0.23062459824E+03  0.31219176184E+03  0.79569244704E+03  0.88531230184E+03  0.50400001928E-02 0.  1.
</event>
<event>
 5   0  0.1656051E-03  0.8004399E+03  0.7818609E-02  0.9559381E-01
        1   -1    0    0  501    0  0.00000000000E+00  0.00000000000E+00  0.82923741475E+03  0.82923741476E+03  0.50400001928E-02 0. -1.
       -1   -1    0    0    0  501  0.00000000000E+00  0.00000000000E+00 -0.19316060501E+03  0.19316060508E+03  0.50400001928E-02 0.  1.
    10030    2    1    2    0    0  0.00000000000E+00  0.00000000000E+00  0.63607680974E+03  0.10223980198E+04  0.80043988100E+03 0.  0.
        3    1    3    3  502    0  0.69305224692E+02 -0.27269922886E+03 -0.45503925375E+02  0.28502403585E+03  0.10100000352E+00 0.  1.
       -3    1    3    3    0  502 -0.69305224692E+02  0.27269922886E+03  0.68158073511E+03  0.73737398399E+03  0.10100000352E+00 0. -1.
</event>
<event>
 5   0  0.1617491E-03  0.8014283E+03  0.7818609E-02  0.9557952E-01
       -1   -1    0    0    0  501  0.00000000000E+00  0.00000000000E+00  0.34662727108E+03  0.34662727112E+03  0.50400001928E-02 0. -1.
        1   -1    0    0  501    0  0.00000000000E+00  0.00000000000E+00 -0.46324060197E+03  0.46324060200E+03  0.50400001928E-02 0.  1.
    10030    2    1    2    0    0  0.00000000000E+00  0.00000000000E+00 -0.11661333089E+03  0.80986787312E+03  0.80142828935E+03 0.  0.
        1    1    3    3  502    0  0.15016157277E+03  0.36216482571E+03 -0.14200378454E+03  0.41698553185E+03  0.50400001928E-02 0.  1.
       -1    1    3    3    0  502 -0.15016157277E+03 -0.36216482571E+03  0.25390453654E+02  0.39288234127E+03  0.50400001928E-02 0. -1.
</event>
<event>
 5   0  0.1712793E-03  0.8106109E+03  0.7818609E-02  0.9544784E-01
        1   -1    0    0  501    0  0.00000000000E+00  0.00000000000E+00  0.32585559729E+03  0.32585559733E+03  0.50400001928E-02 0. -1.
       -1   -1    0    0    0  501  0.00000000000E+00  0.00000000000E+00 -0.50412676401E+03  0.50412676404E+03  0.50400001928E-02 0.  1.
    10030    2    1    2    0    0  0.00000000000E+00  0.00000000000E+00 -0.17827116672E+03  0.82998236137E+03  0.81061094941E+03 0.  0.
        4    1    3    3  502    0 -0.28975254778E+03 -0.28331230218E+03 -0.82003830557E+02  0.41345935790E+03  0.12699999809E+01 0. -1.
       -4    1    3    3    0  502  0.28975254778E+03  0.28331230218E+03 -0.96267336160E+02  0.41652300347E+03  0.12699999809E+01 0.  1.
</event>
<event>
 5   0  0.2768834E-03  0.8004568E+03  0.7818609E-02  0.9559356E-01
        2   -1    0    0  501    0  0.00000000000E+00  0.00000000000E+00  0.13065121101E+04  0.13065121101E+04  0.25500000920E-02 0. -1.
       -2   -1    0    0    0  501  0.00000000000E+00  0.00000000000E+00 -0.12260335798E+03  0.12260335800E+03  0.25500000920E-02 0.  1.
    10030    2    1    2    0    0  0.00000000000E+00  0.00000000000E+00  0.11839087521E+04  0.14291154681E+04  0.80045679946E+03 0.  0.
        4    1    3    3  502    0  0.94733116368E+02 -0.94366697658E+02  0.12654495680E+04  0.12724950527E+04  0.12699999809E+01 0. -1.
       -4    1    3    3    0  502 -0.94733116368E+02  0.94366697658E+02 -0.81540815920E+02  0.15662041541E+03  0.12699999809E+01 0.  1.
</event>
<event>
 5   0  0.2690809E-03  0.7989029E+03  0.7818609E-02  0.9561606E-01
        2   -1    0    0  501    0  0.00000000000E+00  0.00000000000E+00  0.44025571449E+03  0.44025571450E+03  0.25500000920E-02 0. -1.
       -2   -1    0    0    0  501  0.00000000000E+00  0.00000000000E+00 -0.36242907186E+03  0.36242907187E+03  0.25500000920E-02 0.  1.
    10030    2    1    2    0    0  0.00000000000E+00  0.00000000000E+00  0.77826642627E+02  0.80268478637E+03  0.79890292274E+03 0.  0.
        5    1    3    3  502    0  0.13638027019E+03  0.35795705708E+03 -0.74788402395E+02  0.39031811121E+03  0.46999998093E+01 0. -1.
       -5    1    3    3    0  502 -0.13638027019E+03 -0.35795705708E+03  0.15261504502E+03  0.41236667515E+03  0.46999998093E+01 0.  1.
</event>
<event>
 5   0  0.1712793E-03  0.8008866E+03  0.7818609E-02  0.9558735E-01
       -1   -1    0    0    0  501  0.00000000000E+00  0.00000000000E+00  0.16439739056E+03  0.16439739063E+03  0.50400001928E-02 0.  1.
        1   -1    0    0  501    0  0.00000000000E+00  0.00000000000E+00 -0.97540982389E+03  0.97540982391E+03  0.50400001928E-02 0. -1.
    10030    2    1    2    0    0  0.00000000000E+00  0.00000000000E+00 -0.81101243334E+03  0.11398072145E+04  0.80088658329E+03 0.  0.
        4    1    3    3  502    0 -0.26605554486E+02  0.37293820258E+03 -0.60958502149E+03  0.71511276719E+03  0.12699999809E+01 0. -1.
       -4    1    3    3    0  502  0.26605554486E+02 -0.37293820258E+03 -0.20142741185E+03  0.42469444736E+03  0.12699999809E+01 0.  1.
</event>
<event>
 5   0  0.2763587E-03  0.8000372E+03  0.7818609E-02  0.9559963E-01
        2   -1    0    0  501    0  0.00000000000E+00  0.00000000000E+00  0.61885326481E+03  0.61885326481E+03  0.25500000920E-02 0. -1.
       -2   -1    0    0    0  501  0.00000000000E+00  0.00000000000E+00 -0.25856673976E+03  0.25856673977E+03  0.25500000920E-02 0.  1.
    10030    2    1    2    0    0  0.00000000000E+00  0.00000000000E+00  0.36028652505E+03  0.87742000459E+03  0.80003717683E+03 0.  0.
        3    1    3    3  502    0 -0.63479247244E+02 -0.18716652683E+02 -0.25252088053E+03  0.26104929271E+03  0.10100000352E+00 0.  1.
       -3    1    3    3    0  502  0.63479247244E+02  0.18716652683E+02  0.61280740558E+03  0.61637071187E+03  0.10100000352E+00 0. -1.
</event>
<event>
 5   0  0.2910501E-03  0.7989842E+03  0.7818609E-02  0.9561489E-01
        2   -1    0    0  501    0  0.00000000000E+00  0.00000000000E+00  0.15713461725E+04  0.15713461725E+04  0.25500000920E-02 0. -1.
       -2   -1    0    0    0  501  0.00000000000E+00  0.00000000000E+00 -0.10156510353E+03  0.10156510356E+03  0.25500000920E-02 0.  1.
    10030    2    1    2    0    0  0.00000000000E+00  0.00000000000E+00  0.14697810689E+04  0.16729112760E+04  0.79898419689E+03 0.  0.
        1    1    3    3  502    0 -0.32069154422E+03 -0.21512057253E+03  0.52060581669E+03  0.64819005211E+03  0.50400001928E-02 0.  1.
       -1    1    3    3    0  502  0.32069154422E+03  0.21512057253E+03  0.94917525223E+03  0.10247212239E+04  0.50400001928E-02 0. -1.
</event>
<event>
 5   0  0.2873212E-03  0.7975151E+03  0.7818609E-02  0.9563621E-01
        2   -1    0    0  501    0  0.00000000000E+00  0.00000000000E+00  0.21749901451E+03  0.21749901453E+03  0.25500000920E-02 0. -1.
       -2   -1    0    0    0  501  0.00000000000E+00  0.00000000000E+00 -0.73107260899E+03  0.73107260900E+03  0.25500000920E-02 0.  1.
    10030    2    1    2    0    0  0.00000000000E+00  0.00000000000E+00 -0.51357359448E+03  0.94857162352E+03  0.79751507071E+03 0.  0.
        2    1    3    3  502    0 -0.24789813053E+03 -0.12672252544E+03  0.82758733697E+02  0.29044980561E+03  0.25500000920E-02 0. -1.
       -2    1    3    3    0  502  0.24789813053E+03  0.12672252544E+03 -0.59633232818E+03  0.65812181791E+03  0.25500000920E-02 0.  1.
</event>
<event>
 5   0  0.1095350E-03  0.7991760E+03  0.7818609E-02  0.9561211E-01
       -4   -1    0    0    0  501  0.00000000000E+00  0.00000000000E+00  0.35933961154E+03  0.35934185578E+03  0.12699999809E+01 0. -1.
        4   -1    0    0  501    0  0.00000000000E+00  0.00000000000E+00 -0.44433996049E+03  0.44434177543E+03  0.12699999809E+01 0.  1.
    10030    2    1    2    0    0  0.00000000000E+00  0.00000000000E+00 -0.85000348958E+02  0.80368363121E+03  0.79917602551E+03 0.  0.
        3    1    3    3  502    0  0.10930430535E+02  0.26083859176E+03 -0.34671979143E+03  0.43401713012E+03  0.10100000352E+00 0.  1.
       -3    1    3    3    0  502 -0.10930430535E+02 -0.26083859176E+03  0.26171944248E+03  0.36966650110E+03  0.10100000352E+00 0. -1.
</event>
<event>
 5   0  0.1712793E-03  0.7998657E+03  0.7818609E-02  0.9560212E-01
        1   -1    0    0  501    0  0.00000000000E+00  0.00000000000E+00  0.43917107502E+03  0.43917107505E+03  0.50400001928E-02 0.  1.
       -1   -1    0    0    0  501  0.00000000000E+00  0.00000000000E+00 -0.36420038254E+03  0.36420038257E+03  0.50400001928E-02 0. -1.
    10030    2    1    2    0    0  0.00000000000E+00  0.00000000000E+00  0.74970692487E+02  0.80337145763E+03  0.79986567259E+03 0.  0.
        4    1    3    3  502    0  0.11638102434E+03 -0.30273532182E+03 -0.19753048748E+03  0.37975403130E+03  0.12699999809E+01 0. -1.
       -4    1    3    3    0  502 -0.11638102434E+03  0.30273532182E+03  0.27250117997E+03  0.42361742633E+03  0.12699999809E+01 0.  1.
</event>
<event>
 5   0  0.2690809E-03  0.8001629E+03  0.7818609E-02  0.9559781E-01
        2   -1    0    0  501    0  0.00000000000E+00  0.00000000000E+00  0.14895552425E+03  0.14895552427E+03  0.25500000920E-02 0.  1.
       -2   -1    0    0    0  501  0.00000000000E+00  0.00000000000E+00 -0.10745836868E+04  0.10745836868E+04  0.25500000920E-02 0. -1.
    10030    2    1    2    0    0  0.00000000000E+00  0.00000000000E+00 -0.92562816258E+03  0.12235392111E+04  0.80016292450E+03 0.  0.
        5    1    3    3  502    0 -0.87335207429E+02 -0.37569708275E+03 -0.62512598063E+03  0.73456130997E+03  0.46999998093E+01 0. -1.
       -5    1    3    3    0  502  0.87335207429E+02  0.37569708275E+03 -0.30050218196E+03  0.48897790114E+03  0.46999998093E+01 0.  1.
</event>
<event>
 5   0  0.1095350E-03  0.7990875E+03  0.7818609E-02  0.9561339E-01
        4   -1    0    0  501    0  0.00000000000E+00  0.00000000000E+00  0.35375961922E+03  0.35376189886E+03  0.12699999809E+01 0.  1.
       -4   -1    0    0    0  501  0.00000000000E+00  0.00000000000E+00 -0.45124873675E+03  0.45125052390E+03  0.12699999809E+01 0. -1.
    10030    2    1    2    0    0  0.00000000000E+00  0.00000000000E+00 -0.97489117537E+02  0.80501242276E+03  0.79908752510E+03 0.  0.
        4    1    3    3  502    0  0.28048492410E+03  0.27393889408E+03 -0.12625196834E+03  0.41189256214E+03  0.12699999809E+01 0. -1.
       -4    1    3    3    0  502 -0.28048492410E+03 -0.27393889408E+03  0.28762850806E+02  0.39311986063E+03  0.12699999809E+01 0.  1.
</event>
<event>
 5   0  0.1640035E-03  0.7980392E+03  0.7818609E-02  0.9562860E-01
        1   -1    0    0  501    0  0.00000000000E+00  0.00000000000E+00  0.80818872703E+03  0.80818872704E+03  0.50400001928E-02 0.  1.
       -1   -1    0    0    0  501  0.00000000000E+00  0.00000000000E+00 -0.19700427066E+03  0.19700427072E+03  0.50400001928E-02 0. -1.
    10030    2    1    2    0    0  0.00000000000E+00  0.00000000000E+00  0.61118445637E+03  0.10051929978E+04  0.79803917388E+03 0.  0.
        5    1    3    3  502    0  0.12595432756E+03  0.29539723554E+03  0.73339259527E+01  0.32124740601E+03  0.46999998093E+01 0. -1.
       -5    1    3    3    0  502 -0.12595432756E+03 -0.29539723554E+03  0.60385053042E+03  0.68394559176E+03  0.46999998093E+01 0.  1.
</event>
<event>
 5   0  0.1712793E-03  0.7995157E+03  0.7818609E-02  0.9560718E-01
       -1   -1    0    0    0  501  0.00000000000E+00  0.00000000000E+00  0.79972447827E+03  0.79972447829E+03  0.50400001928E-02 0. -1.
        1   -1    0    0  501    0  0.00000000000E+00  0.00000000000E+00 -0.19982674152E+03  0.19982674158E+03  0.50400001928E-02 0.  1.
    10030    2    1    2    0    0  0.00000000000E+00  0.00000000000E+00  0.59989773675E+03  0.99955121987E+03  0.79951569502E+03 0.  0.
        4    1    3    3  502    0  0.99677767652E+00  0.20929025995E+03  0.72575265607E+03  0.75532902577E+03  0.12699999809E+01 0. -1.
       -4    1    3    3    0  502 -0.99677767652E+00 -0.20929025995E+03 -0.12585491932E+03  0.24422219410E+03  0.12699999809E+01 0.  1.
</event>
<event>
 5   0  0.1656051E-03  0.8004375E+03  0.7818609E-02  0.9559384E-01
       -1   -1    0    0    0  501  0.00000000000E+00  0.00000000000E+00  0.64298425368E+02  0.64298425566E+02  0.50400001928E-02 0.  1.
        1   -1    0    0  501    0  0.00000000000E+00  0.00000000000E+00 -0.24911193151E+04  0.24911193151E+04  0.50400001928E-02 0. -1.
    10030    2    1    2    0    0  0.00000000000E+00  0.00000000000E+00 -0.24268208897E+04  0.25554177407E+04  0.80043750443E+03 0.  0.
        3    1    3    3  502    0 -0.35810626622E+02 -0.22480586493E+02 -0.24839687562E+04  0.24843285953E+04  0.10100000352E+00 0. -1.
       -3    1    3    3    0  502  0.35810626622E+02  0.22480586493E+02  0.57147866429E+02  0.71089145349E+02  0.10100000352E+00 0.  1.
</event>
<event>
 5   0  0.1095350E-03  0.7961139E+03  0.7818609E-02  0.9565659E-01
        3   -1    0    0  501    0  0.00000000000E+00  0.00000000000E+00  0.75091200245E+02  0.75091268169E+02  0.10100000352E+00 0.  1.
       -3   -1    0    0    0  501  0.00000000000E+00  0.00000000000E+00 -0.21100908066E+04  0.21100908090E+04  0.10100000352E+00 0. -1.
    10030    2    1    2    0    0  0.00000000000E+00  0.00000000000E+00 -0.20349996063E+04  0.21851820771E+04  0.79611388166E+03 0.  0.
        1    1    3    3  502    0  0.26737822566E+03  0.16646322485E+03 -0.16856129848E+04  0.17147863585E+04  0.50400001928E-02 0. -1.
       -1    1    3    3    0  502 -0.26737822566E+03 -0.16646322485E+03 -0.34938662149E+03  0.47039571861E+03  0.50400001928E-02 0.  1.
</event>
<event>
 5   0  0.1640035E-03  0.7997207E+03  0.7818609E-02  0.9560421E-01
       -1   -1    0    0    0  501  0.00000000000E+00  0.00000000000E+00  0.76890547784E+02  0.76890547949E+02  0.50400001928E-02 0.  1.
        1   -1    0    0  501    0  0.00000000000E+00  0.00000000000E+00 -0.20794272377E+04  0.20794272377E+04  0.50400001928E-02 0. -1.
    10030    2    1    2    0    0  0.00000000000E+00  0.00000000000E+00 -0.20025366899E+04  0.21563177856E+04  0.79972070016E+03 0.  0.
        5    1    3    3  502    0  0.12204106991E+03 -0.13398898079E+03 -0.40300156396E+02  0.18572361810E+03  0.46999998093E+01 0.  1.
       -5    1    3    3    0  502 -0.12204106991E+03  0.13398898079E+03 -0.19622365335E+04  0.19705941675E+04  0.46999998093E+01 0. -1.
</event>
<event>
 5   0  0.1617491E-03  0.8003504E+03  0.7818609E-02  0.9559510E-01
       -1   -1    0    0    0  501  0.00000000000E+00  0.00000000000E+00  0.62046246454E+03  0.62046246457E+03  0.50400001928E-02 0. -1.
        1   -1    0    0  501    0  0.00000000000E+00  0.00000000000E+00 -0.25809811140E+03  0.25809811145E+03  0.50400001928E-02 0.  1.
    10030    2    1    2    0    0  0.00000000000E+00  0.00000000000E+00  0.36236435314E+03  0.87856057602E+03  0.80035039907E+03 0.  0.
        1    1    3    3  502    0  0.23986773360E+03  0.29719778088E+03  0.31234542078E+03  0.49337887317E+03  0.50400001928E-02 0. -1.
       -1    1    3    3    0  502 -0.23986773360E+03 -0.29719778088E+03  0.50018932362E+02  0.38518170284E+03  0.50400001928E-02 0.  1.
</event>
<event>
 5   0  0.1095350E-03  0.8008721E+03  0.7818609E-02  0.9558756E-01
        3   -1    0    0  501    0  0.00000000000E+00  0.00000000000E+00  0.80145876544E+03  0.80145877181E+03  0.10100000352E+00 0. -1.
       -3   -1    0    0    0  501  0.00000000000E+00  0.00000000000E+00 -0.20007145481E+03  0.20007148030E+03  0.10100000352E+00 0.  1.
    10030    2    1    2    0    0  0.00000000000E+00  0.00000000000E+00  0.60138731064E+03  0.10015302521E+04  0.80087211744E+03 0.  0.
        2    1    3    3  502    0  0.36441807138E+03 -0.15839575027E+03  0.23867733340E+03  0.46352628182E+03  0.25500000920E-02 0. -1.
       -2    1    3    3    0  502 -0.36441807138E+03  0.15839575027E+03  0.36270997724E+03  0.53800397029E+03  0.25500000920E-02 0.  1.
</event>
<event>
 5   0  0.2910501E-03  0.8005096E+03  0.7818609E-02  0.9559280E-01
       -2   -1    0    0    0  501  0.00000000000E+00  0.00000000000E+00  0.72150940540E+03  0.72150940540E+03  0.25500000920E-02 0.  1.
        2   -1    0    0  501    0  0.00000000000E+00  0.00000000000E+00 -0.22203995789E+03  0.22203995790E+03  0.25500000920E-02 0. -1.
    10030    2    1    2    0    0  0.00000000000E+00  0.00000000000E+00  0.49946944751E+03  0.94354936330E+03  0.80050963267E+03 0.  0.
        1    1    3    3  502    0  0.36261947368E+03 -0.80817243175E+02  0.74195165315E+02  0.37885252020E+03  0.50400001928E-02 0. -1.
       -1    1    3    3    0  502 -0.36261947368E+03  0.80817243175E+02  0.42527428220E+03  0.56469684310E+03  0.50400001928E-02 0.  1.
</event>
<event>
 5   0  0.1617491E-03  0.8002153E+03  0.7818609E-02  0.9559705E-01
       -1   -1    0    0    0  501  0.00000000000E+00  0.00000000000E+00  0.24624615456E+03  0.24624615461E+03  0.50400001928E-02 0.  1.
        1   -1    0    0  501    0  0.00000000000E+00  0.00000000000E+00 -0.65010615247E+03  0.65010615248E+03  0.50400001928E-02 0. -1.
    10030    2    1    2    0    0  0.00000000000E+00  0.00000000000E+00 -0.40385999790E+03  0.89635230710E+03  0.80021532135E+03 0.  0.
        1    1    3    3  502    0  0.12670140443E+03  0.34332232580E+03 -0.38311112314E+03  0.52980902029E+03  0.50400001928E-02 0.  1.
       -1    1    3    3    0  502 -0.12670140443E+03 -0.34332232580E+03 -0.20748874760E+02  0.36654328681E+03  0.50400001928E-02 0. -1.
</event>
<event>
 5   0  0.2768834E-03  0.7997149E+03  0.7818609E-02  0.9560430E-01
       -2   -1    0    0    0  501  0.00000000000E+00  0.00000000000E+00  0.10960947353E+03  0.10960947356E+03  0.25500000920E-02 0.  1.
        2   -1    0    0  501    0  0.00000000000E+00  0.00000000000E+00 -0.14586876303E+04  0.14586876303E+04  0.25500000920E-02 0. -1.
    10030    2    1    2    0    0  0.00000000000E+00  0.00000000000E+00 -0.13490781567E+04  0.15682971038E+04  0.79971490725E+03 0.  0.
        4    1    3    3  502    0  0.19984648484E+03  0.34523197069E+02  0.12592177792E+01  0.20281436627E+03  0.12699999809E+01 0.  1.
       -4    1    3    3    0  502 -0.19984648484E+03 -0.34523197069E+02 -0.13503373745E+04  0.13654827375E+04  0.12699999809E+01 0. -1.
</event>
<event>
 5   0  0.2690809E-03  0.8015189E+03  0.7818609E-02  0.9557821E-01
       -2   -1    0    0    0  501  0.00000000000E+00  0.00000000000E+00  0.98623689938E+02  0.98623689971E+02  0.25500000920E-02 0. -1.
        2   -1    0    0  501    0  0.00000000000E+00  0.00000000000E+00 -0.16284943089E+04  0.16284943089E+04  0.25500000920E-02 0.  1.
    10030    2    1    2    0    0  0.00000000000E+00  0.00000000000E+00 -0.15298706190E+04  0.17271179989E+04  0.80151885272E+03 0.  0.
        5    1    3    3  502    0  0.35461303917E+03  0.10497807116E+03 -0.10974689686E+04  0.11581152922E+04  0.46999998093E+01 0.  1.
       -5    1    3    3    0  502 -0.35461303917E+03 -0.10497807116E+03 -0.43240165037E+03  0.56900270668E+03  0.46999998093E+01 0. -1.
</event>
<event>
 5   0  0.1637228E-03  0.7948849E+03  0.7818609E-02  0.9567451E-01
       -1   -1    0    0    0  501  0.00000000000E+00  0.00000000000E+00  0.51877463925E+03  0.51877463928E+03  0.50400001928E-02 0. -1.
        1   -1    0    0  501    0  0.00000000000E+00  0.00000000000E+00 -0.30448768563E+03  0.30448768567E+03  0.50400001928E-02 0.  1.
    10030    2    1    2    0    0  0.00000000000E+00  0.00000000000E+00  0.21428695362E+03  0.82326232495E+03  0.79488487040E+03 0.  0.
        2    1    3    3  502    0  0.25445950235E+03  0.18977216249E+02  0.42273595187E+03  0.49377672898E+03  0.25500000920E-02 0. -1.
       -2    1    3    3    0  502 -0.25445950235E+03 -0.18977216249E+02 -0.20844899825E+03  0.32948559597E+03  0.25500000920E-02 0.  1.
</event>
<event>
 5   0  0.1617491E-03  0.7996644E+03  0.7818609E-02  0.9560503E-01
        1   -1    0    0  501    0  0.00000000000E+00  0.00000000000E+00  0.34927299322E+03  0.34927299325E+03  0.50400001928E-02 0.  1.
       -1   -1    0    0    0  501  0.00000000000E+00  0.00000000000E+00 -0.45771010049E+03  0.45771010052E+03  0.50400001928E-02 0. -1.
    10030    2    1    2    0    0  0.00000000000E+00  0.00000000000E+00 -0.10843710728E+03  0.80698309377E+03  0.79966437172E+03 0.  0.
        1    1    3    3  502    0  0.21399644049E+02  0.17522892645E+03  0.30781635041E+03  0.35484366562E+03  0.50400001928E-02 0.  1.
       -1    1    3    3    0  502 -0.21399644049E+02 -0.17522892645E+03 -0.41625345768E+03  0.45213942815E+03  0.50400001928E-02 0. -1.
</event>
<event>
 5   0  0.2873212E-03  0.7999825E+03  0.7818609E-02  0.9560042E-01
       -2   -1    0    0    0  501  0.00000000000E+00  0.00000000000E+00  0.91764827649E+02  0.91764827685E+02  0.25500000920E-02 0.  1.
        2   -1    0    0  501    0  0.00000000000E+00  0.00000000000E+00 -0.17435109883E+04  0.17435109883E+04  0.25500000920E-02 0. -1.
    10030    2    1    2    0    0  0.00000000000E+00  0.00000000000E+00 -0.16517461606E+04  0.18352758160E+04  0.79998246325E+03 0.  0.
        2    1    3    3  502    0  0.34765982141E+03  0.13527480063E+03 -0.49479716816E+03  0.61966996113E+03  0.25500000920E-02 0. -1.
       -2    1    3    3    0  502 -0.34765982141E+03 -0.13527480063E+03 -0.11569489925E+04  0.12156058548E+04  0.25500000920E-02 0.  1.
</event>
<event>
 5   0  0.1656051E-03  0.8024515E+03  0.7818609E-02  0.9556475E-01
        1   -1    0    0  501    0  0.00000000000E+00  0.00000000000E+00  0.40251950189E+03  0.40251950192E+03  0.50400001928E-02 0.  1.
       -1   -1    0    0    0  501  0.00000000000E+00  0.00000000000E+00 -0.39993614311E+03  0.39993614314E+03  0.50400001928E-02 0. -1.
    10030    2    1    2    0    0  0.00000000000E+00  0.00000000000E+00  0.25833587812E+01  0.80245564506E+03  0.80245148672E+03 0.  0.
        3    1    3    3  502    0 -0.21506825073E+02  0.47114320196E+02 -0.39657943652E+03  0.39994694944E+03  0.10100000352E+00 0. -1.
       -3    1    3    3    0  502  0.21506825073E+02 -0.47114320196E+02  0.39916279531E+03  0.40250869562E+03  0.10100000352E+00 0.  1.
</event>
<event>
 5   0  0.1656051E-03  0.8009299E+03  0.7818609E-02  0.9558672E-01
        1   -1    0    0  501    0  0.00000000000E+00  0.00000000000E+00  0.58989398307E+03  0.58989398309E+03  0.50400001928E-02 0.  1.
       -1   -1    0    0    0  501  0.00000000000E+00  0.00000000000E+00 -0.27186606622E+03  0.27186606627E+03  0.50400001928E-02 0. -1.
    10030    2    1    2    0    0  0.00000000000E+00  0.00000000000E+00  0.31802791685E+03  0.86176004936E+03  0.80092985134E+03 0.  0.
        3    1    3    3  502    0  0.72014354881E+02  0.18670443702E+02  0.58239357240E+03  0.58712599682E+03  0.10100000352E+00 0.  1.
       -3    1    3    3    0  502 -0.72014354881E+02 -0.18670443702E+02 -0.26436565555E+03  0.27463405253E+03  0.10100000352E+00 0. -1.
</event>
<event>
 5   0  0.2873212E-03  0.7998813E+03  0.7818609E-02  0.9560189E-01
        2   -1    0    0  501    0  0.00000000000E+00  0.00000000000E+00  0.11982701232E+04  0.11982701232E+04  0.25500000920E-02 0.  1.
       -2   -1    0    0    0  501  0.00000000000E+00  0.00000000000E+00 -0.13348620368E+03  0.13348620370E+03  0.25500000920E-02 0. -1.
    10030    2    1    2    0    0  0.00000000000E+00  0.00000000000E+00  0.10647839195E+04  0.13317563269E+04  0.79988131556E+03 0.  0.
        2    1    3    3  502    0 -0.25593904974E+03  0.23663583493E+03  0.20591371597E+03  0.40484784053E+03  0.25500000920E-02 0. -1.
       -2    1    3    3    0  502  0.25593904974E+03 -0.23663583493E+03  0.85887020352E+03  0.92690848635E+03  0.25500000920E-02 0.  1.
</event>
<event>
 5   0  0.1656051E-03  0.7981928E+03  0.7818609E-02  0.9562637E-01
       -1   -1    0    0    0  501  0.00000000000E+00  0.00000000000E+00  0.19332534306E+03  0.19332534313E+03  0.50400001928E-02 0.  1.
        1   -1    0    0  501    0  0.00000000000E+00  0.00000000000E+00 -0.82388548822E+03  0.82388548824E+03  0.50400001928E-02 0. -1.
    10030    2    1    2    0    0  0.00000000000E+00  0.00000000000E+00 -0.63056014516E+03  0.10172108314E+04  0.79819282056E+03 0.  0.
        3    1    3    3  502    0  0.29596024832E+03  0.26462472034E+03 -0.26336952898E+03  0.47642652130E+03  0.10100000352E+00 0.  1.
       -3    1    3    3    0  502 -0.29596024832E+03 -0.26462472034E+03 -0.36719061618E+03  0.54078431007E+03  0.10100000352E+00 0. -1.
</event>
<event>
 5   0  0.2763587E-03  0.8003606E+03  0.7818609E-02  0.9559495E-01
       -2   -1    0    0    0  501  0.00000000000E+00  0.00000000000E+00  0.27854344366E+03  0.27854344368E+03  0.25500000920E-02 0.  1.
        2   -1    0    0  501    0  0.00000000000E+00  0.00000000000E+00 -0.57493458827E+03  0.57493458827E+03  0.25500000920E-02 0. -1.
    10030    2    1    2    0    0  0.00000000000E+00  0.00000000000E+00 -0.29639114460E+03  0.85347803195E+03  0.80036056900E+03 0.  0.
        3    1    3    3  502    0 -0.44678472021E+02  0.30903213777E+03  0.11870995716E+03  0.33404953550E+03  0.10100000352E+00 0.  1.
       -3    1    3    3    0  502  0.44678472021E+02 -0.30903213777E+03 -0.41510110176E+03  0.51942849645E+03  0.10100000352E+00 0. -1.
</event>
<event>
 5   0  0.2763587E-03  0.8054480E+03  0.7818609E-02  0.9552165E-01
       -2   -1    0    0    0  501  0.00000000000E+00  0.00000000000E+00  0.48862032397E+03  0.48862032398E+03  0.25500000920E-02 0.  1.
        2   -1    0    0  501    0  0.00000000000E+00  0.00000000000E+00 -0.33192766997E+03  0.33192766998E+03  0.25500000920E-02 0. -1.
    10030    2    1    2    0    0  0.00000000000E+00  0.00000000000E+00  0.15669265400E+03  0.82054799395E+03  0.80544796391E+03 0.  0.
        3    1    3    3  502    0  0.16699788955E+03  0.21129391960E+03 -0.22668844507E+03  0.35202425613E+03  0.10100000352E+00 0. -1.
       -3    1    3    3    0  502 -0.16699788955E+03 -0.21129391960E+03  0.38338109908E+03  0.46852373782E+03  0.10100000352E+00 0.  1.
</event>
<event>
 5   0  0.2873212E-03  0.7829874E+03  0.7818609E-02  0.9584974E-01
       -2   -1    0    0    0  501  0.00000000000E+00  0.00000000000E+00  0.26635520894E+03  0.26635520895E+03  0.25500000920E-02 0. -1.
        2   -1    0    0  501    0  0.00000000000E+00  0.00000000000E+00 -0.57542456539E+03  0.57542456540E+03  0.25500000920E-02 0.  1.
    10030    2    1    2    0    0  0.00000000000E+00  0.00000000000E+00 -0.30906935645E+03  0.84177977435E+03  0.78298743375E+03 0.  0.
        2    1    3    3  502    0 -0.14198097163E+03 -0.17718724772E+02 -0.54630740363E+03  0.56473385659E+03  0.25500000920E-02 0.  1.
       -2    1    3    3    0  502  0.14198097163E+03  0.17718724772E+02  0.23723804718E+03  0.27704591776E+03  0.25500000920E-02 0. -1.
</event>
<event>
 5   0  0.1712793E-03  0.7994895E+03  0.7818609E-02  0.9560756E-01
        1   -1    0    0  501    0  0.00000000000E+00  0.00000000000E+00  0.43499407721E+03  0.43499407724E+03  0.50400001928E-02 0.  1.
       -1   -1    0    0    0  501  0.00000000000E+00  0.00000000000E+00 -0.36735181957E+03  0.36735181961E+03  0.50400001928E-02 0. -1.
    10030    2    1    2    0    0  0.00000000000E+00  0.00000000000E+00  0.67642257633E+02  0.80234589684E+03  0.79948950160E+03 0.  0.
        4    1    3    3  502    0  0.29244700925E+03  0.10021788724E+03  0.28815382443E+03  0.42261462063E+03  0.12699999809E+01 0.  1.
       -4    1    3    3    0  502 -0.29244700925E+03 -0.10021788724E+03 -0.22051156680E+03  0.37973127621E+03  0.12699999809E+01 0. -1.
</event>
<event>
 5   0  0.2910501E-03  0.8007432E+03  0.7818609E-02  0.9558942E-01
        2   -1    0    0  501    0  0.00000000000E+00  0.00000000000E+00  0.73959202027E+03  0.73959202028E+03  0.25500000920E-02 0. -1.
       -2   -1    0    0    0  501  0.00000000000E+00  0.00000000000E+00 -0.21673761700E+03  0.21673761701E+03  0.25500000920E-02 0.  1.
    10030    2    1    2    0    0  0.00000000000E+00  0.00000000000E+00  0.52285440328E+03  0.95632963729E+03  0.80074318488E+03 0.  0.
        1    1    3    3  502    0 -0.30409995429E+03 -0.25940092843E+03  0.28896845416E+03  0.49322245629E+03  0.50400001928E-02 0.  1.
       -1    1    3    3    0  502  0.30409995429E+03  0.25940092843E+03  0.23388594912E+03  0.46310718100E+03  0.50400001928E-02 0. -1.
</event>
<event>
 5   0  0.2873212E-03  0.7979380E+03  0.7818609E-02  0.9563007E-01
        2   -1    0    0  501    0  0.00000000000E+00  0.00000000000E+00  0.85463792456E+03  0.85463792456E+03  0.25500000920E-02 0.  1.
       -2   -1    0    0    0  501  0.00000000000E+00  0.00000000000E+00 -0.18624995923E+03  0.18624995925E+03  0.25500000920E-02 0. -1.
    10030    2    1    2    0    0  0.00000000000E+00  0.00000000000E+00  0.66838796532E+03  0.10408878838E+04  0.79793803925E+03 0.  0.
        2    1    3    3  502    0  0.14272229460E+03  0.21052181373E+02 -0.15103356084E+03  0.20886355408E+03  0.25500000920E-02 0. -1.
       -2    1    3    3    0  502 -0.14272229460E+03 -0.21052181373E+02  0.81942152616E+03  0.83202432973E+03  0.25500000920E-02 0.  1.
</event>
<event>
 5   0  0.2910501E-03  0.8100567E+03  0.7818609E-02  0.9545574E-01
        2   -1    0    0  501    0  0.00000000000E+00  0.00000000000E+00  0.12020307549E+04  0.12020307549E+04  0.25500000920E-02 0.  1.
       -2   -1    0    0    0  501  0.00000000000E+00  0.00000000000E+00 -0.13647566452E+03  0.13647566454E+03  0.25500000920E-02 0. -1.
    10030    2    1    2    0    0  0.00000000000E+00  0.00000000000E+00  0.10655550904E+04  0.13385064195E+04  0.81005665498E+03 0.  0.
        1    1    3    3  502    0  0.10339496922E+03  0.94865803384E+02 -0.95028293749E+02  0.16947099147E+03  0.50400001928E-02 0. -1.
       -1    1    3    3    0  502 -0.10339496922E+03 -0.94865803384E+02  0.11605833842E+04  0.11690354280E+04  0.50400001928E-02 0.  1.
</event>
<event>
 5   0  0.2763587E-03  0.7999226E+03  0.7818609E-02  0.9560129E-01
        2   -1    0    0  501    0  0.00000000000E+00  0.00000000000E+00  0.15282338831E+04  0.15282338831E+04  0.25500000920E-02 0.  1.
       -2   -1    0    0    0  501  0.00000000000E+00  0.00000000000E+00 -0.10467575894E+03  0.10467575898E+03  0.25500000920E-02 0. -1.
    10030    2    1    2    0    0  0.00000000000E+00  0.00000000000E+00  0.14235581241E+04  0.16329096421E+04  0.79992260021E+03 0.  0.
        3    1    3    3  502    0  0.21038206909E+02  0.77221927633E+02  0.15117197035E+04  0.15138369477E+04  0.10100000352E+00 0.  1.
       -3    1    3    3    0  502 -0.21038206909E+02 -0.77221927633E+02 -0.88161579347E+02  0.11907269431E+03  0.10100000352E+00 0. -1.
</event>
<event>
 5   0  0.1095350E-03  0.7989138E+03  0.7818609E-02  0.9561591E-01
        4   -1    0    0  501    0  0.00000000000E+00  0.00000000000E+00  0.53496066353E+03  0.53496217102E+03  0.12699999809E+01 0. -1.
       -4   -1    0    0    0  501  0.00000000000E+00  0.00000000000E+00 -0.29827247486E+03  0.29827517859E+03  0.12699999809E+01 0.  1.
    10030    2    1    2    0    0  0.00000000000E+00  0.00000000000E+00  0.23668818866E+03  0.83323734960E+03  0.79891375137E+03 0.  0.
        5    1    3    3  502    0  0.53622145260E+02  0.38808066856E+03  0.37141779979E+02  0.39355246359E+03  0.46999998093E+01 0.  1.
       -5    1    3    3    0  502 -0.53622145260E+02 -0.38808066856E+03  0.19954640868E+03  0.43968488602E+03  0.46999998093E+01 0. -1.
</event>
<event>
 5   0  0.2763587E-03  0.8015617E+03  0.7818609E-02  0.9557759E-01
       -2   -1    0    0    0  501  0.00000000000E+00  0.00000000000E+00  0.13010825673E+03  0.13010825675E+03  0.25500000920E-02 0. -1.
        2   -1    0    0  501    0  0.00000000000E+00  0.00000000000E+00 -0.12345512233E+04  0.12345512233E+04  0.25500000920E-02 0.  1.
    10030    2    1    2    0    0  0.00000000000E+00  0.00000000000E+00 -0.11044429666E+04  0.13646594801E+04  0.80156174442E+03 0.  0.
        3    1    3    3  502    0 -0.37155824057E+03 -0.14060054348E+03 -0.46211336976E+03  0.60940365578E+03  0.10100000352E+00 0. -1.
       -3    1    3    3    0  502  0.37155824057E+03  0.14060054348E+03 -0.64232959685E+03  0.75525582431E+03  0.10100000352E+00 0.  1.
</event>
<event>
 5   0  0.2768834E-03  0.7995180E+03  0.7818609E-02  0.9560715E-01
       -2   -1    0    0    0  501  0.00000000000E+00  0.00000000000E+00  0.14414190768E+03  0.14414190771E+03  0.25500000920E-02 0.  1.
        2   -1    0    0  501    0  0.00000000000E+00  0.00000000000E+00 -0.11086800253E+04  0.11086800253E+04  0.25500000920E-02 0. -1.
    10030    2    1    2    0    0  0.00000000000E+00  0.00000000000E+00 -0.96453811760E+03  0.12528219330E+04  0.79951798946E+03 0.  0.
        4    1    3    3  502    0  0.10150951876E+03  0.37324221871E+03 -0.64046106165E+03  0.74820179138E+03  0.12699999809E+01 0. -1.
       -4    1    3    3    0  502 -0.10150951876E+03 -0.37324221871E+03 -0.32407705595E+03  0.50462014161E+03  0.12699999809E+01 0.  1.
</event>
<event>
 5   0  0.1617491E-03  0.7990757E+03  0.7818609E-02  0.9561356E-01
       -1   -1    0    0    0  501  0.00000000000E+00  0.00000000000E+00  0.17742543159E+03  0.17742543166E+03  0.50400001928E-02 0. -1.
        1   -1    0    0  501    0  0.00000000000E+00  0.00000000000E+00 -0.89970480055E+03  0.89970480056E+03  0.50400001928E-02 0.  1.
    10030    2    1    2    0    0  0.00000000000E+00  0.00000000000E+00 -0.72227936896E+03  0.10771302322E+04  0.79907574757E+03 0.  0.
        1    1    3    3  502    0  0.26121844851E+03 -0.83346788197E+02 -0.75286070066E+03  0.80123716812E+03  0.50400001928E-02 0.  1.
       -1    1    3    3    0  502 -0.26121844851E+03  0.83346788197E+02  0.30581331707E+02  0.27589306410E+03  0.50400001928E-02 0. -1.
</event>
<event>
 5   0  0.1637228E-03  0.7995782E+03  0.7818609E-02  0.9560628E-01
        1   -1    0    0  501    0  0.00000000000E+00  0.00000000000E+00  0.12249603470E+03  0.12249603480E+03  0.50400001928E-02 0. -1.
       -1   -1    0    0    0  501  0.00000000000E+00  0.00000000000E+00 -0.13047876306E+04  0.13047876306E+04  0.50400001928E-02 0.  1.
    10030    2    1    2    0    0  0.00000000000E+00  0.00000000000E+00 -0.11822915959E+04  0.14272836654E+04  0.79957816615E+03 0.  0.
        2    1    3    3  502    0  0.19192691433E+03  0.41651410719E+02  0.30451475719E+02  0.19874122079E+03  0.25500000920E-02 0. -1.
       -2    1    3    3    0  502 -0.19192691433E+03 -0.41651410719E+02 -0.12127430716E+04  0.12285424446E+04  0.25500000920E-02 0.  1.
</event>
<event>
 5   0  0.1640035E-03  0.8009712E+03  0.7818609E-02  0.9558612E-01
       -1   -1    0    0    0  501  0.00000000000E+00  0.00000000000E+00  0.13254439158E+03  0.13254439168E+03  0.50400001928E-02 0. -1.
        1   -1    0    0  501    0  0.00000000000E+00  0.00000000000E+00 -0.12100755382E+04  0.12100755383E+04  0.50400001928E-02 0.  1.
    10030    2    1    2    0    0  0.00000000000E+00  0.00000000000E+00 -0.10775311467E+04  0.13426199299E+04  0.80097122559E+03 0.  0.
        5    1    3    3  502    0 -0.23865747500E+03  0.53012042513E+02 -0.71068550098E+01  0.24462269807E+03  0.46999998093E+01 0. -1.
       -5    1    3    3    0  502  0.23865747500E+03 -0.53012042513E+02 -0.10704242917E+04  0.10979972319E+04  0.46999998093E+01 0.  1.
</event>
<event>
 5   0  0.1095350E-03  0.8005645E+03  0.7818609E-02  0.9559200E-01
       -3   -1    0    0    0  501  0.00000000000E+00  0.00000000000E+00  0.18763053160E+03  0.18763055878E+03  0.10100000352E+00 0.  1.
        3   -1    0    0  501    0  0.00000000000E+00  0.00000000000E+00 -0.85394347379E+03  0.85394347977E+03  0.10100000352E+00 0. -1.
    10030    2    1    2    0    0  0.00000000000E+00  0.00000000000E+00 -0.66631294220E+03  0.10415740385E+04  0.80056451385E+03 0.  0.
        2    1    3    3  502    0 -0.37838564433E+03  0.99271422845E+02 -0.22279423368E+03  0.45018638562E+03  0.25500000920E-02 0. -1.
       -2    1    3    3    0  502  0.37838564433E+03 -0.99271422845E+02 -0.44351870852E+03  0.59138765293E+03  0.25500000920E-02 0.  1.
</event>
<event>
 5   0  0.1656051E-03  0.8000470E+03  0.7818609E-02  0.9559949E-01
       -1   -1    0    0    0  501  0.00000000000E+00  0.00000000000E+00  0.99849708075E+02  0.99849708202E+02  0.50400001928E-02 0. -1.
        1   -1    0    0  501    0  0.00000000000E+00  0.00000000000E+00 -0.16025966385E+04  0.16025966386E+04  0.50400001928E-02 0.  1.
    10030    2    1    2    0    0  0.00000000000E+00  0.00000000000E+00 -0.15027469305E+04  0.17024463468E+04  0.80004701521E+03 0.  0.
        3    1    3    3  502    0 -0.37701835892E+03 -0.10161937554E+03 -0.93626445753E+03  0.10144261851E+04  0.10100000352E+00 0.  1.
       -3    1    3    3    0  502  0.37701835892E+03  0.10161937554E+03 -0.56648247294E+03  0.68802016162E+03  0.10100000352E+00 0. -1.
</event>
<event>
 5   0  0.2768834E-03  0.8040428E+03  0.7818609E-02  0.9554184E-01
       -2   -1    0    0    0  501  0.00000000000E+00  0.00000000000E+00  0.87686637930E+02  0.87686637967E+02  0.25500000920E-02 0. -1.
        2   -1    0    0  501    0  0.00000000000E+00  0.00000000000E+00 -0.18431678947E+04  0.18431678947E+04  0.25500000920E-02 0.  1.
    10030    2    1    2    0    0  0.00000000000E+00  0.00000000000E+00 -0.17554812568E+04  0.19308545327E+04  0.80404277464E+03 0.  0.
        4    1    3    3  502    0 -0.16540061349E+03 -0.25231022740E+02  0.99160496731E-01  0.16731882794E+03  0.12699999809E+01 0. -1.
       -4    1    3    3    0  502  0.16540061349E+03  0.25231022740E+02 -0.17555804173E+04  0.17635357047E+04  0.12699999809E+01 0.  1.
</event>
<event>
 5   0  0.1617491E-03  0.8002927E+03  0.7818609E-02  0.9559594E-01
        1   -1    0    0  501    0  0.00000000000E+00  0.00000000000E+00  0.10838734613E+04  0.10838734613E+04  0.50400001928E-02 0.  1.
       -1   -1    0    0    0  501  0.00000000000E+00  0.00000000000E+00 -0.14772675067E+03  0.14772675076E+03  0.50400001928E-02 0. -1.
    10030    2    1    2    0    0  0.00000000000E+00  0.00000000000E+00  0.93614671058E+03  0.12316002120E+04  0.80029270803E+03 0.  0.
        1    1    3    3  502    0 -0.85611888728E+02 -0.14599953673E+03 -0.89930594426E+02  0.19165795589E+03  0.50400001928E-02 0. -1.
       -1    1    3    3    0  502  0.85611888728E+02  0.14599953673E+03  0.10260773050E+04  0.10399422561E+04  0.50400001928E-02 0.  1.
</event>
<event>
 5   0  0.2690809E-03  0.8008822E+03  0.7818609E-02  0.9558741E-01
        2   -1    0    0  501    0  0.00000000000E+00  0.00000000000E+00  0.53484779961E+03  0.53484779961E+03  0.25500000920E-02 0.  1.
       -2   -1    0    0    0  501  0.00000000000E+00  0.00000000000E+00 -0.29981068105E+03  0.29981068106E+03  0.25500000920E-02 0. -1.
    10030    2    1    2    0    0  0.00000000000E+00  0.00000000000E+00  0.23503711856E+03  0.83465848067E+03  0.80088222121E+03 0.  0.
        5    1    3    3  502    0 -0.96716720182E+02  0.70181628500E+02  0.51580271674E+03  0.52948476610E+03  0.46999998093E+01 0.  1.
       -5    1    3    3    0  502  0.96716720182E+02 -0.70181628500E+02 -0.28076559818E+03  0.30517371456E+03  0.46999998093E+01 0. -1.
</event>
<event>
 5   0  0.2690809E-03  0.7977309E+03  0.7818609E-02  0.9563307E-01
       -2   -1    0    0    0  501  0.00000000000E+00  0.00000000000E+00  0.29115278530E+03  0.29115278531E+03  0.25500000920E-02 0. -1.
        2   -1    0    0  501    0  0.00000000000E+00  0.00000000000E+00 -0.54642665478E+03  0.54642665479E+03  0.25500000920E-02 0.  1.
    10030    2    1    2    0    0  0.00000000000E+00  0.00000000000E+00 -0.25527386948E+03  0.83757944010E+03  0.79773088823E+03 0.  0.
        5    1    3    3  502    0  0.37843501702E+03 -0.48190817041E+02 -0.24979353781E+03  0.45602008562E+03  0.46999998093E+01 0.  1.
       -5    1    3    3    0  502 -0.37843501702E+03  0.48190817041E+02 -0.54803316699E+01  0.38155935448E+03  0.46999998093E+01 0. -1.
</event>
<event>
 5   0  0.2690809E-03  0.8006195E+03  0.7818609E-02  0.9559121E-01
        2   -1    0    0  501    0  0.00000000000E+00  0.00000000000E+00  0.81652515553E+03  0.81652515554E+03  0.25500000920E-02 0. -1.
       -2   -1    0    0    0  501  0.00000000000E+00  0.00000000000E+00 -0.19625593647E+03  0.19625593648E+03  0.25500000920E-02 0.  1.
    10030    2    1    2    0    0  0.00000000000E+00  0.00000000000E+00  0.62026921907E+03  0.10127810920E+04  0.80061953276E+03 0.  0.
        5    1    3    3  502    0 -0.10929133445E+02 -0.16860634334E+03  0.76917031318E+03  0.78752308262E+03  0.46999998093E+01 0. -1.
       -5    1    3    3    0  502  0.10929133445E+02  0.16860634334E+03 -0.14890109412E+03  0.22525800940E+03  0.46999998093E+01 0.  1.
</event>
<event>
 5   0  0.2873212E-03  0.7998580E+03  0.7818609E-02  0.9560223E-01
       -2   -1    0    0    0  501  0.00000000000E+00  0.00000000000E+00  0.21040528486E+03  0.21040528487E+03  0.25500000920E-02 0.  1.
        2   -1    0    0  501    0  0.00000000000E+00  0.00000000000E+00 -0.76016724509E+03  0.76016724510E+03  0.25500000920E-02 0. -1.
    10030    2    1    2    0    0  0.00000000000E+00  0.00000000000E+00 -0.54976196023E+03  0.97057252997E+03  0.79985800178E+03 0.  0.
        2    1    3    3  502    0 -0.84618979711E+02 -0.26110999321E+03  0.78067723020E+02  0.28536532667E+03  0.25500000920E-02 0.  1.
       -2    1    3    3    0  502  0.84618979711E+02  0.26110999321E+03 -0.62782968325E+03  0.68520720330E+03  0.25500000920E-02 0. -1.
</event>
<event>
 5   0  0.1712793E-03  0.8015366E+03  0.7818609E-02  0.9557796E-01
        1   -1    0    0  501    0  0.00000000000E+00  0.00000000000E+00  0.58049594818E+03  0.58049594820E+03  0.50400001928E-02 0.  1.
       -1   -1    0    0    0  501  0.00000000000E+00  0.00000000000E+00 -0.27668625066E+03  0.27668625071E+03  0.50400001928E-02 0. -1.
    10030    2    1    2    0    0  0.00000000000E+00  0.00000000000E+00  0.30380969752E+03  0.85718219891E+03  0.80153664284E+03 0.  0.
        4    1    3    3  502    0  0.29461396332E+03  0.16705447241E+03  0.38104379798E+03  0.50980444586E+03  0.12699999809E+01 0.  1.
       -4    1    3    3    0  502 -0.29461396332E+03 -0.16705447241E+03 -0.77234100468E+02  0.34737775305E+03  0.12699999809E+01 0. -1.
</event>
<event>
 5   0  0.2910501E-03  0.7991167E+03  0.7818609E-02  0.9561296E-01
        2   -1    0    0  501    0  0.00000000000E+00  0.00000000000E+00  0.16218172639E+03  0.16218172641E+03  0.25500000920E-02 0.  1.
       -2   -1    0    0    0  501  0.00000000000E+00  0.00000000000E+00 -0.98437035244E+03  0.98437035244E+03  0.25500000920E-02 0. -1.
    10030    2    1    2    0    0  0.00000000000E+00  0.00000000000E+00 -0.82218862605E+03  0.11465520789E+04  0.79911672033E+03 0.  0.
        1    1    3    3  502    0  0.11246532710E+03 -0.17116799357E+03  0.81139802185E+02  0.22029661674E+03  0.50400001928E-02 0.  1.
       -1    1    3    3    0  502 -0.11246532710E+03  0.17116799357E+03 -0.90332842823E+03  0.92625546212E+03  0.50400001928E-02 0. -1.
</event>
<event>
 5   0  0.2690809E-03  0.7994375E+03  0.7818609E-02  0.9560832E-01
        2   -1    0    0  501    0  0.00000000000E+00  0.00000000000E+00  0.54018227025E+03  0.54018227025E+03  0.25500000920E-02 0.  1.
       -2   -1    0    0    0  501  0.00000000000E+00  0.00000000000E+00 -0.29577992060E+03  0.29577992061E+03  0.25500000920E-02 0. -1.
    10030    2    1    2    0    0  0.00000000000E+00  0.00000000000E+00  0.24440234964E+03  0.83596219086E+03  0.79943747475E+03 0.  0.
        5    1    3    3  502    0 -0.30156820225E+03 -0.21348958474E+03 -0.37182384803E+02  0.37138363338E+03  0.46999998093E+01 0. -1.
       -5    1    3    3    0  502  0.30156820225E+03  0.21348958474E+03  0.28158473445E+03  0.46457855749E+03  0.46999998093E+01 0.  1.
</event>
<event>
 5   0  0.2768834E-03  0.8015424E+03  0.7818609E-02  0.9557787E-01
        2   -1    0    0  501    0  0.00000000000E+00  0.00000000000E+00  0.11638231286E+04  0.11638231286E+04  0.25500000920E-02 0. -1.
       -2   -1    0    0    0  501  0.00000000000E+00  0.00000000000E+00 -0.13800856623E+03  0.13800856625E+03  0.25500000920E-02 0.  1.
    10030    2    1    2    0    0  0.00000000000E+00  0.00000000000E+00  0.10258145624E+04  0.13018316948E+04  0.80154241643E+03 0.  0.
        4    1    3    3  502    0 -0.22626660994E+03 -0.80098552030E+02  0.10341674202E+04  0.10616573000E+04  0.12699999809E+01 0. -1.
       -4    1    3    3    0  502  0.22626660994E+03  0.80098552030E+02 -0.83528577920E+01  0.24017439485E+03  0.12699999809E+01 0.  1.
</event>
<event>
 5   0  0.2690809E-03  0.8022273E+03  0.7818609E-02  0.9556799E-01
        2   -1    0    0  501    0  0.00000000000E+00  0.00000000000E+00  0.26556714762E+04  0.26556714762E+04  0.25500000920E-02 0.  1.
       -2   -1    0    0    0  501  0.00000000000E+00  0.00000000000E+00 -0.60584354903E+02  0.60584354957E+02  0.25500000920E-02 0. -1.
    10030    2    1    2    0    0  0.00000000000E+00  0.00000000000E+00  0.25950871213E+04  0.27162558311E+04  0.80222725781E+03 0.  0.
        5    1    3    3  502    0 -0.48309946440E+02 -0.35024180287E+03  0.65630435299E+03  0.74549357151E+03  0.46999998093E+01 0. -1.
       -5    1    3    3    0  502  0.48309946440E+02  0.35024180287E+03  0.19387827683E+04  0.19707622596E+04  0.46999998093E+01 0.  1.
</event>
<event>
 5   0  0.2690809E-03  0.7995800E+03  0.7818609E-02  0.9560625E-01
        2   -1    0    0  501    0  0.00000000000E+00  0.00000000000E+00  0.16385965450E+04  0.16385965450E+04  0.25500000920E-02 0. -1.
       -2   -1    0    0    0  501  0.00000000000E+00  0.00000000000E+00 -0.97542039593E+02  0.97542039626E+02  0.25500000920E-02 0.  1.
    10030    2    1    2    0    0  0.00000000000E+00  0.00000000000E+00  0.15410545054E+04  0.17361385846E+04  0.79958001250E+03 0.  0.
        5    1    3    3  502    0 -0.17746891275E+03  0.26510240698E+03  0.12936085203E+04  0.13323736695E+04  0.46999998093E+01 0. -1.
       -5    1    3    3    0  502  0.17746891275E+03 -0.26510240698E+03  0.24744598502E+03  0.40376491512E+03  0.46999998093E+01 0.  1.
</event>
<event>
 5   0  0.1712793E-03  0.8002276E+03  0.7818609E-02  0.9559688E-01
       -1   -1    0    0    0  501  0.00000000000E+00  0.00000000000E+00  0.26333484965E+03  0.26333484969E+03  0.50400001928E-02 0.  1.
        1   -1    0    0  501    0  0.00000000000E+00  0.00000000000E+00 -0.60793726339E+03  0.60793726341E+03  0.50400001928E-02 0. -1.
    10030    2    1    2    0    0  0.00000000000E+00  0.00000000000E+00 -0.34460241375E+03  0.87127211311E+03  0.80022763731E+03 0.  0.
        4    1    3    3  502    0 -0.11732665987E+03 -0.30852729819E+03 -0.41850719794E+03  0.53301456497E+03  0.12699999809E+01 0.  1.
       -4    1    3    3    0  502  0.11732665987E+03  0.30852729819E+03  0.73904784188E+02  0.33825754814E+03  0.12699999809E+01 0. -1.
</event>
<event>
 5   0  0.1656051E-03  0.7988459E+03  0.7818609E-02  0.9561689E-01
       -1   -1    0    0    0  501  0.00000000000E+00  0.00000000000E+00  0.30791884651E+03  0.30791884655E+03  0.50400001928E-02 0.  1.
        1   -1    0    0  501    0  0.00000000000E+00  0.00000000000E+00 -0.51811923109E+03  0.51811923111E+03  0.50400001928E-02 0. -1.
    10030    2    1    2    0    0  0.00000000000E+00  0.00000000000E+00 -0.21020038457E+03  0.82603807766E+03  0.79884585752E+03 0.  0.
        3    1    3    3  502    0  0.95540045287E+02  0.32723173325E+03 -0.32034476900E+03  0.46779192888E+03  0.10100000352E+00 0. -1.
       -3    1    3    3    0  502 -0.95540045287E+02 -0.32723173325E+03  0.11014438443E+03  0.35824614878E+03  0.10100000352E+00 0.  1.
</event>
<event>
 5   0  0.1640035E-03  0.8006665E+03  0.7818609E-02  0.9559053E-01
        1   -1    0    0  501    0  0.00000000000E+00  0.00000000000E+00  0.84699286276E+03  0.84699286278E+03  0.50400001928E-02 0. -1.
       -1   -1    0    0    0  501  0.00000000000E+00  0.00000000000E+00 -0.18921847164E+03  0.18921847170E+03  0.50400001928E-02 0.  1.
    10030    2    1    2    0    0  0.00000000000E+00  0.00000000000E+00  0.65777439113E+03  0.10362113345E+04  0.80066645995E+03 0.  0.
        5    1    3    3  502    0 -0.11358297548E+03  0.35790936169E+02  0.82350084746E+03  0.83208041630E+03  0.46999998093E+01 0. -1.
       -5    1    3    3    0  502  0.11358297548E+03 -0.35790936169E+02 -0.16572645633E+03  0.20413091818E+03  0.46999998093E+01 0.  1.
</event>
<event>
 5   0  0.2910501E-03  0.8012186E+03  0.7818609E-02  0.9558255E-01
       -2   -1    0    0    0  501  0.00000000000E+00  0.00000000000E+00  0.10585573130E+03  0.10585573133E+03  0.25500000920E-02 0.  1.
        2   -1    0    0  501    0  0.00000000000E+00  0.00000000000E+00 -0.15160994342E+04  0.15160994342E+04  0.25500000920E-02 0. -1.
    10030    2    1    2    0    0  0.00000000000E+00  0.00000000000E+00 -0.14102437029E+04  0.16219551655E+04  0.80121860777E+03 0.  0.
        1    1    3    3  502    0 -0.26550867386E+03  0.15702835690E+03 -0.12225629782E+04  0.12608778674E+04  0.50400001928E-02 0. -1.
       -1    1    3    3    0  502  0.26550867386E+03 -0.15702835690E+03 -0.18768072463E+03  0.36107729808E+03  0.50400001928E-02 0.  1.
</event>
<event>
 5   0  0.2690809E-03  0.7999452E+03  0.7818609E-02  0.9560096E-01
        2   -1    0    0  501    0  0.00000000000E+00  0.00000000000E+00  0.16722338791E+04  0.16722338791E+04  0.25500000920E-02 0. -1.
       -2   -1    0    0    0  501  0.00000000000E+00  0.00000000000E+00 -0.95667299019E+02  0.95667299053E+02  0.25500000920E-02 0.  1.
    10030    2    1    2    0    0  0.00000000000E+00  0.00000000000E+00  0.15765665801E+04  0.17679011782E+04  0.79994524457E+03 0.  0.
        5    1    3    3  502    0  0.11677410363E+03 -0.45428939323E+02 -0.51108486981E+02  0.13540364562E+03  0.46999998093E+01 0.  1.
       -5    1    3    3    0  502 -0.11677410363E+03  0.45428939323E+02  0.16276750671E+04  0.16324975326E+04  0.46999998093E+01 0. -1.
</event>
<event>
 5   0  0.1640035E-03  0.7992997E+03  0.7818609E-02  0.9561031E-01
        1   -1    0    0  501    0  0.00000000000E+00  0.00000000000E+00  0.20698300173E+03  0.20698300179E+03  0.50400001928E-02 0. -1.
       -1   -1    0    0    0  501  0.00000000000E+00  0.00000000000E+00 -0.77165752608E+03  0.77165752610E+03  0.50400001928E-02 0.  1.
    10030    2    1    2    0    0  0.00000000000E+00  0.00000000000E+00 -0.56467452436E+03  0.97864052789E+03  0.79929967119E+03 0.  0.
        5    1    3    3  502    0 -0.21131695666E+03 -0.31855914618E+03 -0.42492864794E+03  0.57159533905E+03  0.46999998093E+01 0.  1.
       -5    1    3    3    0  502  0.21131695666E+03  0.31855914618E+03 -0.13974587642E+03  0.40704518884E+03  0.46999998093E+01 0. -1.
</event>
<event>
 5   0  0.1617491E-03  0.8062534E+03  0.7818609E-02  0.9551009E-01
        1   -1    0    0  501    0  0.00000000000E+00  0.00000000000E+00  0.24955003899E+03  0.24955003904E+03  0.50400001928E-02 0.  1.
       -1   -1    0    0    0  501  0.00000000000E+00  0.00000000000E+00 -0.65121670861E+03  0.65121670863E+03  0.50400001928E-02 0. -1.
    10030    2    1    2    0    0  0.00000000000E+00  0.00000000000E+00 -0.40166666961E+03  0.90076674767E+03  0.80625344665E+03 0.  0.
        1    1    3    3  502    0 -0.13508203266E+03  0.22148787920E+03 -0.54556047199E+03  0.60410285946E+03  0.50400001928E-02 0. -1.
       -1    1    3    3    0  502  0.13508203266E+03 -0.22148787920E+03  0.14389380238E+03  0.29666388821E+03  0.50400001928E-02 0.  1.
</event>
<event>
 5   0  0.2768834E-03  0.8006884E+03  0.7818609E-02  0.9559021E-01
       -2   -1    0    0    0  501  0.00000000000E+00  0.00000000000E+00  0.19145775599E+03  0.19145775601E+03  0.25500000920E-02 0.  1.
        2   -1    0    0  501    0  0.00000000000E+00  0.00000000000E+00 -0.83713229906E+03  0.83713229906E+03  0.25500000920E-02 0. -1.
    10030    2    1    2    0    0  0.00000000000E+00  0.00000000000E+00 -0.64567454307E+03  0.10285900551E+04  0.80068838247E+03 0.  0.
        4    1    3    3  502    0  0.93452481247E+02 -0.24071936928E+03 -0.71584796750E+03  0.76099875590E+03  0.12699999809E+01 0. -1.
       -4    1    3    3    0  502 -0.93452481247E+02  0.24071936928E+03  0.70173424430E+02  0.26759129918E+03  0.12699999809E+01 0.  1.
</event>
<event>
 5   0  0.1617491E-03  0.8009004E+03  0.7818609E-02  0.9558715E-01
       -1   -1    0    0    0  501  0.00000000000E+00  0.00000000000E+00  0.71142855050E+02  0.71142855229E+02  0.50400001928E-02 0. -1.
        1   -1    0    0  501    0  0.00000000000E+00  0.00000000000E+00 -0.22540612306E+04  0.22540612306E+04  0.50400001928E-02 0.  1.
    10030    2    1    2    0    0  0.00000000000E+00  0.00000000000E+00 -0.21829183755E+04  0.23252040858E+04  0.80090037237E+03 0.  0.
        1    1    3    3  502    0  0.33450485066E+03 -0.21788093566E+03 -0.99989186724E+03  0.10766379816E+04  0.50400001928E-02 0.  1.
       -1    1    3    3    0  502 -0.33450485066E+03  0.21788093566E+03 -0.11830265083E+04  0.12485661042E+04  0.50400001928E-02 0. -1.
</event>
<event>
 5   0  0.2768834E-03  0.7940836E+03  0.7818609E-02  0.9568621E-01
        2   -1    0    0  501    0  0.00000000000E+00  0.00000000000E+00  0.64996553226E+03  0.64996553227E+03  0.25500000920E-02 0.  1.
       -2   -1    0    0    0  501  0.00000000000E+00  0.00000000000E+00 -0.24253932317E+03  0.24253932318E+03  0.25500000920E-02 0. -1.
    10030    2    1    2    0    0  0.00000000000E+00  0.00000000000E+00  0.40742620909E+03  0.89250485545E+03  0.79408362352E+03 0.  0.
        4    1    3    3  502    0  0.16069325002E+03 -0.29497006897E+03 -0.34209827496E+02  0.33764121103E+03  0.12699999809E+01 0. -1.
       -4    1    3    3    0  502 -0.16069325002E+03  0.29497006897E+03  0.44163603659E+03  0.55486364442E+03  0.12699999809E+01 0.  1.
</event>
<event>
 5   0  0.2910501E-03  0.8013682E+03  0.7818609E-02  0.9558039E-01
       -2   -1    0    0    0  501  0.00000000000E+00  0.00000000000E+00  0.91479092050E+02  0.91479092085E+02  0.25500000920E-02 0.  1.
        2   -1    0    0  501    0  0.00000000000E+00  0.00000000000E+00 -0.17550214081E+04  0.17550214081E+04  0.25500000920E-02 0. -1.
    10030    2    1    2    0    0  0.00000000000E+00  0.00000000000E+00 -0.16635423161E+04  0.18465005002E+04  0.80136824239E+03 0.  0.
        1    1    3    3  502    0 -0.12799921321E+03 -0.76479115080E+02 -0.16887138970E+04  0.16952838935E+04  0.50400001928E-02 0. -1.
       -1    1    3    3    0  502  0.12799921321E+03  0.76479115080E+02  0.25171580945E+02  0.15121660669E+03  0.50400001928E-02 0.  1.
</event>
<event>
 5   0  0.1095350E-03  0.8002774E+03  0.7818609E-02  0.9559616E-01
        4   -1    0    0  501    0  0.00000000000E+00  0.00000000000E+00  0.70127138880E+03  0.70127253879E+03  0.12699999809E+01 0. -1.
       -4   -1    0    0    0  501  0.00000000000E+00  0.00000000000E+00 -0.22831218858E+03  0.22831572077E+03  0.12699999809E+01 0.  1.
    10030    2    1    2    0    0  0.00000000000E+00  0.00000000000E+00  0.47295920023E+03  0.92958825956E+03  0.80027740642E+03 0.  0.
        4    1    3    3  502    0  0.14313541529E+03 -0.78566432861E+02 -0.18785420729E+03  0.24890007549E+03  0.12699999809E+01 0.  1.
       -4    1    3    3    0  502 -0.14313541529E+03  0.78566432861E+02  0.66081340751E+03  0.68068818407E+03  0.12699999809E+01 0. -1.
</event>
<event>
 5   0  0.1617491E-03  0.7997544E+03  0.7818609E-02  0.9560373E-01
        1   -1    0    0  501    0  0.00000000000E+00  0.00000000000E+00  0.35036200208E+03  0.35036200212E+03  0.50400001928E-02 0.  1.
       -1   -1    0    0    0  501  0.00000000000E+00  0.00000000000E+00 -0.45639022270E+03  0.45639022273E+03  0.50400001928E-02 0. -1.
    10030    2    1    2    0    0  0.00000000000E+00  0.00000000000E+00 -0.10602822062E+03  0.80675222485E+03  0.79975444277E+03 0.  0.
        1    1    3    3  502    0 -0.12058744660E+03  0.30970758315E+02  0.33031254510E+03  0.35299702212E+03  0.50400001928E-02 0.  1.
       -1    1    3    3    0  502  0.12058744660E+03 -0.30970758315E+02 -0.43634076572E+03  0.45375520273E+03  0.50400001928E-02 0. -1.
</event>
<event>
 5   0  0.1640035E-03  0.8008308E+03  0.7818609E-02  0.9558815E-01
        1   -1    0    0  501    0  0.00000000000E+00  0.00000000000E+00  0.90915736576E+03  0.90915736578E+03  0.50400001928E-02 0. -1.
       -1   -1    0    0    0  501  0.00000000000E+00  0.00000000000E+00 -0.17635284903E+03  0.17635284910E+03  0.50400001928E-02 0.  1.
    10030    2    1    2    0    0  0.00000000000E+00  0.00000000000E+00  0.73280451674E+03  0.10855102149E+04  0.80083079789E+03 0.  0.
        5    1    3    3  502    0 -0.35094608318E+03  0.19259746095E+03  0.35649088545E+03  0.53606415350E+03  0.46999998093E+01 0. -1.
       -5    1    3    3    0  502  0.35094608318E+03 -0.19259746095E+03  0.37631363129E+03  0.54944606137E+03  0.46999998093E+01 0.  1.
</event>
<event>
 5   0  0.2768834E-03  0.8009629E+03  0.7818609E-02  0.9558624E-01
        2   -1    0    0  501    0  0.00000000000E+00  0.00000000000E+00  0.70958422856E+03  0.70958422857E+03  0.25500000920E-02 0.  1.
       -2   -1    0    0    0  501  0.00000000000E+00  0.00000000000E+00 -0.22602728550E+03  0.22602728551E+03  0.25500000920E-02 0. -1.
    10030    2    1    2    0    0  0.00000000000E+00  0.00000000000E+00  0.48355694307E+03  0.93561151408E+03  0.80096291306E+03 0.  0.
        4    1    3    3  502    0 -0.30674773220E+03  0.11382489851E+03 -0.27985045365E+02  0.32838248187E+03  0.12699999809E+01 0. -1.
       -4    1    3    3    0  502  0.30674773220E+03 -0.11382489851E+03  0.51154198843E+03  0.60722903221E+03  0.12699999809E+01 0.  1.
</event>
<event>
 5   0  0.1095350E-03  0.7993588E+03  0.7818609E-02  0.9560946E-01
        3   -1    0    0  501    0  0.00000000000E+00  0.00000000000E+00  0.30573953868E+03  0.30573955536E+03  0.10100000352E+00 0. -1.
       -3   -1    0    0    0  501  0.00000000000E+00  0.00000000000E+00 -0.52248272468E+03  0.52248273444E+03  0.10100000352E+00 0.  1.
    10030    2    1    2    0    0  0.00000000000E+00  0.00000000000E+00 -0.21674318600E+03  0.82822228981E+03  0.79935883848E+03 0.  0.
        5    1    3    3  502    0  0.92413229760E+02 -0.48407759424E+02 -0.50809731215E+03  0.51871811692E+03  0.46999998093E+01 0.  1.
       -5    1    3    3    0  502 -0.92413229760E+02  0.48407759424E+02  0.29135412616E+03  0.30950417288E+03  0.46999998093E+01 0. -1.
</event>
<event>
 5   0  0.1712793E-03  0.8014223E+03  0.7818609E-02  0.9557961E-01
        1   -1    0    0  501    0  0.00000000000E+00  0.00000000000E+00  0.13214903850E+04  0.13214903851E+04  0.50400001928E-02 0. -1.
       -1   -1    0    0    0  501  0.00000000000E+00  0.00000000000E+00 -0.12150631444E+03  0.12150631454E+03  0.50400001928E-02 0.  1.
    10030    2    1    2    0    0  0.00000000000E+00  0.00000000000E+00  0.11999840706E+04  0.14429966996E+04  0.80142230149E+03 0.  0.
        4    1    3    3  502    0  0.23826793920E+03 -0.36035750817E+02  0.23543128157E+02  0.24212822630E+03  0.12699999809E+01 0.  1.
       -4    1    3    3    0  502 -0.23826793920E+03  0.36035750817E+02  0.11764409424E+04  0.12008684733E+04  0.12699999809E+01 0. -1.
</event>
<event>
 5   0  0.2768834E-03  0.7988734E+03  0.7818609E-02  0.9561649E-01
       -2   -1    0    0    0  501  0.00000000000E+00  0.00000000000E+00  0.62246396784E+03  0.62246396785E+03  0.25500000920E-02 0. -1.
        2   -1    0    0  501    0  0.00000000000E+00  0.00000000000E+00 -0.25631954697E+03  0.25631954698E+03  0.25500000920E-02 0.  1.
    10030    2    1    2    0    0  0.00000000000E+00  0.00000000000E+00  0.36614442088E+03  0.87878351483E+03  0.79887341237E+03 0.  0.
        4    1    3    3  502    0 -0.14554315264E+03 -0.12762348342E+02  0.59201419376E+03  0.60977709479E+03  0.12699999809E+01 0. -1.
       -4    1    3    3    0  502  0.14554315264E+03  0.12762348342E+02 -0.22586977288E+03  0.26900642003E+03  0.12699999809E+01 0.  1.
</event>
<event>
 5   0  0.1637228E-03  0.7998736E+03  0.7818609E-02  0.9560200E-01
        1   -1    0    0  501    0  0.00000000000E+00  0.00000000000E+00  0.25849754042E+03  0.25849754047E+03  0.50400001928E-02 0.  1.
       -1   -1    0    0    0  501  0.00000000000E+00  0.00000000000E+00 -0.61876584766E+03  0.61876584768E+03  0.50400001928E-02 0. -1.
    10030    2    1    2    0    0  0.00000000000E+00  0.00000000000E+00 -0.36026830724E+03  0.87726338815E+03  0.79987361438E+03 0.  0.
        2    1    3    3  502    0  0.19300544627E+03  0.14954199584E+03  0.16727081689E+03  0.29596188436E+03  0.25500000920E-02 0.  1.
       -2    1    3    3    0  502 -0.19300544627E+03 -0.14954199584E+03 -0.52753912413E+03  0.58130150378E+03  0.25500000920E-02 0. -1.
</event>
<event>
 5   0  0.2910501E-03  0.7992096E+03  0.7818609E-02  0.9561162E-01
        2   -1    0    0  501    0  0.00000000000E+00  0.00000000000E+00  0.23643486434E+04  0.23643486434E+04  0.25500000920E-02 0. -1.
       -2   -1    0    0    0  501  0.00000000000E+00  0.00000000000E+00 -0.67538268332E+02  0.67538268380E+02  0.25500000920E-02 0.  1.
    10030    2    1    2    0    0  0.00000000000E+00  0.00000000000E+00  0.22968103751E+04  0.24318869118E+04  0.79920964250E+03 0.  0.
        1    1    3    3  502    0  0.33689242555E+03 -0.68332972376E+02  0.52839124396E+03  0.63036751838E+03  0.50400001928E-02 0.  1.
       -1    1    3    3    0  502 -0.33689242555E+03  0.68332972376E+02  0.17684191311E+04  0.18015193934E+04  0.50400001928E-02 0. -1.
</event>
<event>
 5   0  0.1617491E-03  0.8003963E+03  0.7818609E-02  0.9559444E-01
       -1   -1    0    0    0  501  0.00000000000E+00  0.00000000000E+00  0.46562103096E+03  0.46562103099E+03  0.50400001928E-02 0.  1.
        1   -1    0    0  501    0  0.00000000000E+00  0.00000000000E+00 -0.34396765636E+03  0.34396765640E+03  0.50400001928E-02 0. -1.
    10030    2    1    2    0    0  0.00000000000E+00  0.00000000000E+00  0.12165337460E+03  0.80958868739E+03  0.80039633882E+03 0.  0.
        1    1    3    3  502    0 -0.16864903591E+03  0.20027992613E+03  0.36696425303E+03  0.45079630561E+03  0.50400001928E-02 0.  1.
       -1    1    3    3    0  502  0.16864903591E+03 -0.20027992613E+03 -0.24531087843E+03  0.35879238178E+03  0.50400001928E-02 0. -1.
</event>
<event>
 5   0  0.1617491E-03  0.7959422E+03  0.7818609E-02  0.9565909E-01
       -1   -1    0    0    0  501  0.00000000000E+00  0.00000000000E+00  0.61299574496E+03  0.61299574498E+03  0.50400001928E-02 0.  1.
        1   -1    0    0  501    0  0.00000000000E+00  0.00000000000E+00 -0.25837210609E+03  0.25837210614E+03  0.50400001928E-02 0. -1.
    10030    2    1    2    0    0  0.00000000000E+00  0.00000000000E+00  0.35462363887E+03  0.87136785112E+03  0.79594221318E+03 0.  0.
        1    1    3    3  502    0 -0.28667692100E+03  0.11123593365E+03  0.45388604399E+03  0.54824231040E+03  0.50400001928E-02 0.  1.
       -1    1    3    3    0  502  0.28667692100E+03 -0.11123593365E+03 -0.99262405119E+02  0.32312554072E+03  0.50400001928E-02 0. -1.
</event>
<event>
 5   0  0.1656051E-03  0.8003371E+03  0.7818609E-02  0.9559529E-01
       -1   -1    0    0    0  501  0.00000000000E+00  0.00000000000E+00  0.49710111879E+03  0.49710111881E+03  0.50400001928E-02 0. -1.
        1   -1    0    0  501    0  0.00000000000E+00  0.00000000000E+00 -0.32213742604E+03  0.32213742608E+03  0.50400001928E-02 0.  1.
    10030    2    1    2    0    0  0.00000000000E+00  0.00000000000E+00  0.17496369274E+03  0.81923854489E+03  0.80033711626E+03 0.  0.
        3    1    3    3  502    0 -0.66555935682E+02 -0.39447244920E+03  0.97545565117E+02  0.41176856755E+03  0.10100000352E+00 0. -1.
       -3    1    3    3    0  502  0.66555935682E+02  0.39447244920E+03  0.77418127624E+02  0.40746997734E+03  0.10100000352E+00 0.  1.
</event>
<event>
 5   0  0.2763587E-03  0.7996415E+03  0.7818609E-02  0.9560536E-01
       -2   -1    0    0    0  501  0.00000000000E+00  0.00000000000E+00  0.14733891215E+03  0.14733891217E+03  0.25500000920E-02 0.  1.
        2   -1    0    0  501    0  0.00000000000E+00  0.00000000000E+00 -0.10849587435E+04  0.10849587435E+04  0.25500000920E-02 0. -1.
    10030    2    1    2    0    0  0.00000000000E+00  0.00000000000E+00 -0.93761983133E+03  0.12322976557E+04  0.79964152220E+03 0.  0.
        3    1    3    3  502    0 -0.15622395412E+03  0.35691742137E+03 -0.60716834436E+03  0.72142177546E+03  0.10100000352E+00 0. -1.
       -3    1    3    3    0  502  0.15622395412E+03 -0.35691742137E+03 -0.33045148697E+03  0.51087588019E+03  0.10100000352E+00 0.  1.
</event>
<event>
 5   0  0.2873212E-03  0.8039267E+03  0.7818609E-02  0.9554351E-01
        2   -1    0    0  501    0  0.00000000000E+00  0.00000000000E+00  0.69431408515E+03  0.69431408516E+03  0.25500000920E-02 0. -1.
       -2   -1    0    0    0  501  0.00000000000E+00  0.00000000000E+00 -0.23271101553E+03  0.23271101554E+03  0.25500000920E-02 0.  1.
    10030    2    1    2    0    0  0.00000000000E+00  0.00000000000E+00  0.46160306962E+03  0.92702510070E+03  0.80392670278E+03 0.  0.
        2    1    3    3  502    0 -0.93941850691E+02  0.34107558169E+03  0.10748887139E+02  0.35393948963E+03  0.25500000920E-02 0.  1.
       -2    1    3    3    0  502  0.93941850691E+02 -0.34107558169E+03  0.45085418249E+03  0.57308561107E+03  0.25500000920E-02 0. -1.
</event>
<event>
 5   0  0.1637228E-03  0.8037522E+03  0.7818609E-02  0.9554602E-01
        1   -1    0    0  501    0  0.00000000000E+00  0.00000000000E+00  0.60714980629E+03  0.60714980631E+03  0.50400001928E-02 0.  1.
       -1   -1    0    0    0  501  0.00000000000E+00  0.00000000000E+00 -0.26600420712E+03  0.26600420717E+03  0.50400001928E-02 0. -1.
    10030    2    1    2    0    0  0.00000000000E+00  0.00000000000E+00  0.34114559917E+03  0.87315401348E+03  0.80375220773E+03 0.  0.
        2    1    3    3  502    0 -0.14821822289E+03 -0.37308192033E+03  0.15037602982E+03  0.42868602873E+03  0.25500000920E-02 0.  1.
       -2    1    3    3    0  502  0.14821822289E+03  0.37308192033E+03  0.19076956936E+03  0.44446798476E+03  0.25500000920E-02 0. -1.
</event>
<event>
 5   0  0.2910501E-03  0.8004045E+03  0.7818609E-02  0.9559432E-01
       -2   -1    0    0    0  501  0.00000000000E+00  0.00000000000E+00  0.73388711859E+02  0.73388711903E+02  0.25500000920E-02 0. -1.
        2   -1    0    0  501    0  0.00000000000E+00  0.00000000000E+00 -0.21823772173E+04  0.21823772173E+04  0.25500000920E-02 0.  1.
    10030    2    1    2    0    0  0.00000000000E+00  0.00000000000E+00 -0.21089885054E+04  0.22557659292E+04  0.80040452977E+03 0.  0.
        1    1    3    3  502    0  0.10388290177E+03 -0.13055025393E+03 -0.29294615052E+02  0.16939067441E+03  0.50400001928E-02 0. -1.
       -1    1    3    3    0  502 -0.10388290177E+03  0.13055025393E+03 -0.20796938904E+04  0.20863752548E+04  0.50400001928E-02 0.  1.
</event>
<event>
 5   0  0.2690809E-03  0.7968343E+03  0.7818609E-02  0.9564611E-01
       -2   -1    0    0    0  501  0.00000000000E+00  0.00000000000E+00  0.17185402705E+03  0.17185402707E+03  0.25500000920E-02 0. -1.
        2   -1    0    0  501    0  0.00000000000E+00  0.00000000000E+00 -0.92366904634E+03  0.92366904634E+03  0.25500000920E-02 0.  1.
    10030    2    1    2    0    0  0.00000000000E+00  0.00000000000E+00 -0.75181501929E+03  0.10955230734E+04  0.79683434987E+03 0.  0.
        5    1    3    3  502    0 -0.37063961791E+03 -0.93636878969E+02 -0.53006527490E+03  0.65355403535E+03  0.46999998093E+01 0.  1.
       -5    1    3    3    0  502  0.37063961791E+03  0.93636878969E+02 -0.22174974439E+03  0.44196903806E+03  0.46999998093E+01 0. -1.
</event>
<event>
 5   0  0.1712793E-03  0.8039593E+03  0.7818609E-02  0.9554304E-01
        1   -1    0    0  501    0  0.00000000000E+00  0.00000000000E+00  0.29248872380E+03  0.29248872384E+03  0.50400001928E-02 0.  1.
       -1   -1    0    0    0  501  0.00000000000E+00  0.00000000000E+00 -0.55245767068E+03  0.55245767071E+03  0.50400001928E-02 0. -1.
    10030    2    1    2    0    0  0.00000000000E+00  0.00000000000E+00 -0.25996894689E+03  0.84494639455E+03  0.80395930016E+03 0.  0.
        4    1    3    3  502    0  0.22322493739E+03 -0.18220325921E+03 -0.42455685958E+03  0.51310577882E+03  0.12699999809E+01 0. -1.
       -4    1    3    3    0  502 -0.22322493739E+03  0.18220325921E+03  0.16458791269E+03  0.33184061573E+03  0.12699999809E+01 0.  1.
</event>
<event>
 5   0  0.2910501E-03  0.8022601E+03  0.7818609E-02  0.9556751E-01
       -2   -1    0    0    0  501  0.00000000000E+00  0.00000000000E+00  0.13160424324E+03  0.13160424326E+03  0.25500000920E-02 0.  1.
        2   -1    0    0  501    0  0.00000000000E+00  0.00000000000E+00 -0.12226452721E+04  0.12226452721E+04  0.25500000920E-02 0. -1.
    10030    2    1    2    0    0  0.00000000000E+00  0.00000000000E+00 -0.10910410289E+04  0.13542495154E+04  0.80226007207E+03 0.  0.
        1    1    3    3  502    0 -0.49912930751E+02 -0.40247449389E+02 -0.12139389742E+04  0.12156311081E+04  0.50400001928E-02 0. -1.
       -1    1    3    3    0  502  0.49912930751E+02  0.40247449389E+02  0.12289794535E+03  0.13861840727E+03  0.50400001928E-02 0.  1.
</event>
<event>
 5   0  0.1617491E-03  0.7983529E+03  0.7818609E-02  0.9562404E-01
       -1   -1    0    0    0  501  0.00000000000E+00  0.00000000000E+00  0.22634198568E+03  0.22634198573E+03  0.50400001928E-02 0.  1.
        1   -1    0    0  501    0  0.00000000000E+00  0.00000000000E+00 -0.70398705743E+03  0.70398705745E+03  0.50400001928E-02 0. -1.
    10030    2    1    2    0    0  0.00000000000E+00  0.00000000000E+00 -0.47764507175E+03  0.93032904318E+03  0.79835287563E+03 0.  0.
        1    1    3    3  502    0  0.41793993890E+02 -0.35188458055E+03 -0.45297457473E+03  0.57511343344E+03  0.50400001928E-02 0. -1.
       -1    1    3    3    0  502 -0.41793993890E+02  0.35188458055E+03 -0.24670497025E+02  0.35521560974E+03  0.50400001928E-02 0.  1.
</event>
<event>
 5   0  0.2910501E-03  0.8001450E+03  0.7818609E-02  0.9559807E-01
        2   -1    0    0  501    0  0.00000000000E+00  0.00000000000E+00  0.73598112393E+03  0.73598112393E+03  0.25500000920E-02 0.  1.
       -2   -1    0    0    0  501  0.00000000000E+00  0.00000000000E+00 -0.21747571440E+03  0.21747571441E+03  0.25500000920E-02 0. -1.
    10030    2    1    2    0    0  0.00000000000E+00  0.00000000000E+00  0.51850540953E+03  0.95345683835E+03  0.80014503865E+03 0.  0.
        1    1    3    3  502    0 -0.55118779633E+02 -0.38479811603E+03  0.37198603800E+03  0.53803464801E+03  0.50400001928E-02 0.  1.
       -1    1    3    3    0  502  0.55118779633E+02  0.38479811603E+03  0.14651937153E+03  0.41542219034E+03  0.50400001928E-02 0. -1.
</event>
<event>
 5   0  0.1712793E-03  0.7988735E+03  0.7818609E-02  0.9561649E-01
        1   -1    0    0  501    0  0.00000000000E+00  0.00000000000E+00  0.19492562345E+03  0.19492562351E+03  0.50400001928E-02 0.  1.
       -1   -1    0    0    0  501  0.00000000000E+00  0.00000000000E+00 -0.81851597402E+03  0.81851597403E+03  0.50400001928E-02 0. -1.
    10030    2    1    2    0    0  0.00000000000E+00  0.00000000000E+00 -0.62359035057E+03  0.10134415975E+04  0.79887354838E+03 0.  0.
        4    1    3    3  502    0 -0.28850586856E+03  0.13188141036E+03 -0.61972464009E+03  0.69619579504E+03  0.12699999809E+01 0. -1.
       -4    1    3    3    0  502  0.28850586856E+03 -0.13188141036E+03 -0.38657104787E+01  0.31724580251E+03  0.12699999809E+01 0.  1.
</event>
<event>
 5   0  0.2873212E-03  0.7989276E+03  0.7818609E-02  0.9561571E-01
        2   -1    0    0  501    0  0.00000000000E+00  0.00000000000E+00  0.30892759675E+03  0.30892759676E+03  0.25500000920E-02 0.  1.
       -2   -1    0    0    0  501  0.00000000000E+00  0.00000000000E+00 -0.51653314041E+03  0.51653314042E+03  0.25500000920E-02 0. -1.
    10030    2    1    2    0    0  0.00000000000E+00  0.00000000000E+00 -0.20760554366E+03  0.82546073718E+03  0.79892763556E+03 0.  0.
        2    1    3    3  502    0  0.40127322666E+02  0.29414339451E+03  0.17235809749E+03  0.34327518456E+03  0.25500000920E-02 0.  1.
       -2    1    3    3    0  502 -0.40127322666E+02 -0.29414339451E+03 -0.37996364115E+03  0.48218555262E+03  0.25500000920E-02 0. -1.
</event>
<event>
 5   0  0.2873212E-03  0.8035756E+03  0.7818609E-02  0.9554856E-01
       -2   -1    0    0    0  501  0.00000000000E+00  0.00000000000E+00  0.28297621687E+03  0.28297621688E+03  0.25500000920E-02 0. -1.
        2   -1    0    0  501    0  0.00000000000E+00  0.00000000000E+00 -0.57048411729E+03  0.57048411730E+03  0.25500000920E-02 0.  1.
    10030    2    1    2    0    0  0.00000000000E+00  0.00000000000E+00 -0.28750790042E+03  0.85346033418E+03  0.80357560267E+03 0.  0.
        2    1    3    3  502    0 -0.28060824379E+02 -0.16502172582E+03 -0.53168725787E+03  0.55741449572E+03  0.25500000920E-02 0.  1.
       -2    1    3    3    0  502  0.28060824379E+02  0.16502172582E+03  0.24417935745E+03  0.29604583845E+03  0.25500000920E-02 0. -1.
</event>
<event>
 5   0  0.1712793E-03  0.7996240E+03  0.7818609E-02  0.9560562E-01
       -1   -1    0    0    0  501  0.00000000000E+00  0.00000000000E+00  0.94374988496E+03  0.94374988497E+03  0.50400001928E-02 0.  1.
        1   -1    0    0  501    0  0.00000000000E+00  0.00000000000E+00 -0.16937711845E+03  0.16937711853E+03  0.50400001928E-02 0. -1.
    10030    2    1    2    0    0  0.00000000000E+00  0.00000000000E+00  0.77437276651E+03  0.11131270035E+04  0.79962400189E+03 0.  0.
        4    1    3    3  502    0  0.93289883554E+02  0.35457895866E+03  0.60912673645E+03  0.71096148577E+03  0.12699999809E+01 0.  1.
       -4    1    3    3    0  502 -0.93289883554E+02 -0.35457895866E+03  0.16524603006E+03  0.40216551772E+03  0.12699999809E+01 0. -1.
</event>
<event>
 5   0  0.1640035E-03  0.7999809E+03  0.7818609E-02  0.9560045E-01
       -1   -1    0    0    0  501  0.00000000000E+00  0.00000000000E+00  0.17435492999E+03  0.17435493006E+03  0.50400001928E-02 0. -1.
        1   -1    0    0  501    0  0.00000000000E+00  0.00000000000E+00 -0.91762450221E+03  0.91762450222E+03  0.50400001928E-02 0.  1.
    10030    2    1    2    0    0  0.00000000000E+00  0.00000000000E+00 -0.74326957222E+03  0.10919794323E+04  0.79998088949E+03 0.  0.
        5    1    3    3  502    0 -0.38954257611E+03 -0.57436922459E+01 -0.24807446061E+03  0.46188682230E+03  0.46999998093E+01 0.  1.
       -5    1    3    3    0  502  0.38954257611E+03  0.57436922459E+01 -0.49519511161E+03  0.63009260999E+03  0.46999998093E+01 0. -1.
</event>
<event>
 5   0  0.1095350E-03  0.7983393E+03  0.7818609E-02  0.9562424E-01
        4   -1    0    0  501    0  0.00000000000E+00  0.00000000000E+00  0.61390222845E+03  0.61390354209E+03  0.12699999809E+01 0. -1.
       -4   -1    0    0    0  501  0.00000000000E+00  0.00000000000E+00 -0.25954373059E+03  0.25954683776E+03  0.12699999809E+01 0.  1.
    10030    2    1    2    0    0  0.00000000000E+00  0.00000000000E+00  0.35435849786E+03  0.87345037985E+03  0.79833928943E+03 0.  0.
        5    1    3    3  502    0 -0.34413522389E+03  0.18480745631E+03  0.26694395158E+03  0.47314269677E+03  0.46999998093E+01 0. -1.
       -5    1    3    3    0  502  0.34413522389E+03 -0.18480745631E+03  0.87414546281E+02  0.40030768307E+03  0.46999998093E+01 0.  1.
</event>
<event>
 5   0  0.2763587E-03  0.8014156E+03  0.7818609E-02  0.9557970E-01
       -2   -1    0    0    0  501  0.00000000000E+00  0.00000000000E+00  0.89907823237E+02  0.89907823273E+02  0.25500000920E-02 0. -1.
        2   -1    0    0  501    0  0.00000000000E+00  0.00000000000E+00 -0.17859038224E+04  0.17859038224E+04  0.25500000920E-02 0.  1.
    10030    2    1    2    0    0  0.00000000000E+00  0.00000000000E+00 -0.16959959992E+04  0.18758116457E+04  0.80141556067E+03 0.  0.
        3    1    3    3  502    0 -0.23029761671E+03  0.27522662673E+02 -0.83175588610E+02  0.24639942769E+03  0.10100000352E+00 0. -1.
       -3    1    3    3    0  502  0.23029761671E+03 -0.27522662673E+02 -0.16128204106E+04  0.16294122180E+04  0.10100000352E+00 0.  1.
</event>
<event>
 5   0  0.1637228E-03  0.8025433E+03  0.7818609E-02  0.9556343E-01
       -1   -1    0    0    0  501  0.00000000000E+00  0.00000000000E+00  0.12132737676E+03  0.12132737686E+03  0.50400001928E-02 0.  1.
        1   -1    0    0  501    0  0.00000000000E+00  0.00000000000E+00 -0.13271441953E+04  0.13271441953E+04  0.50400001928E-02 0. -1.
    10030    2    1    2    0    0  0.00000000000E+00  0.00000000000E+00 -0.12058168185E+04  0.14484715722E+04  0.80254326705E+03 0.  0.
        2    1    3    3  502    0 -0.15717339018E+03  0.29050112021E+03 -0.19163760090E+03  0.38186299311E+03  0.25500000920E-02 0.  1.
       -2    1    3    3    0  502  0.15717339018E+03 -0.29050112021E+03 -0.10141792176E+04  0.10666085790E+04  0.25500000920E-02 0. -1.
</event>
<event>
 5   0  0.1617491E-03  0.8007195E+03  0.7818609E-02  0.9558976E-01
       -1   -1    0    0    0  501  0.00000000000E+00  0.00000000000E+00  0.30726328968E+03  0.30726328972E+03  0.50400001928E-02 0.  1.
        1   -1    0    0  501    0  0.00000000000E+00  0.00000000000E+00 -0.52166318278E+03  0.52166318281E+03  0.50400001928E-02 0. -1.
    10030    2    1    2    0    0  0.00000000000E+00  0.00000000000E+00 -0.21439989311E+03  0.82892647252E+03  0.80071954059E+03 0.  0.
        1    1    3    3  502    0 -0.22582302820E+03 -0.13698744989E+03  0.20427496659E+03  0.33390097858E+03  0.50400001928E-02 0.  1.
       -1    1    3    3    0  502  0.22582302820E+03  0.13698744989E+03 -0.41867485969E+03  0.49502549395E+03  0.50400001928E-02 0. -1.
</event>
<event>
 5   0  0.2910501E-03  0.7992087E+03  0.7818609E-02  0.9561163E-01
       -2   -1    0    0    0  501  0.00000000000E+00  0.00000000000E+00  0.23048709157E+03  0.23048709158E+03  0.25500000920E-02 0. -1.
        2   -1    0    0  501    0  0.00000000000E+00  0.00000000000E+00 -0.69280944005E+03  0.69280944006E+03  0.25500000920E-02 0.  1.
    10030    2    1    2    0    0  0.00000000000E+00  0.00000000000E+00 -0.46232234849E+03  0.92329653164E+03  0.79920869078E+03 0.  0.
        1    1    3    3  502    0 -0.30195406681E+03 -0.79010108655E+02  0.57110669049E+02  0.31730188194E+03  0.50400001928E-02 0. -1.
       -1    1    3    3    0  502  0.30195406681E+03  0.79010108655E+02 -0.51943301754E+03  0.60599464970E+03  0.50400001928E-02 0.  1.
</event>
<event>
 5   0  0.1640035E-03  0.7999405E+03  0.7818609E-02  0.9560103E-01
        1   -1    0    0  501    0  0.00000000000E+00  0.00000000000E+00  0.15472719848E+04  0.15472719848E+04  0.50400001928E-02 0. -1.
       -1   -1    0    0    0  501  0.00000000000E+00  0.00000000000E+00 -0.10339243434E+03  0.10339243446E+03  0.50400001928E-02 0.  1.
    10030    2    1    2    0    0  0.00000000000E+00  0.00000000000E+00  0.14438795505E+04  0.16506644193E+04  0.79994054079E+03 0.  0.
        5    1    3    3  502    0  0.33239674822E+03  0.21214485802E+03  0.85976270793E+03  0.94588955114E+03  0.46999998093E+01 0. -1.
       -5    1    3    3    0  502 -0.33239674822E+03 -0.21214485802E+03  0.58411684253E+03  0.70477486812E+03  0.46999998093E+01 0.  1.
</event>
<event>
 5   0  0.1640035E-03  0.8048850E+03  0.7818609E-02  0.9552973E-01
       -1   -1    0    0    0  501  0.00000000000E+00  0.00000000000E+00  0.10778329412E+03  0.10778329423E+03  0.50400001928E-02 0.  1.
        1   -1    0    0  501    0  0.00000000000E+00  0.00000000000E+00 -0.15026444337E+04  0.15026444337E+04  0.50400001928E-02 0. -1.
    10030    2    1    2    0    0  0.00000000000E+00  0.00000000000E+00 -0.13948611396E+04  0.16104277279E+04  0.80488500310E+03 0.  0.
        5    1    3    3  502    0 -0.19345407601E+02  0.36821737841E+02  0.10341581849E+03  0.11156615386E+03  0.46999998093E+01 0.  1.
       -5    1    3    3    0  502  0.19345407601E+02 -0.36821737841E+02 -0.14982769581E+04  0.14988615741E+04  0.46999998093E+01 0. -1.
</event>
<event>
 5   0  0.2873212E-03  0.8019595E+03  0.7818609E-02  0.9557185E-01
       -2   -1    0    0    0  501  0.00000000000E+00  0.00000000000E+00  0.75190089371E+02  0.75190089414E+02  0.25500000920E-02 0.  1.
        2   -1    0    0  501    0  0.00000000000E+00  0.00000000000E+00 -0.21383767806E+04  0.21383767806E+04  0.25500000920E-02 0. -1.
    10030    2    1    2    0    0  0.00000000000E+00  0.00000000000E+00 -0.20631866912E+04  0.22135668700E+04  0.80195945356E+03 0.  0.
        2    1    3    3  502    0 -0.76054687990E+02  0.14346889100E+03 -0.19623665838E+02  0.16356260734E+03  0.25500000920E-02 0.  1.
       -2    1    3    3    0  502  0.76054687990E+02 -0.14346889100E+03 -0.20435630254E+04  0.20500042627E+04  0.25500000920E-02 0. -1.
</event>
<event>
 5   0  0.2873212E-03  0.7985022E+03  0.7818609E-02  0.9562188E-01
       -2   -1    0    0    0  501  0.00000000000E+00  0.00000000000E+00  0.35391712016E+03  0.35391712017E+03  0.25500000920E-02 0. -1.
        2   -1    0    0  501    0  0.00000000000E+00  0.00000000000E+00 -0.45039197601E+03  0.45039197602E+03  0.25500000920E-02 0.  1.
    10030    2    1    2    0    0  0.00000000000E+00  0.00000000000E+00 -0.96474855853E+02  0.80430909618E+03  0.79850217557E+03 0.  0.
        2    1    3    3  502    0  0.13150296768E+03  0.16388836048E+03 -0.39018968174E+03  0.44317086203E+03  0.25500000920E-02 0.  1.
       -2    1    3    3    0  502 -0.13150296768E+03 -0.16388836048E+03  0.29371482589E+03  0.36113823415E+03  0.25500000920E-02 0. -1.
</event>
<event>
 5   0  0.1656051E-03  0.8073105E+03  0.7818609E-02  0.9549495E-01
       -1   -1    0    0    0  501  0.00000000000E+00  0.00000000000E+00  0.26217513152E+03  0.26217513157E+03  0.50400001928E-02 0.  1.
        1   -1    0    0  501    0  0.00000000000E+00  0.00000000000E+00 -0.62148361043E+03  0.62148361045E+03  0.50400001928E-02 0. -1.
    10030    2    1    2    0    0  0.00000000000E+00  0.00000000000E+00 -0.35930847891E+03  0.88365874202E+03  0.80731046651E+03 0.  0.
        3    1    3    3  502    0  0.23734645096E+02  0.17084051774E+03  0.21980832849E+03  0.27940208903E+03  0.10100000352E+00 0.  1.
       -3    1    3    3    0  502 -0.23734645096E+02 -0.17084051774E+03 -0.57911680739E+03  0.60425665299E+03  0.10100000352E+00 0. -1.
</event>
<event>
 5   0  0.2690809E-03  0.7936607E+03  0.7818609E-02  0.9569239E-01
       -2   -1    0    0    0  501  0.00000000000E+00  0.00000000000E+00  0.61133657151E+03  0.61133657152E+03  0.25500000920E-02 0. -1.
        2   -1    0    0  501    0  0.00000000000E+00  0.00000000000E+00 -0.25759024934E+03  0.25759024935E+03  0.25500000920E-02 0.  1.
    10030    2    1    2    0    0  0.00000000000E+00  0.00000000000E+00  0.35374632217E+03  0.86892682087E+03  0.79366073330E+03 0.  0.
        5    1    3    3  502    0  0.30675347949E+03 -0.53539096234E+02 -0.92393970803E+02  0.32484283561E+03  0.46999998093E+01 0.  1.
       -5    1    3    3    0  502 -0.30675347949E+03  0.53539096234E+02  0.44614029297E+03  0.54408398526E+03  0.46999998093E+01 0. -1.
</event>
<event>
 5   0  0.1712793E-03  0.8026171E+03  0.7818609E-02  0.9556237E-01
        1   -1    0    0  501    0  0.00000000000E+00  0.00000000000E+00  0.12394202821E+04  0.12394202821E+04  0.50400001928E-02 0.  1.
       -1   -1    0    0    0  501  0.00000000000E+00  0.00000000000E+00 -0.12993860995E+03  0.12993861005E+03  0.50400001928E-02 0. -1.
    10030    2    1    2    0    0  0.00000000000E+00  0.00000000000E+00  0.11094816721E+04  0.13693588921E+04  0.80261709095E+03 0.  0.
        4    1    3    3  502    0  0.24612263920E+03  0.31600238788E+03  0.51249683819E+03  0.65045252304E+03  0.12699999809E+01 0.  1.
       -4    1    3    3    0  502 -0.24612263920E+03 -0.31600238788E+03  0.59698483392E+03  0.71890636908E+03  0.12699999809E+01 0. -1.
</event>
<event>
 5   0  0.2873212E-03  0.7988248E+03  0.7818609E-02  0.9561720E-01
        2   -1    0    0  501    0  0.00000000000E+00  0.00000000000E+00  0.47649520836E+03  0.47649520836E+03  0.25500000920E-02 0. -1.
       -2   -1    0    0    0  501  0.00000000000E+00  0.00000000000E+00 -0.33479926800E+03  0.33479926801E+03  0.25500000920E-02 0.  1.
    10030    2    1    2    0    0  0.00000000000E+00  0.00000000000E+00  0.14169594036E+03  0.81129447637E+03  0.79882475417E+03 0.  0.
        2    1    3    3  502    0 -0.76825663789E+02 -0.38640438442E+03  0.40974576502E+01  0.39398898472E+03  0.25500000920E-02 0.  1.
       -2    1    3    3    0  502  0.76825663789E+02  0.38640438442E+03  0.13759848271E+03  0.41730549165E+03  0.25500000920E-02 0. -1.
</event>
<event>
 5   0  0.1656051E-03  0.8011135E+03  0.7818609E-02  0.9558407E-01
        1   -1    0    0  501    0  0.00000000000E+00  0.00000000000E+00  0.74216919220E+03  0.74216919222E+03  0.50400001928E-02 0.  1.
       -1   -1    0    0    0  501  0.00000000000E+00  0.00000000000E+00 -0.21618479313E+03  0.21618479319E+03  0.50400001928E-02 0. -1.
    10030    2    1    2    0    0  0.00000000000E+00  0.00000000000E+00  0.52598439906E+03  0.95835398541E+03  0.80111345844E+03 0.  0.
        3    1    3    3  502    0 -0.15202864995E+03  0.13994985670E+03  0.67348625273E+03  0.70447314755E+03  0.10100000352E+00 0.  1.
       -3    1    3    3    0  502  0.15202864995E+03 -0.13994985670E+03 -0.14750185367E+03  0.25388083786E+03  0.10100000352E+00 0. -1.
</event>
<event>
 5   0  0.1640035E-03  0.7989802E+03  0.7818609E-02  0.9561494E-01
        1   -1    0    0  501    0  0.00000000000E+00  0.00000000000E+00  0.17277637986E+04  0.17277637986E+04  0.50400001928E-02 0.  1.
       -1   -1    0    0    0  501  0.00000000000E+00  0.00000000000E+00 -0.92369300229E+02  0.92369300367E+02  0.50400001928E-02 0. -1.
    10030    2    1    2    0    0  0.00000000000E+00  0.00000000000E+00  0.16353944984E+04  0.18201330990E+04  0.79898018291E+03 0.  0.
        5    1    3    3  502    0  0.36858443516E+03  0.15396634447E+03  0.82494498689E+03  0.91657866136E+03  0.46999998093E+01 0.  1.
       -5    1    3    3    0  502 -0.36858443516E+03 -0.15396634447E+03  0.81044951148E+03  0.90355443761E+03  0.46999998093E+01 0. -1.
</event>
<event>
 5   0  0.1637228E-03  0.7956061E+03  0.7818609E-02  0.9566399E-01
       -1   -1    0    0    0  501  0.00000000000E+00  0.00000000000E+00  0.37683004108E+03  0.37683004111E+03  0.50400001928E-02 0.  1.
        1   -1    0    0  501    0  0.00000000000E+00  0.00000000000E+00 -0.41994333019E+03  0.41994333022E+03  0.50400001928E-02 0. -1.
    10030    2    1    2    0    0  0.00000000000E+00  0.00000000000E+00 -0.43113289116E+02  0.79677337133E+03  0.79560608945E+03 0.  0.
        2    1    3    3  502    0 -0.39144214152E+03  0.70472087393E+02 -0.14197589847E+02  0.39798848831E+03  0.25500000920E-02 0. -1.
       -2    1    3    3    0  502  0.39144214152E+03 -0.70472087393E+02 -0.28915699269E+02  0.39878488303E+03  0.25500000920E-02 0.  1.
</event>
<event>
 5   0  0.1640035E-03  0.8001510E+03  0.7818609E-02  0.9559799E-01
        1   -1    0    0  501    0  0.00000000000E+00  0.00000000000E+00  0.52385988724E+03  0.52385988726E+03  0.50400001928E-02 0. -1.
       -1   -1    0    0    0  501  0.00000000000E+00  0.00000000000E+00 -0.30554048412E+03  0.30554048417E+03  0.50400001928E-02 0.  1.
    10030    2    1    2    0    0  0.00000000000E+00  0.00000000000E+00  0.21831940311E+03  0.82940037143E+03  0.80015099472E+03 0.  0.
        5    1    3    3  502    0 -0.36751114128E+03  0.15586271685E+03  0.82115985833E+02  0.40758158765E+03  0.46999998093E+01 0.  1.
       -5    1    3    3    0  502  0.36751114128E+03 -0.15586271685E+03  0.13620341728E+03  0.42181878377E+03  0.46999998093E+01 0. -1.
</event>
<event>
 5   0  0.2873212E-03  0.7999429E+03  0.7818609E-02  0.9560100E-01
        2   -1    0    0  501    0  0.00000000000E+00  0.00000000000E+00  0.24192240590E+03  0.24192240592E+03  0.25500000920E-02 0. -1.
       -2   -1    0    0    0  501  0.00000000000E+00  0.00000000000E+00 -0.66127464989E+03  0.66127464990E+03  0.25500000920E-02 0.  1.
    10030    2    1    2    0    0  0.00000000000E+00  0.00000000000E+00 -0.41935224399E+03  0.90319705582E+03  0.79994288364E+03 0.  0.
        2    1    3    3  502    0 -0.12841923091E+03  0.23742930000E+03  0.12356990201E+03  0.29687319187E+03  0.25500000920E-02 0. -1.
       -2    1    3    3    0  502  0.12841923091E+03 -0.23742930000E+03 -0.54292214600E+03  0.60632386394E+03  0.25500000920E-02 0.  1.
</event>
<event>
 5   0  0.2873212E-03  0.7998574E+03  0.7818609E-02  0.9560224E-01
       -2   -1    0    0    0  501  0.00000000000E+00  0.00000000000E+00  0.17216763946E+03  0.17216763948E+03  0.25500000920E-02 0.  1.
        2   -1    0    0  501    0  0.00000000000E+00  0.00000000000E+00 -0.92899548341E+03  0.92899548342E+03  0.25500000920E-02 0. -1.
    10030    2    1    2    0    0  0.00000000000E+00  0.00000000000E+00 -0.75682784396E+03  0.11011631229E+04  0.79985738593E+03 0.  0.
        2    1    3    3  502    0  0.14006110135E+03  0.22935831167E+03 -0.78616012573E+03  0.83082494579E+03  0.25500000920E-02 0. -1.
       -2    1    3    3    0  502 -0.14006110135E+03 -0.22935831167E+03  0.29332281778E+02  0.27033817711E+03  0.25500000920E-02 0.  1.
</event>
<event>
 5   0  0.1637228E-03  0.7984094E+03  0.7818609E-02  0.9562322E-01
       -1   -1    0    0    0  501  0.00000000000E+00  0.00000000000E+00  0.99072067440E+03  0.99072067441E+03  0.50400001928E-02 0.  1.
        1   -1    0    0  501    0  0.00000000000E+00  0.00000000000E+00 -0.16085704706E+03  0.16085704714E+03  0.50400001928E-02 0. -1.
    10030    2    1    2    0    0  0.00000000000E+00  0.00000000000E+00  0.82986362734E+03  0.11515777216E+04  0.79840942429E+03 0.  0.
        2    1    3    3  502    0 -0.16486149733E+03  0.20384952324E+03  0.84914668532E+03  0.88869794341E+03  0.25500000920E-02 0.  1.
       -2    1    3    3    0  502  0.16486149733E+03 -0.20384952324E+03 -0.19283057976E+02  0.26287977815E+03  0.25500000920E-02 0. -1.
</event>
<event>
 5   0  0.2768834E-03  0.8009270E+03  0.7818609E-02  0.9558676E-01
       -2   -1    0    0    0  501  0.00000000000E+00  0.00000000000E+00  0.31257717397E+03  0.31257717398E+03  0.25500000920E-02 0.  1.
        2   -1    0    0  501    0  0.00000000000E+00  0.00000000000E+00 -0.51306057923E+03  0.51306057924E+03  0.25500000920E-02 0. -1.
    10030    2    1    2    0    0  0.00000000000E+00  0.00000000000E+00 -0.20048340526E+03  0.82563775322E+03  0.80092702774E+03 0.  0.
        4    1    3    3  502    0 -0.16530882497E+02  0.18628699423E+03 -0.46527607273E+03  0.50145742695E+03  0.12699999809E+01 0. -1.
       -4    1    3    3    0  502  0.16530882497E+02 -0.18628699423E+03  0.26479266747E+03  0.32418032627E+03  0.12699999809E+01 0.  1.
</event>
<event>
 5   0  0.1640035E-03  0.7977675E+03  0.7818609E-02  0.9563254E-01
       -1   -1    0    0    0  501  0.00000000000E+00  0.00000000000E+00  0.16348034658E+03  0.16348034665E+03  0.50400001928E-02 0.  1.
        1   -1    0    0  501    0  0.00000000000E+00  0.00000000000E+00 -0.97325618456E+03  0.97325618458E+03  0.50400001928E-02 0. -1.
    10030    2    1    2    0    0  0.00000000000E+00  0.00000000000E+00 -0.80977583799E+03  0.11367365312E+04  0.79776753108E+03 0.  0.
        5    1    3    3  502    0 -0.14417567070E+03  0.33715001446E+03 -0.62850783683E+03  0.72766815735E+03  0.46999998093E+01 0.  1.
       -5    1    3    3    0  502  0.14417567070E+03 -0.33715001446E+03 -0.18126800116E+03  0.40906837388E+03  0.46999998093E+01 0. -1.
</event>
<event>
 5   0  0.1640035E-03  0.8010722E+03  0.7818609E-02  0.9558466E-01
       -1   -1    0    0    0  501  0.00000000000E+00  0.00000000000E+00  0.32000147320E+03  0.32000147324E+03  0.50400001928E-02 0. -1.
        1   -1    0    0  501    0  0.00000000000E+00  0.00000000000E+00 -0.50133887795E+03  0.50133887798E+03  0.50400001928E-02 0.  1.
    10030    2    1    2    0    0  0.00000000000E+00  0.00000000000E+00 -0.18133740476E+03  0.82134035121E+03  0.80107223030E+03 0.  0.
        5    1    3    3  502    0  0.92039856430E+02  0.18706357442E+02  0.30852233392E+03  0.32253586391E+03  0.46999998093E+01 0. -1.
       -5    1    3    3    0  502 -0.92039856430E+02 -0.18706357442E+02 -0.48985973868E+03  0.49880448730E+03  0.46999998093E+01 0.  1.
</event>
<event>
 5   0  0.1656051E-03  0.8003231E+03  0.7818609E-02  0.9559550E-01
        1   -1    0    0  501    0  0.00000000000E+00  0.00000000000E+00  0.12695806755E+03  0.12695806765E+03  0.50400001928E-02 0.  1.
       -1   -1    0    0    0  501  0.00000000000E+00  0.00000000000E+00 -0.12612769183E+04  0.12612769183E+04  0.50400001928E-02 0. -1.
    10030    2    1    2    0    0  0.00000000000E+00  0.00000000000E+00 -0.11343188508E+04  0.13882349860E+04  0.80032313542E+03 0.  0.
        3    1    3    3  502    0 -0.16200784353E+02  0.25237012312E+03 -0.29222628542E+02  0.25457241932E+03  0.10100000352E+00 0.  1.
       -3    1    3    3    0  502  0.16200784353E+02 -0.25237012312E+03 -0.11050962222E+04  0.11336625667E+04  0.10100000352E+00 0. -1.
</event>
<event>
 5   0  0.2873212E-03  0.7975340E+03  0.7818609E-02  0.9563593E-01
       -2   -1    0    0    0  501  0.00000000000E+00  0.00000000000E+00  0.22940300475E+03  0.22940300477E+03  0.25500000920E-02 0.  1.
        2   -1    0    0  501    0  0.00000000000E+00  0.00000000000E+00 -0.69316931563E+03  0.69316931564E+03  0.25500000920E-02 0. -1.
    10030    2    1    2    0    0  0.00000000000E+00  0.00000000000E+00 -0.46376631088E+03  0.92257232041E+03  0.79753400885E+03 0.  0.
        2    1    3    3  502    0 -0.27290766018E+03  0.15999473297E+03 -0.51271717128E+03  0.60245813406E+03  0.25500000920E-02 0. -1.
       -2    1    3    3    0  502  0.27290766018E+03 -0.15999473297E+03  0.48950860397E+02  0.32011418635E+03  0.25500000920E-02 0.  1.
</event>
<event>
 5   0  0.1617491E-03  0.7969525E+03  0.7818609E-02  0.9564439E-01
       -1   -1    0    0    0  501  0.00000000000E+00  0.00000000000E+00  0.16529158710E+03  0.16529158717E+03  0.50400001928E-02 0.  1.
        1   -1    0    0  501    0  0.00000000000E+00  0.00000000000E+00 -0.96062561346E+03  0.96062561347E+03  0.50400001928E-02 0. -1.
    10030    2    1    2    0    0  0.00000000000E+00  0.00000000000E+00 -0.79533402636E+03  0.11259172006E+04  0.79695252633E+03 0.  0.
        1    1    3    3  502    0  0.30529527800E+03 -0.14027119102E+03 -0.70035164215E+03  0.77677128969E+03  0.50400001928E-02 0. -1.
       -1    1    3    3    0  502 -0.30529527800E+03  0.14027119102E+03 -0.94982384214E+02  0.34914591096E+03  0.50400001928E-02 0.  1.
</event>
<event>
 5   0  0.2873212E-03  0.8003203E+03  0.7818609E-02  0.9559554E-01
       -2   -1    0    0    0  501  0.00000000000E+00  0.00000000000E+00  0.19347422903E+03  0.19347422904E+03  0.25500000920E-02 0.  1.
        2   -1    0    0  501    0  0.00000000000E+00  0.00000000000E+00 -0.82764583806E+03  0.82764583807E+03  0.25500000920E-02 0. -1.
    10030    2    1    2    0    0  0.00000000000E+00  0.00000000000E+00 -0.63417160904E+03  0.10211200671E+04  0.80032028697E+03 0.  0.
        2    1    3    3  502    0  0.98398157518E+02 -0.30593480294E+03 -0.12872918446E+02  0.32162713363E+03  0.25500000920E-02 0.  1.
       -2    1    3    3    0  502 -0.98398157518E+02  0.30593480294E+03 -0.62129869059E+03  0.69949293348E+03  0.25500000920E-02 0. -1.
</event>
<event>
 5   0  0.2873212E-03  0.7986038E+03  0.7818609E-02  0.9562040E-01
       -2   -1    0    0    0  501  0.00000000000E+00  0.00000000000E+00  0.76918199841E+02  0.76918199883E+02  0.25500000920E-02 0. -1.
        2   -1    0    0  501    0  0.00000000000E+00  0.00000000000E+00 -0.20728775367E+04  0.20728775367E+04  0.25500000920E-02 0.  1.
    10030    2    1    2    0    0  0.00000000000E+00  0.00000000000E+00 -0.19959593368E+04  0.21497957366E+04  0.79860380330E+03 0.  0.
        2    1    3    3  502    0 -0.15849506012E+03  0.35880792031E+03 -0.79692558480E+03  0.88823093589E+03  0.25500000920E-02 0. -1.
       -2    1    3    3    0  502  0.15849506012E+03 -0.35880792031E+03 -0.11990337520E+04  0.12615648007E+04  0.25500000920E-02 0.  1.
</event>
<event>
 5   0  0.1656051E-03  0.8002842E+03  0.7818609E-02  0.9559606E-01
       -1   -1    0    0    0  501  0.00000000000E+00  0.00000000000E+00  0.14243644172E+03  0.14243644181E+03  0.50400001928E-02 0. -1.
        1   -1    0    0  501    0  0.00000000000E+00  0.00000000000E+00 -0.11241063994E+04  0.11241063994E+04  0.50400001928E-02 0.  1.
    10030    2    1    2    0    0  0.00000000000E+00  0.00000000000E+00 -0.98166995771E+03  0.12665428412E+04  0.80028423879E+03 0.  0.
        3    1    3    3  502    0 -0.16782748964E+01  0.11565239131E+03 -0.10970728887E+04  0.11031533101E+04  0.10100000352E+00 0.  1.
       -3    1    3    3    0  502  0.16782748964E+01 -0.11565239131E+03  0.11540293098E+03  0.16338953119E+03  0.10100000352E+00 0. -1.
</event>
<event>
 5   0  0.1617491E-03  0.8005412E+03  0.7818609E-02  0.9559234E-01
        1   -1    0    0  501    0  0.00000000000E+00  0.00000000000E+00  0.26493853256E+03  0.26493853260E+03  0.50400001928E-02 0. -1.
       -1   -1    0    0    0  501  0.00000000000E+00  0.00000000000E+00 -0.60473096855E+03  0.60473096857E+03  0.50400001928E-02 0.  1.
    10030    2    1    2    0    0  0.00000000000E+00  0.00000000000E+00 -0.33979243600E+03  0.86966950118E+03  0.80054115554E+03 0.  0.
        1    1    3    3  502    0  0.49786847133E+02 -0.27004683086E+03 -0.48627004319E+03  0.55844657393E+03  0.50400001928E-02 0.  1.
       -1    1    3    3    0  502 -0.49786847133E+02  0.27004683086E+03  0.14647760720E+03  0.31122292724E+03  0.50400001928E-02 0. -1.
</event>
<event>
 5   0  0.1656051E-03  0.8003060E+03  0.7818609E-02  0.9559574E-01
       -1   -1    0    0    0  501  0.00000000000E+00  0.00000000000E+00  0.20414165167E+03  0.20414165173E+03  0.50400001928E-02 0.  1.
        1   -1    0    0  501    0  0.00000000000E+00  0.00000000000E+00 -0.78436921469E+03  0.78436921471E+03  0.50400001928E-02 0. -1.
    10030    2    1    2    0    0  0.00000000000E+00  0.00000000000E+00 -0.58022756302E+03  0.98851086644E+03  0.80030600908E+03 0.  0.
        3    1    3    3  502    0 -0.38684482208E+02  0.32682819367E+03 -0.89696242234E+01  0.32923186617E+03  0.10100000352E+00 0.  1.
       -3    1    3    3    0  502  0.38684482208E+02 -0.32682819367E+03 -0.57125793880E+03  0.65927900026E+03  0.10100000352E+00 0. -1.
</event>
<event>
 5   0  0.1640035E-03  0.7999503E+03  0.7818609E-02  0.9560089E-01
        1   -1    0    0  501    0  0.00000000000E+00  0.00000000000E+00  0.70884490884E+03  0.70884490886E+03  0.50400001928E-02 0. -1.
       -1   -1    0    0    0  501  0.00000000000E+00  0.00000000000E+00 -0.22569127683E+03  0.22569127689E+03  0.50400001928E-02 0.  1.
    10030    2    1    2    0    0  0.00000000000E+00  0.00000000000E+00  0.48315363201E+03  0.93453618574E+03  0.79995027992E+03 0.  0.
        5    1    3    3  502    0 -0.31761564628E+03  0.22310294241E+03  0.35425867305E+03  0.52552442293E+03  0.46999998093E+01 0. -1.
       -5    1    3    3    0  502  0.31761564628E+03 -0.22310294241E+03  0.12889495896E+03  0.40901176281E+03  0.46999998093E+01 0.  1.
</event>
<event>
 5   0  0.1712793E-03  0.7998153E+03  0.7818609E-02  0.9560284E-01
        1   -1    0    0  501    0  0.00000000000E+00  0.00000000000E+00  0.13395747008E+04  0.13395747008E+04  0.50400001928E-02 0. -1.
       -1   -1    0    0    0  501  0.00000000000E+00  0.00000000000E+00 -0.11938575327E+03  0.11938575338E+03  0.50400001928E-02 0.  1.
    10030    2    1    2    0    0  0.00000000000E+00  0.00000000000E+00  0.12201889475E+04  0.14589604541E+04  0.79981531568E+03 0.  0.
        4    1    3    3  502    0 -0.32757920356E+02  0.38582694960E+03  0.42778261008E+03  0.57700527794E+03  0.12699999809E+01 0.  1.
       -4    1    3    3    0  502  0.32757920356E+02 -0.38582694960E+03  0.79240633740E+03  0.88195517621E+03  0.12699999809E+01 0. -1.
</event>
<event>
 5   0  0.1712793E-03  0.8003370E+03  0.7818609E-02  0.9559529E-01
        1   -1    0    0  501    0  0.00000000000E+00  0.00000000000E+00  0.40866362541E+03  0.40866362544E+03  0.50400001928E-02 0. -1.
       -1   -1    0    0    0  501  0.00000000000E+00  0.00000000000E+00 -0.39185001535E+03  0.39185001538E+03  0.50400001928E-02 0.  1.
    10030    2    1    2    0    0  0.00000000000E+00  0.00000000000E+00  0.16813610057E+02  0.80051364083E+03  0.80033704879E+03 0.  0.
        4    1    3    3  502    0 -0.16683118060E+03  0.35437637209E+03  0.90388168954E+02  0.40197871822E+03  0.12699999809E+01 0.  1.
       -4    1    3    3    0  502  0.16683118060E+03 -0.35437637209E+03 -0.73574558897E+02  0.39853492260E+03  0.12699999809E+01 0. -1.
</event>
<event>
 5   0  0.2910501E-03  0.7985782E+03  0.7818609E-02  0.9562077E-01
       -2   -1    0    0    0  501  0.00000000000E+00  0.00000000000E+00  0.17714922707E+03  0.17714922709E+03  0.25500000920E-02 0.  1.
        2   -1    0    0  501    0  0.00000000000E+00  0.00000000000E+00 -0.89998586566E+03  0.89998586566E+03  0.25500000920E-02 0. -1.
    10030    2    1    2    0    0  0.00000000000E+00  0.00000000000E+00 -0.72283663859E+03  0.10771350927E+04  0.79857823783E+03 0.  0.
        1    1    3    3  502    0 -0.73440481207E+02  0.38171647070E+03 -0.48452933013E+03  0.62118406295E+03  0.50400001928E-02 0. -1.
       -1    1    3    3    0  502  0.73440481207E+02 -0.38171647070E+03 -0.23830730846E+03  0.45595102980E+03  0.50400001928E-02 0.  1.
</event>
<event>
 5   0  0.2763587E-03  0.7997039E+03  0.7818609E-02  0.9560446E-01
       -2   -1    0    0    0  501  0.00000000000E+00  0.00000000000E+00  0.13988673697E+03  0.13988673699E+03  0.25500000920E-02 0.  1.
        2   -1    0    0  501    0  0.00000000000E+00  0.00000000000E+00 -0.11429360388E+04  0.11429360388E+04  0.25500000920E-02 0. -1.
    10030    2    1    2    0    0  0.00000000000E+00  0.00000000000E+00 -0.10030493018E+04  0.12828227758E+04  0.79970392782E+03 0.  0.
        3    1    3    3  502    0  0.58411177630E+02 -0.33454971792E+03 -0.16295908886E+03  0.37668428993E+03  0.10100000352E+00 0.  1.
       -3    1    3    3    0  502 -0.58411177630E+02  0.33454971792E+03 -0.84009021295E+03  0.90613848584E+03  0.10100000352E+00 0. -1.
</event>
<event>
 5   0  0.1640035E-03  0.7869694E+03  0.7818609E-02  0.9579072E-01
        1   -1    0    0  501    0  0.00000000000E+00  0.00000000000E+00  0.17046887317E+04  0.17046887318E+04  0.50400001928E-02 0. -1.
       -1   -1    0    0    0  501  0.00000000000E+00  0.00000000000E+00 -0.90826080102E+02  0.90826080242E+02  0.50400001928E-02 0.  1.
    10030    2    1    2    0    0  0.00000000000E+00  0.00000000000E+00  0.16138626516E+04  0.17955148120E+04  0.78696936517E+03 0.  0.
        5    1    3    3  502    0  0.21483865651E+03 -0.14144593368E+03  0.12763459484E+03  0.28718509760E+03  0.46999998093E+01 0.  1.
       -5    1    3    3    0  502 -0.21483865651E+03  0.14144593368E+03  0.14862280568E+04  0.15083297144E+04  0.46999998093E+01 0. -1.
</event>
<event>
 5   0  0.2873212E-03  0.7971655E+03  0.7818609E-02  0.9564129E-01
       -2   -1    0    0    0  501  0.00000000000E+00  0.00000000000E+00  0.19032126636E+03  0.19032126638E+03  0.25500000920E-02 0. -1.
        2   -1    0    0  501    0  0.00000000000E+00  0.00000000000E+00 -0.83473699491E+03  0.83473699491E+03  0.25500000920E-02 0.  1.
    10030    2    1    2    0    0  0.00000000000E+00  0.00000000000E+00 -0.64441572854E+03  0.10250582613E+04  0.79716548335E+03 0.  0.
        2    1    3    3  502    0  0.24301748837E+03 -0.17833992926E+03 -0.65753779020E+03  0.72333849308E+03  0.25500000920E-02 0.  1.
       -2    1    3    3    0  502 -0.24301748837E+03  0.17833992926E+03  0.13122061654E+02  0.30171976822E+03  0.25500000920E-02 0. -1.
</event>
<event>
 5   0  0.2768834E-03  0.7992946E+03  0.7818609E-02  0.9561039E-01
       -2   -1    0    0    0  501  0.00000000000E+00  0.00000000000E+00  0.37472597006E+03  0.37472597007E+03  0.25500000920E-02 0. -1.
        2   -1    0    0  501    0  0.00000000000E+00  0.00000000000E+00 -0.42622607685E+03  0.42622607686E+03  0.25500000920E-02 0.  1.
    10030    2    1    2    0    0  0.00000000000E+00  0.00000000000E+00 -0.51500106790E+02  0.80095204693E+03  0.79929463934E+03 0.  0.
        4    1    3    3  502    0  0.42528785793E+02 -0.16796064534E+03  0.33513126319E+03  0.37727185486E+03  0.12699999809E+01 0. -1.
       -4    1    3    3    0  502 -0.42528785793E+02  0.16796064534E+03 -0.38663136998E+03  0.42368019207E+03  0.12699999809E+01 0.  1.
</event>
<event>
 5   0  0.1712793E-03  0.7999073E+03  0.7818609E-02  0.9560151E-01
        1   -1    0    0  501    0  0.00000000000E+00  0.00000000000E+00  0.11900516939E+04  0.11900516939E+04  0.50400001928E-02 0. -1.
       -1   -1    0    0    0  501  0.00000000000E+00  0.00000000000E+00 -0.13441679194E+03  0.13441679203E+03  0.50400001928E-02 0.  1.
    10030    2    1    2    0    0  0.00000000000E+00  0.00000000000E+00  0.10556349020E+04  0.13244684859E+04  0.79990732213E+03 0.  0.
        4    1    3    3  502    0 -0.89671897604E+02  0.31297574071E+03  0.91246582486E+03  0.96880873135E+03  0.12699999809E+01 0. -1.
       -4    1    3    3    0  502  0.89671897604E+02 -0.31297574071E+03  0.14316907709E+03  0.35565975458E+03  0.12699999809E+01 0.  1.
</event>
<event>
 5   0  0.2690809E-03  0.8004318E+03  0.7818609E-02  0.9559392E-01
       -2   -1    0    0    0  501  0.00000000000E+00  0.00000000000E+00  0.24802211293E+03  0.24802211294E+03  0.25500000920E-02 0. -1.
        2   -1    0    0  501    0  0.00000000000E+00  0.00000000000E+00 -0.64580040131E+03  0.64580040132E+03  0.25500000920E-02 0.  1.
    10030    2    1    2    0    0  0.00000000000E+00  0.00000000000E+00 -0.39777828838E+03  0.89382251426E+03  0.80043183363E+03 0.  0.
        5    1    3    3  502    0 -0.23493512278E+03 -0.17729943511E+02  0.16233734878E+03  0.28615444714E+03  0.46999998093E+01 0. -1.
       -5    1    3    3    0  502  0.23493512278E+03  0.17729943511E+02 -0.56011563716E+03  0.60766806712E+03  0.46999998093E+01 0.  1.
</event>
<event>
 5   0  0.2763587E-03  0.8019321E+03  0.7818609E-02  0.9557225E-01
       -2   -1    0    0    0  501  0.00000000000E+00  0.00000000000E+00  0.25776382357E+03  0.25776382358E+03  0.25500000920E-02 0.  1.
        2   -1    0    0  501    0  0.00000000000E+00  0.00000000000E+00 -0.62372514197E+03  0.62372514198E+03  0.25500000920E-02 0. -1.
    10030    2    1    2    0    0  0.00000000000E+00  0.00000000000E+00 -0.36596131841E+03  0.88148896556E+03  0.80193211049E+03 0.  0.
        3    1    3    3  502    0  0.12299756334E+03 -0.29926872465E+03  0.77333149830E+02  0.33267190505E+03  0.10100000352E+00 0.  1.
       -3    1    3    3    0  502 -0.12299756334E+03  0.29926872465E+03 -0.44329446824E+03  0.54881706052E+03  0.10100000352E+00 0. -1.
</event>
<event>
 5   0  0.1712793E-03  0.7995499E+03  0.7818609E-02  0.9560669E-01
       -1   -1    0    0    0  501  0.00000000000E+00  0.00000000000E+00  0.10736305845E+03  0.10736305857E+03  0.50400001928E-02 0. -1.
        1   -1    0    0  501    0  0.00000000000E+00  0.00000000000E+00 -0.14885939274E+04  0.14885939274E+04  0.50400001928E-02 0.  1.
    10030    2    1    2    0    0  0.00000000000E+00  0.00000000000E+00 -0.13812308690E+04  0.15959569860E+04  0.79954986571E+03 0.  0.
        4    1    3    3  502    0  0.39935609625E+03 -0.65254204493E+01 -0.65659364516E+03  0.76853412448E+03  0.12699999809E+01 0.  1.
       -4    1    3    3    0  502 -0.39935609625E+03  0.65254204493E+01 -0.72463722379E+03  0.82742286150E+03  0.12699999809E+01 0. -1.
</event>
<event>
 5   0  0.1095350E-03  0.7982757E+03  0.7818609E-02  0.9562516E-01
        3   -1    0    0  501    0  0.00000000000E+00  0.00000000000E+00  0.22274202233E+03  0.22274204523E+03  0.10100000352E+00 0. -1.
       -3   -1    0    0    0  501  0.00000000000E+00  0.00000000000E+00 -0.71522651130E+03  0.71522651843E+03  0.10100000352E+00 0.  1.
    10030    2    1    2    0    0  0.00000000000E+00  0.00000000000E+00 -0.49248448897E+03  0.93796856366E+03  0.79827567577E+03 0.  0.
        3    1    3    3  502    0  0.26819289162E+03  0.23065008062E+03 -0.46348613299E+03  0.58304913385E+03  0.10100000352E+00 0.  1.
       -3    1    3    3    0  502 -0.26819289162E+03 -0.23065008062E+03 -0.28998355980E+02  0.35491942981E+03  0.10100000352E+00 0. -1.
</event>
<event>
 5   0  0.1617491E-03  0.8015577E+03  0.7818609E-02  0.9557765E-01
        1   -1    0    0  501    0  0.00000000000E+00  0.00000000000E+00  0.45894012754E+03  0.45894012757E+03  0.50400001928E-02 0.  1.
       -1   -1    0    0    0  501  0.00000000000E+00  0.00000000000E+00 -0.34998832945E+03  0.34998832949E+03  0.50400001928E-02 0. -1.
    10030    2    1    2    0    0  0.00000000000E+00  0.00000000000E+00  0.10895179809E+03  0.80892845706E+03  0.80155770493E+03 0.  0.
        1    1    3    3  502    0 -0.73784489289E+02 -0.38776877752E+03 -0.15551748492E+02  0.39503244498E+03  0.50400001928E-02 0. -1.
       -1    1    3    3    0  502  0.73784489289E+02  0.38776877752E+03  0.12450354658E+03  0.41389601208E+03  0.50400001928E-02 0.  1.
</event>
<event>
 5   0  0.2768834E-03  0.8008068E+03  0.7818609E-02  0.9558850E-01
        2   -1    0    0  501    0  0.00000000000E+00  0.00000000000E+00  0.68682158492E+03  0.68682158492E+03  0.25500000920E-02 0.  1.
       -2   -1    0    0    0  501  0.00000000000E+00  0.00000000000E+00 -0.23342725583E+03  0.23342725585E+03  0.25500000920E-02 0. -1.
    10030    2    1    2    0    0  0.00000000000E+00  0.00000000000E+00  0.45339432908E+03  0.92024884077E+03  0.80080678774E+03 0.  0.
        4    1    3    3  502    0  0.36872405081E+03  0.46764671572E+02  0.39782789307E+03  0.54443824770E+03  0.12699999809E+01 0. -1.
       -4    1    3    3    0  502 -0.36872405081E+03 -0.46764671572E+02  0.55566436017E+02  0.37581059307E+03  0.12699999809E+01 0.  1.
</event>
<event>
 5   0  0.2763587E-03  0.8000383E+03  0.7818609E-02  0.9559962E-01
        2   -1    0    0  501    0  0.00000000000E+00  0.00000000000E+00  0.34918042940E+03  0.34918042941E+03  0.25500000920E-02 0.  1.
       -2   -1    0    0    0  501  0.00000000000E+00  0.00000000000E+00 -0.45825974413E+03  0.45825974414E+03  0.25500000920E-02 0. -1.
    10030    2    1    2    0    0  0.00000000000E+00  0.00000000000E+00 -0.10907931472E+03  0.80744017355E+03  0.80003833468E+03 0.  0.
        3    1    3    3  502    0  0.30988752300E+03 -0.23250206908E+03 -0.15510002022E+03  0.41730506289E+03  0.10100000352E+00 0. -1.
       -3    1    3    3    0  502 -0.30988752300E+03  0.23250206908E+03  0.46020705494E+02  0.39013511066E+03  0.10100000352E+00 0.  1.
</event>
<event>
 5   0  0.2873212E-03  0.8003218E+03  0.7818609E-02  0.9559551E-01
        2   -1    0    0  501    0  0.00000000000E+00  0.00000000000E+00  0.33211239492E+03  0.33211239493E+03  0.25500000920E-02 0.  1.
       -2   -1    0    0    0  501  0.00000000000E+00  0.00000000000E+00 -0.48215232955E+03  0.48215232956E+03  0.25500000920E-02 0. -1.
    10030    2    1    2    0    0  0.00000000000E+00  0.00000000000E+00 -0.15003993463E+03  0.81426472449E+03  0.80032184748E+03 0.  0.
        2    1    3    3  502    0 -0.14865564270E+03  0.25249733352E+03 -0.35230302518E+03  0.45822573596E+03  0.25500000920E-02 0. -1.
       -2    1    3    3    0  502  0.14865564270E+03 -0.25249733352E+03  0.20226309054E+03  0.35603898852E+03  0.25500000920E-02 0.  1.
</event>
<event>
 5   0  0.2873212E-03  0.7941261E+03  0.7818609E-02  0.9568558E-01
        2   -1    0    0  501    0  0.00000000000E+00  0.00000000000E+00  0.12576540124E+04  0.12576540124E+04  0.25500000920E-02 0.  1.
       -2   -1    0    0    0  501  0.00000000000E+00  0.00000000000E+00 -0.12535965774E+03  0.12535965777E+03  0.25500000920E-02 0. -1.
    10030    2    1    2    0    0  0.00000000000E+00  0.00000000000E+00  0.11322943546E+04  0.13830136701E+04  0.79412612744E+03 0.  0.
        2    1    3    3  502    0 -0.14824265601E+03  0.31137822934E+03  0.22342458270E+03  0.41091462730E+03  0.25500000920E-02 0. -1.
       -2    1    3    3    0  502  0.14824265601E+03 -0.31137822934E+03  0.90886977191E+03  0.97209904283E+03  0.25500000920E-02 0.  1.
</event>
<event>
 5   0  0.2768834E-03  0.7962851E+03  0.7818609E-02  0.9565410E-01
        2   -1    0    0  501    0  0.00000000000E+00  0.00000000000E+00  0.15105195202E+04  0.15105195202E+04  0.25500000920E-02 0.  1.
       -2   -1    0    0    0  501  0.00000000000E+00  0.00000000000E+00 -0.10494236084E+03  0.10494236087E+03  0.25500000920E-02 0. -1.
    10030    2    1    2    0    0  0.00000000000E+00  0.00000000000E+00  0.14055771594E+04  0.16154618811E+04  0.79628508608E+03 0.  0.
        4    1    3    3  502    0  0.73212869680E+02  0.53452157502E+02  0.14893010652E+04  0.14920578183E+04  0.12699999809E+01 0.  1.
       -4    1    3    3    0  502 -0.73212869680E+02 -0.53452157502E+02 -0.83723905778E+02  0.12340406285E+03  0.12699999809E+01 0. -1.
</event>
<event>
 5   0  0.2690809E-03  0.7927498E+03  0.7818609E-02  0.9570571E-01
       -2   -1    0    0    0  501  0.00000000000E+00  0.00000000000E+00  0.29161034478E+03  0.29161034479E+03  0.25500000920E-02 0.  1.
        2   -1    0    0  501    0  0.00000000000E+00  0.00000000000E+00 -0.53877737861E+03  0.53877737862E+03  0.25500000920E-02 0. -1.
    10030    2    1    2    0    0  0.00000000000E+00  0.00000000000E+00 -0.24716703383E+03  0.83038772341E+03  0.79274978939E+03 0.  0.
        5    1    3    3  502    0 -0.72842854042E+02 -0.30782631289E+03  0.12655943573E+03  0.34073817083E+03  0.46999998093E+01 0.  1.
       -5    1    3    3    0  502  0.72842854042E+02  0.30782631289E+03 -0.37372646957E+03  0.48964955258E+03  0.46999998093E+01 0. -1.
</event>
<event>
 5   0  0.2690809E-03  0.7996362E+03  0.7818609E-02  0.9560544E-01
       -2   -1    0    0    0  501  0.00000000000E+00  0.00000000000E+00  0.21058122504E+03  0.21058122505E+03  0.25500000920E-02 0. -1.
        2   -1    0    0  501    0  0.00000000000E+00  0.00000000000E+00 -0.75911091764E+03  0.75911091764E+03  0.25500000920E-02 0.  1.
    10030    2    1    2    0    0  0.00000000000E+00  0.00000000000E+00 -0.54852969260E+03  0.96969214269E+03  0.79963618473E+03 0.  0.
        5    1    3    3  502    0  0.37442171295E+03 -0.12973838529E+03 -0.33853331055E+03  0.52120107453E+03  0.46999998093E+01 0.  1.
       -5    1    3    3    0  502 -0.37442171295E+03  0.12973838529E+03 -0.20999638205E+03  0.44849106816E+03  0.46999998093E+01 0. -1.
</event>
<event>
 5   0  0.2763587E-03  0.8020026E+03  0.7818609E-02  0.9557123E-01
       -2   -1    0    0    0  501  0.00000000000E+00  0.00000000000E+00  0.52698918563E+03  0.52698918564E+03  0.25500000920E-02 0.  1.
        2   -1    0    0  501    0  0.00000000000E+00  0.00000000000E+00 -0.30513344130E+03  0.30513344131E+03  0.25500000920E-02 0. -1.
    10030    2    1    2    0    0  0.00000000000E+00  0.00000000000E+00  0.22185574433E+03  0.83212262695E+03  0.80200255298E+03 0.  0.
        3    1    3    3  502    0  0.17698997955E+03 -0.48847261527E+02 -0.25895833294E+03  0.31744438288E+03  0.10100000352E+00 0. -1.
       -3    1    3    3    0  502 -0.17698997955E+03  0.48847261527E+02  0.48081407727E+03  0.51467824407E+03  0.10100000352E+00 0.  1.
</event>
<event>
 5   0  0.1617491E-03  0.8003010E+03  0.7818609E-02  0.9559582E-01
        1   -1    0    0  501    0  0.00000000000E+00  0.00000000000E+00  0.11535768342E+04  0.11535768342E+04  0.50400001928E-02 0.  1.
       -1   -1    0    0    0  501  0.00000000000E+00  0.00000000000E+00 -0.13880342301E+03  0.13880342311E+03  0.50400001928E-02 0. -1.
    10030    2    1    2    0    0  0.00000000000E+00  0.00000000000E+00  0.10147734111E+04  0.12923802573E+04  0.80030097677E+03 0.  0.
        1    1    3    3  502    0 -0.54086368573E+02  0.27052001042E+01  0.11476319046E+04  0.11489088919E+04  0.50400001928E-02 0.  1.
       -1    1    3    3    0  502  0.54086368573E+02 -0.27052001042E+01 -0.13285849346E+03  0.14347136538E+03  0.50400001928E-02 0. -1.
</event>
<event>
 5   0  0.1617491E-03  0.8002763E+03  0.7818609E-02  0.9559617E-01
       -1   -1    0    0    0  501  0.00000000000E+00  0.00000000000E+00  0.20797310628E+03  0.20797310634E+03  0.50400001928E-02 0.  1.
        1   -1    0    0  501    0  0.00000000000E+00  0.00000000000E+00 -0.76986181242E+03  0.76986181243E+03  0.50400001928E-02 0. -1.
    10030    2    1    2    0    0  0.00000000000E+00  0.00000000000E+00 -0.56188870614E+03  0.97783491877E+03  0.80027633370E+03 0.  0.
        1    1    3    3  502    0  0.78117375503E+02 -0.16776523817E+03 -0.71442997708E+03  0.73800927614E+03  0.50400001928E-02 0. -1.
       -1    1    3    3    0  502 -0.78117375503E+02  0.16776523817E+03  0.15254127094E+03  0.23982564263E+03  0.50400001928E-02 0.  1.
</event>
<event>
 5   0  0.2873212E-03  0.8006098E+03  0.7818609E-02  0.9559135E-01
       -2   -1    0    0    0  501  0.00000000000E+00  0.00000000000E+00  0.25108871713E+03  0.25108871715E+03  0.25500000920E-02 0.  1.
        2   -1    0    0  501    0  0.00000000000E+00  0.00000000000E+00 -0.63819674963E+03  0.63819674963E+03  0.25500000920E-02 0. -1.
    10030    2    1    2    0    0  0.00000000000E+00  0.00000000000E+00 -0.38710803249E+03  0.88928546678E+03  0.80060977548E+03 0.  0.
        2    1    3    3  502    0 -0.25576634763E+03  0.30446604418E+03 -0.24479374031E+03  0.46694750448E+03  0.25500000920E-02 0.  1.
       -2    1    3    3    0  502  0.25576634763E+03 -0.30446604418E+03 -0.14231429218E+03  0.42233796230E+03  0.25500000920E-02 0. -1.
</event>
<event>
 5   0  0.2768834E-03  0.8011633E+03  0.7818609E-02  0.9558335E-01
        2   -1    0    0  501    0  0.00000000000E+00  0.00000000000E+00  0.11859188777E+04  0.11859188777E+04  0.25500000920E-02 0.  1.
       -2   -1    0    0    0  501  0.00000000000E+00  0.00000000000E+00 -0.13530912426E+03  0.13530912428E+03  0.25500000920E-02 0. -1.
    10030    2    1    2    0    0  0.00000000000E+00  0.00000000000E+00  0.10506097534E+04  0.13212280020E+04  0.80116326626E+03 0.  0.
        4    1    3    3  502    0 -0.22116712228E+03 -0.40787857301E+02 -0.21367222231E+02  0.22591307259E+03  0.12699999809E+01 0. -1.
       -4    1    3    3    0  502  0.22116712228E+03  0.40787857301E+02  0.10719769757E+04  0.10953149294E+04  0.12699999809E+01 0.  1.
</event>
<event>
 5   0  0.1640035E-03  0.7907120E+03  0.7818609E-02  0.9573559E-01
       -1   -1    0    0    0  501  0.00000000000E+00  0.00000000000E+00  0.51788538840E+03  0.51788538842E+03  0.50400001928E-02 0. -1.
        1   -1    0    0  501    0  0.00000000000E+00  0.00000000000E+00 -0.30181653957E+03  0.30181653962E+03  0.50400001928E-02 0.  1.
    10030    2    1    2    0    0  0.00000000000E+00  0.00000000000E+00  0.21606884882E+03  0.81970192804E+03  0.79071202305E+03 0.  0.
        5    1    3    3  502    0 -0.37305792238E+03 -0.36937960428E+02  0.23812493607E+03  0.44414209612E+03  0.46999998093E+01 0.  1.
       -5    1    3    3    0  502  0.37305792238E+03  0.36937960428E+02 -0.22056087249E+02  0.37555983192E+03  0.46999998093E+01 0. -1.
</event>
<event>
 5   0  0.1095350E-03  0.7949267E+03  0.7818609E-02  0.9567390E-01
       -3   -1    0    0    0  501  0.00000000000E+00  0.00000000000E+00  0.10899646193E+03  0.10899650872E+03  0.10100000352E+00 0.  1.
        3   -1    0    0  501    0  0.00000000000E+00  0.00000000000E+00 -0.14493778979E+04  0.14493779014E+04  0.10100000352E+00 0. -1.
    10030    2    1    2    0    0  0.00000000000E+00  0.00000000000E+00 -0.13403814360E+04  0.15583744101E+04  0.79492666850E+03 0.  0.
        4    1    3    3  502    0  0.79446975814E+02  0.34478501565E+03 -0.31521772067E+03  0.47386955305E+03  0.12699999809E+01 0.  1.
       -4    1    3    3    0  502 -0.79446975814E+02 -0.34478501565E+03 -0.10251637153E+04  0.10845048571E+04  0.12699999809E+01 0. -1.
</event>
<event>
 5   0  0.2910501E-03  0.7996623E+03  0.7818609E-02  0.9560506E-01
       -2   -1    0    0    0  501  0.00000000000E+00  0.00000000000E+00  0.13549611060E+03  0.13549611062E+03  0.25500000920E-02 0.  1.
        2   -1    0    0  501    0  0.00000000000E+00  0.00000000000E+00 -0.11798489204E+04  0.11798489205E+04  0.25500000920E-02 0. -1.
    10030    2    1    2    0    0  0.00000000000E+00  0.00000000000E+00 -0.10443528098E+04  0.13153450311E+04  0.79966227830E+03 0.  0.
        1    1    3    3  502    0 -0.32708594855E+03  0.15280355321E+03 -0.80484050668E+03  0.88210111940E+03  0.50400001928E-02 0. -1.
       -1    1    3    3    0  502  0.32708594855E+03 -0.15280355321E+03 -0.23951230316E+03  0.43324391168E+03  0.50400001928E-02 0.  1.
</event>
<event>
 5   0  0.1640035E-03  0.7983747E+03  0.7818609E-02  0.9562373E-01
       -1   -1    0    0    0  501  0.00000000000E+00  0.00000000000E+00  0.39897423471E+03  0.39897423474E+03  0.50400001928E-02 0.  1.
        1   -1    0    0  501    0  0.00000000000E+00  0.00000000000E+00 -0.39940056691E+03  0.39940056694E+03  0.50400001928E-02 0. -1.
    10030    2    1    2    0    0  0.00000000000E+00  0.00000000000E+00 -0.42633219850E+00  0.79837480168E+03  0.79837468785E+03 0.  0.
        5    1    3    3  502    0  0.38374625488E+03 -0.40563357031E+02 -0.10230074837E+03  0.39924191562E+03  0.46999998093E+01 0. -1.
       -5    1    3    3    0  502 -0.38374625488E+03  0.40563357031E+02  0.10187441617E+03  0.39913288606E+03  0.46999998093E+01 0.  1.
</event>
<event>
 5   0  0.1712793E-03  0.8040655E+03  0.7818609E-02  0.9554151E-01
       -1   -1    0    0    0  501  0.00000000000E+00  0.00000000000E+00  0.47359676963E+03  0.47359676965E+03  0.50400001928E-02 0. -1.
        1   -1    0    0  501    0  0.00000000000E+00  0.00000000000E+00 -0.34128259770E+03  0.34128259773E+03  0.50400001928E-02 0.  1.
    10030    2    1    2    0    0  0.00000000000E+00  0.00000000000E+00  0.13231417193E+03  0.81487936739E+03  0.80406550934E+03 0.  0.
        4    1    3    3  502    0  0.78207938887E+02  0.10712518615E+03 -0.31846841182E+03  0.34498699894E+03  0.12699999809E+01 0.  1.
       -4    1    3    3    0  502 -0.78207938887E+02 -0.10712518615E+03  0.45078258375E+03  0.46989236845E+03  0.12699999809E+01 0. -1.
</event>
<event>
 5   0  0.1712793E-03  0.8049507E+03  0.7818609E-02  0.9552879E-01
        1   -1    0    0  501    0  0.00000000000E+00  0.00000000000E+00  0.71241564773E+03  0.71241564775E+03  0.50400001928E-02 0. -1.
       -1   -1    0    0    0  501  0.00000000000E+00  0.00000000000E+00 -0.22737624043E+03  0.22737624049E+03  0.50400001928E-02 0.  1.
    10030    2    1    2    0    0  0.00000000000E+00  0.00000000000E+00  0.48503940730E+03  0.93979188824E+03  0.80495066095E+03 0.  0.
        4    1    3    3  502    0  0.12795775318E+03 -0.37291185665E+03  0.33699712220E+03  0.51865702801E+03  0.12699999809E+01 0. -1.
       -4    1    3    3    0  502 -0.12795775318E+03  0.37291185665E+03  0.14804228510E+03  0.42113486023E+03  0.12699999809E+01 0.  1.
</event>
<event>
 5   0  0.1617491E-03  0.7987796E+03  0.7818609E-02  0.9561785E-01
       -1   -1    0    0    0  501  0.00000000000E+00  0.00000000000E+00  0.31040781734E+03  0.31040781738E+03  0.50400001928E-02 0. -1.
        1   -1    0    0  501    0  0.00000000000E+00  0.00000000000E+00 -0.51387952538E+03  0.51387952541E+03  0.50400001928E-02 0.  1.
    10030    2    1    2    0    0  0.00000000000E+00  0.00000000000E+00 -0.20347170804E+03  0.82428734279E+03  0.79877962387E+03 0.  0.
        1    1    3    3  502    0 -0.28530548500E+03  0.12555698564E+03 -0.35940621626E+03  0.47574846792E+03  0.50400001928E-02 0.  1.
       -1    1    3    3    0  502  0.28530548500E+03 -0.12555698564E+03  0.15593450822E+03  0.34853887487E+03  0.50400001928E-02 0. -1.
</event>
<event>
 5   0  0.1617491E-03  0.7976298E+03  0.7818609E-02  0.9563454E-01
        1   -1    0    0  501    0  0.00000000000E+00  0.00000000000E+00  0.12426941974E+04  0.12426941974E+04  0.50400001928E-02 0.  1.
       -1   -1    0    0    0  501  0.00000000000E+00  0.00000000000E+00 -0.12799072220E+03  0.12799072230E+03  0.50400001928E-02 0. -1.
    10030    2    1    2    0    0  0.00000000000E+00  0.00000000000E+00  0.11147034752E+04  0.13706849197E+04  0.79762980856E+03 0.  0.
        1    1    3    3  502    0 -0.38940619664E+03 -0.25533048266E+01  0.40942921640E+03  0.56504512087E+03  0.50400001928E-02 0. -1.
       -1    1    3    3    0  502  0.38940619664E+03  0.25533048266E+01  0.70527425877E+03  0.80563979883E+03  0.50400001928E-02 0.  1.
</event>
<event>
 5   0  0.1095350E-03  0.8002115E+03  0.7818609E-02  0.9559711E-01
       -4   -1    0    0    0  501  0.00000000000E+00  0.00000000000E+00  0.24110216003E+03  0.24110550485E+03  0.12699999809E+01 0. -1.
        4   -1    0    0  501    0  0.00000000000E+00  0.00000000000E+00 -0.66396151185E+03  0.66396272646E+03  0.12699999809E+01 0.  1.
    10030    2    1    2    0    0  0.00000000000E+00  0.00000000000E+00 -0.42285935183E+03  0.90506823131E+03  0.80021151698E+03 0.  0.
        3    1    3    3  502    0 -0.23055017602E+03 -0.32285958164E+03 -0.27012287995E+03  0.47995632467E+03  0.10100000352E+00 0. -1.
       -3    1    3    3    0  502  0.23055017602E+03  0.32285958164E+03 -0.15273647188E+03  0.42511190664E+03  0.10100000352E+00 0.  1.
</event>
<event>
 5   0  0.1640035E-03  0.8001961E+03  0.7818609E-02  0.9559733E-01
        1   -1    0    0  501    0  0.00000000000E+00  0.00000000000E+00  0.63194690245E+03  0.63194690247E+03  0.50400001928E-02 0.  1.
       -1   -1    0    0    0  501  0.00000000000E+00  0.00000000000E+00 -0.25330993993E+03  0.25330993998E+03  0.50400001928E-02 0. -1.
    10030    2    1    2    0    0  0.00000000000E+00  0.00000000000E+00  0.37863696253E+03  0.88525684245E+03  0.80019605580E+03 0.  0.
        5    1    3    3  502    0 -0.34521257202E+02 -0.21611113795E+01  0.63025909530E+03  0.63122500331E+03  0.46999998093E+01 0.  1.
       -5    1    3    3    0  502  0.34521257202E+02  0.21611113795E+01 -0.25162213277E+03  0.25403183914E+03  0.46999998093E+01 0. -1.
</event>
<event>
 5   0  0.2763587E-03  0.7811200E+03  0.7818609E-02  0.9587754E-01
        2   -1    0    0  501    0  0.00000000000E+00  0.00000000000E+00  0.53993130355E+03  0.53993130355E+03  0.25500000920E-02 0. -1.
       -2   -1    0    0    0  501  0.00000000000E+00  0.00000000000E+00 -0.28251210313E+03  0.28251210314E+03  0.25500000920E-02 0.  1.
    10030    2    1    2    0    0  0.00000000000E+00  0.00000000000E+00  0.25741920042E+03  0.82244340669E+03  0.78112003717E+03 0.  0.
        3    1    3    3  502    0  0.21344713824E+03 -0.12966055254E+03  0.44487084364E+03  0.51017802523E+03  0.10100000352E+00 0. -1.
       -3    1    3    3    0  502 -0.21344713824E+03  0.12966055254E+03 -0.18745164322E+03  0.31226538146E+03  0.10100000352E+00 0.  1.
</event>
<event>
 5   0  0.1656051E-03  0.8005240E+03  0.7818609E-02  0.9559259E-01
        1   -1    0    0  501    0  0.00000000000E+00  0.00000000000E+00  0.53464237264E+03  0.53464237266E+03  0.50400001928E-02 0. -1.
       -1   -1    0    0    0  501  0.00000000000E+00  0.00000000000E+00 -0.29965761882E+03  0.29965761886E+03  0.50400001928E-02 0.  1.
    10030    2    1    2    0    0  0.00000000000E+00  0.00000000000E+00  0.23498475382E+03  0.83429999153E+03  0.80052397923E+03 0.  0.
        3    1    3    3  502    0  0.18769515010E+03  0.82582872620E+01  0.48583327482E+03  0.52089504682E+03  0.10100000352E+00 0. -1.
       -3    1    3    3    0  502 -0.18769515010E+03 -0.82582872620E+01 -0.25084852099E+03  0.31340494471E+03  0.10100000352E+00 0.  1.
</event>
<event>
 5   0  0.1637228E-03  0.7993168E+03  0.7818609E-02  0.9561007E-01
       -1   -1    0    0    0  501  0.00000000000E+00  0.00000000000E+00  0.53275539105E+03  0.53275539108E+03  0.50400001928E-02 0. -1.
        1   -1    0    0  501    0  0.00000000000E+00  0.00000000000E+00 -0.29981267573E+03  0.29981267578E+03  0.50400001928E-02 0.  1.
    10030    2    1    2    0    0  0.00000000000E+00  0.00000000000E+00  0.23294271532E+03  0.83256806685E+03  0.79931675656E+03 0.  0.
        2    1    3    3  502    0  0.24836565479E+03  0.44096195533E+02 -0.20641924076E+03  0.32594305622E+03  0.25500000920E-02 0.  1.
       -2    1    3    3    0  502 -0.24836565479E+03 -0.44096195533E+02  0.43936195608E+03  0.50662501063E+03  0.25500000920E-02 0. -1.
</event>
<event>
 5   0  0.2690809E-03  0.7995817E+03  0.7818609E-02  0.9560623E-01
        2   -1    0    0  501    0  0.00000000000E+00  0.00000000000E+00  0.43212663415E+03  0.43212663416E+03  0.25500000920E-02 0.  1.
       -2   -1    0    0    0  501  0.00000000000E+00  0.00000000000E+00 -0.36987474365E+03  0.36987474366E+03  0.25500000920E-02 0. -1.
    10030    2    1    2    0    0  0.00000000000E+00  0.00000000000E+00  0.62251890502E+02  0.80200137781E+03  0.79958171074E+03 0.  0.
        5    1    3    3  502    0 -0.17140265108E+03  0.28991321520E+02 -0.32995131616E+03  0.37297362716E+03  0.46999998093E+01 0. -1.
       -5    1    3    3    0  502  0.17140265108E+03 -0.28991321520E+02  0.39220320666E+03  0.42902775066E+03  0.46999998093E+01 0.  1.
</event>
<event>
 5   0  0.2763587E-03  0.7987611E+03  0.7818609E-02  0.9561812E-01
       -2   -1    0    0    0  501  0.00000000000E+00  0.00000000000E+00  0.21989862942E+03  0.21989862944E+03  0.25500000920E-02 0.  1.
        2   -1    0    0  501    0  0.00000000000E+00  0.00000000000E+00 -0.72535612882E+03  0.72535612883E+03  0.25500000920E-02 0. -1.
    10030    2    1    2    0    0  0.00000000000E+00  0.00000000000E+00 -0.50545749940E+03  0.94525475827E+03  0.79876108714E+03 0.  0.
        3    1    3    3  502    0  0.38826045607E+03 -0.56394277019E+02 -0.34111472924E+03  0.51989014699E+03  0.10100000352E+00 0. -1.
       -3    1    3    3    0  502 -0.38826045607E+03  0.56394277019E+02 -0.16434277016E+03  0.42536461128E+03  0.10100000352E+00 0.  1.
</event>
<event>
 5   0  0.1617491E-03  0.7999157E+03  0.7818609E-02  0.9560139E-01
       -1   -1    0    0    0  501  0.00000000000E+00  0.00000000000E+00  0.91537890846E+02  0.91537890984E+02  0.50400001928E-02 0.  1.
        1   -1    0    0  501    0  0.00000000000E+00  0.00000000000E+00 -0.17475417414E+04  0.17475417414E+04  0.50400001928E-02 0. -1.
    10030    2    1    2    0    0  0.00000000000E+00  0.00000000000E+00 -0.16560038505E+04  0.18390796324E+04  0.79991570882E+03 0.  0.
        1    1    3    3  502    0  0.14827222341E+03 -0.27447192536E+03 -0.25255438422E+03  0.40137663990E+03  0.50400001928E-02 0.  1.
       -1    1    3    3    0  502 -0.14827222341E+03  0.27447192536E+03 -0.14034494663E+04  0.14377029925E+04  0.50400001928E-02 0. -1.
</event>
<event>
 5   0  0.2768834E-03  0.8014850E+03  0.7818609E-02  0.9557870E-01
        2   -1    0    0  501    0  0.00000000000E+00  0.00000000000E+00  0.68225629497E+03  0.68225629497E+03  0.25500000920E-02 0. -1.
       -2   -1    0    0    0  501  0.00000000000E+00  0.00000000000E+00 -0.23538744911E+03  0.23538744912E+03  0.25500000920E-02 0.  1.
    10030    2    1    2    0    0  0.00000000000E+00  0.00000000000E+00  0.44686884586E+03  0.91764374409E+03  0.80148504395E+03 0.  0.
        4    1    3    3  502    0 -0.50439602206E+02  0.12342113595E+03  0.65611475794E+03  0.66952604039E+03  0.12699999809E+01 0. -1.
       -4    1    3    3    0  502  0.50439602206E+02 -0.12342113595E+03 -0.20924591208E+03  0.24811770370E+03  0.12699999809E+01 0.  1.
</event>
<event>
 5   0  0.2910501E-03  0.8013255E+03  0.7818609E-02  0.9558100E-01
        2   -1    0    0  501    0  0.00000000000E+00  0.00000000000E+00  0.86405964262E+03  0.86405964263E+03  0.25500000920E-02 0.  1.
       -2   -1    0    0    0  501  0.00000000000E+00  0.00000000000E+00 -0.18578654811E+03  0.18578654813E+03  0.25500000920E-02 0. -1.
    10030    2    1    2    0    0  0.00000000000E+00  0.00000000000E+00  0.67827309451E+03  0.10498461908E+04  0.80132554776E+03 0.  0.
        1    1    3    3  502    0  0.21151672367E+03  0.34004607371E+03  0.35570870276E+03  0.53562985156E+03  0.50400001928E-02 0. -1.
       -1    1    3    3    0  502 -0.21151672367E+03 -0.34004607371E+03  0.32256439175E+03  0.51421633919E+03  0.50400001928E-02 0.  1.
</event>
<event>
 5   0  0.2763587E-03  0.8001767E+03  0.7818609E-02  0.9559761E-01
        2   -1    0    0  501    0  0.00000000000E+00  0.00000000000E+00  0.11629458260E+04  0.11629458260E+04  0.25500000920E-02 0.  1.
       -2   -1    0    0    0  501  0.00000000000E+00  0.00000000000E+00 -0.13764242092E+03  0.13764242095E+03  0.25500000920E-02 0. -1.
    10030    2    1    2    0    0  0.00000000000E+00  0.00000000000E+00  0.10253034051E+04  0.13005882469E+04  0.80017667777E+03 0.  0.
        3    1    3    3  502    0 -0.25726039916E+03 -0.27795306022E+03  0.30304839639E+03  0.48505582918E+03  0.10100000352E+00 0. -1.
       -3    1    3    3    0  502  0.25726039916E+03  0.27795306022E+03  0.72225500868E+03  0.81553241777E+03  0.10100000352E+00 0.  1.
</event>
<event>
 5   0  0.1640035E-03  0.7989983E+03  0.7818609E-02  0.9561468E-01
       -1   -1    0    0    0  501  0.00000000000E+00  0.00000000000E+00  0.59643334151E+03  0.59643334154E+03  0.50400001928E-02 0.  1.
        1   -1    0    0  501    0  0.00000000000E+00  0.00000000000E+00 -0.26758998339E+03  0.26758998344E+03  0.50400001928E-02 0. -1.
    10030    2    1    2    0    0  0.00000000000E+00  0.00000000000E+00  0.32884335813E+03  0.86402332497E+03  0.79899834287E+03 0.  0.
        5    1    3    3  502    0 -0.13401055053E+03 -0.24965612408E+02  0.57047404232E+03  0.58655335002E+03  0.46999998093E+01 0.  1.
       -5    1    3    3    0  502  0.13401055053E+03  0.24965612408E+02 -0.24163068420E+03  0.27746997495E+03  0.46999998093E+01 0. -1.
</event>
<event>
 5   0  0.1637228E-03  0.7993419E+03  0.7818609E-02  0.9560970E-01
       -1   -1    0    0    0  501  0.00000000000E+00  0.00000000000E+00  0.33819854435E+03  0.33819854438E+03  0.50400001928E-02 0. -1.
        1   -1    0    0  501    0  0.00000000000E+00  0.00000000000E+00 -0.47231682679E+03  0.47231682682E+03  0.50400001928E-02 0.  1.
    10030    2    1    2    0    0  0.00000000000E+00  0.00000000000E+00 -0.13411828244E+03  0.81051537120E+03  0.79934188760E+03 0.  0.
        2    1    3    3  502    0  0.10784823434E+02  0.35885711488E+03  0.11101497972E+03  0.37579125462E+03  0.25500000920E-02 0.  1.
       -2    1    3    3    0  502 -0.10784823434E+02 -0.35885711488E+03 -0.24513326216E+03  0.43472411659E+03  0.25500000920E-02 0. -1.
</event>
<event>
 5   0  0.1617491E-03  0.8029015E+03  0.7818609E-02  0.9555827E-01
        1   -1    0    0  501    0  0.00000000000E+00  0.00000000000E+00  0.70556837470E+03  0.70556837472E+03  0.50400001928E-02 0. -1.
       -1   -1    0    0    0  501  0.00000000000E+00  0.00000000000E+00 -0.22841542107E+03  0.22841542112E+03  0.50400001928E-02 0.  1.
    10030    2    1    2    0    0  0.00000000000E+00  0.00000000000E+00  0.47715295363E+03  0.93398379585E+03  0.80290148196E+03 0.  0.
        1    1    3    3  502    0  0.23733591155E+03  0.84885636257E+02 -0.12489140341E+03  0.28130369501E+03  0.50400001928E-02 0.  1.
       -1    1    3    3    0  502 -0.23733591155E+03 -0.84885636257E+02  0.60204435704E+03  0.65268010084E+03  0.50400001928E-02 0. -1.
</event>
<event>
 5   0  0.2873212E-03  0.8010034E+03  0.7818609E-02  0.9558566E-01
        2   -1    0    0  501    0  0.00000000000E+00  0.00000000000E+00  0.11952497041E+04  0.11952497041E+04  0.25500000920E-02 0. -1.
       -2   -1    0    0    0  501  0.00000000000E+00  0.00000000000E+00 -0.13419925108E+03  0.13419925110E+03  0.25500000920E-02 0.  1.
    10030    2    1    2    0    0  0.00000000000E+00  0.00000000000E+00  0.10610504530E+04  0.13294489552E+04  0.80100340862E+03 0.  0.
        2    1    3    3  502    0 -0.73202541619E+02  0.15573187834E+03  0.11307660706E+04  0.11437844799E+04  0.25500000920E-02 0. -1.
       -2    1    3    3    0  502  0.73202541619E+02 -0.15573187834E+03 -0.69715617619E+02  0.18566447527E+03  0.25500000920E-02 0.  1.
</event>
<event>
 5   0  0.2768834E-03  0.8002429E+03  0.7818609E-02  0.9559666E-01
       -2   -1    0    0    0  501  0.00000000000E+00  0.00000000000E+00  0.14588561743E+03  0.14588561745E+03  0.25500000920E-02 0. -1.
        2   -1    0    0  501    0  0.00000000000E+00  0.00000000000E+00 -0.10974158338E+04  0.10974158338E+04  0.25500000920E-02 0.  1.
    10030    2    1    2    0    0  0.00000000000E+00  0.00000000000E+00 -0.95153021640E+03  0.12433014513E+04  0.80024292939E+03 0.  0.
        4    1    3    3  502    0  0.26348169194E+03 -0.26405483421E+03 -0.70063227345E+03  0.79374728532E+03  0.12699999809E+01 0.  1.
       -4    1    3    3    0  502 -0.26348169194E+03  0.26405483421E+03 -0.25089794296E+03  0.44955416596E+03  0.12699999809E+01 0. -1.
</event>
<event>
 5   0  0.1637228E-03  0.7999767E+03  0.7818609E-02  0.9560051E-01
        1   -1    0    0  501    0  0.00000000000E+00  0.00000000000E+00  0.34836879230E+03  0.34836879234E+03  0.50400001928E-02 0. -1.
       -1   -1    0    0    0  501  0.00000000000E+00  0.00000000000E+00 -0.45925668345E+03  0.45925668348E+03  0.50400001928E-02 0.  1.
    10030    2    1    2    0    0  0.00000000000E+00  0.00000000000E+00 -0.11088789115E+03  0.80762547582E+03  0.79997674016E+03 0.  0.
        2    1    3    3  502    0  0.30058926655E+03 -0.21950772765E+03  0.92425399610E+02  0.38351010960E+03  0.25500000920E-02 0. -1.
       -2    1    3    3    0  502 -0.30058926655E+03  0.21950772765E+03 -0.20331329076E+03  0.42411536623E+03  0.25500000920E-02 0.  1.
</event>
<event>
 5   0  0.1095350E-03  0.8026435E+03  0.7818609E-02  0.9556199E-01
        3   -1    0    0  501    0  0.00000000000E+00  0.00000000000E+00  0.46226724498E+03  0.46226725602E+03  0.10100000352E+00 0. -1.
       -3   -1    0    0    0  501  0.00000000000E+00  0.00000000000E+00 -0.34841131848E+03  0.34841133312E+03  0.10100000352E+00 0.  1.
    10030    2    1    2    0    0  0.00000000000E+00  0.00000000000E+00  0.11385592650E+03  0.81067858914E+03  0.80264350922E+03 0.  0.
        5    1    3    3  502    0  0.58750104795E+02  0.27418864266E+03 -0.23301035622E+03  0.36461884576E+03  0.46999998093E+01 0.  1.
       -5    1    3    3    0  502 -0.58750104795E+02 -0.27418864266E+03  0.34686628272E+03  0.44605974338E+03  0.46999998093E+01 0. -1.
</event>
<event>
 5   0  0.1640035E-03  0.7924923E+03  0.7818609E-02  0.9570948E-01
       -1   -1    0    0    0  501  0.00000000000E+00  0.00000000000E+00  0.25878602208E+03  0.25878602213E+03  0.50400001928E-02 0. -1.
        1   -1    0    0  501    0  0.00000000000E+00  0.00000000000E+00 -0.60672136105E+03  0.60672136107E+03  0.50400001928E-02 0.  1.
    10030    2    1    2    0    0  0.00000000000E+00  0.00000000000E+00 -0.34793533898E+03  0.86550738320E+03  0.79249229035E+03 0.  0.
        5    1    3    3  502    0  0.10380752917E+03 -0.18283543965E+03 -0.54074264931E+03  0.58019781445E+03  0.46999998093E+01 0.  1.
       -5    1    3    3    0  502 -0.10380752917E+03  0.18283543965E+03  0.19280731034E+03  0.28530956875E+03  0.46999998093E+01 0. -1.
</event>
<event>
 5   0  0.1637228E-03  0.7987292E+03  0.7818609E-02  0.9561858E-01
       -1   -1    0    0    0  501  0.00000000000E+00  0.00000000000E+00  0.52687562892E+03  0.52687562895E+03  0.50400001928E-02 0. -1.
        1   -1    0    0  501    0  0.00000000000E+00  0.00000000000E+00 -0.30271299751E+03  0.30271299755E+03  0.50400001928E-02 0.  1.
    10030    2    1    2    0    0  0.00000000000E+00  0.00000000000E+00  0.22416263142E+03  0.82958862650E+03  0.79872924316E+03 0.  0.
        2    1    3    3  502    0 -0.18652862931E+03  0.35270497476E+03  0.13002213934E+03  0.41964209214E+03  0.25500000920E-02 0. -1.
       -2    1    3    3    0  502  0.18652862931E+03 -0.35270497476E+03  0.94140492078E+02  0.40994653435E+03  0.25500000920E-02 0.  1.
</event>
<event>
 5   0  0.1095350E-03  0.8027199E+03  0.7818609E-02  0.9556088E-01
        3   -1    0    0  501    0  0.00000000000E+00  0.00000000000E+00  0.34162735262E+03  0.34162736755E+03  0.10100000352E+00 0.  1.
       -3   -1    0    0    0  501  0.00000000000E+00  0.00000000000E+00 -0.47153664592E+03  0.47153665674E+03  0.10100000352E+00 0. -1.
    10030    2    1    2    0    0  0.00000000000E+00  0.00000000000E+00 -0.12990929330E+03  0.81316402428E+03  0.80271994238E+03 0.  0.
        2    1    3    3  502    0 -0.31544563696E+03 -0.24032369199E+03 -0.22755485643E+01  0.39656853750E+03  0.25500000920E-02 0. -1.
       -2    1    3    3    0  502  0.31544563696E+03  0.24032369199E+03 -0.12763374474E+03  0.41659548678E+03  0.25500000920E-02 0.  1.
</event>
<event>
 5   0  0.2873212E-03  0.8009484E+03  0.7818609E-02  0.9558645E-01
        2   -1    0    0  501    0  0.00000000000E+00  0.00000000000E+00  0.10520982321E+04  0.10520982321E+04  0.25500000920E-02 0. -1.
       -2   -1    0    0    0  501  0.00000000000E+00  0.00000000000E+00 -0.15243784543E+03  0.15243784545E+03  0.25500000920E-02 0.  1.
    10030    2    1    2    0    0  0.00000000000E+00  0.00000000000E+00  0.89966038664E+03  0.12045360775E+04  0.80094840704E+03 0.  0.
        2    1    3    3  502    0 -0.31718807146E+03 -0.22277590522E+03  0.60128448779E+03  0.71538829448E+03  0.25500000920E-02 0. -1.
       -2    1    3    3    0  502  0.31718807146E+03  0.22277590522E+03  0.29837589885E+03  0.48914778303E+03  0.25500000920E-02 0.  1.
</event>
<event>
 5   0  0.2763587E-03  0.7991513E+03  0.7818609E-02  0.9561246E-01
       -2   -1    0    0    0  501  0.00000000000E+00  0.00000000000E+00  0.15234554394E+03  0.15234554396E+03  0.25500000920E-02 0. -1.
        2   -1    0    0  501    0  0.00000000000E+00  0.00000000000E+00 -0.10480168320E+04  0.10480168320E+04  0.25500000920E-02 0.  1.
    10030    2    1    2    0    0  0.00000000000E+00  0.00000000000E+00 -0.89567128811E+03  0.12003623760E+04  0.79915128567E+03 0.  0.
        3    1    3    3  502    0 -0.78944276469E+02 -0.33335381784E+03 -0.75677457446E+03  0.83070135031E+03  0.10100000352E+00 0.  1.
       -3    1    3    3    0  502  0.78944276469E+02  0.33335381784E+03 -0.13889671364E+03  0.36966102569E+03  0.10100000352E+00 0. -1.
</event>
<event>
 5   0  0.2873212E-03  0.7989547E+03  0.7818609E-02  0.9561531E-01
       -2   -1    0    0    0  501  0.00000000000E+00  0.00000000000E+00  0.73083088343E+03  0.73083088343E+03  0.25500000920E-02 0. -1.
        2   -1    0    0  501    0  0.00000000000E+00  0.00000000000E+00 -0.21835717434E+03  0.21835717436E+03  0.25500000920E-02 0.  1.
    10030    2    1    2    0    0  0.00000000000E+00  0.00000000000E+00  0.51247370909E+03  0.94918805779E+03  0.79895473373E+03 0.  0.
        2    1    3    3  502    0 -0.13910984545E+03 -0.59691318975E+01  0.70106917405E+03  0.71476231465E+03  0.25500000920E-02 0. -1.
       -2    1    3    3    0  502  0.13910984545E+03  0.59691318975E+01 -0.18859546496E+03  0.23442574314E+03  0.25500000920E-02 0.  1.
</event>
<event>
 5   0  0.1656051E-03  0.7980870E+03  0.7818609E-02  0.9562790E-01
       -1   -1    0    0    0  501  0.00000000000E+00  0.00000000000E+00  0.15986132098E+03  0.15986132106E+03  0.50400001928E-02 0.  1.
        1   -1    0    0  501    0  0.00000000000E+00  0.00000000000E+00 -0.99608645367E+03  0.99608645369E+03  0.50400001928E-02 0. -1.
    10030    2    1    2    0    0  0.00000000000E+00  0.00000000000E+00 -0.83622513270E+03  0.11559477747E+04  0.79808695352E+03 0.  0.
        3    1    3    3  502    0 -0.24886059529E+03 -0.20055367450E+03 -0.76416251301E+03  0.82831016457E+03  0.10100000352E+00 0. -1.
       -3    1    3    3    0  502  0.24886059529E+03  0.20055367450E+03 -0.72062619684E+02  0.32763761017E+03  0.10100000352E+00 0.  1.
</event>
<event>
 5   0  0.1640035E-03  0.7996971E+03  0.7818609E-02  0.9560456E-01
        1   -1    0    0  501    0  0.00000000000E+00  0.00000000000E+00  0.66065774654E+03  0.66065774655E+03  0.50400001928E-02 0.  1.
       -1   -1    0    0    0  501  0.00000000000E+00  0.00000000000E+00 -0.24199950356E+03  0.24199950361E+03  0.50400001928E-02 0. -1.
    10030    2    1    2    0    0  0.00000000000E+00  0.00000000000E+00  0.41865824298E+03  0.90265725016E+03  0.79969705943E+03 0.  0.
        5    1    3    3  502    0 -0.27621931606E+03  0.60961468371E+02 -0.10961656920E+03  0.30339956070E+03  0.46999998093E+01 0. -1.
       -5    1    3    3    0  502  0.27621931606E+03 -0.60961468371E+02  0.52827481218E+03  0.59925768946E+03  0.46999998093E+01 0.  1.
</event>
<event>
 5   0  0.2690809E-03  0.8019357E+03  0.7818609E-02  0.9557220E-01
       -2   -1    0    0    0  501  0.00000000000E+00  0.00000000000E+00  0.42933459424E+03  0.42933459424E+03  0.25500000920E-02 0. -1.
        2   -1    0    0  501    0  0.00000000000E+00  0.00000000000E+00 -0.37447531255E+03  0.37447531256E+03  0.25500000920E-02 0.  1.
    10030    2    1    2    0    0  0.00000000000E+00  0.00000000000E+00  0.54859281684E+02  0.80380990681E+03  0.80193567416E+03 0.  0.
        5    1    3    3  502    0  0.29180758025E+03 -0.10953761625E+03  0.28021533676E+03  0.41915734303E+03  0.46999998093E+01 0. -1.
       -5    1    3    3    0  502 -0.29180758025E+03  0.10953761625E+03 -0.22535605507E+03  0.38465256378E+03  0.46999998093E+01 0.  1.
</event>
<event>
 5   0  0.1640035E-03  0.7861354E+03  0.7818609E-02  0.9580305E-01
        1   -1    0    0  501    0  0.00000000000E+00  0.00000000000E+00  0.17025720923E+03  0.17025720931E+03  0.50400001928E-02 0.  1.
       -1   -1    0    0    0  501  0.00000000000E+00  0.00000000000E+00 -0.90746357825E+03  0.90746357826E+03  0.50400001928E-02 0. -1.
    10030    2    1    2    0    0  0.00000000000E+00  0.00000000000E+00 -0.73720636902E+03  0.10777207876E+04  0.78613539892E+03 0.  0.
        5    1    3    3  502    0 -0.13765040210E+03  0.17214337250E+03 -0.81472673451E+03  0.84402767479E+03  0.46999998093E+01 0. -1.
       -5    1    3    3    0  502  0.13765040210E+03 -0.17214337250E+03  0.77520365493E+02  0.23369311278E+03  0.46999998093E+01 0.  1.
</event>
<event>
 5   0  0.1637228E-03  0.7996782E+03  0.7818609E-02  0.9560483E-01
        1   -1    0    0  501    0  0.00000000000E+00  0.00000000000E+00  0.54964067616E+03  0.54964067618E+03  0.50400001928E-02 0.  1.
       -1   -1    0    0    0  501  0.00000000000E+00  0.00000000000E+00 -0.29086510308E+03  0.29086510313E+03  0.50400001928E-02 0. -1.
    10030    2    1    2    0    0  0.00000000000E+00  0.00000000000E+00  0.25877557307E+03  0.84050577931E+03  0.79967816516E+03 0.  0.
        2    1    3    3  502    0 -0.96933544326E+02 -0.27402571972E+03 -0.15919350985E+03  0.33140425566E+03  0.25500000920E-02 0. -1.
       -2    1    3    3    0  502  0.96933544326E+02  0.27402571972E+03  0.41796908293E+03  0.50910152364E+03  0.25500000920E-02 0.  1.
</event>
<event>
 5   0  0.2690809E-03  0.7953371E+03  0.7818609E-02  0.9566791E-01
       -2   -1    0    0    0  501  0.00000000000E+00  0.00000000000E+00  0.34332258656E+03  0.34332258657E+03  0.25500000920E-02 0. -1.
        2   -1    0    0  501    0  0.00000000000E+00  0.00000000000E+00 -0.46061712881E+03  0.46061712882E+03  0.25500000920E-02 0.  1.
    10030    2    1    2    0    0  0.00000000000E+00  0.00000000000E+00 -0.11729454226E+03  0.80393971539E+03  0.79533707089E+03 0.  0.
        5    1    3    3  502    0  0.26266298471E+03  0.28972511318E+03 -0.13143790583E+03  0.41258998755E+03  0.46999998093E+01 0.  1.
       -5    1    3    3    0  502 -0.26266298471E+03 -0.28972511318E+03  0.14143363571E+02  0.39134972783E+03  0.46999998093E+01 0. -1.
</event>
<event>
 5   0  0.1617491E-03  0.7987303E+03  0.7818609E-02  0.9561857E-01
       -1   -1    0    0    0  501  0.00000000000E+00  0.00000000000E+00  0.10957699254E+04  0.10957699254E+04  0.50400001928E-02 0.  1.
        1   -1    0    0  501    0  0.00000000000E+00  0.00000000000E+00 -0.14555291624E+03  0.14555291632E+03  0.50400001928E-02 0. -1.
    10030    2    1    2    0    0  0.00000000000E+00  0.00000000000E+00  0.95021700913E+03  0.12413228417E+04  0.79873026291E+03 0.  0.
        1    1    3    3  502    0  0.26180901156E+03 -0.21450283122E+03  0.14566036747E+03  0.36847301911E+03  0.50400001928E-02 0. -1.
       -1    1    3    3    0  502 -0.26180901156E+03  0.21450283122E+03  0.80455664166E+03  0.87284982259E+03  0.50400001928E-02 0.  1.
</event>
<event>
 5   0  0.2763587E-03  0.7997265E+03  0.7818609E-02  0.9560413E-01
       -2   -1    0    0    0  501  0.00000000000E+00  0.00000000000E+00  0.82669687615E+02  0.82669687654E+02  0.25500000920E-02 0. -1.
        2   -1    0    0  501    0  0.00000000000E+00  0.00000000000E+00 -0.19340897928E+04  0.19340897928E+04  0.25500000920E-02 0.  1.
    10030    2    1    2    0    0  0.00000000000E+00  0.00000000000E+00 -0.18514201052E+04  0.20167594805E+04  0.79972645082E+03 0.  0.
        3    1    3    3  502    0 -0.16808637006E+02 -0.39947515391E+03 -0.91244715352E+03  0.99620416935E+03  0.10100000352E+00 0.  1.
       -3    1    3    3    0  502  0.16808637006E+02  0.39947515391E+03 -0.93897295171E+03  0.10205553111E+04  0.10100000352E+00 0. -1.
</event>
<event>
 5   0  0.2910501E-03  0.8000438E+03  0.7818609E-02  0.9559954E-01
       -2   -1    0    0    0  501  0.00000000000E+00  0.00000000000E+00  0.16834700458E+03  0.16834700460E+03  0.25500000920E-02 0.  1.
        2   -1    0    0  501    0  0.00000000000E+00  0.00000000000E+00 -0.95052196712E+03  0.95052196713E+03  0.25500000920E-02 0. -1.
    10030    2    1    2    0    0  0.00000000000E+00  0.00000000000E+00 -0.78217496254E+03  0.11188689717E+04  0.80004381372E+03 0.  0.
        1    1    3    3  502    0 -0.33722669890E+03 -0.12901681531E+03 -0.15027427283E+03  0.39108764003E+03  0.50400001928E-02 0.  1.
       -1    1    3    3    0  502  0.33722669890E+03  0.12901681531E+03 -0.63190068971E+03  0.72778133169E+03  0.50400001928E-02 0. -1.
</event>
<event>
 5   0  0.2763587E-03  0.8038358E+03  0.7818609E-02  0.9554481E-01
       -2   -1    0    0    0  501  0.00000000000E+00  0.00000000000E+00  0.13651172304E+03  0.13651172307E+03  0.25500000920E-02 0.  1.
        2   -1    0    0  501    0  0.00000000000E+00  0.00000000000E+00 -0.11833269462E+04  0.11833269462E+04  0.25500000920E-02 0. -1.
    10030    2    1    2    0    0  0.00000000000E+00  0.00000000000E+00 -0.10468152232E+04  0.13198386693E+04  0.80383580506E+03 0.  0.
        3    1    3    3  502    0  0.17445255226E+03  0.25488743317E+03 -0.10115266973E+03  0.32501256802E+03  0.10100000352E+00 0.  1.
       -3    1    3    3    0  502 -0.17445255226E+03 -0.25488743317E+03 -0.94566255347E+03  0.99482610129E+03  0.10100000352E+00 0. -1.
</event>
<event>
 5   0  0.1095350E-03  0.8007794E+03  0.7818609E-02  0.9558890E-01
        4   -1    0    0  501    0  0.00000000000E+00  0.00000000000E+00  0.32325006631E+03  0.32325256112E+03  0.12699999809E+01 0. -1.
       -4   -1    0    0    0  501  0.00000000000E+00  0.00000000000E+00 -0.49593255821E+03  0.49593418433E+03  0.12699999809E+01 0.  1.
    10030    2    1    2    0    0  0.00000000000E+00  0.00000000000E+00 -0.17268249190E+03  0.81918674545E+03  0.80077942088E+03 0.  0.
        3    1    3    3  502    0  0.10519164077E+03 -0.39509547252E+02 -0.47947390584E+03  0.49246474208E+03  0.10100000352E+00 0.  1.
       -3    1    3    3    0  502 -0.10519164077E+03  0.39509547252E+02  0.30679141394E+03  0.32672200336E+03  0.10100000352E+00 0. -1.
</event>
<event>
 5   0  0.2768834E-03  0.8018691E+03  0.7818609E-02  0.9557316E-01
       -2   -1    0    0    0  501  0.00000000000E+00  0.00000000000E+00  0.29099791276E+03  0.29099791278E+03  0.25500000920E-02 0. -1.
        2   -1    0    0  501    0  0.00000000000E+00  0.00000000000E+00 -0.55240439807E+03  0.55240439807E+03  0.25500000920E-02 0.  1.
    10030    2    1    2    0    0  0.00000000000E+00  0.00000000000E+00 -0.26140648530E+03  0.84340231085E+03  0.80186913358E+03 0.  0.
        4    1    3    3  502    0  0.10752589227E+03 -0.32003965710E+03 -0.35814343539E+03  0.49219460871E+03  0.12699999809E+01 0.  1.
       -4    1    3    3    0  502 -0.10752589227E+03  0.32003965710E+03  0.96736950092E+02  0.35120770214E+03  0.12699999809E+01 0. -1.
</event>
<event>
 5   0  0.1640035E-03  0.7942754E+03  0.7818609E-02  0.9568340E-01
        1   -1    0    0  501    0  0.00000000000E+00  0.00000000000E+00  0.10251830502E+04  0.10251830502E+04  0.50400001928E-02 0.  1.
       -1   -1    0    0    0  501  0.00000000000E+00  0.00000000000E+00 -0.15384408151E+03  0.15384408160E+03  0.50400001928E-02 0. -1.
    10030    2    1    2    0    0  0.00000000000E+00  0.00000000000E+00  0.87133896865E+03  0.11790271318E+04  0.79427537994E+03 0.  0.
        5    1    3    3  502    0  0.36865597486E+03  0.63010366903E+02  0.23752090725E+03  0.44307539484E+03  0.46999998093E+01 0. -1.
       -5    1    3    3    0  502 -0.36865597486E+03 -0.63010366903E+02  0.63381806140E+03  0.73595173693E+03  0.46999998093E+01 0.  1.
</event>
<event>
 5   0  0.1095350E-03  0.7990729E+03  0.7818609E-02  0.9561360E-01
       -4   -1    0    0    0  501  0.00000000000E+00  0.00000000000E+00  0.39695842434E+03  0.39696045591E+03  0.12699999809E+01 0. -1.
        4   -1    0    0  501    0  0.00000000000E+00  0.00000000000E+00 -0.40212720069E+03  0.40212920614E+03  0.12699999809E+01 0.  1.
    10030    2    1    2    0    0  0.00000000000E+00  0.00000000000E+00 -0.51687763483E+01  0.79908966205E+03  0.79907294520E+03 0.  0.
        4    1    3    3  502    0 -0.30482918537E+02  0.39836507732E+03 -0.45432257390E+01  0.39955750143E+03  0.12699999809E+01 0. -1.
       -4    1    3    3    0  502  0.30482918537E+02 -0.39836507732E+03 -0.62555060930E+00  0.39953216061E+03  0.12699999809E+01 0.  1.
</event>
<event>
 5   0  0.1095350E-03  0.7967457E+03  0.7818609E-02  0.9564740E-01
       -3   -1    0    0    0  501  0.00000000000E+00  0.00000000000E+00  0.68829726159E+03  0.68829726900E+03  0.10100000352E+00 0. -1.
        3   -1    0    0  501    0  0.00000000000E+00  0.00000000000E+00 -0.23057031287E+03  0.23057033500E+03  0.10100000352E+00 0.  1.
    10030    2    1    2    0    0  0.00000000000E+00  0.00000000000E+00  0.45772694871E+03  0.91886760399E+03  0.79674570227E+03 0.  0.
        1    1    3    3  502    0  0.14455179165E+03  0.72248703283E+02  0.64879818257E+03  0.66862110146E+03  0.50400001928E-02 0. -1.
       -1    1    3    3    0  502 -0.14455179165E+03 -0.72248703283E+02 -0.19107123385E+03  0.25024650253E+03  0.50400001928E-02 0.  1.
</event>
<event>
 5   0  0.1095350E-03  0.7989753E+03  0.7818609E-02  0.9561502E-01
        3   -1    0    0  501    0  0.00000000000E+00  0.00000000000E+00  0.37251907393E+03  0.37251908762E+03  0.10100000352E+00 0.  1.
       -3   -1    0    0    0  501  0.00000000000E+00  0.00000000000E+00 -0.42840857869E+03  0.42840859059E+03  0.10100000352E+00 0. -1.
    10030    2    1    2    0    0  0.00000000000E+00  0.00000000000E+00 -0.55889504753E+02  0.80092767822E+03  0.79897528685E+03 0.  0.
        3    1    3    3  502    0  0.15058556927E+02 -0.19631536082E+03  0.32050194746E+03  0.37614889281E+03  0.10100000352E+00 0.  1.
       -3    1    3    3    0  502 -0.15058556927E+02  0.19631536082E+03 -0.37639145222E+03  0.42477878541E+03  0.10100000352E+00 0. -1.
</event>
<event>
 5   0  0.1095350E-03  0.7996046E+03  0.7818609E-02  0.9560590E-01
        3   -1    0    0  501    0  0.00000000000E+00  0.00000000000E+00  0.18642076846E+03  0.18642079582E+03  0.10100000352E+00 0. -1.
       -3   -1    0    0    0  501  0.00000000000E+00  0.00000000000E+00 -0.85742509289E+03  0.85742509884E+03  0.10100000352E+00 0.  1.
    10030    2    1    2    0    0  0.00000000000E+00  0.00000000000E+00 -0.67100432443E+03  0.10438458947E+04  0.79960455750E+03 0.  0.
        2    1    3    3  502    0  0.13387241818E+02 -0.28850562606E+03 -0.69640055855E+03  0.75391541467E+03  0.25500000920E-02 0.  1.
       -2    1    3    3    0  502 -0.13387241818E+02  0.28850562606E+03  0.25396234124E+02  0.28993047999E+03  0.25500000920E-02 0. -1.
</event>
<event>
 5   0  0.1637228E-03  0.7971659E+03  0.7818609E-02  0.9564128E-01
       -1   -1    0    0    0  501  0.00000000000E+00  0.00000000000E+00  0.24568726266E+03  0.24568726271E+03  0.50400001928E-02 0. -1.
        1   -1    0    0  501    0  0.00000000000E+00  0.00000000000E+00 -0.64662842819E+03  0.64662842821E+03  0.50400001928E-02 0.  1.
    10030    2    1    2    0    0  0.00000000000E+00  0.00000000000E+00 -0.40094116553E+03  0.89231569092E+03  0.79716590121E+03 0.  0.
        2    1    3    3  502    0  0.80555302295E+02  0.14527110422E+03  0.20509555489E+03  0.26392619630E+03  0.25500000920E-02 0. -1.
       -2    1    3    3    0  502 -0.80555302295E+02 -0.14527110422E+03 -0.60603672042E+03  0.62838949462E+03  0.25500000920E-02 0.  1.
</event>
<event>
 5   0  0.1656051E-03  0.7961638E+03  0.7818609E-02  0.9565586E-01
       -1   -1    0    0    0  501  0.00000000000E+00  0.00000000000E+00  0.21574622640E+03  0.21574622645E+03  0.50400001928E-02 0. -1.
        1   -1    0    0  501    0  0.00000000000E+00  0.00000000000E+00 -0.73451675776E+03  0.73451675778E+03  0.50400001928E-02 0.  1.
    10030    2    1    2    0    0  0.00000000000E+00  0.00000000000E+00 -0.51877053136E+03  0.95026298423E+03  0.79616384934E+03 0.  0.
        3    1    3    3  502    0  0.15040076504E+02 -0.26873389121E+03  0.90683974815E+02  0.28402060079E+03  0.10100000352E+00 0. -1.
       -3    1    3    3    0  502 -0.15040076504E+02  0.26873389121E+03 -0.60945450618E+03  0.66624238344E+03  0.10100000352E+00 0.  1.
</event>
<event>
 5   0  0.1640035E-03  0.7764258E+03  0.7818609E-02  0.9594781E-01
        1   -1    0    0  501    0  0.00000000000E+00  0.00000000000E+00  0.71125773766E+03  0.71125773767E+03  0.50400001928E-02 0. -1.
       -1   -1    0    0    0  501  0.00000000000E+00  0.00000000000E+00 -0.21189121109E+03  0.21189121115E+03  0.50400001928E-02 0.  1.
    10030    2    1    2    0    0  0.00000000000E+00  0.00000000000E+00  0.49936652657E+03  0.92314894882E+03  0.77642581993E+03 0.  0.
        5    1    3    3  502    0  0.34199537031E+03  0.10582273101E+02  0.31694450814E+02  0.34365599955E+03  0.46999998093E+01 0.  1.
       -5    1    3    3    0  502 -0.34199537031E+03 -0.10582273101E+02  0.46767207576E+03  0.57949294927E+03  0.46999998093E+01 0. -1.
</event>
<event>
 5   0  0.2690809E-03  0.7998400E+03  0.7818609E-02  0.9560249E-01
        2   -1    0    0  501    0  0.00000000000E+00  0.00000000000E+00  0.11157266106E+04  0.11157266106E+04  0.25500000920E-02 0.  1.
       -2   -1    0    0    0  501  0.00000000000E+00  0.00000000000E+00 -0.14334695303E+03  0.14334695306E+03  0.25500000920E-02 0. -1.
    10030    2    1    2    0    0  0.00000000000E+00  0.00000000000E+00  0.97237965758E+03  0.12590735637E+04  0.79984000917E+03 0.  0.
        5    1    3    3  502    0 -0.26291646907E+03 -0.12991669666E+03  0.91414773866E+03  0.96004770500E+03  0.46999998093E+01 0.  1.
       -5    1    3    3    0  502  0.26291646907E+03  0.12991669666E+03  0.58231918918E+02  0.29902585867E+03  0.46999998093E+01 0. -1.
</event>
<event>
 5   0  0.1617491E-03  0.8000266E+03  0.7818609E-02  0.9559979E-01
        1   -1    0    0  501    0  0.00000000000E+00  0.00000000000E+00  0.71063971852E+03  0.71063971854E+03  0.50400001928E-02 0.  1.
       -1   -1    0    0    0  501  0.00000000000E+00  0.00000000000E+00 -0.22516422150E+03  0.22516422156E+03  0.50400001928E-02 0. -1.
    10030    2    1    2    0    0  0.00000000000E+00  0.00000000000E+00  0.48547549702E+03  0.93580394010E+03  0.80002659712E+03 0.  0.
        1    1    3    3  502    0 -0.17231686672E+03  0.81516585870E+01 -0.17941645881E+03  0.24889720331E+03  0.50400001928E-02 0. -1.
       -1    1    3    3    0  502  0.17231686672E+03 -0.81516585870E+01  0.66489195584E+03  0.68690673680E+03  0.50400001928E-02 0.  1.
</event>
<event>
 5   0  0.1640035E-03  0.7856639E+03  0.7818609E-02  0.9581003E-01
        1   -1    0    0  501    0  0.00000000000E+00  0.00000000000E+00  0.56048265108E+03  0.56048265110E+03  0.50400001928E-02 0. -1.
       -1   -1    0    0    0  501  0.00000000000E+00  0.00000000000E+00 -0.27532863742E+03  0.27532863746E+03  0.50400001928E-02 0.  1.
    10030    2    1    2    0    0  0.00000000000E+00  0.00000000000E+00  0.28515401366E+03  0.83581128857E+03  0.78566385852E+03 0.  0.
        5    1    3    3  502    0  0.10181598351E+03 -0.29845947545E+03 -0.10657299115E+03  0.33290305710E+03  0.46999998093E+01 0.  1.
       -5    1    3    3    0  502 -0.10181598351E+03  0.29845947545E+03  0.39172700481E+03  0.50290823147E+03  0.46999998093E+01 0. -1.
</event>
<event>
 5   0  0.1712793E-03  0.8014300E+03  0.7818609E-02  0.9557950E-01
        1   -1    0    0  501    0  0.00000000000E+00  0.00000000000E+00  0.62791739302E+03  0.62791739304E+03  0.50400001928E-02 0.  1.
       -1   -1    0    0    0  501  0.00000000000E+00  0.00000000000E+00 -0.25572233518E+03  0.25572233523E+03  0.50400001928E-02 0. -1.
    10030    2    1    2    0    0  0.00000000000E+00  0.00000000000E+00  0.37219505784E+03  0.88363972826E+03  0.80142997716E+03 0.  0.
        4    1    3    3  502    0 -0.38281431378E+03 -0.81150747690E+02  0.91002763769E+02  0.40176530288E+03  0.12699999809E+01 0. -1.
       -4    1    3    3    0  502  0.38281431378E+03  0.81150747690E+02  0.28119229407E+03  0.48187442538E+03  0.12699999809E+01 0.  1.
</event>
<event>
 5   0  0.1637228E-03  0.8027564E+03  0.7818609E-02  0.9556036E-01
       -1   -1    0    0    0  501  0.00000000000E+00  0.00000000000E+00  0.31634355201E+03  0.31634355205E+03  0.50400001928E-02 0. -1.
        1   -1    0    0  501    0  0.00000000000E+00  0.00000000000E+00 -0.50927056403E+03  0.50927056406E+03  0.50400001928E-02 0.  1.
    10030    2    1    2    0    0  0.00000000000E+00  0.00000000000E+00 -0.19292701202E+03  0.82561411611E+03  0.80275639939E+03 0.  0.
        2    1    3    3  502    0  0.16558878614E+03  0.26102239664E+03  0.16685822984E+03  0.35127483046E+03  0.25500000920E-02 0. -1.
       -2    1    3    3    0  502 -0.16558878614E+03 -0.26102239664E+03 -0.35978524186E+03  0.47433928565E+03  0.25500000920E-02 0.  1.
</event>
<event>
 5   0  0.2873212E-03  0.7996940E+03  0.7818609E-02  0.9560460E-01
       -2   -1    0    0    0  501  0.00000000000E+00  0.00000000000E+00  0.31379476382E+03  0.31379476383E+03  0.25500000920E-02 0. -1.
        2   -1    0    0  501    0  0.00000000000E+00  0.00000000000E+00 -0.50949739591E+03  0.50949739592E+03  0.25500000920E-02 0.  1.
    10030    2    1    2    0    0  0.00000000000E+00  0.00000000000E+00 -0.19570263209E+03  0.82329215975E+03  0.79969397903E+03 0.  0.
        2    1    3    3  502    0 -0.75607602859E+02 -0.33924462538E+03 -0.30135634365E+03  0.46002072923E+03  0.25500000920E-02 0.  1.
       -2    1    3    3    0  502  0.75607602859E+02  0.33924462538E+03  0.10565371156E+03  0.36327143052E+03  0.25500000920E-02 0. -1.
</event>
<event>
 5   0  0.2763587E-03  0.7992282E+03  0.7818609E-02  0.9561135E-01
        2   -1    0    0  501    0  0.00000000000E+00  0.00000000000E+00  0.96839547819E+03  0.96839547820E+03  0.25500000920E-02 0. -1.
       -2   -1    0    0    0  501  0.00000000000E+00  0.00000000000E+00 -0.16490312975E+03  0.16490312977E+03  0.25500000920E-02 0.  1.
    10030    2    1    2    0    0  0.00000000000E+00  0.00000000000E+00  0.80349234844E+03  0.11332986080E+04  0.79922824076E+03 0.  0.
        3    1    3    3  502    0 -0.38017386824E+03  0.10837470797E+03  0.31889146010E+03  0.50790650808E+03  0.10100000352E+00 0. -1.
       -3    1    3    3    0  502  0.38017386824E+03 -0.10837470797E+03  0.48460088834E+03  0.62539209989E+03  0.10100000352E+00 0.  1.
</event>
<event>
 5   0  0.2768834E-03  0.8010221E+03  0.7818609E-02  0.9558539E-01
        2   -1    0    0  501    0  0.00000000000E+00  0.00000000000E+00  0.71490099503E+03  0.71490099504E+03  0.25500000920E-02 0.  1.
       -2   -1    0    0    0  501  0.00000000000E+00  0.00000000000E+00 -0.22437948686E+03  0.22437948687E+03  0.25500000920E-02 0. -1.
    10030    2    1    2    0    0  0.00000000000E+00  0.00000000000E+00  0.49052150818E+03  0.93928048191E+03  0.80102214309E+03 0.  0.
        4    1    3    3  502    0  0.30593616551E+03 -0.25412920715E+03  0.30062092919E+03  0.49855104780E+03  0.12699999809E+01 0.  1.
       -4    1    3    3    0  502 -0.30593616551E+03  0.25412920715E+03  0.18990057899E+03  0.44072943411E+03  0.12699999809E+01 0. -1.
</event>
<event>
 5   0  0.1656051E-03  0.8013191E+03  0.7818609E-02  0.9558110E-01
       -1   -1    0    0    0  501  0.00000000000E+00  0.00000000000E+00  0.10132984279E+03  0.10132984291E+03  0.50400001928E-02 0.  1.
        1   -1    0    0  501    0  0.00000000000E+00  0.00000000000E+00 -0.15842131434E+04  0.15842131434E+04  0.50400001928E-02 0. -1.
    10030    2    1    2    0    0  0.00000000000E+00  0.00000000000E+00 -0.14828833006E+04  0.16855429863E+04  0.80131908469E+03 0.  0.
        3    1    3    3  502    0  0.31925992839E+03 -0.23884428045E+03 -0.82437686967E+03  0.91573507393E+03  0.10100000352E+00 0.  1.
       -3    1    3    3    0  502 -0.31925992839E+03  0.23884428045E+03 -0.65850643094E+03  0.76980791238E+03  0.10100000352E+00 0. -1.
</event>
<event>
 5   0  0.2910501E-03  0.7998686E+03  0.7818609E-02  0.9560207E-01
        2   -1    0    0  501    0  0.00000000000E+00  0.00000000000E+00  0.96004180322E+03  0.96004180322E+03  0.25500000920E-02 0. -1.
       -2   -1    0    0    0  501  0.00000000000E+00  0.00000000000E+00 -0.16660464618E+03  0.16660464620E+03  0.25500000920E-02 0.  1.
    10030    2    1    2    0    0  0.00000000000E+00  0.00000000000E+00  0.79343715704E+03  0.11266464494E+04  0.79986855160E+03 0.  0.
        1    1    3    3  502    0 -0.14825568254E+03 -0.46895906982E+02  0.91571989880E+03  0.92882824385E+03  0.50400001928E-02 0. -1.
       -1    1    3    3    0  502  0.14825568254E+03  0.46895906982E+02 -0.12228274176E+03  0.19781820557E+03  0.50400001928E-02 0.  1.
</event>
<event>
 5   0  0.2690809E-03  0.8044677E+03  0.7818609E-02  0.9553573E-01
       -2   -1    0    0    0  501  0.00000000000E+00  0.00000000000E+00  0.13701847850E+03  0.13701847852E+03  0.25500000920E-02 0.  1.
        2   -1    0    0  501    0  0.00000000000E+00  0.00000000000E+00 -0.11808046970E+04  0.11808046970E+04  0.25500000920E-02 0. -1.
    10030    2    1    2    0    0  0.00000000000E+00  0.00000000000E+00 -0.10437862185E+04  0.13178231755E+04  0.80446768238E+03 0.  0.
        5    1    3    3  502    0  0.40185607891E+02 -0.10312613258E+03  0.11153643356E+03  0.15720161676E+03  0.46999998093E+01 0.  1.
       -5    1    3    3    0  502 -0.40185607891E+02  0.10312613258E+03 -0.11553226521E+04  0.11606215588E+04  0.46999998093E+01 0. -1.
</event>
<event>
 5   0  0.1712793E-03  0.7980773E+03  0.7818609E-02  0.9562804E-01
       -1   -1    0    0    0  501  0.00000000000E+00  0.00000000000E+00  0.51201661235E+03  0.51201661237E+03  0.50400001928E-02 0.  1.
        1   -1    0    0  501    0  0.00000000000E+00  0.00000000000E+00 -0.31098961017E+03  0.31098961021E+03  0.50400001928E-02 0. -1.
    10030    2    1    2    0    0  0.00000000000E+00  0.00000000000E+00  0.20102700218E+03  0.82300622258E+03  0.79807730628E+03 0.  0.
        4    1    3    3  502    0  0.27279672826E+03 -0.15070093939E+03 -0.15647214864E+03  0.34873195191E+03  0.12699999809E+01 0. -1.
       -4    1    3    3    0  502 -0.27279672826E+03  0.15070093939E+03  0.35749915082E+03  0.47427427067E+03  0.12699999809E+01 0.  1.
</event>
<event>
 5   0  0.1637228E-03  0.7997192E+03  0.7818609E-02  0.9560424E-01
       -1   -1    0    0    0  501  0.00000000000E+00  0.00000000000E+00  0.44709185097E+03  0.44709185100E+03  0.50400001928E-02 0.  1.
        1   -1    0    0  501    0  0.00000000000E+00  0.00000000000E+00 -0.35761707874E+03  0.35761707877E+03  0.50400001928E-02 0. -1.
    10030    2    1    2    0    0  0.00000000000E+00  0.00000000000E+00  0.89474772236E+02  0.80470892977E+03  0.79971915495E+03 0.  0.
        2    1    3    3  502    0 -0.14192065808E+03  0.25554971566E+03 -0.22980291947E+03  0.37182860590E+03  0.25500000920E-02 0. -1.
       -2    1    3    3    0  502  0.14192065808E+03 -0.25554971566E+03  0.31927769171E+03  0.43288032387E+03  0.25500000920E-02 0.  1.
</event>
<event>
 5   0  0.1637228E-03  0.8030922E+03  0.7818609E-02  0.9555552E-01
       -1   -1    0    0    0  501  0.00000000000E+00  0.00000000000E+00  0.26636005280E+03  0.26636005285E+03  0.50400001928E-02 0.  1.
        1   -1    0    0  501    0  0.00000000000E+00  0.00000000000E+00 -0.60534328138E+03  0.60534328140E+03  0.50400001928E-02 0. -1.
    10030    2    1    2    0    0  0.00000000000E+00  0.00000000000E+00 -0.33898322857E+03  0.87170333425E+03  0.80309219501E+03 0.  0.
        2    1    3    3  502    0  0.36751385700E+03  0.16058652222E+03 -0.14819933852E+03  0.42757164329E+03  0.25500000920E-02 0. -1.
       -2    1    3    3    0  502 -0.36751385700E+03 -0.16058652222E+03 -0.19078389005E+03  0.44413169096E+03  0.25500000920E-02 0.  1.
</event>
<event>
 5   0  0.1656051E-03  0.8064151E+03  0.7818609E-02  0.9550778E-01
        1   -1    0    0  501    0  0.00000000000E+00  0.00000000000E+00  0.15450702206E+04  0.15450702206E+04  0.50400001928E-02 0.  1.
       -1   -1    0    0    0  501  0.00000000000E+00  0.00000000000E+00 -0.10522261754E+03  0.10522261766E+03  0.50400001928E-02 0. -1.
    10030    2    1    2    0    0  0.00000000000E+00  0.00000000000E+00  0.14398476030E+04  0.16502928383E+04  0.80641511148E+03 0.  0.
        3    1    3    3  502    0 -0.30715282815E+03  0.13302457131E+03  0.11799801910E+04  0.12265364478E+04  0.10100000352E+00 0.  1.
       -3    1    3    3    0  502  0.30715282815E+03 -0.13302457131E+03  0.25986741202E+03  0.42375639045E+03  0.10100000352E+00 0. -1.
</event>
<event>
 5   0  0.1637228E-03  0.7975923E+03  0.7818609E-02  0.9563509E-01
        1   -1    0    0  501    0  0.00000000000E+00  0.00000000000E+00  0.71349999762E+03  0.71349999764E+03  0.50400001928E-02 0. -1.
       -1   -1    0    0    0  501  0.00000000000E+00  0.00000000000E+00 -0.22289890732E+03  0.22289890738E+03  0.50400001928E-02 0.  1.
    10030    2    1    2    0    0  0.00000000000E+00  0.00000000000E+00  0.49060109030E+03  0.93639890502E+03  0.79759230156E+03 0.  0.
        2    1    3    3  502    0 -0.24145101429E+03 -0.27719467017E+03  0.42681247404E+03  0.56329775916E+03  0.25500000920E-02 0. -1.
       -2    1    3    3    0  502  0.24145101429E+03  0.27719467017E+03  0.63788616263E+02  0.37310114586E+03  0.25500000920E-02 0.  1.
</event>
<event>
 5   0  0.2873212E-03  0.7994530E+03  0.7818609E-02  0.9560809E-01
       -2   -1    0    0    0  501  0.00000000000E+00  0.00000000000E+00  0.13725604650E+03  0.13725604653E+03  0.25500000920E-02 0.  1.
        2   -1    0    0  501    0  0.00000000000E+00  0.00000000000E+00 -0.11641111010E+04  0.11641111010E+04  0.25500000920E-02 0. -1.
    10030    2    1    2    0    0  0.00000000000E+00  0.00000000000E+00 -0.10268550545E+04  0.13013671476E+04  0.79945303160E+03 0.  0.
        2    1    3    3  502    0  0.10079882236E+03  0.11904697552E+03 -0.11125206163E+04  0.11234031808E+04  0.25500000920E-02 0. -1.
       -2    1    3    3    0  502 -0.10079882236E+03 -0.11904697552E+03  0.85665561788E+02  0.17796396673E+03  0.25500000920E-02 0.  1.
</event>
<event>
 5   0  0.2873212E-03  0.7996400E+03  0.7818609E-02  0.9560538E-01
        2   -1    0    0  501    0  0.00000000000E+00  0.00000000000E+00  0.46359754195E+03  0.46359754196E+03  0.25500000920E-02 0.  1.
       -2   -1    0    0    0  501  0.00000000000E+00  0.00000000000E+00 -0.34481640902E+03  0.34481640903E+03  0.25500000920E-02 0. -1.
    10030    2    1    2    0    0  0.00000000000E+00  0.00000000000E+00  0.11878113294E+03  0.80841395098E+03  0.79964001814E+03 0.  0.
        2    1    3    3  502    0 -0.21757933321E+03 -0.27716711341E+03  0.25039121805E+03  0.43227090705E+03  0.25500000920E-02 0.  1.
       -2    1    3    3    0  502  0.21757933321E+03  0.27716711341E+03 -0.13161008511E+03  0.37614304394E+03  0.25500000920E-02 0. -1.
</event>
<event>
 5   0  0.2763587E-03  0.8176085E+03  0.7818609E-02  0.9534873E-01
       -2   -1    0    0    0  501  0.00000000000E+00  0.00000000000E+00  0.11884093148E+03  0.11884093150E+03  0.25500000920E-02 0.  1.
        2   -1    0    0  501    0  0.00000000000E+00  0.00000000000E+00 -0.14062573198E+04  0.14062573198E+04  0.25500000920E-02 0. -1.
    10030    2    1    2    0    0  0.00000000000E+00  0.00000000000E+00 -0.12874163884E+04  0.15250982514E+04  0.81760853667E+03 0.  0.
        3    1    3    3  502    0 -0.21315706445E+03  0.33030120969E+03 -0.85297383711E+03  0.93920136299E+03  0.10100000352E+00 0. -1.
       -3    1    3    3    0  502  0.21315706445E+03 -0.33030120969E+03 -0.43444255126E+03  0.58589688836E+03  0.10100000352E+00 0.  1.
</event>
<event>
 5   0  0.1095350E-03  0.8007679E+03  0.7818609E-02  0.9558906E-01
       -3   -1    0    0    0  501  0.00000000000E+00  0.00000000000E+00  0.52086381347E+03  0.52086382326E+03  0.10100000352E+00 0.  1.
        3   -1    0    0  501    0  0.00000000000E+00  0.00000000000E+00 -0.30777202107E+03  0.30777203764E+03  0.10100000352E+00 0. -1.
    10030    2    1    2    0    0  0.00000000000E+00  0.00000000000E+00  0.21309179240E+03  0.82863586091E+03  0.80076793017E+03 0.  0.
        3    1    3    3  502    0 -0.28345843222E+03 -0.18213235164E+03 -0.11728344703E+03  0.35675803208E+03  0.10100000352E+00 0. -1.
       -3    1    3    3    0  502  0.28345843222E+03  0.18213235164E+03  0.33037523943E+03  0.47187782882E+03  0.10100000352E+00 0.  1.
</event>
<event>
 5   0  0.1617491E-03  0.7995121E+03  0.7818609E-02  0.9560724E-01
        1   -1    0    0  501    0  0.00000000000E+00  0.00000000000E+00  0.95654656045E+03  0.95654656047E+03  0.50400001928E-02 0.  1.
       -1   -1    0    0    0  501  0.00000000000E+00  0.00000000000E+00 -0.16706443816E+03  0.16706443823E+03  0.50400001928E-02 0. -1.
    10030    2    1    2    0    0  0.00000000000E+00  0.00000000000E+00  0.78948212230E+03  0.11236109987E+04  0.79951213560E+03 0.  0.
        1    1    3    3  502    0  0.52320864141E+02 -0.34240128703E+02 -0.16014918467E+03  0.17192329864E+03  0.50400001928E-02 0. -1.
       -1    1    3    3    0  502 -0.52320864141E+02  0.34240128703E+02  0.94963130697E+03  0.95168770006E+03  0.50400001928E-02 0.  1.
</event>
<event>
 5   0  0.1637228E-03  0.7996097E+03  0.7818609E-02  0.9560582E-01
        1   -1    0    0  501    0  0.00000000000E+00  0.00000000000E+00  0.68879427677E+03  0.68879427678E+03  0.50400001928E-02 0. -1.
       -1   -1    0    0    0  501  0.00000000000E+00  0.00000000000E+00 -0.23206337805E+03  0.23206337810E+03  0.50400001928E-02 0.  1.
    10030    2    1    2    0    0  0.00000000000E+00  0.00000000000E+00  0.45673089872E+03  0.92085765489E+03  0.79960972150E+03 0.  0.
        2    1    3    3  502    0 -0.99883618313E+02  0.22123836551E+03  0.59421685314E+03  0.64188536370E+03  0.25500000920E-02 0. -1.
       -2    1    3    3    0  502  0.99883618313E+02 -0.22123836551E+03 -0.13748595442E+03  0.27897229118E+03  0.25500000920E-02 0.  1.
</event>
<event>
 5   0  0.1637228E-03  0.7995523E+03  0.7818609E-02  0.9560665E-01
       -1   -1    0    0    0  501  0.00000000000E+00  0.00000000000E+00  0.10506473813E+04  0.10506473813E+04  0.50400001928E-02 0.  1.
        1   -1    0    0  501    0  0.00000000000E+00  0.00000000000E+00 -0.15211667475E+03  0.15211667483E+03  0.50400001928E-02 0. -1.
    10030    2    1    2    0    0  0.00000000000E+00  0.00000000000E+00  0.89853070659E+03  0.12027640562E+04  0.79955233985E+03 0.  0.
        2    1    3    3  502    0 -0.28249023628E+03 -0.27938707437E+03  0.51591631583E+03  0.65117395208E+03  0.25500000920E-02 0.  1.
       -2    1    3    3    0  502  0.28249023628E+03  0.27938707437E+03  0.38261439075E+03  0.55159010410E+03  0.25500000920E-02 0. -1.
</event>
<event>
 5   0  0.2763587E-03  0.8011486E+03  0.7818609E-02  0.9558356E-01
        2   -1    0    0  501    0  0.00000000000E+00  0.00000000000E+00  0.59655244446E+03  0.59655244446E+03  0.25500000920E-02 0. -1.
       -2   -1    0    0    0  501  0.00000000000E+00  0.00000000000E+00 -0.26897846589E+03  0.26897846590E+03  0.25500000920E-02 0.  1.
    10030    2    1    2    0    0  0.00000000000E+00  0.00000000000E+00  0.32757397857E+03  0.86553091037E+03  0.80114857883E+03 0.  0.
        3    1    3    3  502    0 -0.11098339406E+03  0.79075122463E+02 -0.24316646603E+03  0.27874742896E+03  0.10100000352E+00 0.  1.
       -3    1    3    3    0  502  0.11098339406E+03 -0.79075122463E+02  0.57074044460E+03  0.58678348140E+03  0.10100000352E+00 0. -1.
</event>
<event>
 5   0  0.2873212E-03  0.8009187E+03  0.7818609E-02  0.9558688E-01
       -2   -1    0    0    0  501  0.00000000000E+00  0.00000000000E+00  0.83228669236E+03  0.83228669237E+03  0.25500000920E-02 0. -1.
        2   -1    0    0  501    0  0.00000000000E+00  0.00000000000E+00 -0.19268322623E+03  0.19268322625E+03  0.25500000920E-02 0.  1.
    10030    2    1    2    0    0  0.00000000000E+00  0.00000000000E+00  0.63960346613E+03  0.10249699186E+04  0.80091868512E+03 0.  0.
        2    1    3    3  502    0  0.17367814176E+03  0.30850506957E+03  0.55931615419E+03  0.66194715440E+03  0.25500000920E-02 0. -1.
       -2    1    3    3    0  502 -0.17367814176E+03 -0.30850506957E+03  0.80287311939E+02  0.36302276422E+03  0.25500000920E-02 0.  1.
</event>
<event>
 5   0  0.2873212E-03  0.7994161E+03  0.7818609E-02  0.9560863E-01
        2   -1    0    0  501    0  0.00000000000E+00  0.00000000000E+00  0.18290754498E+04  0.18290754498E+04  0.25500000920E-02 0. -1.
       -2   -1    0    0    0  501  0.00000000000E+00  0.00000000000E+00 -0.87348245936E+02  0.87348245973E+02  0.25500000920E-02 0.  1.
    10030    2    1    2    0    0  0.00000000000E+00  0.00000000000E+00  0.17417272039E+04  0.19164236958E+04  0.79941611759E+03 0.  0.
        2    1    3    3  502    0 -0.17318808248E+03 -0.83740942684E+02  0.30926335552E+02  0.19484120620E+03  0.25500000920E-02 0.  1.
       -2    1    3    3    0  502  0.17318808248E+03  0.83740942684E+02  0.17108008683E+04  0.17215824896E+04  0.25500000920E-02 0. -1.
</event>
<event>
 5   0  0.1712793E-03  0.8001594E+03  0.7818609E-02  0.9559786E-01
       -1   -1    0    0    0  501  0.00000000000E+00  0.00000000000E+00  0.32636041707E+03  0.32636041711E+03  0.50400001928E-02 0.  1.
        1   -1    0    0  501    0  0.00000000000E+00  0.00000000000E+00 -0.49045090492E+03  0.49045090495E+03  0.50400001928E-02 0. -1.
    10030    2    1    2    0    0  0.00000000000E+00  0.00000000000E+00 -0.16409048785E+03  0.81681132206E+03  0.80015938890E+03 0.  0.
        4    1    3    3  502    0  0.18730778206E+03  0.18984401520E+03 -0.38647489808E+03  0.46956300437E+03  0.12699999809E+01 0. -1.
       -4    1    3    3    0  502 -0.18730778206E+03 -0.18984401520E+03  0.22238441023E+03  0.34724831769E+03  0.12699999809E+01 0.  1.
</event>
<event>
 5   0  0.1640035E-03  0.7993994E+03  0.7818609E-02  0.9560887E-01
        1   -1    0    0  501    0  0.00000000000E+00  0.00000000000E+00  0.23634537733E+04  0.23634537733E+04  0.50400001928E-02 0. -1.
       -1   -1    0    0    0  501  0.00000000000E+00  0.00000000000E+00 -0.67595924938E+02  0.67595925126E+02  0.50400001928E-02 0.  1.
    10030    2    1    2    0    0  0.00000000000E+00  0.00000000000E+00  0.22958578484E+04  0.24310496984E+04  0.79939938477E+03 0.  0.
        5    1    3    3  502    0  0.25984447674E+03 -0.84130761413E+02  0.26057183324E+03  0.37751411548E+03  0.46999998093E+01 0.  1.
       -5    1    3    3    0  502 -0.25984447674E+03  0.84130761413E+02  0.20352860151E+04  0.20535355830E+04  0.46999998093E+01 0. -1.
</event>
<event>
 5   0  0.2910501E-03  0.7908051E+03  0.7818609E-02  0.9573423E-01
        2   -1    0    0  501    0  0.00000000000E+00  0.00000000000E+00  0.61500432457E+03  0.61500432457E+03  0.25500000920E-02 0. -1.
       -2   -1    0    0    0  501  0.00000000000E+00  0.00000000000E+00 -0.25421475452E+03  0.25421475453E+03  0.25500000920E-02 0.  1.
    10030    2    1    2    0    0  0.00000000000E+00  0.00000000000E+00  0.36078957005E+03  0.86921907911E+03  0.79080509206E+03 0.  0.
        1    1    3    3  502    0  0.19068699781E+02 -0.39890743993E+02 -0.25148906777E+03  0.25534611413E+03  0.50400001928E-02 0.  1.
       -1    1    3    3    0  502 -0.19068699781E+02  0.39890743993E+02  0.61227863782E+03  0.61387296497E+03  0.50400001928E-02 0. -1.
</event>
<event>
 5   0  0.2763587E-03  0.8012901E+03  0.7818609E-02  0.9558152E-01
       -2   -1    0    0    0  501  0.00000000000E+00  0.00000000000E+00  0.76472798201E+03  0.76472798201E+03  0.25500000920E-02 0. -1.
        2   -1    0    0  501    0  0.00000000000E+00  0.00000000000E+00 -0.20990009280E+03  0.20990009282E+03  0.25500000920E-02 0.  1.
    10030    2    1    2    0    0  0.00000000000E+00  0.00000000000E+00  0.55482788921E+03  0.97462807483E+03  0.80129014571E+03 0.  0.
        3    1    3    3  502    0  0.15040518397E+03 -0.33134338646E+03  0.73498090082E+02  0.37123057331E+03  0.10100000352E+00 0.  1.
       -3    1    3    3    0  502 -0.15040518397E+03  0.33134338646E+03  0.48132979912E+03  0.60339750152E+03  0.10100000352E+00 0. -1.
</event>
<event>
 5   0  0.1095350E-03  0.7996300E+03  0.7818609E-02  0.9560553E-01
        4   -1    0    0  501    0  0.00000000000E+00  0.00000000000E+00  0.31305002742E+03  0.31305260352E+03  0.12699999809E+01 0. -1.
       -4   -1    0    0    0  501  0.00000000000E+00  0.00000000000E+00 -0.51062234326E+03  0.51062392260E+03  0.12699999809E+01 0.  1.
    10030    2    1    2    0    0  0.00000000000E+00  0.00000000000E+00 -0.19757231584E+03  0.82367652612E+03  0.79963003927E+03 0.  0.
        3    1    3    3  502    0  0.19555405959E+03  0.20422707809E+03  0.19238360844E+03  0.34199642198E+03  0.10100000352E+00 0. -1.
       -3    1    3    3    0  502 -0.19555405959E+03 -0.20422707809E+03 -0.38995592428E+03  0.48168010414E+03  0.10100000352E+00 0.  1.
</event>
<event>
 5   0  0.2763587E-03  0.7999018E+03  0.7818609E-02  0.9560159E-01
       -2   -1    0    0    0  501  0.00000000000E+00  0.00000000000E+00  0.19741670799E+03  0.19741670801E+03  0.25500000920E-02 0. -1.
        2   -1    0    0  501    0  0.00000000000E+00  0.00000000000E+00 -0.81026933284E+03  0.81026933285E+03  0.25500000920E-02 0.  1.
    10030    2    1    2    0    0  0.00000000000E+00  0.00000000000E+00 -0.61285262486E+03  0.10076860409E+04  0.79990175468E+03 0.  0.
        3    1    3    3  502    0  0.31140157906E+02 -0.15838099194E+02  0.19549076378E+03  0.19858802518E+03  0.10100000352E+00 0. -1.
       -3    1    3    3    0  502 -0.31140157906E+02  0.15838099194E+02 -0.80834338863E+03  0.80909801568E+03  0.10100000352E+00 0.  1.
</event>
<event>
 5   0  0.2873212E-03  0.7862881E+03  0.7818609E-02  0.9580079E-01
        2   -1    0    0  501    0  0.00000000000E+00  0.00000000000E+00  0.81156729323E+03  0.81156729323E+03  0.25500000920E-02 0. -1.
       -2   -1    0    0    0  501  0.00000000000E+00  0.00000000000E+00 -0.19044908386E+03  0.19044908387E+03  0.25500000920E-02 0.  1.
    10030    2    1    2    0    0  0.00000000000E+00  0.00000000000E+00  0.62111820937E+03  0.10020163771E+04  0.78628810876E+03 0.  0.
        2    1    3    3  502    0  0.26015254668E+03  0.11529925257E+03  0.65625920888E+03  0.71529673174E+03  0.25500000920E-02 0. -1.
       -2    1    3    3    0  502 -0.26015254668E+03 -0.11529925257E+03 -0.35140999512E+02  0.28671964537E+03  0.25500000920E-02 0.  1.
</event>
<event>
 5   0  0.2690809E-03  0.7882125E+03  0.7818609E-02  0.9577237E-01
       -2   -1    0    0    0  501  0.00000000000E+00  0.00000000000E+00  0.14015218819E+03  0.14015218821E+03  0.25500000920E-02 0. -1.
        2   -1    0    0  501    0  0.00000000000E+00  0.00000000000E+00 -0.11082219856E+04  0.11082219856E+04  0.25500000920E-02 0.  1.
    10030    2    1    2    0    0  0.00000000000E+00  0.00000000000E+00 -0.96806979742E+03  0.12483741738E+04  0.78821250002E+03 0.  0.
        5    1    3    3  502    0  0.23087563521E+03  0.11812394853E+03 -0.95397607254E+03  0.98860976281E+03  0.46999998093E+01 0.  1.
       -5    1    3    3    0  502 -0.23087563521E+03 -0.11812394853E+03 -0.14093724876E+02  0.25976441101E+03  0.46999998093E+01 0. -1.
</event>
<event>
 5   0  0.1656051E-03  0.7999866E+03  0.7818609E-02  0.9560037E-01
        1   -1    0    0  501    0  0.00000000000E+00  0.00000000000E+00  0.96807878644E+03  0.96807878645E+03  0.50400001928E-02 0.  1.
       -1   -1    0    0    0  501  0.00000000000E+00  0.00000000000E+00 -0.16527025915E+03  0.16527025923E+03  0.50400001928E-02 0. -1.
    10030    2    1    2    0    0  0.00000000000E+00  0.00000000000E+00  0.80280852729E+03  0.11333490457E+04  0.79998657980E+03 0.  0.
        3    1    3    3  502    0  0.13458170007E+03  0.19856955226E+03 -0.52059205024E+02  0.24546338242E+03  0.10100000352E+00 0. -1.
       -3    1    3    3    0  502 -0.13458170007E+03 -0.19856955226E+03  0.85486773232E+03  0.88788566327E+03  0.10100000352E+00 0.  1.
</event>
<event>
 5   0  0.1640035E-03  0.8059335E+03  0.7818609E-02  0.9551468E-01
        1   -1    0    0  501    0  0.00000000000E+00  0.00000000000E+00  0.11667743925E+04  0.11667743925E+04  0.50400001928E-02 0.  1.
       -1   -1    0    0    0  501  0.00000000000E+00  0.00000000000E+00 -0.13917189314E+03  0.13917189323E+03  0.50400001928E-02 0. -1.
    10030    2    1    2    0    0  0.00000000000E+00  0.00000000000E+00  0.10276024994E+04  0.13059462858E+04  0.80593349884E+03 0.  0.
        5    1    3    3  502    0  0.17194831284E+03  0.23391596105E+03  0.61020185989E+02  0.29669589181E+03  0.46999998093E+01 0. -1.
       -5    1    3    3    0  502 -0.17194831284E+03 -0.23391596105E+03  0.96658231340E+03  0.10092503940E+04  0.46999998093E+01 0.  1.
</event>
<event>
 5   0  0.2910501E-03  0.7989559E+03  0.7818609E-02  0.9561530E-01
       -2   -1    0    0    0  501  0.00000000000E+00  0.00000000000E+00  0.13824104733E+03  0.13824104735E+03  0.25500000920E-02 0.  1.
        2   -1    0    0  501    0  0.00000000000E+00  0.00000000000E+00 -0.11543795009E+04  0.11543795009E+04  0.25500000920E-02 0. -1.
    10030    2    1    2    0    0  0.00000000000E+00  0.00000000000E+00 -0.10161384536E+04  0.12926205483E+04  0.79895589676E+03 0.  0.
        1    1    3    3  502    0  0.17511679506E+03  0.30248505592E+03 -0.82103541086E+03  0.89233527717E+03  0.50400001928E-02 0. -1.
       -1    1    3    3    0  502 -0.17511679506E+03 -0.30248505592E+03 -0.19510304275E+03  0.40028527113E+03  0.50400001928E-02 0.  1.
</event>
<event>
 5   0  0.1637228E-03  0.8008569E+03  0.7818609E-02  0.9558778E-01
        1   -1    0    0  501    0  0.00000000000E+00  0.00000000000E+00  0.97253903214E+03  0.97253903216E+03  0.50400001928E-02 0. -1.
       -1   -1    0    0    0  501  0.00000000000E+00  0.00000000000E+00 -0.16487045903E+03  0.16487045911E+03  0.50400001928E-02 0.  1.
    10030    2    1    2    0    0  0.00000000000E+00  0.00000000000E+00  0.80766857311E+03  0.11374094913E+04  0.80085693281E+03 0.  0.
        2    1    3    3  502    0  0.91193246486E+02 -0.37747332933E+03  0.26511062939E+03  0.47019779708E+03  0.25500000920E-02 0.  1.
       -2    1    3    3    0  502 -0.91193246486E+02  0.37747332933E+03  0.54255794372E+03  0.66721169418E+03  0.25500000920E-02 0. -1.
</event>
<event>
 5   0  0.2873212E-03  0.8000151E+03  0.7818609E-02  0.9559995E-01
        2   -1    0    0  501    0  0.00000000000E+00  0.00000000000E+00  0.30648975149E+03  0.30648975150E+03  0.25500000920E-02 0.  1.
       -2   -1    0    0    0  501  0.00000000000E+00  0.00000000000E+00 -0.52205997845E+03  0.52205997845E+03  0.25500000920E-02 0. -1.
    10030    2    1    2    0    0  0.00000000000E+00  0.00000000000E+00 -0.21557022696E+03  0.82854972996E+03  0.80001508252E+03 0.  0.
        2    1    3    3  502    0 -0.17283119009E+02 -0.14712376281E+03  0.27703464974E+03  0.31415331440E+03  0.25500000920E-02 0.  1.
       -2    1    3    3    0  502  0.17283119009E+02  0.14712376281E+03 -0.49260487670E+03  0.51439641556E+03  0.25500000920E-02 0. -1.
</event>
<event>
 5   0  0.1617491E-03  0.8018184E+03  0.7818609E-02  0.9557389E-01
        1   -1    0    0  501    0  0.00000000000E+00  0.00000000000E+00  0.51972185903E+03  0.51972185905E+03  0.50400001928E-02 0.  1.
       -1   -1    0    0    0  501  0.00000000000E+00  0.00000000000E+00 -0.30925811020E+03  0.30925811024E+03  0.50400001928E-02 0. -1.
    10030    2    1    2    0    0  0.00000000000E+00  0.00000000000E+00  0.21046374883E+03  0.82897996929E+03  0.80181843326E+03 0.  0.
        1    1    3    3  502    0 -0.11838139805E+03  0.25221555429E+03  0.40327016440E+03  0.49015677773E+03  0.50400001928E-02 0.  1.
       -1    1    3    3    0  502  0.11838139805E+03 -0.25221555429E+03 -0.19280641557E+03  0.33882319156E+03  0.50400001928E-02 0. -1.
</event>
<event>
 5   0  0.2768834E-03  0.7993504E+03  0.7818609E-02  0.9560958E-01
        2   -1    0    0  501    0  0.00000000000E+00  0.00000000000E+00  0.83173302393E+03  0.83173302393E+03  0.25500000920E-02 0.  1.
       -2   -1    0    0    0  501  0.00000000000E+00  0.00000000000E+00 -0.19205713882E+03  0.19205713883E+03  0.25500000920E-02 0. -1.
    10030    2    1    2    0    0  0.00000000000E+00  0.00000000000E+00  0.63967588511E+03  0.10237901628E+04  0.79935039838E+03 0.  0.
        4    1    3    3  502    0  0.23792392031E+03 -0.31217379837E+03  0.22332490790E+03  0.45159262575E+03  0.12699999809E+01 0.  1.
       -4    1    3    3    0  502 -0.23792392031E+03  0.31217379837E+03  0.41635097721E+03  0.57219753701E+03  0.12699999809E+01 0. -1.
</event>
<event>
 5   0  0.1712793E-03  0.7989601E+03  0.7818609E-02  0.9561524E-01
        1   -1    0    0  501    0  0.00000000000E+00  0.00000000000E+00  0.15402053287E+03  0.15402053295E+03  0.50400001928E-02 0.  1.
       -1   -1    0    0    0  501  0.00000000000E+00  0.00000000000E+00 -0.10361235782E+04  0.10361235782E+04  0.50400001928E-02 0. -1.
    10030    2    1    2    0    0  0.00000000000E+00  0.00000000000E+00 -0.88210304533E+03  0.11901441112E+04  0.79896008834E+03 0.  0.
        4    1    3    3  502    0  0.41274265178E+02  0.38959141204E+03 -0.55737196669E+03  0.68128566362E+03  0.12699999809E+01 0. -1.
       -4    1    3    3    0  502 -0.41274265178E+02 -0.38959141204E+03 -0.32473107864E+03  0.50885844755E+03  0.12699999809E+01 0.  1.
</event>
<event>
 5   0  0.2690809E-03  0.7997364E+03  0.7818609E-02  0.9560399E-01
       -2   -1    0    0    0  501  0.00000000000E+00  0.00000000000E+00  0.17450134802E+03  0.17450134804E+03  0.25500000920E-02 0. -1.
        2   -1    0    0  501    0  0.00000000000E+00  0.00000000000E+00 -0.91629414561E+03  0.91629414561E+03  0.25500000920E-02 0.  1.
    10030    2    1    2    0    0  0.00000000000E+00  0.00000000000E+00 -0.74179279759E+03  0.10907954937E+04  0.79973636557E+03 0.  0.
        5    1    3    3  502    0  0.27547855121E+03  0.24803047205E+03 -0.57532845184E+03  0.68442126263E+03  0.46999998093E+01 0.  1.
       -5    1    3    3    0  502 -0.27547855121E+03 -0.24803047205E+03 -0.16646434575E+03  0.40637423102E+03  0.46999998093E+01 0. -1.
</event>
<event>
 5   0  0.1637228E-03  0.7977718E+03  0.7818609E-02  0.9563248E-01
        1   -1    0    0  501    0  0.00000000000E+00  0.00000000000E+00  0.39299394119E+03  0.39299394122E+03  0.50400001928E-02 0. -1.
       -1   -1    0    0    0  501  0.00000000000E+00  0.00000000000E+00 -0.40486617244E+03  0.40486617248E+03  0.50400001928E-02 0.  1.
    10030    2    1    2    0    0  0.00000000000E+00  0.00000000000E+00 -0.11872231251E+02  0.79786011370E+03  0.79777177887E+03 0.  0.
        2    1    3    3  502    0  0.21897844007E+03 -0.28655736714E+03  0.16450361862E+03  0.39639389806E+03  0.25500000920E-02 0. -1.
       -2    1    3    3    0  502 -0.21897844007E+03  0.28655736714E+03 -0.17637584987E+03  0.40146621564E+03  0.25500000920E-02 0.  1.
</event>
<event>
 5   0  0.1656051E-03  0.8018602E+03  0.7818609E-02  0.9557328E-01
        1   -1    0    0  501    0  0.00000000000E+00  0.00000000000E+00  0.10488292684E+04  0.10488292684E+04  0.50400001928E-02 0.  1.
       -1   -1    0    0    0  501  0.00000000000E+00  0.00000000000E+00 -0.15326131500E+03  0.15326131508E+03  0.50400001928E-02 0. -1.
    10030    2    1    2    0    0  0.00000000000E+00  0.00000000000E+00  0.89556795344E+03  0.12020905835E+04  0.80186021960E+03 0.  0.
        3    1    3    3  502    0  0.39889186083E+03 -0.25099809402E+02  0.49519589482E+03  0.63636758365E+03  0.10100000352E+00 0.  1.
       -3    1    3    3    0  502 -0.39889186083E+03  0.25099809402E+02  0.40037205862E+03  0.56572299988E+03  0.10100000352E+00 0. -1.
</event>
<event>
 5   0  0.2910501E-03  0.7987072E+03  0.7818609E-02  0.9561890E-01
        2   -1    0    0  501    0  0.00000000000E+00  0.00000000000E+00  0.84554596620E+03  0.84554596620E+03  0.25500000920E-02 0.  1.
       -2   -1    0    0    0  501  0.00000000000E+00  0.00000000000E+00 -0.18861577682E+03  0.18861577684E+03  0.25500000920E-02 0. -1.
    10030    2    1    2    0    0  0.00000000000E+00  0.00000000000E+00  0.65693018937E+03  0.10341617430E+04  0.79870722863E+03 0.  0.
        1    1    3    3  502    0  0.19640610362E+02 -0.38446380437E+03  0.46601310268E+03  0.60445544281E+03  0.50400001928E-02 0.  1.
       -1    1    3    3    0  502 -0.19640610362E+02  0.38446380437E+03  0.19091708670E+03  0.42970630024E+03  0.50400001928E-02 0. -1.
</event>
<event>
 5   0  0.1656051E-03  0.8006645E+03  0.7818609E-02  0.9559056E-01
        1   -1    0    0  501    0  0.00000000000E+00  0.00000000000E+00  0.52923515229E+03  0.52923515232E+03  0.50400001928E-02 0.  1.
       -1   -1    0    0    0  501  0.00000000000E+00  0.00000000000E+00 -0.30282548579E+03  0.30282548583E+03  0.50400001928E-02 0. -1.
    10030    2    1    2    0    0  0.00000000000E+00  0.00000000000E+00  0.22640966651E+03  0.83206063815E+03  0.80066445436E+03 0.  0.
        3    1    3    3  502    0  0.23307143833E+03 -0.13202842182E+03 -0.19597111992E+03  0.33190132506E+03  0.10100000352E+00 0. -1.
       -3    1    3    3    0  502 -0.23307143833E+03  0.13202842182E+03  0.42238078642E+03  0.50015931309E+03  0.10100000352E+00 0.  1.
</event>
<event>
 5   0  0.2910501E-03  0.7990187E+03  0.7818609E-02  0.9561439E-01
        2   -1    0    0  501    0  0.00000000000E+00  0.00000000000E+00  0.12581490912E+04  0.12581490912E+04  0.25500000920E-02 0. -1.
       -2   -1    0    0    0  501  0.00000000000E+00  0.00000000000E+00 -0.12685913935E+03  0.12685913937E+03  0.25500000920E-02 0.  1.
    10030    2    1    2    0    0  0.00000000000E+00  0.00000000000E+00  0.11312899518E+04  0.13850082305E+04  0.79901867536E+03 0.  0.
        1    1    3    3  502    0  0.24033172683E+03  0.26017955687E+03  0.88599324301E+03  0.95416810228E+03  0.50400001928E-02 0. -1.
       -1    1    3    3    0  502 -0.24033172683E+03 -0.26017955687E+03  0.24529670880E+03  0.43084012825E+03  0.50400001928E-02 0.  1.
</event>
<event>
 5   0  0.1656051E-03  0.8010503E+03  0.7818609E-02  0.9558498E-01
       -1   -1    0    0    0  501  0.00000000000E+00  0.00000000000E+00  0.19398336120E+03  0.19398336127E+03  0.50400001928E-02 0. -1.
        1   -1    0    0  501    0  0.00000000000E+00  0.00000000000E+00 -0.82698019366E+03  0.82698019368E+03  0.50400001928E-02 0.  1.
    10030    2    1    2    0    0  0.00000000000E+00  0.00000000000E+00 -0.63299683246E+03  0.10209635549E+04  0.80105030467E+03 0.  0.
        3    1    3    3  502    0 -0.16704591621E+03  0.61579990641E+02 -0.77377623489E+03  0.79399376903E+03  0.10100000352E+00 0.  1.
       -3    1    3    3    0  502  0.16704591621E+03 -0.61579990641E+02  0.14077940243E+03  0.22696978592E+03  0.10100000352E+00 0. -1.
</event>
<event>
 5   0  0.1640035E-03  0.8018338E+03  0.7818609E-02  0.9557367E-01
       -1   -1    0    0    0  501  0.00000000000E+00  0.00000000000E+00  0.72997928468E+03  0.72997928470E+03  0.50400001928E-02 0. -1.
        1   -1    0    0  501    0  0.00000000000E+00  0.00000000000E+00 -0.22019028805E+03  0.22019028811E+03  0.50400001928E-02 0.  1.
    10030    2    1    2    0    0  0.00000000000E+00  0.00000000000E+00  0.50978899663E+03  0.95016957281E+03  0.80183377081E+03 0.  0.
        5    1    3    3  502    0 -0.17564719731E+03 -0.36028053572E+03  0.24584989395E+03  0.47023213703E+03  0.46999998093E+01 0.  1.
       -5    1    3    3    0  502  0.17564719731E+03  0.36028053572E+03  0.26393910268E+03  0.47993743578E+03  0.46999998093E+01 0. -1.
</event>
<event>
 5   0  0.2768834E-03  0.7942046E+03  0.7818609E-02  0.9568444E-01
       -2   -1    0    0    0  501  0.00000000000E+00  0.00000000000E+00  0.28193456258E+03  0.28193456260E+03  0.25500000920E-02 0. -1.
        2   -1    0    0  501    0  0.00000000000E+00  0.00000000000E+00 -0.55931505590E+03  0.55931505590E+03  0.25500000920E-02 0.  1.
    10030    2    1    2    0    0  0.00000000000E+00  0.00000000000E+00 -0.27738049331E+03  0.84124961850E+03  0.79420462260E+03 0.  0.
        4    1    3    3  502    0  0.67390089647E+02  0.29328158017E+03  0.13575827523E+03  0.33013244561E+03  0.12699999809E+01 0. -1.
       -4    1    3    3    0  502 -0.67390089647E+02 -0.29328158017E+03 -0.41313876854E+03  0.51111717289E+03  0.12699999809E+01 0.  1.
</event>
<event>
 5   0  0.2873212E-03  0.7996338E+03  0.7818609E-02  0.9560547E-01
       -2   -1    0    0    0  501  0.00000000000E+00  0.00000000000E+00  0.16303417493E+03  0.16303417495E+03  0.25500000920E-02 0. -1.
        2   -1    0    0  501    0  0.00000000000E+00  0.00000000000E+00 -0.98049099969E+03  0.98049099969E+03  0.25500000920E-02 0.  1.
    10030    2    1    2    0    0  0.00000000000E+00  0.00000000000E+00 -0.81745682476E+03  0.11435251746E+04  0.79963376910E+03 0.  0.
        2    1    3    3  502    0  0.33306547421E+03 -0.19107609543E+03 -0.56804297886E+03  0.68564969933E+03  0.25500000920E-02 0.  1.
       -2    1    3    3    0  502 -0.33306547421E+03  0.19107609543E+03 -0.24941384590E+03  0.45787547530E+03  0.25500000920E-02 0. -1.
</event>
<event>
 5   0  0.1712793E-03  0.8001858E+03  0.7818609E-02  0.9559748E-01
        1   -1    0    0  501    0  0.00000000000E+00  0.00000000000E+00  0.23471759857E+03  0.23471759862E+03  0.50400001928E-02 0. -1.
       -1   -1    0    0    0  501  0.00000000000E+00  0.00000000000E+00 -0.68198696323E+03  0.68198696325E+03  0.50400001928E-02 0.  1.
    10030    2    1    2    0    0  0.00000000000E+00  0.00000000000E+00 -0.44726936466E+03  0.91670456187E+03  0.80018583416E+03 0.  0.
        4    1    3    3  502    0  0.24224404243E+03 -0.31841135281E+03 -0.22113427332E+03  0.45713230626E+03  0.12699999809E+01 0.  1.
       -4    1    3    3    0  502 -0.24224404243E+03  0.31841135281E+03 -0.22613509134E+03  0.45957225561E+03  0.12699999809E+01 0. -1.
</event>
<event>
 5   0  0.1095350E-03  0.8000785E+03  0.7818609E-02  0.9559903E-01
        3   -1    0    0  501    0  0.00000000000E+00  0.00000000000E+00  0.95386406977E+03  0.95386407512E+03  0.10100000352E+00 0.  1.
       -3   -1    0    0    0  501  0.00000000000E+00  0.00000000000E+00 -0.16777170189E+03  0.16777173229E+03  0.10100000352E+00 0. -1.
    10030    2    1    2    0    0  0.00000000000E+00  0.00000000000E+00  0.78609236788E+03  0.11216358074E+04  0.80007854216E+03 0.  0.
        1    1    3    3  502    0 -0.20652898452E+03 -0.34231433839E+03  0.37331508618E+03  0.54698947093E+03  0.50400001928E-02 0. -1.
       -1    1    3    3    0  502  0.20652898452E+03  0.34231433839E+03  0.41277728170E+03  0.57464633648E+03  0.50400001928E-02 0.  1.
</event>
<event>
 5   0  0.2690809E-03  0.8014722E+03  0.7818609E-02  0.9557889E-01
        2   -1    0    0  501    0  0.00000000000E+00  0.00000000000E+00  0.11370295224E+04  0.11370295224E+04  0.25500000920E-02 0.  1.
       -2   -1    0    0    0  501  0.00000000000E+00  0.00000000000E+00 -0.14123593783E+03  0.14123593786E+03  0.25500000920E-02 0. -1.
    10030    2    1    2    0    0  0.00000000000E+00  0.00000000000E+00  0.99579358456E+03  0.12782654603E+04  0.80147222274E+03 0.  0.
        5    1    3    3  502    0 -0.11909737321E+03  0.10715740824E+03  0.10836831758E+04  0.10954716838E+04  0.46999998093E+01 0.  1.
       -5    1    3    3    0  502  0.11909737321E+03 -0.10715740824E+03 -0.87889591289E+02  0.18279377643E+03  0.46999998093E+01 0. -1.
</event>
<event>
 5   0  0.1617491E-03  0.8000495E+03  0.7818609E-02  0.9559946E-01
       -1   -1    0    0    0  501  0.00000000000E+00  0.00000000000E+00  0.22748114002E+03  0.22748114008E+03  0.50400001928E-02 0. -1.
        1   -1    0    0  501    0  0.00000000000E+00  0.00000000000E+00 -0.70344200153E+03  0.70344200154E+03  0.50400001928E-02 0.  1.
    10030    2    1    2    0    0  0.00000000000E+00  0.00000000000E+00 -0.47596086150E+03  0.93092314162E+03  0.80004946967E+03 0.  0.
        1    1    3    3  502    0  0.76335042379E+02  0.38377152732E+03 -0.14124089034E+03  0.41600073679E+03  0.50400001928E-02 0. -1.
       -1    1    3    3    0  502 -0.76335042379E+02 -0.38377152732E+03 -0.33471997117E+03  0.51492240484E+03  0.50400001928E-02 0.  1.
</event>
<event>
 5   0  0.2768834E-03  0.7986025E+03  0.7818609E-02  0.9562042E-01
       -2   -1    0    0    0  501  0.00000000000E+00  0.00000000000E+00  0.33096388513E+03  0.33096388514E+03  0.25500000920E-02 0. -1.
        2   -1    0    0  501    0  0.00000000000E+00  0.00000000000E+00 -0.48174888910E+03  0.48174888910E+03  0.25500000920E-02 0.  1.
    10030    2    1    2    0    0  0.00000000000E+00  0.00000000000E+00 -0.15078500397E+03  0.81271277424E+03  0.79860248935E+03 0.  0.
        4    1    3    3  502    0  0.14092549641E+03  0.18008628560E+03  0.25772702639E+03  0.34455173608E+03  0.12699999809E+01 0. -1.
       -4    1    3    3    0  502 -0.14092549641E+03 -0.18008628560E+03 -0.40851203037E+03  0.46816103816E+03  0.12699999809E+01 0.  1.
</event>
<event>
 5   0  0.1637228E-03  0.8004895E+03  0.7818609E-02  0.9559309E-01
       -1   -1    0    0    0  501  0.00000000000E+00  0.00000000000E+00  0.36012332884E+03  0.36012332887E+03  0.50400001928E-02 0. -1.
        1   -1    0    0  501    0  0.00000000000E+00  0.00000000000E+00 -0.44483610090E+03  0.44483610093E+03  0.50400001928E-02 0.  1.
    10030    2    1    2    0    0  0.00000000000E+00  0.00000000000E+00 -0.84712772068E+02  0.80495942980E+03  0.80048949392E+03 0.  0.
        2    1    3    3  502    0 -0.28684678128E+03  0.16161458408E+03 -0.27121349286E+03  0.42656430750E+03  0.25500000920E-02 0.  1.
       -2    1    3    3    0  502  0.28684678128E+03 -0.16161458408E+03  0.18650072079E+03  0.37839512230E+03  0.25500000920E-02 0. -1.
</event>
<event>
 5   0  0.1637228E-03  0.7999557E+03  0.7818609E-02  0.9560081E-01
       -1   -1    0    0    0  501  0.00000000000E+00  0.00000000000E+00  0.93239666438E+03  0.93239666439E+03  0.50400001928E-02 0. -1.
        1   -1    0    0  501    0  0.00000000000E+00  0.00000000000E+00 -0.17158177988E+03  0.17158177995E+03  0.50400001928E-02 0.  1.
    10030    2    1    2    0    0  0.00000000000E+00  0.00000000000E+00  0.76081488449E+03  0.11039784443E+04  0.79995569696E+03 0.  0.
        2    1    3    3  502    0  0.26271135533E+03  0.17207813694E+03  0.72224248905E+03  0.78756736501E+03  0.25500000920E-02 0. -1.
       -2    1    3    3    0  502 -0.26271135533E+03 -0.17207813694E+03  0.38572395447E+02  0.31641107934E+03  0.25500000920E-02 0.  1.
</event>
<event>
 5   0  0.2873212E-03  0.8008240E+03  0.7818609E-02  0.9558825E-01
        2   -1    0    0  501    0  0.00000000000E+00  0.00000000000E+00  0.72561059464E+03  0.72561059464E+03  0.25500000920E-02 0.  1.
       -2   -1    0    0    0  501  0.00000000000E+00  0.00000000000E+00 -0.22095844157E+03  0.22095844158E+03  0.25500000920E-02 0. -1.
    10030    2    1    2    0    0  0.00000000000E+00  0.00000000000E+00  0.50465215307E+03  0.94656903623E+03  0.80082404106E+03 0.  0.
        2    1    3    3  502    0 -0.13723335817E+03  0.36362831695E+03  0.36613703293E+03  0.53396149146E+03  0.25500000920E-02 0.  1.
       -2    1    3    3    0  502  0.13723335817E+03 -0.36362831695E+03  0.13851512014E+03  0.41260754476E+03  0.25500000920E-02 0. -1.
</event>
<event>
 5   0  0.1640035E-03  0.8005146E+03  0.7818609E-02  0.9559273E-01
       -1   -1    0    0    0  501  0.00000000000E+00  0.00000000000E+00  0.36018038593E+03  0.36018038597E+03  0.50400001928E-02 0. -1.
        1   -1    0    0  501    0  0.00000000000E+00  0.00000000000E+00 -0.44479351704E+03  0.44479351707E+03  0.50400001928E-02 0.  1.
    10030    2    1    2    0    0  0.00000000000E+00  0.00000000000E+00 -0.84613131112E+02  0.80497390304E+03  0.80051458614E+03 0.  0.
        5    1    3    3  502    0 -0.24342999853E+03  0.48499470729E+02 -0.35801960908E+03  0.43567246107E+03  0.46999998093E+01 0.  1.
       -5    1    3    3    0  502  0.24342999853E+03 -0.48499470729E+02  0.27340647797E+03  0.36930144197E+03  0.46999998093E+01 0. -1.
</event>
<event>
 5   0  0.1712793E-03  0.8011929E+03  0.7818609E-02  0.9558292E-01
        1   -1    0    0  501    0  0.00000000000E+00  0.00000000000E+00  0.81293030690E+03  0.81293030692E+03  0.50400001928E-02 0. -1.
       -1   -1    0    0    0  501  0.00000000000E+00  0.00000000000E+00 -0.19740622462E+03  0.19740622469E+03  0.50400001928E-02 0.  1.
    10030    2    1    2    0    0  0.00000000000E+00  0.00000000000E+00  0.61552408228E+03  0.10103365316E+04  0.80119286769E+03 0.  0.
        4    1    3    3  502    0  0.32378268928E+03 -0.78817091349E+02  0.58812317801E+03  0.67597178134E+03  0.12699999809E+01 0. -1.
       -4    1    3    3    0  502 -0.32378268928E+03  0.78817091349E+02  0.27400904269E+02  0.33436475026E+03  0.12699999809E+01 0.  1.
</event>
<event>
 5   0  0.1640035E-03  0.7999281E+03  0.7818609E-02  0.9560121E-01
        1   -1    0    0  501    0  0.00000000000E+00  0.00000000000E+00  0.66286679015E+03  0.66286679017E+03  0.50400001928E-02 0. -1.
       -1   -1    0    0    0  501  0.00000000000E+00  0.00000000000E+00 -0.24133239231E+03  0.24133239236E+03  0.50400001928E-02 0.  1.
    10030    2    1    2    0    0  0.00000000000E+00  0.00000000000E+00  0.42153439784E+03  0.90419918253E+03  0.79992806747E+03 0.  0.
        5    1    3    3  502    0  0.24949741992E+03 -0.65671935554E+02  0.55619497235E+03  0.61313677343E+03  0.46999998093E+01 0. -1.
       -5    1    3    3    0  502 -0.24949741992E+03  0.65671935554E+02 -0.13466057451E+03  0.29106240910E+03  0.46999998093E+01 0.  1.
</event>
<event>
 5   0  0.2873212E-03  0.7969208E+03  0.7818609E-02  0.9564485E-01
        2   -1    0    0  501    0  0.00000000000E+00  0.00000000000E+00  0.45193386759E+03  0.45193386760E+03  0.25500000920E-02 0.  1.
       -2   -1    0    0    0  501  0.00000000000E+00  0.00000000000E+00 -0.35131403192E+03  0.35131403193E+03  0.25500000920E-02 0. -1.
    10030    2    1    2    0    0  0.00000000000E+00  0.00000000000E+00  0.10061983567E+03  0.80324789953E+03  0.79692084724E+03 0.  0.
        2    1    3    3  502    0 -0.25891362441E+03 -0.80913150008E+02  0.34449616323E+03  0.43847555147E+03  0.25500000920E-02 0.  1.
       -2    1    3    3    0  502  0.25891362441E+03  0.80913150008E+02 -0.24387632757E+03  0.36477234805E+03  0.25500000920E-02 0. -1.
</event>
<event>
 5   0  0.2873212E-03  0.7995767E+03  0.7818609E-02  0.9560630E-01
       -2   -1    0    0    0  501  0.00000000000E+00  0.00000000000E+00  0.82681204892E+02  0.82681204932E+02  0.25500000920E-02 0.  1.
        2   -1    0    0  501    0  0.00000000000E+00  0.00000000000E+00 -0.19330961005E+04  0.19330961005E+04  0.25500000920E-02 0. -1.
    10030    2    1    2    0    0  0.00000000000E+00  0.00000000000E+00 -0.18504148956E+04  0.20157773054E+04  0.79957667501E+03 0.  0.
        2    1    3    3  502    0  0.15235748701E+03  0.32457942855E+02 -0.18534367021E+04  0.18599714865E+04  0.25500000920E-02 0. -1.
       -2    1    3    3    0  502 -0.15235748701E+03 -0.32457942855E+02  0.30218064578E+01  0.15580581897E+03  0.25500000920E-02 0.  1.
</event>
<event>
 5   0  0.1617491E-03  0.7997121E+03  0.7818609E-02  0.9560434E-01
        1   -1    0    0  501    0  0.00000000000E+00  0.00000000000E+00  0.65264634023E+03  0.65264634025E+03  0.50400001928E-02 0. -1.
       -1   -1    0    0    0  501  0.00000000000E+00  0.00000000000E+00 -0.24497935575E+03  0.24497935580E+03  0.50400001928E-02 0.  1.
    10030    2    1    2    0    0  0.00000000000E+00  0.00000000000E+00  0.40766698448E+03  0.89762569605E+03  0.79971214820E+03 0.  0.
        1    1    3    3  502    0  0.20803480495E+03  0.16816320730E+03  0.53742089340E+03  0.60031538465E+03  0.50400001928E-02 0. -1.
       -1    1    3    3    0  502 -0.20803480495E+03 -0.16816320730E+03 -0.12975390892E+03  0.29731031140E+03  0.50400001928E-02 0.  1.
</event>
<event>
 5   0  0.2763587E-03  0.8010583E+03  0.7818609E-02  0.9558486E-01
       -2   -1    0    0    0  501  0.00000000000E+00  0.00000000000E+00  0.12369949880E+03  0.12369949883E+03  0.25500000920E-02 0.  1.
        2   -1    0    0  501    0  0.00000000000E+00  0.00000000000E+00 -0.12968816875E+04  0.12968816875E+04  0.25500000920E-02 0. -1.
    10030    2    1    2    0    0  0.00000000000E+00  0.00000000000E+00 -0.11731821887E+04  0.14205811863E+04  0.80105833687E+03 0.  0.
        3    1    3    3  502    0 -0.63879646332E+02  0.22479680531E+03 -0.97395988677E+01  0.23389972826E+03  0.10100000352E+00 0.  1.
       -3    1    3    3    0  502  0.63879646332E+02 -0.22479680531E+03 -0.11634425898E+04  0.11866814581E+04  0.10100000352E+00 0. -1.
</event>
<event>
 5   0  0.2763587E-03  0.7972613E+03  0.7818609E-02  0.9563990E-01
       -2   -1    0    0    0  501  0.00000000000E+00  0.00000000000E+00  0.54078173289E+03  0.54078173290E+03  0.25500000920E-02 0. -1.
        2   -1    0    0  501    0  0.00000000000E+00  0.00000000000E+00 -0.29384571378E+03  0.29384571379E+03  0.25500000920E-02 0.  1.
    10030    2    1    2    0    0  0.00000000000E+00  0.00000000000E+00  0.24693601911E+03  0.83462744669E+03  0.79726129796E+03 0.  0.
        3    1    3    3  502    0  0.19594071638E+03  0.13299387704E+03  0.45916231611E+03  0.51663350491E+03  0.10100000352E+00 0. -1.
       -3    1    3    3    0  502 -0.19594071638E+03 -0.13299387704E+03 -0.21222629700E+03  0.31799394177E+03  0.10100000352E+00 0.  1.
</event>
<event>
 5   0  0.2768834E-03  0.7994329E+03  0.7818609E-02  0.9560838E-01
        2   -1    0    0  501    0  0.00000000000E+00  0.00000000000E+00  0.36919944354E+03  0.36919944355E+03  0.25500000920E-02 0.  1.
       -2   -1    0    0    0  501  0.00000000000E+00  0.00000000000E+00 -0.43275590150E+03  0.43275590150E+03  0.25500000920E-02 0. -1.
    10030    2    1    2    0    0  0.00000000000E+00  0.00000000000E+00 -0.63556457958E+02  0.80195534505E+03  0.79943289406E+03 0.  0.
        4    1    3    3  502    0  0.68612857557E+02  0.13717912039E+03  0.33850131285E+03  0.37163232770E+03  0.12699999809E+01 0.  1.
       -4    1    3    3    0  502 -0.68612857557E+02 -0.13717912039E+03 -0.40205777081E+03  0.43032301735E+03  0.12699999809E+01 0. -1.
</event>
<event>
 5   0  0.1712793E-03  0.8010022E+03  0.7818609E-02  0.9558568E-01
       -1   -1    0    0    0  501  0.00000000000E+00  0.00000000000E+00  0.28371121814E+03  0.28371121819E+03  0.50400001928E-02 0.  1.
        1   -1    0    0  501    0  0.00000000000E+00  0.00000000000E+00 -0.56536753232E+03  0.56536753234E+03  0.50400001928E-02 0. -1.
    10030    2    1    2    0    0  0.00000000000E+00  0.00000000000E+00 -0.28165631418E+03  0.84907875053E+03  0.80100215061E+03 0.  0.
        4    1    3    3  502    0  0.96035661871E+02 -0.38870356211E+03 -0.13098702796E+03  0.42127487694E+03  0.12699999809E+01 0.  1.
       -4    1    3    3    0  502 -0.96035661871E+02  0.38870356211E+03 -0.15066928622E+03  0.42780387359E+03  0.12699999809E+01 0. -1.
</event>
<event>
 5   0  0.1712793E-03  0.7836656E+03  0.7818609E-02  0.9583966E-01
        1   -1    0    0  501    0  0.00000000000E+00  0.00000000000E+00  0.46167783422E+03  0.46167783424E+03  0.50400001928E-02 0.  1.
       -1   -1    0    0    0  501  0.00000000000E+00  0.00000000000E+00 -0.33255425429E+03  0.33255425433E+03  0.50400001928E-02 0. -1.
    10030    2    1    2    0    0  0.00000000000E+00  0.00000000000E+00  0.12912357993E+03  0.79423208857E+03  0.78366556108E+03 0.  0.
        4    1    3    3  502    0 -0.15325296218E+03 -0.15400409900E+03 -0.26591399038E+03  0.34338840415E+03  0.12699999809E+01 0. -1.
       -4    1    3    3    0  502  0.15325296218E+03  0.15400409900E+03  0.39503757031E+03  0.45084368442E+03  0.12699999809E+01 0.  1.
</event>
<event>
 5   0  0.2690809E-03  0.8219750E+03  0.7818609E-02  0.9528743E-01
       -2   -1    0    0    0  501  0.00000000000E+00  0.00000000000E+00  0.14985453667E+03  0.14985453669E+03  0.25500000920E-02 0. -1.
        2   -1    0    0  501    0  0.00000000000E+00  0.00000000000E+00 -0.11271646870E+04  0.11271646870E+04  0.25500000920E-02 0.  1.
    10030    2    1    2    0    0  0.00000000000E+00  0.00000000000E+00 -0.97731015029E+03  0.12770192237E+04  0.82197504082E+03 0.  0.
        5    1    3    3  502    0  0.17217858099E+03 -0.14697291797E+03 -0.10215238600E+04  0.10463171550E+04  0.46999998093E+01 0.  1.
       -5    1    3    3    0  502 -0.17217858099E+03  0.14697291797E+03  0.44213709662E+02  0.23070206867E+03  0.46999998093E+01 0. -1.
</event>
<event>
 5   0  0.1712793E-03  0.7990718E+03  0.7818609E-02  0.9561362E-01
       -1   -1    0    0    0  501  0.00000000000E+00  0.00000000000E+00  0.22576845871E+03  0.22576845877E+03  0.50400001928E-02 0. -1.
        1   -1    0    0  501    0  0.00000000000E+00  0.00000000000E+00 -0.70704718828E+03  0.70704718830E+03  0.50400001928E-02 0.  1.
    10030    2    1    2    0    0  0.00000000000E+00  0.00000000000E+00 -0.48127872957E+03  0.93281564707E+03  0.79907184650E+03 0.  0.
        4    1    3    3  502    0 -0.28563440565E+03  0.12955285666E+03  0.48286002211E+02  0.31733910454E+03  0.12699999809E+01 0. -1.
       -4    1    3    3    0  502  0.28563440565E+03 -0.12955285666E+03 -0.52956473178E+03  0.61547654253E+03  0.12699999809E+01 0.  1.
</event>
<event>
 5   0  0.2763587E-03  0.8000506E+03  0.7818609E-02  0.9559944E-01
       -2   -1    0    0    0  501  0.00000000000E+00  0.00000000000E+00  0.36696173963E+03  0.36696173964E+03  0.25500000920E-02 0.  1.
        2   -1    0    0  501    0  0.00000000000E+00  0.00000000000E+00 -0.43606796108E+03  0.43606796109E+03  0.25500000920E-02 0. -1.
    10030    2    1    2    0    0  0.00000000000E+00  0.00000000000E+00 -0.69106221446E+02  0.80302970073E+03  0.80005064241E+03 0.  0.
        3    1    3    3  502    0  0.78751076386E+02  0.23129211723E+02  0.35841916513E+03  0.36769688685E+03  0.10100000352E+00 0.  1.
       -3    1    3    3    0  502 -0.78751076386E+02 -0.23129211723E+02 -0.42752538658E+03  0.43533281388E+03  0.10100000352E+00 0. -1.
</event>
<event>
 5   0  0.2690809E-03  0.8007628E+03  0.7818609E-02  0.9558914E-01
        2   -1    0    0  501    0  0.00000000000E+00  0.00000000000E+00  0.39239200862E+03  0.39239200863E+03  0.25500000920E-02 0. -1.
       -2   -1    0    0    0  501  0.00000000000E+00  0.00000000000E+00 -0.40853350552E+03  0.40853350553E+03  0.25500000920E-02 0.  1.
    10030    2    1    2    0    0  0.00000000000E+00  0.00000000000E+00 -0.16141496902E+02  0.80092551416E+03  0.80076284336E+03 0.  0.
        5    1    3    3  502    0  0.31202329694E+03  0.12474505682E+03  0.20960463135E+03  0.39607582420E+03  0.46999998093E+01 0.  1.
       -5    1    3    3    0  502 -0.31202329694E+03 -0.12474505682E+03 -0.22574612826E+03  0.40484968996E+03  0.46999998093E+01 0. -1.
</event>
<event>
 5   0  0.1712793E-03  0.8013391E+03  0.7818609E-02  0.9558081E-01
       -1   -1    0    0    0  501  0.00000000000E+00  0.00000000000E+00  0.10750878242E+03  0.10750878254E+03  0.50400001928E-02 0. -1.
        1   -1    0    0  501    0  0.00000000000E+00  0.00000000000E+00 -0.14932370422E+04  0.14932370422E+04  0.50400001928E-02 0.  1.
    10030    2    1    2    0    0  0.00000000000E+00  0.00000000000E+00 -0.13857282598E+04  0.16007458247E+04  0.80133912015E+03 0.  0.
        4    1    3    3  502    0  0.15832822651E+03  0.33995038776E+02  0.39221384523E+02  0.16662358739E+03  0.12699999809E+01 0. -1.
       -4    1    3    3    0  502 -0.15832822651E+03 -0.33995038776E+02 -0.14249496443E+04  0.14341222373E+04  0.12699999809E+01 0.  1.
</event>
<event>
 5   0  0.1656051E-03  0.7993599E+03  0.7818609E-02  0.9560944E-01
        1   -1    0    0  501    0  0.00000000000E+00  0.00000000000E+00  0.70704630305E+03  0.70704630307E+03  0.50400001928E-02 0.  1.
       -1   -1    0    0    0  501  0.00000000000E+00  0.00000000000E+00 -0.22593153608E+03  0.22593153614E+03  0.50400001928E-02 0. -1.
    10030    2    1    2    0    0  0.00000000000E+00  0.00000000000E+00  0.48111476697E+03  0.93297783921E+03  0.79935988732E+03 0.  0.
        3    1    3    3  502    0 -0.30778054127E+03  0.25482206195E+03  0.25105545344E+03  0.47190252780E+03  0.10100000352E+00 0. -1.
       -3    1    3    3    0  502  0.30778054127E+03 -0.25482206195E+03  0.23005931353E+03  0.46107531141E+03  0.10100000352E+00 0.  1.
</event>
<event>
 5   0  0.1712793E-03  0.8232819E+03  0.7818609E-02  0.9526916E-01
       -1   -1    0    0    0  501  0.00000000000E+00  0.00000000000E+00  0.14395805782E+03  0.14395805791E+03  0.50400001928E-02 0.  1.
        1   -1    0    0  501    0  0.00000000000E+00  0.00000000000E+00 -0.11770669675E+04  0.11770669675E+04  0.50400001928E-02 0. -1.
    10030    2    1    2    0    0  0.00000000000E+00  0.00000000000E+00 -0.10331089097E+04  0.13210250254E+04  0.82328190708E+03 0.  0.
        4    1    3    3  502    0  0.29473643286E+03  0.40557897159E+01 -0.97760550836E+03  0.10210779388E+04  0.12699999809E+01 0. -1.
       -4    1    3    3    0  502 -0.29473643286E+03 -0.40557897159E+01 -0.55503401293E+02  0.29994708657E+03  0.12699999809E+01 0.  1.
</event>
<event>
 5   0  0.2690809E-03  0.7977767E+03  0.7818609E-02  0.9563241E-01
        2   -1    0    0  501    0  0.00000000000E+00  0.00000000000E+00  0.80739942858E+03  0.80739942858E+03  0.25500000920E-02 0.  1.
       -2   -1    0    0    0  501  0.00000000000E+00  0.00000000000E+00 -0.19706718826E+03  0.19706718828E+03  0.25500000920E-02 0. -1.
    10030    2    1    2    0    0  0.00000000000E+00  0.00000000000E+00  0.61033224032E+03  0.10044666169E+04  0.79777674873E+03 0.  0.
        5    1    3    3  502    0  0.72589076224E+02  0.23818667544E+03  0.69748247728E+03  0.74061188382E+03  0.46999998093E+01 0.  1.
       -5    1    3    3    0  502 -0.72589076224E+02 -0.23818667544E+03 -0.87150236963E+02  0.26385473304E+03  0.46999998093E+01 0. -1.
</event>
<event>
 5   0  0.1712793E-03  0.8002026E+03  0.7818609E-02  0.9559724E-01
        1   -1    0    0  501    0  0.00000000000E+00  0.00000000000E+00  0.94531762296E+03  0.94531762297E+03  0.50400001928E-02 0.  1.
       -1   -1    0    0    0  501  0.00000000000E+00  0.00000000000E+00 -0.16934103593E+03  0.16934103600E+03  0.50400001928E-02 0. -1.
    10030    2    1    2    0    0  0.00000000000E+00  0.00000000000E+00  0.77597658703E+03  0.11146586590E+04  0.80020263833E+03 0.  0.
        4    1    3    3  502    0 -0.14055631014E+03 -0.36672328748E+03  0.28156127518E+03  0.48323949598E+03  0.12699999809E+01 0.  1.
       -4    1    3    3    0  502  0.14055631014E+03  0.36672328748E+03  0.49441531185E+03  0.63141916299E+03  0.12699999809E+01 0. -1.
</event>
<event>
 5   0  0.1095350E-03  0.8041217E+03  0.7818609E-02  0.9554070E-01
       -3   -1    0    0    0  501  0.00000000000E+00  0.00000000000E+00  0.86468631320E+03  0.86468631910E+03  0.10100000352E+00 0. -1.
        3   -1    0    0  501    0  0.00000000000E+00  0.00000000000E+00 -0.18694975516E+03  0.18694978245E+03  0.10100000352E+00 0.  1.
    10030    2    1    2    0    0  0.00000000000E+00  0.00000000000E+00  0.67773655804E+03  0.10516361015E+04  0.80412166242E+03 0.  0.
        4    1    3    3  502    0 -0.11426753354E+03  0.38365261267E+03  0.38788754942E+03  0.55740897044E+03  0.12699999809E+01 0.  1.
       -4    1    3    3    0  502  0.11426753354E+03 -0.38365261267E+03  0.28984900862E+03  0.49422713111E+03  0.12699999809E+01 0. -1.
</event>
<event>
 5   0  0.1637228E-03  0.8022956E+03  0.7818609E-02  0.9556700E-01
        1   -1    0    0  501    0  0.00000000000E+00  0.00000000000E+00  0.33365572835E+03  0.33365572839E+03  0.50400001928E-02 0.  1.
       -1   -1    0    0    0  501  0.00000000000E+00  0.00000000000E+00 -0.48229216941E+03  0.48229216944E+03  0.50400001928E-02 0. -1.
    10030    2    1    2    0    0  0.00000000000E+00  0.00000000000E+00 -0.14863644106E+03  0.81594789783E+03  0.80229556920E+03 0.  0.
        2    1    3    3  502    0  0.18377663429E+03  0.10688403148E+02 -0.43679789979E+03  0.47400474527E+03  0.25500000920E-02 0. -1.
       -2    1    3    3    0  502 -0.18377663429E+03 -0.10688403148E+02  0.28816145873E+03  0.34194315256E+03  0.25500000920E-02 0.  1.
</event>
<event>
 5   0  0.1640035E-03  0.7986258E+03  0.7818609E-02  0.9562008E-01
        1   -1    0    0  501    0  0.00000000000E+00  0.00000000000E+00  0.34094521663E+03  0.34094521667E+03  0.50400001928E-02 0. -1.
       -1   -1    0    0    0  501  0.00000000000E+00  0.00000000000E+00 -0.46767281292E+03  0.46767281295E+03  0.50400001928E-02 0.  1.
    10030    2    1    2    0    0  0.00000000000E+00  0.00000000000E+00 -0.12672759629E+03  0.80861802962E+03  0.79862584116E+03 0.  0.
        5    1    3    3  502    0  0.11709329407E+02  0.38989254474E+03  0.22999438261E+02  0.39077406387E+03  0.46999998093E+01 0. -1.
       -5    1    3    3    0  502 -0.11709329407E+02 -0.38989254474E+03 -0.14972703455E+03  0.41784396575E+03  0.46999998093E+01 0.  1.
</event>
<event>
 5   0  0.2873212E-03  0.7957202E+03  0.7818609E-02  0.9566233E-01
       -2   -1    0    0    0  501  0.00000000000E+00  0.00000000000E+00  0.30358907753E+03  0.30358907754E+03  0.25500000920E-02 0.  1.
        2   -1    0    0  501    0  0.00000000000E+00  0.00000000000E+00 -0.52140429302E+03  0.52140429303E+03  0.25500000920E-02 0. -1.
    10030    2    1    2    0    0  0.00000000000E+00  0.00000000000E+00 -0.21781521549E+03  0.82499337056E+03  0.79572017278E+03 0.  0.
        2    1    3    3  502    0  0.30335869834E+03  0.78380881630E+01  0.15786089024E+03  0.34206431582E+03  0.25500000920E-02 0.  1.
       -2    1    3    3    0  502 -0.30335869834E+03 -0.78380881630E+01 -0.37567610573E+03  0.48292905474E+03  0.25500000920E-02 0. -1.
</event>
<event>
 5   0  0.2768834E-03  0.7886540E+03  0.7818609E-02  0.9576587E-01
        2   -1    0    0  501    0  0.00000000000E+00  0.00000000000E+00  0.45823294065E+03  0.45823294066E+03  0.25500000920E-02 0. -1.
       -2   -1    0    0    0  501  0.00000000000E+00  0.00000000000E+00 -0.33933350707E+03  0.33933350708E+03  0.25500000920E-02 0.  1.
    10030    2    1    2    0    0  0.00000000000E+00  0.00000000000E+00  0.11889943358E+03  0.79756644773E+03  0.78865401999E+03 0.  0.
        4    1    3    3  502    0 -0.18064425707E+03  0.29347673059E+03  0.25326951750E+03  0.42767744903E+03  0.12699999809E+01 0. -1.
       -4    1    3    3    0  502  0.18064425707E+03 -0.29347673059E+03 -0.13437008392E+03  0.36988899871E+03  0.12699999809E+01 0.  1.
</event>
<event>
 5   0  0.2763587E-03  0.8015624E+03  0.7818609E-02  0.9557758E-01
       -2   -1    0    0    0  501  0.00000000000E+00  0.00000000000E+00  0.85136701067E+02  0.85136701105E+02  0.25500000920E-02 0. -1.
        2   -1    0    0  501    0  0.00000000000E+00  0.00000000000E+00 -0.18866781741E+04  0.18866781741E+04  0.25500000920E-02 0.  1.
    10030    2    1    2    0    0  0.00000000000E+00  0.00000000000E+00 -0.18015414731E+04  0.19718148752E+04  0.80156236378E+03 0.  0.
        3    1    3    3  502    0 -0.20466105968E+03  0.27026839884E+03 -0.14266187742E+04  0.14663465804E+04  0.10100000352E+00 0.  1.
       -3    1    3    3    0  502  0.20466105968E+03 -0.27026839884E+03 -0.37492269888E+03  0.50546829485E+03  0.10100000352E+00 0. -1.
</event>
<event>
 5   0  0.1712793E-03  0.7994777E+03  0.7818609E-02  0.9560773E-01
       -1   -1    0    0    0  501  0.00000000000E+00  0.00000000000E+00  0.25009851917E+03  0.25009851922E+03  0.50400001928E-02 0.  1.
        1   -1    0    0  501    0  0.00000000000E+00  0.00000000000E+00 -0.63891278095E+03  0.63891278097E+03  0.50400001928E-02 0. -1.
    10030    2    1    2    0    0  0.00000000000E+00  0.00000000000E+00 -0.38881426178E+03  0.88901130019E+03  0.79947768056E+03 0.  0.
        4    1    3    3  502    0 -0.35492178670E+03 -0.17656667009E+03 -0.25158833974E+03  0.46951418430E+03  0.12699999809E+01 0. -1.
       -4    1    3    3    0  502  0.35492178670E+03  0.17656667009E+03 -0.13722592204E+03  0.41949711589E+03  0.12699999809E+01 0.  1.
</event>
<event>
 5   0  0.1656051E-03  0.8014924E+03  0.7818609E-02  0.9557859E-01
        1   -1    0    0  501    0  0.00000000000E+00  0.00000000000E+00  0.83628468831E+03  0.83628468832E+03  0.50400001928E-02 0. -1.
       -1   -1    0    0    0  501  0.00000000000E+00  0.00000000000E+00 -0.19203689226E+03  0.19203689233E+03  0.50400001928E-02 0.  1.
    10030    2    1    2    0    0  0.00000000000E+00  0.00000000000E+00  0.64424779605E+03  0.10283215806E+04  0.80149238956E+03 0.  0.
        3    1    3    3  502    0 -0.17823665753E+03  0.80863259137E+02 -0.12654462810E+03  0.23306807132E+03  0.10100000352E+00 0.  1.
       -3    1    3    3    0  502  0.17823665753E+03 -0.80863259137E+02  0.77079242415E+03  0.79525350933E+03  0.10100000352E+00 0. -1.
</event>
<event>
 5   0  0.1640035E-03  0.7960672E+03  0.7818609E-02  0.9565727E-01
        1   -1    0    0  501    0  0.00000000000E+00  0.00000000000E+00  0.10547176065E+04  0.10547176065E+04  0.50400001928E-02 0. -1.
       -1   -1    0    0    0  501  0.00000000000E+00  0.00000000000E+00 -0.15021153538E+03  0.15021153547E+03  0.50400001928E-02 0.  1.
    10030    2    1    2    0    0  0.00000000000E+00  0.00000000000E+00  0.90450607114E+03  0.12049291420E+04  0.79606721106E+03 0.  0.
        5    1    3    3  502    0 -0.96166620194E+02 -0.25164957525E+03  0.89569751834E+03  0.93534574459E+03  0.46999998093E+01 0. -1.
       -5    1    3    3    0  502  0.96166620194E+02  0.25164957525E+03  0.88085528030E+01  0.26958339742E+03  0.46999998093E+01 0.  1.
</event>
<event>
 5   0  0.1640035E-03  0.8016899E+03  0.7818609E-02  0.9557574E-01
        1   -1    0    0  501    0  0.00000000000E+00  0.00000000000E+00  0.14914632447E+03  0.14914632455E+03  0.50400001928E-02 0. -1.
       -1   -1    0    0    0  501  0.00000000000E+00  0.00000000000E+00 -0.10773089751E+04  0.10773089751E+04  0.50400001928E-02 0.  1.
    10030    2    1    2    0    0  0.00000000000E+00  0.00000000000E+00 -0.92816265062E+03  0.12264552997E+04  0.80168990018E+03 0.  0.
        5    1    3    3  502    0  0.13173660235E+03  0.97672442847E+02 -0.10235923884E+04  0.10366570822E+04  0.46999998093E+01 0.  1.
       -5    1    3    3    0  502 -0.13173660235E+03 -0.97672442847E+02  0.95429737793E+02  0.18979821744E+03  0.46999998093E+01 0. -1.
</event>
<event>
 5   0  0.2873212E-03  0.8007483E+03  0.7818609E-02  0.9558935E-01
       -2   -1    0    0    0  501  0.00000000000E+00  0.00000000000E+00  0.16359184977E+03  0.16359184979E+03  0.25500000920E-02 0.  1.
        2   -1    0    0  501    0  0.00000000000E+00  0.00000000000E+00 -0.97987446947E+03  0.97987446947E+03  0.25500000920E-02 0. -1.
    10030    2    1    2    0    0  0.00000000000E+00  0.00000000000E+00 -0.81628261969E+03  0.11434663193E+04  0.80074834254E+03 0.  0.
        2    1    3    3  502    0  0.71213698203E+02 -0.12826430921E+03  0.12382614564E+03  0.19197926497E+03  0.25500000920E-02 0.  1.
       -2    1    3    3    0  502 -0.71213698203E+02  0.12826430921E+03 -0.94010876533E+03  0.95148705429E+03  0.25500000920E-02 0. -1.
</event>
<event>
 5   0  0.2873212E-03  0.7995166E+03  0.7818609E-02  0.9560717E-01
       -2   -1    0    0    0  501  0.00000000000E+00  0.00000000000E+00  0.21408011366E+03  0.21408011367E+03  0.25500000920E-02 0.  1.
        2   -1    0    0  501    0  0.00000000000E+00  0.00000000000E+00 -0.74648088995E+03  0.74648088995E+03  0.25500000920E-02 0. -1.
    10030    2    1    2    0    0  0.00000000000E+00  0.00000000000E+00 -0.53240077629E+03  0.96056100362E+03  0.79951663840E+03 0.  0.
        2    1    3    3  502    0  0.23733047080E+03 -0.29234249428E+03 -0.42746408249E+03  0.56966255639E+03  0.25500000920E-02 0.  1.
       -2    1    3    3    0  502 -0.23733047080E+03  0.29234249428E+03 -0.10493669380E+03  0.39089844723E+03  0.25500000920E-02 0. -1.
</event>
<event>
 5   0  0.1656051E-03  0.8006392E+03  0.7818609E-02  0.9559092E-01
       -1   -1    0    0    0  501  0.00000000000E+00  0.00000000000E+00  0.21861380699E+03  0.21861380704E+03  0.50400001928E-02 0. -1.
        1   -1    0    0  501    0  0.00000000000E+00  0.00000000000E+00 -0.73305421187E+03  0.73305421189E+03  0.50400001928E-02 0.  1.
    10030    2    1    2    0    0  0.00000000000E+00  0.00000000000E+00 -0.51444040489E+03  0.95166801893E+03  0.80063917471E+03 0.  0.
        3    1    3    3  502    0 -0.39657151222E+03  0.40513475327E+02 -0.30081988845E+03  0.49940256455E+03  0.10100000352E+00 0. -1.
       -3    1    3    3    0  502  0.39657151222E+03 -0.40513475327E+02 -0.21362051643E+03  0.45226545438E+03  0.10100000352E+00 0.  1.
</event>
<event>
 5   0  0.1617491E-03  0.7985354E+03  0.7818609E-02  0.9562140E-01
       -1   -1    0    0    0  501  0.00000000000E+00  0.00000000000E+00  0.29305105922E+03  0.29305105926E+03  0.50400001928E-02 0.  1.
        1   -1    0    0  501    0  0.00000000000E+00  0.00000000000E+00 -0.54398261905E+03  0.54398261907E+03  0.50400001928E-02 0. -1.
    10030    2    1    2    0    0  0.00000000000E+00  0.00000000000E+00 -0.25093155983E+03  0.83703367834E+03  0.79853536612E+03 0.  0.
        1    1    3    3  502    0  0.51904435742E+02  0.31800252523E+03 -0.37261922507E+03  0.49261015359E+03  0.50400001928E-02 0. -1.
       -1    1    3    3    0  502 -0.51904435742E+02 -0.31800252523E+03  0.12168766524E+03  0.34442352475E+03  0.50400001928E-02 0.  1.
</event>
<event>
 5   0  0.2763587E-03  0.8006512E+03  0.7818609E-02  0.9559075E-01
       -2   -1    0    0    0  501  0.00000000000E+00  0.00000000000E+00  0.12069429753E+03  0.12069429755E+03  0.25500000920E-02 0. -1.
        2   -1    0    0  501    0  0.00000000000E+00  0.00000000000E+00 -0.13278222790E+04  0.13278222790E+04  0.25500000920E-02 0.  1.
    10030    2    1    2    0    0  0.00000000000E+00  0.00000000000E+00 -0.12071279815E+04  0.14485165766E+04  0.80065117805E+03 0.  0.
        3    1    3    3  502    0  0.39578831506E+03  0.59885610627E+02 -0.61276952344E+03  0.73192976149E+03  0.10100000352E+00 0.  1.
       -3    1    3    3    0  502 -0.39578831506E+03 -0.59885610627E+02 -0.59435845804E+03  0.71658681507E+03  0.10100000352E+00 0. -1.
</event>
<event>
 5   0  0.2690809E-03  0.8002813E+03  0.7818609E-02  0.9559610E-01
        2   -1    0    0  501    0  0.00000000000E+00  0.00000000000E+00  0.63442726740E+03  0.63442726741E+03  0.25500000920E-02 0. -1.
       -2   -1    0    0    0  501  0.00000000000E+00  0.00000000000E+00 -0.25237336713E+03  0.25237336714E+03  0.25500000920E-02 0.  1.
    10030    2    1    2    0    0  0.00000000000E+00  0.00000000000E+00  0.38205390027E+03  0.88680063455E+03  0.80028131474E+03 0.  0.
        5    1    3    3  502    0 -0.32694710374E+03 -0.16965297935E+03  0.36416878684E+03  0.51799376189E+03  0.46999998093E+01 0. -1.
       -5    1    3    3    0  502  0.32694710374E+03  0.16965297935E+03  0.17885113430E+02  0.36880687267E+03  0.46999998093E+01 0.  1.
</event>
<event>
 5   0  0.1637228E-03  0.7984129E+03  0.7818609E-02  0.9562317E-01
       -1   -1    0    0    0  501  0.00000000000E+00  0.00000000000E+00  0.46636165004E+03  0.46636165007E+03  0.50400001928E-02 0.  1.
        1   -1    0    0  501    0  0.00000000000E+00  0.00000000000E+00 -0.34172145632E+03  0.34172145636E+03  0.50400001928E-02 0. -1.
    10030    2    1    2    0    0  0.00000000000E+00  0.00000000000E+00  0.12464019372E+03  0.80808310643E+03  0.79841288128E+03 0.  0.
        2    1    3    3  502    0  0.18251159726E+03  0.32098146190E+03 -0.91261659878E+02  0.38035282645E+03  0.25500000920E-02 0.  1.
       -2    1    3    3    0  502 -0.18251159726E+03 -0.32098146190E+03  0.21590185360E+03  0.42773027998E+03  0.25500000920E-02 0. -1.
</event>
<event>
 5   0  0.1637228E-03  0.8013850E+03  0.7818609E-02  0.9558015E-01
        1   -1    0    0  501    0  0.00000000000E+00  0.00000000000E+00  0.49989423198E+03  0.49989423201E+03  0.50400001928E-02 0. -1.
       -1   -1    0    0    0  501  0.00000000000E+00  0.00000000000E+00 -0.32117690103E+03  0.32117690107E+03  0.50400001928E-02 0.  1.
    10030    2    1    2    0    0  0.00000000000E+00  0.00000000000E+00  0.17871733096E+03  0.82107113307E+03  0.80138500185E+03 0.  0.
        2    1    3    3  502    0  0.30632081919E+03  0.16919512549E+03 -0.11061546721E+03  0.36700846905E+03  0.25500000920E-02 0.  1.
       -2    1    3    3    0  502 -0.30632081919E+03 -0.16919512549E+03  0.28933279817E+03  0.45406266403E+03  0.25500000920E-02 0. -1.
</event>
<event>
 5   0  0.1656051E-03  0.7998236E+03  0.7818609E-02  0.9560273E-01
       -1   -1    0    0    0  501  0.00000000000E+00  0.00000000000E+00  0.36958445448E+03  0.36958445451E+03  0.50400001928E-02 0. -1.
        1   -1    0    0  501    0  0.00000000000E+00  0.00000000000E+00 -0.43272770500E+03  0.43272770503E+03  0.50400001928E-02 0.  1.
    10030    2    1    2    0    0  0.00000000000E+00  0.00000000000E+00 -0.63143250520E+02  0.80231215954E+03  0.79982356258E+03 0.  0.
        3    1    3    3  502    0 -0.35000213170E+03 -0.16213236131E+03 -0.13745110772E+03  0.40948896443E+03  0.10100000352E+00 0.  1.
       -3    1    3    3    0  502  0.35000213170E+03  0.16213236131E+03  0.74307857197E+02  0.39282319511E+03  0.10100000352E+00 0. -1.
</event>
<event>
 5   0  0.2763587E-03  0.8018993E+03  0.7818609E-02  0.9557272E-01
       -2   -1    0    0    0  501  0.00000000000E+00  0.00000000000E+00  0.27255962393E+03  0.27255962394E+03  0.25500000920E-02 0.  1.
        2   -1    0    0  501    0  0.00000000000E+00  0.00000000000E+00 -0.58981811537E+03  0.58981811538E+03  0.25500000920E-02 0. -1.
    10030    2    1    2    0    0  0.00000000000E+00  0.00000000000E+00 -0.31725849144E+03  0.86237773932E+03  0.80189925482E+03 0.  0.
        3    1    3    3  502    0  0.12853962948E+03 -0.15964938827E+03  0.21196183045E+03  0.29485282988E+03  0.10100000352E+00 0.  1.
       -3    1    3    3    0  502 -0.12853962948E+03  0.15964938827E+03 -0.52922032190E+03  0.56752490944E+03  0.10100000352E+00 0. -1.
</event>
<event>
 5   0  0.1640035E-03  0.8022574E+03  0.7818609E-02  0.9556755E-01
       -1   -1    0    0    0  501  0.00000000000E+00  0.00000000000E+00  0.10832927851E+03  0.10832927862E+03  0.50400001928E-02 0. -1.
        1   -1    0    0  501    0  0.00000000000E+00  0.00000000000E+00 -0.14853252954E+04  0.14853252954E+04  0.50400001928E-02 0.  1.
    10030    2    1    2    0    0  0.00000000000E+00  0.00000000000E+00 -0.13769960169E+04  0.15936545741E+04  0.80225735946E+03 0.  0.
        5    1    3    3  502    0 -0.13315424128E+03 -0.22561119865E+03 -0.85150414486E+02  0.27550525950E+03  0.46999998093E+01 0. -1.
       -5    1    3    3    0  502  0.13315424128E+03  0.22561119865E+03 -0.12918456024E+04  0.13181493146E+04  0.46999998093E+01 0.  1.
</event>
<event>
 5   0  0.1637228E-03  0.7999417E+03  0.7818609E-02  0.9560102E-01
        1   -1    0    0  501    0  0.00000000000E+00  0.00000000000E+00  0.67928063584E+03  0.67928063586E+03  0.50400001928E-02 0.  1.
       -1   -1    0    0    0  501  0.00000000000E+00  0.00000000000E+00 -0.23550895766E+03  0.23550895772E+03  0.50400001928E-02 0. -1.
    10030    2    1    2    0    0  0.00000000000E+00  0.00000000000E+00  0.44377167818E+03  0.91478959358E+03  0.79994168423E+03 0.  0.
        2    1    3    3  502    0 -0.30014037005E+02 -0.59072827654E+01 -0.23416929494E+03  0.23615883872E+03  0.25500000920E-02 0. -1.
       -2    1    3    3    0  502  0.30014037005E+02  0.59072827654E+01  0.67794097312E+03  0.67863075486E+03  0.25500000920E-02 0.  1.
</event>
<event>
 5   0  0.2763587E-03  0.7978718E+03  0.7818609E-02  0.9563103E-01
       -2   -1    0    0    0  501  0.00000000000E+00  0.00000000000E+00  0.16642596740E+03  0.16642596742E+03  0.25500000920E-02 0.  1.
        2   -1    0    0  501    0  0.00000000000E+00  0.00000000000E+00 -0.95628008869E+03  0.95628008870E+03  0.25500000920E-02 0. -1.
    10030    2    1    2    0    0  0.00000000000E+00  0.00000000000E+00 -0.78985412129E+03  0.11227060561E+04  0.79787176634E+03 0.  0.
        3    1    3    3  502    0  0.15955711193E+03 -0.15855549976E+03  0.68680919548E+02  0.23519225622E+03  0.10100000352E+00 0.  1.
       -3    1    3    3    0  502 -0.15955711193E+03  0.15855549976E+03 -0.85853504084E+03  0.88751379990E+03  0.10100000352E+00 0. -1.
</event>
<event>
 5   0  0.2690809E-03  0.7995701E+03  0.7818609E-02  0.9560640E-01
        2   -1    0    0  501    0  0.00000000000E+00  0.00000000000E+00  0.84439623791E+03  0.84439623792E+03  0.25500000920E-02 0.  1.
       -2   -1    0    0    0  501  0.00000000000E+00  0.00000000000E+00 -0.18928091123E+03  0.18928091125E+03  0.25500000920E-02 0. -1.
    10030    2    1    2    0    0  0.00000000000E+00  0.00000000000E+00  0.65511532668E+03  0.10336771492E+04  0.79957010791E+03 0.  0.
        5    1    3    3  502    0  0.31016403503E+03 -0.15110309456E+03  0.58859945563E+03  0.68227947571E+03  0.46999998093E+01 0.  1.
       -5    1    3    3    0  502 -0.31016403503E+03  0.15110309456E+03  0.66515871053E+02  0.35139767346E+03  0.46999998093E+01 0. -1.
</event>
<event>
 5   0  0.2690809E-03  0.7964647E+03  0.7818609E-02  0.9565148E-01
       -2   -1    0    0    0  501  0.00000000000E+00  0.00000000000E+00  0.10098707507E+03  0.10098707510E+03  0.25500000920E-02 0. -1.
        2   -1    0    0  501    0  0.00000000000E+00  0.00000000000E+00 -0.15703891938E+04  0.15703891938E+04  0.25500000920E-02 0.  1.
    10030    2    1    2    0    0  0.00000000000E+00  0.00000000000E+00 -0.14694021187E+04  0.16713762689E+04  0.79646471719E+03 0.  0.
        5    1    3    3  502    0 -0.13870966770E+03 -0.33985088768E+03 -0.41077134356E+03  0.55090306267E+03  0.46999998093E+01 0. -1.
       -5    1    3    3    0  502  0.13870966770E+03  0.33985088768E+03 -0.10586307751E+04  0.11204732062E+04  0.46999998093E+01 0.  1.
</event>
<event>
 5   0  0.2690809E-03  0.8041292E+03  0.7818609E-02  0.9554059E-01
       -2   -1    0    0    0  501  0.00000000000E+00  0.00000000000E+00  0.33268135728E+03  0.33268135729E+03  0.25500000920E-02 0. -1.
        2   -1    0    0  501    0  0.00000000000E+00  0.00000000000E+00 -0.48591829917E+03  0.48591829918E+03  0.25500000920E-02 0.  1.
    10030    2    1    2    0    0  0.00000000000E+00  0.00000000000E+00 -0.15323694189E+03  0.81859965647E+03  0.80412924161E+03 0.  0.
        5    1    3    3  502    0  0.45246236579E+02 -0.38902565800E+03  0.15821344034E+02  0.39199564976E+03  0.46999998093E+01 0.  1.
       -5    1    3    3    0  502 -0.45246236579E+02  0.38902565800E+03 -0.16905828592E+03  0.42660400671E+03  0.46999998093E+01 0. -1.
</event>
<event>
 5   0  0.2873212E-03  0.7989753E+03  0.7818609E-02  0.9561502E-01
       -2   -1    0    0    0  501  0.00000000000E+00  0.00000000000E+00  0.21535395059E+03  0.21535395061E+03  0.25500000920E-02 0. -1.
        2   -1    0    0  501    0  0.00000000000E+00  0.00000000000E+00 -0.74106078530E+03  0.74106078531E+03  0.25500000920E-02 0.  1.
    10030    2    1    2    0    0  0.00000000000E+00  0.00000000000E+00 -0.52570683471E+03  0.95641473591E+03  0.79897526308E+03 0.  0.
        2    1    3    3  502    0  0.34027452231E+03 -0.95423746646E+02 -0.39874048231E+02  0.35564361612E+03  0.25500000920E-02 0. -1.
       -2    1    3    3    0  502 -0.34027452231E+03  0.95423746646E+02 -0.48583278648E+03  0.60077111980E+03  0.25500000920E-02 0.  1.
</event>
<event>
 5   0  0.2768834E-03  0.7995070E+03  0.7818609E-02  0.9560731E-01
        2   -1    0    0  501    0  0.00000000000E+00  0.00000000000E+00  0.83192846218E+03  0.83192846219E+03  0.25500000920E-02 0.  1.
       -2   -1    0    0    0  501  0.00000000000E+00  0.00000000000E+00 -0.19208727284E+03  0.19208727286E+03  0.25500000920E-02 0. -1.
    10030    2    1    2    0    0  0.00000000000E+00  0.00000000000E+00  0.63984118934E+03  0.10240157350E+04  0.79950702188E+03 0.  0.
        4    1    3    3  502    0 -0.37119485129E+03  0.10080750918E+03  0.18047417237E+03  0.42487681900E+03  0.12699999809E+01 0. -1.
       -4    1    3    3    0  502  0.37119485129E+03 -0.10080750918E+03  0.45936701698E+03  0.59913891604E+03  0.12699999809E+01 0.  1.
</event>
<event>
 5   0  0.2690809E-03  0.7995595E+03  0.7818609E-02  0.9560655E-01
        2   -1    0    0  501    0  0.00000000000E+00  0.00000000000E+00  0.55908216666E+03  0.55908216667E+03  0.25500000920E-02 0.  1.
       -2   -1    0    0    0  501  0.00000000000E+00  0.00000000000E+00 -0.28586824845E+03  0.28586824846E+03  0.25500000920E-02 0. -1.
    10030    2    1    2    0    0  0.00000000000E+00  0.00000000000E+00  0.27321391821E+03  0.84495041513E+03  0.79955947804E+03 0.  0.
        5    1    3    3  502    0 -0.43344331152E+02  0.34304207699E+02 -0.28178084244E+03  0.28718990733E+03  0.46999998093E+01 0. -1.
       -5    1    3    3    0  502  0.43344331152E+02 -0.34304207699E+02  0.55499476065E+03  0.55776050780E+03  0.46999998093E+01 0.  1.
</event>
<event>
 5   0  0.2690809E-03  0.7990208E+03  0.7818609E-02  0.9561436E-01
       -2   -1    0    0    0  501  0.00000000000E+00  0.00000000000E+00  0.59937263640E+03  0.59937263640E+03  0.25500000920E-02 0. -1.
        2   -1    0    0  501    0  0.00000000000E+00  0.00000000000E+00 -0.26629269860E+03  0.26629269861E+03  0.25500000920E-02 0.  1.
    10030    2    1    2    0    0  0.00000000000E+00  0.00000000000E+00  0.33307993780E+03  0.86566533502E+03  0.79902079278E+03 0.  0.
        5    1    3    3  502    0 -0.29406861863E+03  0.12776684694E+03  0.42471344255E+03  0.53216944475E+03  0.46999998093E+01 0. -1.
       -5    1    3    3    0  502  0.29406861863E+03 -0.12776684694E+03 -0.91633504754E+02  0.33349589027E+03  0.46999998093E+01 0.  1.
</event>
<event>
 5   0  0.2910501E-03  0.8000970E+03  0.7818609E-02  0.9559877E-01
       -2   -1    0    0    0  501  0.00000000000E+00  0.00000000000E+00  0.34374575429E+03  0.34374575430E+03  0.25500000920E-02 0.  1.
        2   -1    0    0  501    0  0.00000000000E+00  0.00000000000E+00 -0.46557315264E+03  0.46557315265E+03  0.25500000920E-02 0. -1.
    10030    2    1    2    0    0  0.00000000000E+00  0.00000000000E+00 -0.12182739835E+03  0.80931890694E+03  0.80009698046E+03 0.  0.
        1    1    3    3  502    0 -0.11879965940E+03  0.74038735596E+02 -0.43999135627E+03  0.46172230514E+03  0.50400001928E-02 0. -1.
       -1    1    3    3    0  502  0.11879965940E+03 -0.74038735596E+02  0.31816395792E+03  0.34759660181E+03  0.50400001928E-02 0.  1.
</event>
<event>
 5   0  0.1095350E-03  0.8000674E+03  0.7818609E-02  0.9559920E-01
       -3   -1    0    0    0  501  0.00000000000E+00  0.00000000000E+00  0.18371298743E+03  0.18371301519E+03  0.10100000352E+00 0. -1.
        3   -1    0    0  501    0  0.00000000000E+00  0.00000000000E+00 -0.87107045772E+03  0.87107046358E+03  0.10100000352E+00 0.  1.
    10030    2    1    2    0    0  0.00000000000E+00  0.00000000000E+00 -0.68735747029E+03  0.10547834788E+04  0.80006743161E+03 0.  0.
        2    1    3    3  502    0  0.19878998779E+03  0.34176586437E+03 -0.26342477115E+03  0.47509364903E+03  0.25500000920E-02 0. -1.
       -2    1    3    3    0  502 -0.19878998779E+03 -0.34176586437E+03 -0.42393269914E+03  0.57968982974E+03  0.25500000920E-02 0.  1.
</event>
<event>
 5   0  0.2910501E-03  0.7996016E+03  0.7818609E-02  0.9560594E-01
       -2   -1    0    0    0  501  0.00000000000E+00  0.00000000000E+00  0.22681665418E+03  0.22681665420E+03  0.25500000920E-02 0.  1.
        2   -1    0    0  501    0  0.00000000000E+00  0.00000000000E+00 -0.70471308837E+03  0.70471308838E+03  0.25500000920E-02 0. -1.
    10030    2    1    2    0    0  0.00000000000E+00  0.00000000000E+00 -0.47789643419E+03  0.93152974257E+03  0.79960156296E+03 0.  0.
        1    1    3    3  502    0  0.31601058208E+03  0.95328664356E+02  0.23861319388E+02  0.33093746362E+03  0.50400001928E-02 0.  1.
       -1    1    3    3    0  502 -0.31601058208E+03 -0.95328664356E+02 -0.50175775358E+03  0.60059227895E+03  0.50400001928E-02 0. -1.
</event>
<event>
 5   0  0.1637228E-03  0.8013405E+03  0.7818609E-02  0.9558079E-01
        1   -1    0    0  501    0  0.00000000000E+00  0.00000000000E+00  0.26835690647E+03  0.26835690651E+03  0.50400001928E-02 0.  1.
       -1   -1    0    0    0  501  0.00000000000E+00  0.00000000000E+00 -0.59822064266E+03  0.59822064268E+03  0.50400001928E-02 0. -1.
    10030    2    1    2    0    0  0.00000000000E+00  0.00000000000E+00 -0.32986373619E+03  0.86657754919E+03  0.80134047964E+03 0.  0.
        2    1    3    3  502    0 -0.59938387094E+02  0.26559913322E+03  0.15293851559E+03  0.31229104914E+03  0.25500000920E-02 0.  1.
       -2    1    3    3    0  502  0.59938387094E+02 -0.26559913322E+03 -0.48280225178E+03  0.55428650005E+03  0.25500000920E-02 0. -1.
</event>
<event>
 5   0  0.2763587E-03  0.8004469E+03  0.7818609E-02  0.9559370E-01
        2   -1    0    0  501    0  0.00000000000E+00  0.00000000000E+00  0.10932373300E+04  0.10932373300E+04  0.25500000920E-02 0.  1.
       -2   -1    0    0    0  501  0.00000000000E+00  0.00000000000E+00 -0.14651788923E+03  0.14651788926E+03  0.25500000920E-02 0. -1.
    10030    2    1    2    0    0  0.00000000000E+00  0.00000000000E+00  0.94671944074E+03  0.12397552192E+04  0.80044694024E+03 0.  0.
        3    1    3    3  502    0  0.54002335136E+02  0.36247315630E+03  0.22421592495E+03  0.42962289562E+03  0.10100000352E+00 0. -1.
       -3    1    3    3    0  502 -0.54002335136E+02 -0.36247315630E+03  0.72250351579E+03  0.81013232362E+03  0.10100000352E+00 0.  1.
</event>
<event>
 5   0  0.1712793E-03  0.7996752E+03  0.7818609E-02  0.9560487E-01
       -1   -1    0    0    0  501  0.00000000000E+00  0.00000000000E+00  0.29771701280E+03  0.29771701284E+03  0.50400001928E-02 0. -1.
        1   -1    0    0  501    0  0.00000000000E+00  0.00000000000E+00 -0.53698673761E+03  0.53698673763E+03  0.50400001928E-02 0.  1.
    10030    2    1    2    0    0  0.00000000000E+00  0.00000000000E+00 -0.23926972481E+03  0.83470375047E+03  0.79967515270E+03 0.  0.
        4    1    3    3  502    0  0.23381873646E+03  0.31940083308E+03 -0.17850002243E+03  0.43422570698E+03  0.12699999809E+01 0.  1.
       -4    1    3    3    0  502 -0.23381873646E+03 -0.31940083308E+03 -0.60769702382E+02  0.40047804350E+03  0.12699999809E+01 0. -1.
</event>
<event>
 5   0  0.1617491E-03  0.7968619E+03  0.7818609E-02  0.9564571E-01
       -1   -1    0    0    0  501  0.00000000000E+00  0.00000000000E+00  0.15618195445E+03  0.15618195453E+03  0.50400001928E-02 0.  1.
        1   -1    0    0  501    0  0.00000000000E+00  0.00000000000E+00 -0.10164247932E+04  0.10164247932E+04  0.50400001928E-02 0. -1.
    10030    2    1    2    0    0  0.00000000000E+00  0.00000000000E+00 -0.86024283876E+03  0.11726067477E+04  0.79686187211E+03 0.  0.
        1    1    3    3  502    0  0.32934868254E+03 -0.16804162680E+02 -0.10109597510E+03  0.34492510895E+03  0.50400001928E-02 0.  1.
       -1    1    3    3    0  502 -0.32934868254E+03  0.16804162680E+02 -0.75914686366E+03  0.82768163880E+03  0.50400001928E-02 0. -1.
</event>
<event>
 5   0  0.1640035E-03  0.7999280E+03  0.7818609E-02  0.9560121E-01
       -1   -1    0    0    0  501  0.00000000000E+00  0.00000000000E+00  0.40133754094E+03  0.40133754097E+03  0.50400001928E-02 0.  1.
        1   -1    0    0  501    0  0.00000000000E+00  0.00000000000E+00 -0.39859515474E+03  0.39859515477E+03  0.50400001928E-02 0. -1.
    10030    2    1    2    0    0  0.00000000000E+00  0.00000000000E+00  0.27423862073E+01  0.79993269574E+03  0.79992799491E+03 0.  0.
        5    1    3    3  502    0 -0.38565188145E+03 -0.80483663437E+02 -0.67506751626E+02  0.39973021560E+03  0.46999998093E+01 0. -1.
       -5    1    3    3    0  502  0.38565188145E+03  0.80483663437E+02  0.70249137833E+02  0.40020248014E+03  0.46999998093E+01 0.  1.
</event>
<event>
 5   0  0.2768834E-03  0.8000589E+03  0.7818609E-02  0.9559932E-01
        2   -1    0    0  501    0  0.00000000000E+00  0.00000000000E+00  0.75496987198E+03  0.75496987198E+03  0.25500000920E-02 0. -1.
       -2   -1    0    0    0  501  0.00000000000E+00  0.00000000000E+00 -0.21196016910E+03  0.21196016912E+03  0.25500000920E-02 0.  1.
    10030    2    1    2    0    0  0.00000000000E+00  0.00000000000E+00  0.54300970287E+03  0.96693004110E+03  0.80005885219E+03 0.  0.
        4    1    3    3  502    0  0.17844423887E+03 -0.23521403675E+03  0.59771663032E+03  0.66665941269E+03  0.12699999809E+01 0. -1.
       -4    1    3    3    0  502 -0.17844423887E+03  0.23521403675E+03 -0.54706927448E+02  0.30027062840E+03  0.12699999809E+01 0.  1.
</event>
<event>
 5   0  0.1637228E-03  0.8000785E+03  0.7818609E-02  0.9559904E-01
        1   -1    0    0  501    0  0.00000000000E+00  0.00000000000E+00  0.14902757355E+03  0.14902757364E+03  0.50400001928E-02 0. -1.
       -1   -1    0    0    0  501  0.00000000000E+00  0.00000000000E+00 -0.10738374230E+04  0.10738374230E+04  0.50400001928E-02 0.  1.
    10030    2    1    2    0    0  0.00000000000E+00  0.00000000000E+00 -0.92480984944E+03  0.12228649966E+04  0.80007846015E+03 0.  0.
        2    1    3    3  502    0  0.23718877337E+03  0.15762354704E+03 -0.33006320553E+02  0.28669341464E+03  0.25500000920E-02 0. -1.
       -2    1    3    3    0  502 -0.23718877337E+03 -0.15762354704E+03 -0.89180352889E+03  0.93617158200E+03  0.25500000920E-02 0.  1.
</event>
<event>
 5   0  0.2873212E-03  0.8016995E+03  0.7818609E-02  0.9557560E-01
       -2   -1    0    0    0  501  0.00000000000E+00  0.00000000000E+00  0.39742875319E+03  0.39742875320E+03  0.25500000920E-02 0.  1.
        2   -1    0    0  501    0  0.00000000000E+00  0.00000000000E+00 -0.40430014831E+03  0.40430014831E+03  0.25500000920E-02 0. -1.
    10030    2    1    2    0    0  0.00000000000E+00  0.00000000000E+00 -0.68713951186E+01  0.80172890151E+03  0.80169945456E+03 0.  0.
        2    1    3    3  502    0 -0.23287747556E+03 -0.20021363033E+03 -0.26105550012E+03  0.40307243833E+03  0.25500000920E-02 0. -1.
       -2    1    3    3    0  502  0.23287747556E+03  0.20021363033E+03  0.25418410500E+03  0.39865646318E+03  0.25500000920E-02 0.  1.
</event>
<event>
 5   0  0.1095350E-03  0.7997789E+03  0.7818609E-02  0.9560337E-01
        3   -1    0    0  501    0  0.00000000000E+00  0.00000000000E+00  0.22636185530E+03  0.22636187783E+03  0.10100000352E+00 0.  1.
       -3   -1    0    0    0  501  0.00000000000E+00  0.00000000000E+00 -0.70644224272E+03  0.70644224994E+03  0.10100000352E+00 0. -1.
    10030    2    1    2    0    0  0.00000000000E+00  0.00000000000E+00 -0.48008038742E+03  0.93280412777E+03  0.79977894596E+03 0.  0.
        5    1    3    3  502    0 -0.15295912171E+03  0.15916242701E+03  0.14882171607E+03  0.26626896976E+03  0.46999998093E+01 0.  1.
       -5    1    3    3    0  502  0.15295912171E+03 -0.15916242701E+03 -0.62890210349E+03  0.66653515801E+03  0.46999998093E+01 0. -1.
</event>
<event>
 5   0  0.2910501E-03  0.8087675E+03  0.7818609E-02  0.9547412E-01
       -2   -1    0    0    0  501  0.00000000000E+00  0.00000000000E+00  0.53421675458E+03  0.53421675458E+03  0.25500000920E-02 0. -1.
        2   -1    0    0  501    0  0.00000000000E+00  0.00000000000E+00 -0.30610465863E+03  0.30610465864E+03  0.25500000920E-02 0.  1.
    10030    2    1    2    0    0  0.00000000000E+00  0.00000000000E+00  0.22811209595E+03  0.84032141322E+03  0.80876754955E+03 0.  0.
        1    1    3    3  502    0 -0.16404673430E+03  0.34167083909E+03 -0.32426401843E+02  0.38039685183E+03  0.50400001928E-02 0.  1.
       -1    1    3    3    0  502  0.16404673430E+03 -0.34167083909E+03  0.26053849780E+03  0.45992456140E+03  0.50400001928E-02 0. -1.
</event>
<event>
 5   0  0.2690809E-03  0.8019622E+03  0.7818609E-02  0.9557181E-01
        2   -1    0    0  501    0  0.00000000000E+00  0.00000000000E+00  0.69968092252E+03  0.69968092252E+03  0.25500000920E-02 0.  1.
       -2   -1    0    0    0  501  0.00000000000E+00  0.00000000000E+00 -0.22979879928E+03  0.22979879929E+03  0.25500000920E-02 0. -1.
    10030    2    1    2    0    0  0.00000000000E+00  0.00000000000E+00  0.46988212324E+03  0.92947972181E+03  0.80196218335E+03 0.  0.
        5    1    3    3  502    0  0.11735369203E+03 -0.24083007830E+03  0.58069194246E+03  0.63952813674E+03  0.46999998093E+01 0.  1.
       -5    1    3    3    0  502 -0.11735369203E+03  0.24083007830E+03 -0.11080981922E+03  0.28995158507E+03  0.46999998093E+01 0. -1.
</event>
<event>
 5   0  0.1637228E-03  0.7988674E+03  0.7818609E-02  0.9561658E-01
       -1   -1    0    0    0  501  0.00000000000E+00  0.00000000000E+00  0.34695718390E+03  0.34695718394E+03  0.50400001928E-02 0.  1.
        1   -1    0    0  501    0  0.00000000000E+00  0.00000000000E+00 -0.45984720529E+03  0.45984720532E+03  0.50400001928E-02 0. -1.
    10030    2    1    2    0    0  0.00000000000E+00  0.00000000000E+00 -0.11289002139E+03  0.80680438926E+03  0.79886742680E+03 0.  0.
        2    1    3    3  502    0  0.34547793380E+03 -0.12408088852E+03  0.10258763887E+03  0.38114996168E+03  0.25500000920E-02 0. -1.
       -2    1    3    3    0  502 -0.34547793380E+03  0.12408088852E+03 -0.21547766026E+03  0.42565442758E+03  0.25500000920E-02 0.  1.
</event>
<event>
 5   0  0.1712793E-03  0.8035945E+03  0.7818609E-02  0.9554829E-01
        1   -1    0    0  501    0  0.00000000000E+00  0.00000000000E+00  0.27634073093E+03  0.27634073098E+03  0.50400001928E-02 0. -1.
       -1   -1    0    0    0  501  0.00000000000E+00  0.00000000000E+00 -0.58421001760E+03  0.58421001762E+03  0.50400001928E-02 0.  1.
    10030    2    1    2    0    0  0.00000000000E+00  0.00000000000E+00 -0.30786928667E+03  0.86055074860E+03  0.80359448309E+03 0.  0.
        4    1    3    3  502    0  0.75644682985E+02 -0.35152597117E+03  0.38068485495E+02  0.36158463595E+03  0.12699999809E+01 0. -1.
       -4    1    3    3    0  502 -0.75644682985E+02  0.35152597117E+03 -0.34593777216E+03  0.49896611265E+03  0.12699999809E+01 0.  1.
</event>
<event>
 5   0  0.2768834E-03  0.7996030E+03  0.7818609E-02  0.9560592E-01
       -2   -1    0    0    0  501  0.00000000000E+00  0.00000000000E+00  0.23558140658E+03  0.23558140660E+03  0.25500000920E-02 0.  1.
        2   -1    0    0  501    0  0.00000000000E+00  0.00000000000E+00 -0.67849690580E+03  0.67849690580E+03  0.25500000920E-02 0. -1.
    10030    2    1    2    0    0  0.00000000000E+00  0.00000000000E+00 -0.44291549922E+03  0.91407831240E+03  0.79960304011E+03 0.  0.
        4    1    3    3  502    0 -0.16993682684E+02 -0.33942226314E+03 -0.46218396461E+03  0.57368274160E+03  0.12699999809E+01 0. -1.
       -4    1    3    3    0  502  0.16993682684E+02  0.33942226314E+03  0.19268465390E+02  0.34039557080E+03  0.12699999809E+01 0.  1.
</event>
<event>
 5   0  0.2763587E-03  0.7982091E+03  0.7818609E-02  0.9562613E-01
        2   -1    0    0  501    0  0.00000000000E+00  0.00000000000E+00  0.21907190632E+03  0.21907190634E+03  0.25500000920E-02 0. -1.
       -2   -1    0    0    0  501  0.00000000000E+00  0.00000000000E+00 -0.72708742154E+03  0.72708742154E+03  0.25500000920E-02 0.  1.
    10030    2    1    2    0    0  0.00000000000E+00  0.00000000000E+00 -0.50801551521E+03  0.94615932788E+03  0.79820906411E+03 0.  0.
        3    1    3    3  502    0  0.12971586948E+03  0.37580170212E+03 -0.29560150090E+03  0.49541233700E+03  0.10100000352E+00 0. -1.
       -3    1    3    3    0  502 -0.12971586948E+03 -0.37580170212E+03 -0.21241401431E+03  0.45074699088E+03  0.10100000352E+00 0.  1.
</event>
<event>
 5   0  0.1617491E-03  0.8046608E+03  0.7818609E-02  0.9553295E-01
       -1   -1    0    0    0  501  0.00000000000E+00  0.00000000000E+00  0.14986525511E+03  0.14986525519E+03  0.50400001928E-02 0. -1.
        1   -1    0    0  501    0  0.00000000000E+00  0.00000000000E+00 -0.10801019315E+04  0.10801019315E+04  0.50400001928E-02 0.  1.
    10030    2    1    2    0    0  0.00000000000E+00  0.00000000000E+00 -0.93023667635E+03  0.12299671867E+04  0.80466080198E+03 0.  0.
        1    1    3    3  502    0 -0.16484939855E+03  0.36129604573E+03 -0.36653439472E+03  0.54042355555E+03  0.50400001928E-02 0. -1.
       -1    1    3    3    0  502  0.16484939855E+03 -0.36129604573E+03 -0.56370228163E+03  0.68954363111E+03  0.50400001928E-02 0.  1.
</event>
<event>
 5   0  0.1617491E-03  0.7999726E+03  0.7818609E-02  0.9560057E-01
        1   -1    0    0  501    0  0.00000000000E+00  0.00000000000E+00  0.13733698702E+04  0.13733698702E+04  0.50400001928E-02 0.  1.
       -1   -1    0    0    0  501  0.00000000000E+00  0.00000000000E+00 -0.11649376728E+03  0.11649376739E+03  0.50400001928E-02 0. -1.
    10030    2    1    2    0    0  0.00000000000E+00  0.00000000000E+00  0.12568761029E+04  0.14898636376E+04  0.79997257489E+03 0.  0.
        1    1    3    3  502    0 -0.99870802932E+02  0.84624653281E+02  0.13323476650E+04  0.13387627907E+04  0.50400001928E-02 0.  1.
       -1    1    3    3    0  502  0.99870802932E+02 -0.84624653281E+02 -0.75471562114E+02  0.15110084690E+03  0.50400001928E-02 0. -1.
</event>
<event>
 5   0  0.1637228E-03  0.7999881E+03  0.7818609E-02  0.9560034E-01
       -1   -1    0    0    0  501  0.00000000000E+00  0.00000000000E+00  0.12849276130E+03  0.12849276140E+03  0.50400001928E-02 0. -1.
        1   -1    0    0  501    0  0.00000000000E+00  0.00000000000E+00 -0.12451692591E+04  0.12451692591E+04  0.50400001928E-02 0.  1.
    10030    2    1    2    0    0  0.00000000000E+00  0.00000000000E+00 -0.11166764978E+04  0.13736620205E+04  0.79998809107E+03 0.  0.
        2    1    3    3  502    0 -0.14609564160E+03  0.23595561634E+03 -0.10529600597E+04  0.10889186732E+04  0.25500000920E-02 0.  1.
       -2    1    3    3    0  502  0.14609564160E+03 -0.23595561634E+03 -0.63716438079E+02  0.28474334735E+03  0.25500000920E-02 0. -1.
</event>
<event>
 5   0  0.1637228E-03  0.7991953E+03  0.7818609E-02  0.9561183E-01
       -1   -1    0    0    0  501  0.00000000000E+00  0.00000000000E+00  0.17765260032E+03  0.17765260039E+03  0.50400001928E-02 0.  1.
        1   -1    0    0  501    0  0.00000000000E+00  0.00000000000E+00 -0.89882318208E+03  0.89882318209E+03  0.50400001928E-02 0. -1.
    10030    2    1    2    0    0  0.00000000000E+00  0.00000000000E+00 -0.72117058176E+03  0.10764757825E+04  0.79919528419E+03 0.  0.
        2    1    3    3  502    0  0.38850016008E+03  0.90782464986E+02 -0.33033299346E+03  0.51797076839E+03  0.25500000920E-02 0.  1.
       -2    1    3    3    0  502 -0.38850016008E+03 -0.90782464986E+02 -0.39083758829E+03  0.55850501409E+03  0.25500000920E-02 0. -1.
</event>
<event>
 5   0  0.2690809E-03  0.8004679E+03  0.7818609E-02  0.9559340E-01
       -2   -1    0    0    0  501  0.00000000000E+00  0.00000000000E+00  0.23194345897E+03  0.23194345899E+03  0.25500000920E-02 0.  1.
        2   -1    0    0  501    0  0.00000000000E+00  0.00000000000E+00 -0.69063050697E+03  0.69063050698E+03  0.25500000920E-02 0. -1.
    10030    2    1    2    0    0  0.00000000000E+00  0.00000000000E+00 -0.45868704800E+03  0.92257396597E+03  0.80046793482E+03 0.  0.
        5    1    3    3  502    0  0.45536322860E+01 -0.38636313692E+03 -0.34949542944E+03  0.52102433180E+03  0.46999998093E+01 0. -1.
       -5    1    3    3    0  502 -0.45536322860E+01  0.38636313692E+03 -0.10919161856E+03  0.40154963416E+03  0.46999998093E+01 0.  1.
</event>
<event>
 5   0  0.1640035E-03  0.8005037E+03  0.7818609E-02  0.9559288E-01
       -1   -1    0    0    0  501  0.00000000000E+00  0.00000000000E+00  0.25460983692E+03  0.25460983697E+03  0.50400001928E-02 0. -1.
        1   -1    0    0  501    0  0.00000000000E+00  0.00000000000E+00 -0.62920404222E+03  0.62920404224E+03  0.50400001928E-02 0.  1.
    10030    2    1    2    0    0  0.00000000000E+00  0.00000000000E+00 -0.37459420530E+03  0.88381387921E+03  0.80050368796E+03 0.  0.
        5    1    3    3  502    0 -0.28464095687E+03  0.24940342721E+03 -0.33106792968E+03  0.50284252793E+03  0.46999998093E+01 0.  1.
       -5    1    3    3    0  502  0.28464095687E+03 -0.24940342721E+03 -0.43526275610E+02  0.38097135128E+03  0.46999998093E+01 0. -1.
</event>
<event>
 5   0  0.1656051E-03  0.8016311E+03  0.7818609E-02  0.9557659E-01
        1   -1    0    0  501    0  0.00000000000E+00  0.00000000000E+00  0.18220825970E+03  0.18220825977E+03  0.50400001928E-02 0. -1.
       -1   -1    0    0    0  501  0.00000000000E+00  0.00000000000E+00 -0.88170040403E+03  0.88170040404E+03  0.50400001928E-02 0.  1.
    10030    2    1    2    0    0  0.00000000000E+00  0.00000000000E+00 -0.69949214433E+03  0.10639086638E+04  0.80163107784E+03 0.  0.
        3    1    3    3  502    0  0.36647931050E+03 -0.13404477744E+03 -0.47122471826E+03  0.61182336723E+03  0.10100000352E+00 0. -1.
       -3    1    3    3    0  502 -0.36647931050E+03  0.13404477744E+03 -0.22826742606E+03  0.45208529658E+03  0.10100000352E+00 0.  1.
</event>
<event>
 5   0  0.1656051E-03  0.7956598E+03  0.7818609E-02  0.9566321E-01
        1   -1    0    0  501    0  0.00000000000E+00  0.00000000000E+00  0.30487451027E+03  0.30487451032E+03  0.50400001928E-02 0.  1.
       -1   -1    0    0    0  501  0.00000000000E+00  0.00000000000E+00 -0.51912716167E+03  0.51912716170E+03  0.50400001928E-02 0. -1.
    10030    2    1    2    0    0  0.00000000000E+00  0.00000000000E+00 -0.21425265140E+03  0.82400167201E+03  0.79565982483E+03 0.  0.
        3    1    3    3  502    0  0.24143821087E+03  0.94493643100E+02 -0.41961471863E+03  0.49325245113E+03  0.10100000352E+00 0. -1.
       -3    1    3    3    0  502 -0.24143821087E+03 -0.94493643100E+02  0.20536206723E+03  0.33074922088E+03  0.10100000352E+00 0.  1.
</event>
<event>
 5   0  0.1712793E-03  0.8009537E+03  0.7818609E-02  0.9558638E-01
        1   -1    0    0  501    0  0.00000000000E+00  0.00000000000E+00  0.95003911750E+03  0.95003911752E+03  0.50400001928E-02 0. -1.
       -1   -1    0    0    0  501  0.00000000000E+00  0.00000000000E+00 -0.16881589925E+03  0.16881589932E+03  0.50400001928E-02 0.  1.
    10030    2    1    2    0    0  0.00000000000E+00  0.00000000000E+00  0.78122321825E+03  0.11188550168E+04  0.80095370151E+03 0.  0.
        4    1    3    3  502    0  0.37058763239E+03  0.10903731247E+03  0.24306946019E+03  0.45640848389E+03  0.12699999809E+01 0.  1.
       -4    1    3    3    0  502 -0.37058763239E+03 -0.10903731247E+03  0.53815375806E+03  0.66244653294E+03  0.12699999809E+01 0. -1.
</event>
<event>
 5   0  0.2873212E-03  0.8001686E+03  0.7818609E-02  0.9559773E-01
        2   -1    0    0  501    0  0.00000000000E+00  0.00000000000E+00  0.17809449137E+04  0.17809449137E+04  0.25500000920E-02 0. -1.
       -2   -1    0    0    0  501  0.00000000000E+00  0.00000000000E+00 -0.89877811767E+02  0.89877811803E+02  0.25500000920E-02 0.  1.
    10030    2    1    2    0    0  0.00000000000E+00  0.00000000000E+00  0.16910671019E+04  0.18708227255E+04  0.80016856162E+03 0.  0.
        2    1    3    3  502    0 -0.38804330574E+03 -0.49148430656E+01  0.10730049549E+04  0.11410264659E+04  0.25500000920E-02 0. -1.
       -2    1    3    3    0  502  0.38804330574E+03  0.49148430656E+01  0.61806214704E+03  0.72979625953E+03  0.25500000920E-02 0.  1.
</event>
<event>
 5   0  0.2910501E-03  0.7868869E+03  0.7818609E-02  0.9579194E-01
       -2   -1    0    0    0  501  0.00000000000E+00  0.00000000000E+00  0.38571460702E+03  0.38571460703E+03  0.25500000920E-02 0.  1.
        2   -1    0    0  501    0  0.00000000000E+00  0.00000000000E+00 -0.40132720278E+03  0.40132720278E+03  0.25500000920E-02 0. -1.
    10030    2    1    2    0    0  0.00000000000E+00  0.00000000000E+00 -0.15612595752E+02  0.78704180982E+03  0.78688694058E+03 0.  0.
        1    1    3    3  502    0  0.21317321927E+03  0.30047980190E+03  0.13030357666E+03  0.39078121101E+03  0.50400001928E-02 0.  1.
       -1    1    3    3    0  502 -0.21317321927E+03 -0.30047980190E+03 -0.14591617241E+03  0.39626059880E+03  0.50400001928E-02 0. -1.
</event>
<event>
 5   0  0.1640035E-03  0.8010279E+03  0.7818609E-02  0.9558530E-01
       -1   -1    0    0    0  501  0.00000000000E+00  0.00000000000E+00  0.77859773828E+03  0.77859773829E+03  0.50400001928E-02 0.  1.
        1   -1    0    0  501    0  0.00000000000E+00  0.00000000000E+00 -0.20602604471E+03  0.20602604477E+03  0.50400001928E-02 0. -1.
    10030    2    1    2    0    0  0.00000000000E+00  0.00000000000E+00  0.57257169357E+03  0.98462378306E+03  0.80102787086E+03 0.  0.
        5    1    3    3  502    0 -0.10595979606E+03 -0.34347930436E+03  0.69222100902E+02  0.36608646540E+03  0.46999998093E+01 0. -1.
       -5    1    3    3    0  502  0.10595979606E+03  0.34347930436E+03  0.50334959267E+03  0.61853731766E+03  0.46999998093E+01 0.  1.
</event>
<event>
 5   0  0.1637228E-03  0.7966719E+03  0.7818609E-02  0.9564847E-01
        1   -1    0    0  501    0  0.00000000000E+00  0.00000000000E+00  0.66246279489E+03  0.66246279491E+03  0.50400001928E-02 0. -1.
       -1   -1    0    0    0  501  0.00000000000E+00  0.00000000000E+00 -0.23951762074E+03  0.23951762080E+03  0.50400001928E-02 0.  1.
    10030    2    1    2    0    0  0.00000000000E+00  0.00000000000E+00  0.42294517414E+03  0.90198041570E+03  0.79667185841E+03 0.  0.
        2    1    3    3  502    0  0.62994406226E+02  0.97742335453E+02 -0.21987327157E+03  0.24872899893E+03  0.25500000920E-02 0.  1.
       -2    1    3    3    0  502 -0.62994406226E+02 -0.97742335453E+02  0.64281844571E+03  0.65325141677E+03  0.25500000920E-02 0. -1.
</event>
<event>
 5   0  0.1656051E-03  0.8048489E+03  0.7818609E-02  0.9553025E-01
       -1   -1    0    0    0  501  0.00000000000E+00  0.00000000000E+00  0.36849300132E+03  0.36849300135E+03  0.50400001928E-02 0.  1.
        1   -1    0    0  501    0  0.00000000000E+00  0.00000000000E+00 -0.43948039373E+03  0.43948039376E+03  0.50400001928E-02 0. -1.
    10030    2    1    2    0    0  0.00000000000E+00  0.00000000000E+00 -0.70987392410E+02  0.80797339511E+03  0.80484892826E+03 0.  0.
        3    1    3    3  502    0 -0.20683102452E+03  0.20140701297E+03 -0.31694180376E+03  0.42871432766E+03  0.10100000352E+00 0. -1.
       -3    1    3    3    0  502  0.20683102452E+03 -0.20140701297E+03  0.24595441135E+03  0.37925906744E+03  0.10100000352E+00 0.  1.
</event>
<event>
 5   0  0.2873212E-03  0.7997508E+03  0.7818609E-02  0.9560378E-01
       -2   -1    0    0    0  501  0.00000000000E+00  0.00000000000E+00  0.12977517396E+03  0.12977517398E+03  0.25500000920E-02 0.  1.
        2   -1    0    0  501    0  0.00000000000E+00  0.00000000000E+00 -0.12321335670E+04  0.12321335670E+04  0.25500000920E-02 0. -1.
    10030    2    1    2    0    0  0.00000000000E+00  0.00000000000E+00 -0.11023583931E+04  0.13619087410E+04  0.79975083124E+03 0.  0.
        2    1    3    3  502    0  0.14057235888E+03 -0.17292453673E+03 -0.11165804060E+04  0.11386023391E+04  0.25500000920E-02 0. -1.
       -2    1    3    3    0  502 -0.14057235888E+03  0.17292453673E+03  0.14222012928E+02  0.22330640193E+03  0.25500000920E-02 0.  1.
</event>
<event>
 5   0  0.2763587E-03  0.7991041E+03  0.7818609E-02  0.9561315E-01
        2   -1    0    0  501    0  0.00000000000E+00  0.00000000000E+00  0.11054829085E+04  0.11054829085E+04  0.25500000920E-02 0.  1.
       -2   -1    0    0    0  501  0.00000000000E+00  0.00000000000E+00 -0.14440913407E+03  0.14440913409E+03  0.25500000920E-02 0. -1.
    10030    2    1    2    0    0  0.00000000000E+00  0.00000000000E+00  0.96107377443E+03  0.12498920426E+04  0.79910407223E+03 0.  0.
        3    1    3    3  502    0  0.39638875744E+03 -0.24829568348E+02  0.54873784467E+03  0.67738747173E+03  0.10100000352E+00 0. -1.
       -3    1    3    3    0  502 -0.39638875744E+03  0.24829568348E+02  0.41233592976E+03  0.57250457086E+03  0.10100000352E+00 0.  1.
</event>
<event>
 5   0  0.1617491E-03  0.7988274E+03  0.7818609E-02  0.9561716E-01
       -1   -1    0    0    0  501  0.00000000000E+00  0.00000000000E+00  0.31214433501E+03  0.31214433505E+03  0.50400001928E-02 0.  1.
        1   -1    0    0  501    0  0.00000000000E+00  0.00000000000E+00 -0.51108182147E+03  0.51108182149E+03  0.50400001928E-02 0. -1.
    10030    2    1    2    0    0  0.00000000000E+00  0.00000000000E+00 -0.19893748646E+03  0.82322615654E+03  0.79882737891E+03 0.  0.
        1    1    3    3  502    0 -0.56327367789E+02  0.62534305430E+02  0.30290261746E+03  0.31437765094E+03  0.50400001928E-02 0.  1.
       -1    1    3    3    0  502  0.56327367789E+02 -0.62534305430E+02 -0.50184010393E+03  0.50884850560E+03  0.50400001928E-02 0. -1.
</event>
<event>
 5   0  0.2873212E-03  0.8009505E+03  0.7818609E-02  0.9558642E-01
       -2   -1    0    0    0  501  0.00000000000E+00  0.00000000000E+00  0.24243018485E+03  0.24243018486E+03  0.25500000920E-02 0. -1.
        2   -1    0    0  501    0  0.00000000000E+00  0.00000000000E+00 -0.66155311711E+03  0.66155311711E+03  0.25500000920E-02 0.  1.
    10030    2    1    2    0    0  0.00000000000E+00  0.00000000000E+00 -0.41912293226E+03  0.90398330197E+03  0.80095054648E+03 0.  0.
        2    1    3    3  502    0  0.29368600991E+02  0.38997203227E+03 -0.11221197266E+03  0.40685651954E+03  0.25500000920E-02 0.  1.
       -2    1    3    3    0  502 -0.29368600991E+02 -0.38997203227E+03 -0.30691095960E+03  0.49712678243E+03  0.25500000920E-02 0. -1.
</event>
<event>
 5   0  0.1712793E-03  0.7983060E+03  0.7818609E-02  0.9562472E-01
       -1   -1    0    0    0  501  0.00000000000E+00  0.00000000000E+00  0.27415590117E+03  0.27415590122E+03  0.50400001928E-02 0. -1.
        1   -1    0    0  501    0  0.00000000000E+00  0.00000000000E+00 -0.58114063076E+03  0.58114063079E+03  0.50400001928E-02 0.  1.
    10030    2    1    2    0    0  0.00000000000E+00  0.00000000000E+00 -0.30698472959E+03  0.85529653200E+03  0.79830603997E+03 0.  0.
        4    1    3    3  502    0  0.39709742784E+02  0.20115384060E+03  0.21342020257E+03  0.29595527876E+03  0.12699999809E+01 0. -1.
       -4    1    3    3    0  502 -0.39709742784E+02 -0.20115384060E+03 -0.52040493216E+03  0.55934125324E+03  0.12699999809E+01 0.  1.
</event>
<event>
 5   0  0.1095350E-03  0.8059991E+03  0.7818609E-02  0.9551374E-01
        3   -1    0    0  501    0  0.00000000000E+00  0.00000000000E+00  0.22311881854E+03  0.22311884140E+03  0.10100000352E+00 0. -1.
       -3   -1    0    0    0  501  0.00000000000E+00  0.00000000000E+00 -0.72790190597E+03  0.72790191297E+03  0.10100000352E+00 0.  1.
    10030    2    1    2    0    0  0.00000000000E+00  0.00000000000E+00 -0.50478308742E+03  0.95102075438E+03  0.80599907563E+03 0.  0.
        4    1    3    3  502    0 -0.13738913068E+03  0.37879102932E+03 -0.26061704201E+03  0.47987630970E+03  0.12699999809E+01 0. -1.
       -4    1    3    3    0  502  0.13738913068E+03 -0.37879102932E+03 -0.24416604541E+03  0.47114444468E+03  0.12699999809E+01 0.  1.
</event>
<event>
 5   0  0.1656051E-03  0.7996666E+03  0.7818609E-02  0.9560500E-01
       -1   -1    0    0    0  501  0.00000000000E+00  0.00000000000E+00  0.33258365071E+03  0.33258365074E+03  0.50400001928E-02 0.  1.
        1   -1    0    0  501    0  0.00000000000E+00  0.00000000000E+00 -0.48068104413E+03  0.48068104415E+03  0.50400001928E-02 0. -1.
    10030    2    1    2    0    0  0.00000000000E+00  0.00000000000E+00 -0.14809739342E+03  0.81326469490E+03  0.79966657178E+03 0.  0.
        3    1    3    3  502    0  0.26910784840E+03  0.29564762280E+03 -0.67608930611E+02  0.40545965106E+03  0.10100000352E+00 0. -1.
       -3    1    3    3    0  502 -0.26910784840E+03 -0.29564762280E+03 -0.80488462811E+02  0.40780504384E+03  0.10100000352E+00 0.  1.
</event>
<event>
 5   0  0.2690809E-03  0.8021871E+03  0.7818609E-02  0.9556857E-01
        2   -1    0    0  501    0  0.00000000000E+00  0.00000000000E+00  0.88642500392E+03  0.88642500393E+03  0.25500000920E-02 0. -1.
       -2   -1    0    0    0  501  0.00000000000E+00  0.00000000000E+00 -0.18148861768E+03  0.18148861770E+03  0.25500000920E-02 0.  1.
    10030    2    1    2    0    0  0.00000000000E+00  0.00000000000E+00  0.70493638624E+03  0.10679136216E+04  0.80218713191E+03 0.  0.
        5    1    3    3  502    0 -0.37353812377E+03 -0.34672825116E+02  0.54130448945E+03  0.65860881789E+03  0.46999998093E+01 0. -1.
       -5    1    3    3    0  502  0.37353812377E+03  0.34672825116E+02  0.16363189679E+03  0.40930480373E+03  0.46999998093E+01 0.  1.
</event>
<event>
 5   0  0.2873212E-03  0.8020153E+03  0.7818609E-02  0.9557105E-01
        2   -1    0    0  501    0  0.00000000000E+00  0.00000000000E+00  0.23107255449E+04  0.23107255449E+04  0.25500000920E-02 0.  1.
       -2   -1    0    0    0  501  0.00000000000E+00  0.00000000000E+00 -0.69591621982E+02  0.69591622028E+02  0.25500000920E-02 0. -1.
    10030    2    1    2    0    0  0.00000000000E+00  0.00000000000E+00  0.22411339230E+04  0.23803171670E+04  0.80201530829E+03 0.  0.
        2    1    3    3  502    0  0.98737836129E+02 -0.61921480637E+02 -0.18216228441E+02  0.11796296467E+03  0.25500000920E-02 0. -1.
       -2    1    3    3    0  502 -0.98737836129E+02  0.61921480637E+02  0.22593501514E+04  0.22623542023E+04  0.25500000920E-02 0.  1.
</event>
<event>
 5   0  0.1640035E-03  0.7976255E+03  0.7818609E-02  0.9563460E-01
        1   -1    0    0  501    0  0.00000000000E+00  0.00000000000E+00  0.15494950541E+04  0.15494950541E+04  0.50400001928E-02 0. -1.
       -1   -1    0    0    0  501  0.00000000000E+00  0.00000000000E+00 -0.10264738452E+03  0.10264738464E+03  0.50400001928E-02 0.  1.
    10030    2    1    2    0    0  0.00000000000E+00  0.00000000000E+00  0.14468476696E+04  0.16521424387E+04  0.79762551296E+03 0.  0.
        5    1    3    3  502    0  0.14675328315E+03  0.36841436594E+03  0.63643175455E+03  0.74988875131E+03  0.46999998093E+01 0.  1.
       -5    1    3    3    0  502 -0.14675328315E+03 -0.36841436594E+03  0.81041591503E+03  0.90225368743E+03  0.46999998093E+01 0. -1.
</event>
<event>
 5   0  0.1640035E-03  0.7962850E+03  0.7818609E-02  0.9565410E-01
       -1   -1    0    0    0  501  0.00000000000E+00  0.00000000000E+00  0.31060658101E+03  0.31060658106E+03  0.50400001928E-02 0.  1.
        1   -1    0    0  501    0  0.00000000000E+00  0.00000000000E+00 -0.51034805715E+03  0.51034805717E+03  0.50400001928E-02 0. -1.
    10030    2    1    2    0    0  0.00000000000E+00  0.00000000000E+00 -0.19974147614E+03  0.82095463823E+03  0.79628503737E+03 0.  0.
        5    1    3    3  502    0 -0.11311918757E+03 -0.26214789046E+03  0.18617379915E+03  0.34088156383E+03  0.46999998093E+01 0.  1.
       -5    1    3    3    0  502  0.11311918757E+03  0.26214789046E+03 -0.38591527529E+03  0.48007307440E+03  0.46999998093E+01 0. -1.
</event>
<event>
 5   0  0.1637228E-03  0.7844362E+03  0.7818609E-02  0.9582822E-01
        1   -1    0    0  501    0  0.00000000000E+00  0.00000000000E+00  0.63193363148E+03  0.63193363150E+03  0.50400001928E-02 0.  1.
       -1   -1    0    0    0  501  0.00000000000E+00  0.00000000000E+00 -0.24343541363E+03  0.24343541369E+03  0.50400001928E-02 0. -1.
    10030    2    1    2    0    0  0.00000000000E+00  0.00000000000E+00  0.38849821785E+03  0.87536904519E+03  0.78443616694E+03 0.  0.
        2    1    3    3  502    0 -0.14982229963E+03 -0.25761483961E+03  0.47880444677E+03  0.56397324875E+03  0.25500000920E-02 0.  1.
       -2    1    3    3    0  502  0.14982229963E+03  0.25761483961E+03 -0.90306228921E+02  0.31139579644E+03  0.25500000920E-02 0. -1.
</event>
<event>
 5   0  0.1617491E-03  0.7979948E+03  0.7818609E-02  0.9562924E-01
       -1   -1    0    0    0  501  0.00000000000E+00  0.00000000000E+00  0.26747519965E+03  0.26747519970E+03  0.50400001928E-02 0. -1.
        1   -1    0    0  501    0  0.00000000000E+00  0.00000000000E+00 -0.59519136749E+03  0.59519136751E+03  0.50400001928E-02 0.  1.
    10030    2    1    2    0    0  0.00000000000E+00  0.00000000000E+00 -0.32771616785E+03  0.86266656721E+03  0.79799481171E+03 0.  0.
        1    1    3    3  502    0 -0.39380659099E+03  0.11193692915E+02 -0.95572449834E+02  0.40539243094E+03  0.50400001928E-02 0.  1.
       -1    1    3    3    0  502  0.39380659099E+03 -0.11193692915E+02 -0.23214371801E+03  0.45727413627E+03  0.50400001928E-02 0. -1.
</event>
<event>
 5   0  0.2873212E-03  0.7999627E+03  0.7818609E-02  0.9560071E-01
        2   -1    0    0  501    0  0.00000000000E+00  0.00000000000E+00  0.12505170977E+04  0.12505170977E+04  0.25500000920E-02 0. -1.
       -2   -1    0    0    0  501  0.00000000000E+00  0.00000000000E+00 -0.12793513235E+03  0.12793513238E+03  0.25500000920E-02 0.  1.
    10030    2    1    2    0    0  0.00000000000E+00  0.00000000000E+00  0.11225819653E+04  0.13784522300E+04  0.79996267517E+03 0.  0.
        2    1    3    3  502    0  0.94687016031E+02 -0.36427890427E+03  0.32805877897E+03  0.49928680492E+03  0.25500000920E-02 0.  1.
       -2    1    3    3    0  502 -0.94687016031E+02  0.36427890427E+03  0.79452318634E+03  0.87916542512E+03  0.25500000920E-02 0. -1.
</event>
<event>
 5   0  0.1617491E-03  0.8004966E+03  0.7818609E-02  0.9559299E-01
        1   -1    0    0  501    0  0.00000000000E+00  0.00000000000E+00  0.13756432722E+04  0.13756432722E+04  0.50400001928E-02 0. -1.
       -1   -1    0    0    0  501  0.00000000000E+00  0.00000000000E+00 -0.11645366915E+03  0.11645366926E+03  0.50400001928E-02 0.  1.
    10030    2    1    2    0    0  0.00000000000E+00  0.00000000000E+00  0.12591896030E+04  0.14920969414E+04  0.80049661230E+03 0.  0.
        1    1    3    3  502    0  0.32925101004E+02 -0.71618252531E+02 -0.10184302044E+03  0.12878368378E+03  0.50400001928E-02 0.  1.
       -1    1    3    3    0  502 -0.32925101004E+02  0.71618252531E+02  0.13610326234E+04  0.13633132576E+04  0.50400001928E-02 0. -1.
</event>
<event>
 5   0  0.1095350E-03  0.8000016E+03  0.7818609E-02  0.9560015E-01
       -3   -1    0    0    0  501  0.00000000000E+00  0.00000000000E+00  0.63545252441E+03  0.63545253244E+03  0.10100000352E+00 0. -1.
        3   -1    0    0  501    0  0.00000000000E+00  0.00000000000E+00 -0.25179008280E+03  0.25179010306E+03  0.10100000352E+00 0.  1.
    10030    2    1    2    0    0  0.00000000000E+00  0.00000000000E+00  0.38366244161E+03  0.88724263550E+03  0.80000164071E+03 0.  0.
        3    1    3    3  502    0  0.26751227911E+03  0.29683273788E+03  0.17174078888E+03  0.43493379096E+03  0.10100000352E+00 0.  1.
       -3    1    3    3    0  502 -0.26751227911E+03 -0.29683273788E+03  0.21192165273E+03  0.45230884454E+03  0.10100000352E+00 0. -1.
</event>
<event>
 5   0  0.2690809E-03  0.7986020E+03  0.7818609E-02  0.9562043E-01
        2   -1    0    0  501    0  0.00000000000E+00  0.00000000000E+00  0.88868557294E+03  0.88868557295E+03  0.25500000920E-02 0. -1.
       -2   -1    0    0    0  501  0.00000000000E+00  0.00000000000E+00 -0.17941247296E+03  0.17941247298E+03  0.25500000920E-02 0.  1.
    10030    2    1    2    0    0  0.00000000000E+00  0.00000000000E+00  0.70927309998E+03  0.10680980459E+04  0.79860196929E+03 0.  0.
        5    1    3    3  502    0  0.87872641872E+02 -0.83834312072E+02 -0.15407204309E+03  0.19623984695E+03  0.46999998093E+01 0.  1.
       -5    1    3    3    0  502 -0.87872641872E+02  0.83834312072E+02  0.86334514307E+03  0.87185819898E+03  0.46999998093E+01 0. -1.
</event>
<event>
 5   0  0.1656051E-03  0.7998376E+03  0.7818609E-02  0.9560252E-01
        1   -1    0    0  501    0  0.00000000000E+00  0.00000000000E+00  0.52560918364E+03  0.52560918366E+03  0.50400001928E-02 0.  1.
       -1   -1    0    0    0  501  0.00000000000E+00  0.00000000000E+00 -0.30428508225E+03  0.30428508229E+03  0.50400001928E-02 0. -1.
    10030    2    1    2    0    0  0.00000000000E+00  0.00000000000E+00  0.22132410139E+03  0.82989426595E+03  0.79983756776E+03 0.  0.
        3    1    3    3  502    0  0.33955419432E+03  0.34008921314E+02  0.32701984945E+03  0.47264748994E+03  0.10100000352E+00 0.  1.
       -3    1    3    3    0  502 -0.33955419432E+03 -0.34008921314E+02 -0.10569574806E+03  0.35724677601E+03  0.10100000352E+00 0. -1.
</event>
<event>
 5   0  0.1640035E-03  0.8003043E+03  0.7818609E-02  0.9559577E-01
       -1   -1    0    0    0  501  0.00000000000E+00  0.00000000000E+00  0.14244668286E+03  0.14244668295E+03  0.50400001928E-02 0. -1.
        1   -1    0    0  501    0  0.00000000000E+00  0.00000000000E+00 -0.11240820227E+04  0.11240820227E+04  0.50400001928E-02 0.  1.
    10030    2    1    2    0    0  0.00000000000E+00  0.00000000000E+00 -0.98163533979E+03  0.12665287056E+04  0.80030433076E+03 0.  0.
        5    1    3    3  502    0 -0.31567636473E+03  0.21562338033E+02 -0.10322589281E+03  0.33285759210E+03  0.46999998093E+01 0. -1.
       -5    1    3    3    0  502  0.31567636473E+03 -0.21562338033E+02 -0.87840944699E+03  0.93367111352E+03  0.46999998093E+01 0.  1.
</event>
<event>
 5   0  0.1640035E-03  0.7995522E+03  0.7818609E-02  0.9560665E-01
       -1   -1    0    0    0  501  0.00000000000E+00  0.00000000000E+00  0.25272125068E+03  0.25272125073E+03  0.50400001928E-02 0.  1.
        1   -1    0    0  501    0  0.00000000000E+00  0.00000000000E+00 -0.63240009133E+03  0.63240009135E+03  0.50400001928E-02 0. -1.
    10030    2    1    2    0    0  0.00000000000E+00  0.00000000000E+00 -0.37967884065E+03  0.88512134208E+03  0.79955222980E+03 0.  0.
        5    1    3    3  502    0  0.11852903533E+03  0.32978087437E+03 -0.40276279947E+03  0.53389560773E+03  0.46999998093E+01 0.  1.
       -5    1    3    3    0  502 -0.11852903533E+03 -0.32978087437E+03  0.23083958829E+02  0.35122573435E+03  0.46999998093E+01 0. -1.
</event>
<event>
 5   0  0.2873212E-03  0.8003545E+03  0.7818609E-02  0.9559504E-01
       -2   -1    0    0    0  501  0.00000000000E+00  0.00000000000E+00  0.26750700903E+03  0.26750700905E+03  0.25500000920E-02 0.  1.
        2   -1    0    0  501    0  0.00000000000E+00  0.00000000000E+00 -0.59864541184E+03  0.59864541184E+03  0.25500000920E-02 0. -1.
    10030    2    1    2    0    0  0.00000000000E+00  0.00000000000E+00 -0.33113840280E+03  0.86615242089E+03  0.80035453044E+03 0.  0.
        2    1    3    3  502    0  0.24351439053E+03  0.21152223646E+03 -0.42189772803E+03  0.53107307203E+03  0.25500000920E-02 0. -1.
       -2    1    3    3    0  502 -0.24351439053E+03 -0.21152223646E+03  0.90759325224E+02  0.33507934886E+03  0.25500000920E-02 0.  1.
</event>
<event>
 5   0  0.1640035E-03  0.8005313E+03  0.7818609E-02  0.9559248E-01
       -1   -1    0    0    0  501  0.00000000000E+00  0.00000000000E+00  0.30746605188E+03  0.30746605192E+03  0.50400001928E-02 0. -1.
        1   -1    0    0  501    0  0.00000000000E+00  0.00000000000E+00 -0.52107408305E+03  0.52107408307E+03  0.50400001928E-02 0.  1.
    10030    2    1    2    0    0  0.00000000000E+00  0.00000000000E+00 -0.21360803117E+03  0.82854013500E+03  0.80053130127E+03 0.  0.
        5    1    3    3  502    0 -0.11742686378E+02 -0.22122323800E+03  0.23819468039E+03  0.32532507969E+03  0.46999998093E+01 0. -1.
       -5    1    3    3    0  502  0.11742686378E+02  0.22122323800E+03 -0.45180271156E+03  0.50321505530E+03  0.46999998093E+01 0.  1.
</event>
<event>
 5   0  0.1617491E-03  0.8002087E+03  0.7818609E-02  0.9559715E-01
        1   -1    0    0  501    0  0.00000000000E+00  0.00000000000E+00  0.10592342694E+03  0.10592342706E+03  0.50400001928E-02 0.  1.
       -1   -1    0    0    0  501  0.00000000000E+00  0.00000000000E+00 -0.15113135324E+04  0.15113135324E+04  0.50400001928E-02 0. -1.
    10030    2    1    2    0    0  0.00000000000E+00  0.00000000000E+00 -0.14053901054E+04  0.16172369594E+04  0.80020874434E+03 0.  0.
        1    1    3    3  502    0  0.48484668894E+02  0.32027013272E+03 -0.22803612091E+03  0.39613658439E+03  0.50400001928E-02 0.  1.
       -1    1    3    3    0  502 -0.48484668894E+02 -0.32027013272E+03 -0.11773539845E+04  0.12211003750E+04  0.50400001928E-02 0. -1.
</event>
<event>
 5   0  0.2873212E-03  0.8028786E+03  0.7818609E-02  0.9555860E-01
       -2   -1    0    0    0  501  0.00000000000E+00  0.00000000000E+00  0.12393269528E+03  0.12393269530E+03  0.25500000920E-02 0. -1.
        2   -1    0    0  501    0  0.00000000000E+00  0.00000000000E+00 -0.13003308912E+04  0.13003308912E+04  0.25500000920E-02 0.  1.
    10030    2    1    2    0    0  0.00000000000E+00  0.00000000000E+00 -0.11763981959E+04  0.14242635865E+04  0.80287860132E+03 0.  0.
        2    1    3    3  502    0  0.30552379909E+01  0.13603718939E+03 -0.12581734861E+04  0.12655101630E+04  0.25500000920E-02 0.  1.
       -2    1    3    3    0  502 -0.30552379909E+01 -0.13603718939E+03  0.81775290229E+02  0.15875342351E+03  0.25500000920E-02 0. -1.
</event>
<event>
 5   0  0.1095350E-03  0.8015995E+03  0.7818609E-02  0.9557705E-01
        4   -1    0    0  501    0  0.00000000000E+00  0.00000000000E+00  0.36928978363E+03  0.36929196741E+03  0.12699999809E+01 0. -1.
       -4   -1    0    0    0  501  0.00000000000E+00  0.00000000000E+00 -0.43499388107E+03  0.43499573500E+03  0.12699999809E+01 0.  1.
    10030    2    1    2    0    0  0.00000000000E+00  0.00000000000E+00 -0.65704097435E+02  0.80428770241E+03  0.80159945100E+03 0.  0.
        5    1    3    3  502    0  0.14638001331E+03  0.36607327362E+03  0.39372547311E+02  0.39624365917E+03  0.46999998093E+01 0. -1.
       -5    1    3    3    0  502 -0.14638001331E+03 -0.36607327362E+03 -0.10507664475E+03  0.40804404324E+03  0.46999998093E+01 0.  1.
</event>
<event>
 5   0  0.1637228E-03  0.7992475E+03  0.7818609E-02  0.9561107E-01
       -1   -1    0    0    0  501  0.00000000000E+00  0.00000000000E+00  0.16551230342E+03  0.16551230350E+03  0.50400001928E-02 0.  1.
        1   -1    0    0  501    0  0.00000000000E+00  0.00000000000E+00 -0.96487787911E+03  0.96487787912E+03  0.50400001928E-02 0. -1.
    10030    2    1    2    0    0  0.00000000000E+00  0.00000000000E+00 -0.79936557569E+03  0.11303901826E+04  0.79924754698E+03 0.  0.
        2    1    3    3  502    0  0.33780523827E+03 -0.10838566015E+03 -0.65985322272E+03  0.74917695231E+03  0.25500000920E-02 0.  1.
       -2    1    3    3    0  502 -0.33780523827E+03  0.10838566015E+03 -0.13951235297E+03  0.38121323031E+03  0.25500000920E-02 0. -1.
</event>
<event>
 5   0  0.1712793E-03  0.8007953E+03  0.7818609E-02  0.9558867E-01
        1   -1    0    0  501    0  0.00000000000E+00  0.00000000000E+00  0.32621699600E+03  0.32621699604E+03  0.50400001928E-02 0.  1.
       -1   -1    0    0    0  501  0.00000000000E+00  0.00000000000E+00 -0.49144671282E+03  0.49144671285E+03  0.50400001928E-02 0. -1.
    10030    2    1    2    0    0  0.00000000000E+00  0.00000000000E+00 -0.16522971682E+03  0.81766370888E+03  0.80079528065E+03 0.  0.
        4    1    3    3  502    0  0.93049872310E+02  0.30397722410E+03  0.16593882949E+03  0.35860526982E+03  0.12699999809E+01 0. -1.
       -4    1    3    3    0  502 -0.93049872310E+02 -0.30397722410E+03 -0.33116854632E+03  0.45905843907E+03  0.12699999809E+01 0.  1.
</event>
<event>
 5   0  0.1712793E-03  0.7979193E+03  0.7818609E-02  0.9563034E-01
       -1   -1    0    0    0  501  0.00000000000E+00  0.00000000000E+00  0.50936262823E+03  0.50936262826E+03  0.50400001928E-02 0. -1.
        1   -1    0    0  501    0  0.00000000000E+00  0.00000000000E+00 -0.31248625362E+03  0.31248625366E+03  0.50400001928E-02 0.  1.
    10030    2    1    2    0    0  0.00000000000E+00  0.00000000000E+00  0.19687637461E+03  0.82184888192E+03  0.79791934293E+03 0.  0.
        4    1    3    3  502    0 -0.26516497908E+03  0.28193462352E+03  0.19812721063E+03  0.43480524670E+03  0.12699999809E+01 0. -1.
       -4    1    3    3    0  502  0.26516497908E+03 -0.28193462352E+03 -0.12508360177E+01  0.38704363521E+03  0.12699999809E+01 0.  1.
</event>
<event>
 5   0  0.1640035E-03  0.7989427E+03  0.7818609E-02  0.9561549E-01
        1   -1    0    0  501    0  0.00000000000E+00  0.00000000000E+00  0.11046048266E+04  0.11046048266E+04  0.50400001928E-02 0.  1.
       -1   -1    0    0    0  501  0.00000000000E+00  0.00000000000E+00 -0.14446556012E+03  0.14446556021E+03  0.50400001928E-02 0. -1.
    10030    2    1    2    0    0  0.00000000000E+00  0.00000000000E+00  0.96013926650E+03  0.12490703868E+04  0.79894268894E+03 0.  0.
        5    1    3    3  502    0  0.42791678722E+02  0.54821300862E+02 -0.13488457307E+03  0.15183030280E+03  0.46999998093E+01 0. -1.
       -5    1    3    3    0  502 -0.42791678722E+02 -0.54821300862E+02  0.10950238396E+04  0.10972400840E+04  0.46999998093E+01 0.  1.
</event>
<event>
 5   0  0.1656051E-03  0.7993152E+03  0.7818609E-02  0.9561009E-01
        1   -1    0    0  501    0  0.00000000000E+00  0.00000000000E+00  0.11712977114E+04  0.11712977114E+04  0.50400001928E-02 0.  1.
       -1   -1    0    0    0  501  0.00000000000E+00  0.00000000000E+00 -0.13636686862E+03  0.13636686872E+03  0.50400001928E-02 0. -1.
    10030    2    1    2    0    0  0.00000000000E+00  0.00000000000E+00  0.10349308428E+04  0.13076645801E+04  0.79931520990E+03 0.  0.
        3    1    3    3  502    0  0.84078202969E+02 -0.31973141021E+03  0.15008339038E+03  0.36307348176E+03  0.10100000352E+00 0. -1.
       -3    1    3    3    0  502 -0.84078202969E+02  0.31973141021E+03  0.88484745239E+03  0.94459109836E+03  0.10100000352E+00 0.  1.
</event>
<event>
 5   0  0.2690809E-03  0.8182244E+03  0.7818609E-02  0.9534006E-01
       -2   -1    0    0    0  501  0.00000000000E+00  0.00000000000E+00  0.19978472046E+03  0.19978472047E+03  0.25500000920E-02 0.  1.
        2   -1    0    0  501    0  0.00000000000E+00  0.00000000000E+00 -0.83776576334E+03  0.83776576335E+03  0.25500000920E-02 0. -1.
    10030    2    1    2    0    0  0.00000000000E+00  0.00000000000E+00 -0.63798104288E+03  0.10375504838E+04  0.81822441628E+03 0.  0.
        5    1    3    3  502    0 -0.11264812131E+01 -0.30590753226E+03  0.25420275418E+02  0.30699994732E+03  0.46999998093E+01 0.  1.
       -5    1    3    3    0  502  0.11264812131E+01  0.30590753226E+03 -0.66340131830E+03  0.73055053650E+03  0.46999998093E+01 0. -1.
</event>
<event>
 5   0  0.1640035E-03  0.7963654E+03  0.7818609E-02  0.9565293E-01
       -1   -1    0    0    0  501  0.00000000000E+00  0.00000000000E+00  0.70854034339E+03  0.70854034341E+03  0.50400001928E-02 0.  1.
        1   -1    0    0  501    0  0.00000000000E+00  0.00000000000E+00 -0.22376911508E+03  0.22376911514E+03  0.50400001928E-02 0. -1.
    10030    2    1    2    0    0  0.00000000000E+00  0.00000000000E+00  0.48477122831E+03  0.93230945855E+03  0.79636535755E+03 0.  0.
        5    1    3    3  502    0 -0.74475760169E+02 -0.34357995725E+03  0.23574707410E+02  0.35238002597E+03  0.46999998093E+01 0. -1.
       -5    1    3    3    0  502  0.74475760169E+02  0.34357995725E+03  0.46119652090E+03  0.57992943258E+03  0.46999998093E+01 0.  1.
</event>
<event>
 5   0  0.2910501E-03  0.7996703E+03  0.7818609E-02  0.9560495E-01
       -2   -1    0    0    0  501  0.00000000000E+00  0.00000000000E+00  0.30754736989E+03  0.30754736990E+03  0.25500000920E-02 0. -1.
        2   -1    0    0  501    0  0.00000000000E+00  0.00000000000E+00 -0.51981628058E+03  0.51981628059E+03  0.25500000920E-02 0.  1.
    10030    2    1    2    0    0  0.00000000000E+00  0.00000000000E+00 -0.21226891070E+03  0.82736365049E+03  0.79967025686E+03 0.  0.
        1    1    3    3  502    0  0.22252559252E+02 -0.31502774513E+02 -0.51788709097E+03  0.51932132655E+03  0.50400001928E-02 0.  1.
       -1    1    3    3    0  502 -0.22252559252E+02  0.31502774513E+02  0.30561818027E+03  0.30804232393E+03  0.50400001928E-02 0. -1.
</event>
<event>
 5   0  0.1656051E-03  0.8003604E+03  0.7818609E-02  0.9559496E-01
       -1   -1    0    0    0  501  0.00000000000E+00  0.00000000000E+00  0.43699030953E+03  0.43699030956E+03  0.50400001928E-02 0. -1.
        1   -1    0    0  501    0  0.00000000000E+00  0.00000000000E+00 -0.36647082119E+03  0.36647082123E+03  0.50400001928E-02 0.  1.
    10030    2    1    2    0    0  0.00000000000E+00  0.00000000000E+00  0.70519488338E+02  0.80346113079E+03  0.80036041285E+03 0.  0.
        3    1    3    3  502    0  0.15389445493E+03 -0.36762882068E+03  0.71590202968E+02  0.40491927642E+03  0.10100000352E+00 0. -1.
       -3    1    3    3    0  502 -0.15389445493E+03  0.36762882068E+03 -0.10707146297E+01  0.39854185437E+03  0.10100000352E+00 0.  1.
</event>
<event>
 5   0  0.1637228E-03  0.7992261E+03  0.7818609E-02  0.9561138E-01
       -1   -1    0    0    0  501  0.00000000000E+00  0.00000000000E+00  0.91698163351E+03  0.91698163352E+03  0.50400001928E-02 0.  1.
        1   -1    0    0  501    0  0.00000000000E+00  0.00000000000E+00 -0.17414807033E+03  0.17414807040E+03  0.50400001928E-02 0. -1.
    10030    2    1    2    0    0  0.00000000000E+00  0.00000000000E+00  0.74283356318E+03  0.10911297039E+04  0.79922608077E+03 0.  0.
        2    1    3    3  502    0  0.11550381021E+03  0.38124774516E+03  0.32825277606E+03  0.51617909524E+03  0.25500000920E-02 0. -1.
       -2    1    3    3    0  502 -0.11550381021E+03 -0.38124774516E+03  0.41458078712E+03  0.57495060868E+03  0.25500000920E-02 0.  1.
</event>
<event>
 5   0  0.1095350E-03  0.8016047E+03  0.7818609E-02  0.9557697E-01
        3   -1    0    0  501    0  0.00000000000E+00  0.00000000000E+00  0.18836111380E+03  0.18836114087E+03  0.10100000352E+00 0.  1.
       -3   -1    0    0    0  501  0.00000000000E+00  0.00000000000E+00 -0.85284332321E+03  0.85284332919E+03  0.10100000352E+00 0. -1.
    10030    2    1    2    0    0  0.00000000000E+00  0.00000000000E+00 -0.66448220941E+03  0.10412044701E+04  0.80160472919E+03 0.  0.
        1    1    3    3  502    0  0.16820131654E+03  0.32325252887E+03 -0.11544282748E+03  0.38224459022E+03  0.50400001928E-02 0.  1.
       -1    1    3    3    0  502 -0.16820131654E+03 -0.32325252887E+03 -0.54903938193E+03  0.65895987984E+03  0.50400001928E-02 0. -1.
</event>
<event>
 5   0  0.2910501E-03  0.7993599E+03  0.7818609E-02  0.9560944E-01
       -2   -1    0    0    0  501  0.00000000000E+00  0.00000000000E+00  0.81072571649E+02  0.81072571689E+02  0.25500000920E-02 0.  1.
        2   -1    0    0  501    0  0.00000000000E+00  0.00000000000E+00 -0.19703836161E+04  0.19703836161E+04  0.25500000920E-02 0. -1.
    10030    2    1    2    0    0  0.00000000000E+00  0.00000000000E+00 -0.18893110445E+04  0.20514561878E+04  0.79935991127E+03 0.  0.
        1    1    3    3  502    0 -0.38023875035E+03  0.10772956084E+03 -0.79159760706E+03  0.88476773058E+03  0.50400001928E-02 0. -1.
       -1    1    3    3    0  502  0.38023875035E+03 -0.10772956084E+03 -0.10977134374E+04  0.11666884572E+04  0.50400001928E-02 0.  1.
</event>
<event>
 5   0  0.2763587E-03  0.7957497E+03  0.7818609E-02  0.9566190E-01
       -2   -1    0    0    0  501  0.00000000000E+00  0.00000000000E+00  0.85279002324E+02  0.85279002362E+02  0.25500000920E-02 0. -1.
        2   -1    0    0  501    0  0.00000000000E+00  0.00000000000E+00 -0.18563115221E+04  0.18563115221E+04  0.25500000920E-02 0.  1.
    10030    2    1    2    0    0  0.00000000000E+00  0.00000000000E+00 -0.17710325198E+04  0.19415905244E+04  0.79574969593E+03 0.  0.
        3    1    3    3  502    0  0.25531735218E+03 -0.30501444578E+03 -0.86320411088E+03  0.95044311229E+03  0.10100000352E+00 0. -1.
       -3    1    3    3    0  502 -0.25531735218E+03  0.30501444578E+03 -0.90782840888E+03  0.99114741216E+03  0.10100000352E+00 0.  1.
</event>
<event>
 5   0  0.2910501E-03  0.7986811E+03  0.7818609E-02  0.9561928E-01
        2   -1    0    0  501    0  0.00000000000E+00  0.00000000000E+00  0.22190162551E+03  0.22190162552E+03  0.25500000920E-02 0.  1.
       -2   -1    0    0    0  501  0.00000000000E+00  0.00000000000E+00 -0.71866467674E+03  0.71866467675E+03  0.25500000920E-02 0. -1.
    10030    2    1    2    0    0  0.00000000000E+00  0.00000000000E+00 -0.49676305124E+03  0.94056630227E+03  0.79868106268E+03 0.  0.
        1    1    3    3  502    0  0.57342607001E+01 -0.37050015677E+03 -0.73035843992E+02  0.37767377781E+03  0.50400001928E-02 0.  1.
       -1    1    3    3    0  502 -0.57342607001E+01  0.37050015677E+03 -0.42372720725E+03  0.56289252446E+03  0.50400001928E-02 0. -1.
</event>
<event>
 5   0  0.2763587E-03  0.7987165E+03  0.7818609E-02  0.9561877E-01
        2   -1    0    0  501    0  0.00000000000E+00  0.00000000000E+00  0.61082056795E+03  0.61082056795E+03  0.25500000920E-02 0. -1.
       -2   -1    0    0    0  501  0.00000000000E+00  0.00000000000E+00 -0.26110290974E+03  0.26110290975E+03  0.25500000920E-02 0.  1.
    10030    2    1    2    0    0  0.00000000000E+00  0.00000000000E+00  0.34971765821E+03  0.87192347770E+03  0.79871653952E+03 0.  0.
        3    1    3    3  502    0 -0.11399863110E+03 -0.30560576833E+03  0.42640540603E+03  0.53685394105E+03  0.10100000352E+00 0. -1.
       -3    1    3    3    0  502  0.11399863110E+03  0.30560576833E+03 -0.76687747820E+02  0.33506953665E+03  0.10100000352E+00 0.  1.
</event>
<event>
 5   0  0.2873212E-03  0.7998033E+03  0.7818609E-02  0.9560302E-01
        2   -1    0    0  501    0  0.00000000000E+00  0.00000000000E+00  0.19571229130E+03  0.19571229132E+03  0.25500000920E-02 0.  1.
       -2   -1    0    0    0  501  0.00000000000E+00  0.00000000000E+00 -0.81712465567E+03  0.81712465567E+03  0.25500000920E-02 0. -1.
    10030    2    1    2    0    0  0.00000000000E+00  0.00000000000E+00 -0.62141236437E+03  0.10128369470E+04  0.79980332245E+03 0.  0.
        2    1    3    3  502    0  0.93617417817E+02  0.18540481633E+03  0.12205131992E+03  0.24090598071E+03  0.25500000920E-02 0.  1.
       -2    1    3    3    0  502 -0.93617417817E+02 -0.18540481633E+03 -0.74346368429E+03  0.77193096628E+03  0.25500000920E-02 0. -1.
</event>
<event>
 5   0  0.2910501E-03  0.7999126E+03  0.7818609E-02  0.9560144E-01
        2   -1    0    0  501    0  0.00000000000E+00  0.00000000000E+00  0.91422813693E+03  0.91422813693E+03  0.25500000920E-02 0.  1.
       -2   -1    0    0    0  501  0.00000000000E+00  0.00000000000E+00 -0.17497278714E+03  0.17497278716E+03  0.25500000920E-02 0. -1.
    10030    2    1    2    0    0  0.00000000000E+00  0.00000000000E+00  0.73925534979E+03  0.10892009241E+04  0.79991260826E+03 0.  0.
        1    1    3    3  502    0  0.20757373060E+03 -0.24328174718E+02  0.83396093568E+03  0.85974970543E+03  0.50400001928E-02 0.  1.
       -1    1    3    3    0  502 -0.20757373060E+03  0.24328174718E+02 -0.94705585888E+02  0.22945121866E+03  0.50400001928E-02 0. -1.
</event>
<event>
 5   0  0.1640035E-03  0.8008303E+03  0.7818609E-02  0.9558816E-01
        1   -1    0    0  501    0  0.00000000000E+00  0.00000000000E+00  0.16280257361E+04  0.16280257361E+04  0.50400001928E-02 0. -1.
       -1   -1    0    0    0  501  0.00000000000E+00  0.00000000000E+00 -0.98482662586E+02  0.98482662715E+02  0.50400001928E-02 0.  1.
    10030    2    1    2    0    0  0.00000000000E+00  0.00000000000E+00  0.15295430735E+04  0.17265083988E+04  0.80083034251E+03 0.  0.
        5    1    3    3  502    0 -0.17802558401E+03  0.35194812118E+03  0.61619230719E+03  0.73162533991E+03  0.46999998093E+01 0.  1.
       -5    1    3    3    0  502  0.17802558401E+03 -0.35194812118E+03  0.91335076634E+03  0.99488305892E+03  0.46999998093E+01 0. -1.
</event>
<event>
 5   0  0.1640035E-03  0.7959255E+03  0.7818609E-02  0.9565934E-01
        1   -1    0    0  501    0  0.00000000000E+00  0.00000000000E+00  0.64226693263E+03  0.64226693265E+03  0.50400001928E-02 0. -1.
       -1   -1    0    0    0  501  0.00000000000E+00  0.00000000000E+00 -0.24658646912E+03  0.24658646917E+03  0.50400001928E-02 0.  1.
    10030    2    1    2    0    0  0.00000000000E+00  0.00000000000E+00  0.39568046352E+03  0.88885340182E+03  0.79592546179E+03 0.  0.
        5    1    3    3  502    0 -0.96105469489E+02  0.46540982122E+02  0.62593746312E+03  0.63499773387E+03  0.46999998093E+01 0. -1.
       -5    1    3    3    0  502  0.96105469489E+02 -0.46540982122E+02 -0.23025699961E+03  0.25385566795E+03  0.46999998093E+01 0.  1.
</event>
<event>
 5   0  0.2873212E-03  0.7995466E+03  0.7818609E-02  0.9560674E-01
       -2   -1    0    0    0  501  0.00000000000E+00  0.00000000000E+00  0.83048097638E+02  0.83048097677E+02  0.25500000920E-02 0. -1.
        2   -1    0    0  501    0  0.00000000000E+00  0.00000000000E+00 -0.19244110350E+04  0.19244110350E+04  0.25500000920E-02 0.  1.
    10030    2    1    2    0    0  0.00000000000E+00  0.00000000000E+00 -0.18413629373E+04  0.20074591326E+04  0.79954656042E+03 0.  0.
        2    1    3    3  502    0  0.20400462734E+03 -0.19556641060E+03 -0.16306262813E+04  0.16549338894E+04  0.25500000920E-02 0.  1.
       -2    1    3    3    0  502 -0.20400462734E+03  0.19556641060E+03 -0.21073665599E+03  0.35252524323E+03  0.25500000920E-02 0. -1.
</event>
<event>
 5   0  0.1656051E-03  0.8002762E+03  0.7818609E-02  0.9559617E-01
       -1   -1    0    0    0  501  0.00000000000E+00  0.00000000000E+00  0.98284767647E+02  0.98284767776E+02  0.50400001928E-02 0. -1.
        1   -1    0    0  501    0  0.00000000000E+00  0.00000000000E+00 -0.16290469474E+04  0.16290469474E+04  0.50400001928E-02 0.  1.
    10030    2    1    2    0    0  0.00000000000E+00  0.00000000000E+00 -0.15307621797E+04  0.17273317152E+04  0.80027620439E+03 0.  0.
        3    1    3    3  502    0 -0.14886100626E+01  0.36572774482E+02 -0.16254258070E+04  0.16258378911E+04  0.10100000352E+00 0.  1.
       -3    1    3    3    0  502  0.14886100626E+01 -0.36572774482E+02  0.94663627283E+02  0.10149382407E+03  0.10100000352E+00 0. -1.
</event>
<event>
 5   0  0.1640035E-03  0.7939754E+03  0.7818609E-02  0.9568779E-01
       -1   -1    0    0    0  501  0.00000000000E+00  0.00000000000E+00  0.35507702364E+03  0.35507702367E+03  0.50400001928E-02 0. -1.
        1   -1    0    0  501    0  0.00000000000E+00  0.00000000000E+00 -0.44384523101E+03  0.44384523104E+03  0.50400001928E-02 0.  1.
    10030    2    1    2    0    0  0.00000000000E+00  0.00000000000E+00 -0.88768207376E+02  0.79892225472E+03  0.79397542433E+03 0.  0.
        5    1    3    3  502    0  0.14349769641E+03 -0.15746201015E+03 -0.38142066147E+03  0.43690924059E+03  0.46999998093E+01 0.  1.
       -5    1    3    3    0  502 -0.14349769641E+03  0.15746201015E+03  0.29265245409E+03  0.36201301413E+03  0.46999998093E+01 0. -1.
</event>
<event>
 5   0  0.1095350E-03  0.8004138E+03  0.7818609E-02  0.9559418E-01
        4   -1    0    0  501    0  0.00000000000E+00  0.00000000000E+00  0.11915919823E+04  0.11915926590E+04  0.12699999809E+01 0. -1.
       -4   -1    0    0    0  501  0.00000000000E+00  0.00000000000E+00 -0.13440937566E+03  0.13441537548E+03  0.12699999809E+01 0.  1.
    10030    2    1    2    0    0  0.00000000000E+00  0.00000000000E+00  0.10571826066E+04  0.13260080345E+04  0.80041379544E+03 0.  0.
        2    1    3    3  502    0  0.17134017644E+03  0.45838634728E+02  0.11229280007E+04  0.11368491242E+04  0.25500000920E-02 0. -1.
       -2    1    3    3    0  502 -0.17134017644E+03 -0.45838634728E+02 -0.65745394096E+02  0.18915891030E+03  0.25500000920E-02 0.  1.
</event>
<event>
 5   0  0.2763587E-03  0.8050409E+03  0.7818609E-02  0.9552749E-01
        2   -1    0    0  501    0  0.00000000000E+00  0.00000000000E+00  0.61610066201E+03  0.61610066202E+03  0.25500000920E-02 0.  1.
       -2   -1    0    0    0  501  0.00000000000E+00  0.00000000000E+00 -0.26298091679E+03  0.26298091680E+03  0.25500000920E-02 0. -1.
    10030    2    1    2    0    0  0.00000000000E+00  0.00000000000E+00  0.35311974522E+03  0.87908157882E+03  0.80504091061E+03 0.  0.
        3    1    3    3  502    0  0.13160882978E+03 -0.25930284337E+03 -0.12736118383E+03  0.31745823347E+03  0.10100000352E+00 0. -1.
       -3    1    3    3    0  502 -0.13160882978E+03  0.25930284337E+03  0.48048092905E+03  0.56162334534E+03  0.10100000352E+00 0.  1.
</event>
<event>
 5   0  0.1640035E-03  0.7996550E+03  0.7818609E-02  0.9560517E-01
        1   -1    0    0  501    0  0.00000000000E+00  0.00000000000E+00  0.61230580434E+03  0.61230580436E+03  0.50400001928E-02 0.  1.
       -1   -1    0    0    0  501  0.00000000000E+00  0.00000000000E+00 -0.26108202200E+03  0.26108202205E+03  0.50400001928E-02 0. -1.
    10030    2    1    2    0    0  0.00000000000E+00  0.00000000000E+00  0.35122378234E+03  0.87338782642E+03  0.79965501940E+03 0.  0.
        5    1    3    3  502    0  0.16299505671E+03 -0.14617241923E+03 -0.18975694996E+03  0.28976465401E+03  0.46999998093E+01 0. -1.
       -5    1    3    3    0  502 -0.16299505671E+03  0.14617241923E+03  0.54098073229E+03  0.58362317241E+03  0.46999998093E+01 0.  1.
</event>
<event>
 5   0  0.2873212E-03  0.7964775E+03  0.7818609E-02  0.9565130E-01
       -2   -1    0    0    0  501  0.00000000000E+00  0.00000000000E+00  0.11418328286E+03  0.11418328289E+03  0.25500000920E-02 0. -1.
        2   -1    0    0  501    0  0.00000000000E+00  0.00000000000E+00 -0.13889431264E+04  0.13889431264E+04  0.25500000920E-02 0.  1.
    10030    2    1    2    0    0  0.00000000000E+00  0.00000000000E+00 -0.12747598435E+04  0.15031264093E+04  0.79647745957E+03 0.  0.
        2    1    3    3  502    0 -0.16719087044E+03  0.56376944687E+01 -0.13194192597E+04  0.13299818621E+04  0.25500000920E-02 0.  1.
       -2    1    3    3    0  502  0.16719087044E+03 -0.56376944687E+01  0.44659416139E+02  0.17314454717E+03  0.25500000920E-02 0. -1.
</event>
<event>
 5   0  0.1617491E-03  0.7989830E+03  0.7818609E-02  0.9561490E-01
        1   -1    0    0  501    0  0.00000000000E+00  0.00000000000E+00  0.46393692249E+03  0.46393692252E+03  0.50400001928E-02 0. -1.
       -1   -1    0    0    0  501  0.00000000000E+00  0.00000000000E+00 -0.34399816498E+03  0.34399816501E+03  0.50400001928E-02 0.  1.
    10030    2    1    2    0    0  0.00000000000E+00  0.00000000000E+00  0.11993875752E+03  0.80793508753E+03  0.79898297861E+03 0.  0.
        1    1    3    3  502    0 -0.15075004844E+03 -0.25953060770E+03 -0.20663545008E+03  0.36438979499E+03  0.50400001928E-02 0.  1.
       -1    1    3    3    0  502  0.15075004844E+03  0.25953060770E+03  0.32657420760E+03  0.44354529254E+03  0.50400001928E-02 0. -1.
</event>
<event>
 5   0  0.1095350E-03  0.7989101E+03  0.7818609E-02  0.9561596E-01
       -3   -1    0    0    0  501  0.00000000000E+00  0.00000000000E+00  0.22167556583E+03  0.22167558884E+03  0.10100000352E+00 0.  1.
        3   -1    0    0  501    0  0.00000000000E+00  0.00000000000E+00 -0.71981011659E+03  0.71981012368E+03  0.10100000352E+00 0. -1.
    10030    2    1    2    0    0  0.00000000000E+00  0.00000000000E+00 -0.49813455077E+03  0.94148571252E+03  0.79891008017E+03 0.  0.
        4    1    3    3  502    0  0.25384888977E+03 -0.36206227038E+02 -0.61001668973E+03  0.66171906755E+03  0.12699999809E+01 0. -1.
       -4    1    3    3    0  502 -0.25384888977E+03  0.36206227038E+02  0.11188213896E+03  0.27976664496E+03  0.12699999809E+01 0.  1.
</event>
<event>
 5   0  0.2763587E-03  0.7993997E+03  0.7818609E-02  0.9560886E-01
       -2   -1    0    0    0  501  0.00000000000E+00  0.00000000000E+00  0.15502788197E+03  0.15502788200E+03  0.25500000920E-02 0.  1.
        2   -1    0    0  501    0  0.00000000000E+00  0.00000000000E+00 -0.10305242373E+04  0.10305242373E+04  0.25500000920E-02 0. -1.
    10030    2    1    2    0    0  0.00000000000E+00  0.00000000000E+00 -0.87549635528E+03  0.11855521193E+04  0.79939974941E+03 0.  0.
        3    1    3    3  502    0 -0.64798293334E+02 -0.37488659510E+02  0.14453805708E+03  0.16277431787E+03  0.10100000352E+00 0.  1.
       -3    1    3    3    0  502  0.64798293334E+02  0.37488659510E+02 -0.10200344124E+04  0.10227778014E+04  0.10100000352E+00 0. -1.
</event>
<event>
 5   0  0.1637228E-03  0.8004328E+03  0.7818609E-02  0.9559391E-01
       -1   -1    0    0    0  501  0.00000000000E+00  0.00000000000E+00  0.17736476284E+03  0.17736476291E+03  0.50400001928E-02 0.  1.
        1   -1    0    0  501    0  0.00000000000E+00  0.00000000000E+00 -0.90307209963E+03  0.90307209964E+03  0.50400001928E-02 0. -1.
    10030    2    1    2    0    0  0.00000000000E+00  0.00000000000E+00 -0.72570733679E+03  0.10804368626E+04  0.80043280499E+03 0.  0.
        2    1    3    3  502    0  0.78947868146E+02  0.25700625292E+03  0.37311949235E+02  0.27143537258E+03  0.25500000920E-02 0.  1.
       -2    1    3    3    0  502 -0.78947868146E+02 -0.25700625292E+03 -0.76301928602E+03  0.80900148997E+03  0.25500000920E-02 0. -1.
</event>
<event>
 5   0  0.1656051E-03  0.8013969E+03  0.7818609E-02  0.9557997E-01
        1   -1    0    0  501    0  0.00000000000E+00  0.00000000000E+00  0.63754881501E+03  0.63754881503E+03  0.50400001928E-02 0. -1.
       -1   -1    0    0    0  501  0.00000000000E+00  0.00000000000E+00 -0.25183834833E+03  0.25183834838E+03  0.50400001928E-02 0.  1.
    10030    2    1    2    0    0  0.00000000000E+00  0.00000000000E+00  0.38571046667E+03  0.88938716341E+03  0.80139688191E+03 0.  0.
        3    1    3    3  502    0  0.25996137689E+03  0.28305078413E+03  0.31871593327E+03  0.49927699746E+03  0.10100000352E+00 0. -1.
       -3    1    3    3    0  502 -0.25996137689E+03 -0.28305078413E+03  0.66994533403E+02  0.39011016595E+03  0.10100000352E+00 0.  1.
</event>
<event>
 5   0  0.1640035E-03  0.8063546E+03  0.7818609E-02  0.9550864E-01
       -1   -1    0    0    0  501  0.00000000000E+00  0.00000000000E+00  0.62982709496E+03  0.62982709498E+03  0.50400001928E-02 0. -1.
        1   -1    0    0  501    0  0.00000000000E+00  0.00000000000E+00 -0.25808977161E+03  0.25808977166E+03  0.50400001928E-02 0.  1.
    10030    2    1    2    0    0  0.00000000000E+00  0.00000000000E+00  0.37173732335E+03  0.88791686664E+03  0.80635458980E+03 0.  0.
        5    1    3    3  502    0  0.39917530161E+03  0.54073364821E+02  0.20379376814E+03  0.45146299974E+03  0.46999998093E+01 0.  1.
       -5    1    3    3    0  502 -0.39917530161E+03 -0.54073364821E+02  0.16794355521E+03  0.43645386690E+03  0.46999998093E+01 0. -1.
</event>
<event>
 5   0  0.1637228E-03  0.7989255E+03  0.7818609E-02  0.9561574E-01
       -1   -1    0    0    0  501  0.00000000000E+00  0.00000000000E+00  0.53347997425E+03  0.53347997428E+03  0.50400001928E-02 0.  1.
        1   -1    0    0  501    0  0.00000000000E+00  0.00000000000E+00 -0.29911243238E+03  0.29911243243E+03  0.50400001928E-02 0. -1.
    10030    2    1    2    0    0  0.00000000000E+00  0.00000000000E+00  0.23436754187E+03  0.83259240670E+03  0.79892551031E+03 0.  0.
        2    1    3    3  502    0 -0.13105040330E+02 -0.35889364416E+03  0.29946628852E+03  0.46760715121E+03  0.25500000920E-02 0. -1.
       -2    1    3    3    0  502  0.13105040330E+02  0.35889364416E+03 -0.65098746650E+02  0.36498525549E+03  0.25500000920E-02 0.  1.
</event>
<event>
 5   0  0.2768834E-03  0.7997531E+03  0.7818609E-02  0.9560374E-01
        2   -1    0    0  501    0  0.00000000000E+00  0.00000000000E+00  0.42128201126E+03  0.42128201127E+03  0.25500000920E-02 0. -1.
       -2   -1    0    0    0  501  0.00000000000E+00  0.00000000000E+00 -0.37955875313E+03  0.37955875314E+03  0.25500000920E-02 0.  1.
    10030    2    1    2    0    0  0.00000000000E+00  0.00000000000E+00  0.41723258125E+02  0.80084076441E+03  0.79975314921E+03 0.  0.
        4    1    3    3  502    0 -0.22461161518E+01 -0.10582778792E+03  0.40699606640E+03  0.42053772327E+03  0.12699999809E+01 0. -1.
       -4    1    3    3    0  502  0.22461161518E+01  0.10582778792E+03 -0.36527280827E+03  0.38030304113E+03  0.12699999809E+01 0.  1.
</event>
<event>
 5   0  0.1712793E-03  0.7994815E+03  0.7818609E-02  0.9560768E-01
       -1   -1    0    0    0  501  0.00000000000E+00  0.00000000000E+00  0.25728932043E+03  0.25728932048E+03  0.50400001928E-02 0. -1.
        1   -1    0    0  501    0  0.00000000000E+00  0.00000000000E+00 -0.62106223224E+03  0.62106223226E+03  0.50400001928E-02 0.  1.
    10030    2    1    2    0    0  0.00000000000E+00  0.00000000000E+00 -0.36377291181E+03  0.87835155274E+03  0.79948153126E+03 0.  0.
        4    1    3    3  502    0 -0.32404141710E+02 -0.88172434764E+02 -0.60876120070E+03  0.61596770940E+03  0.12699999809E+01 0.  1.
       -4    1    3    3    0  502  0.32404141710E+02  0.88172434764E+02  0.24498828889E+03  0.26238384334E+03  0.12699999809E+01 0. -1.
</event>
<event>
 5   0  0.1656051E-03  0.8072216E+03  0.7818609E-02  0.9549623E-01
        1   -1    0    0  501    0  0.00000000000E+00  0.00000000000E+00  0.54863930436E+03  0.54863930438E+03  0.50400001928E-02 0.  1.
       -1   -1    0    0    0  501  0.00000000000E+00  0.00000000000E+00 -0.29691946102E+03  0.29691946106E+03  0.50400001928E-02 0. -1.
    10030    2    1    2    0    0  0.00000000000E+00  0.00000000000E+00  0.25171984334E+03  0.84555876544E+03  0.80722162154E+03 0.  0.
        3    1    3    3  502    0 -0.16069525542E+03  0.77479388042E+02  0.50509808046E+03  0.53567723657E+03  0.10100000352E+00 0.  1.
       -3    1    3    3    0  502  0.16069525542E+03 -0.77479388042E+02 -0.25337823713E+03  0.30988152887E+03  0.10100000352E+00 0. -1.
</event>
<event>
 5   0  0.1095350E-03  0.7961762E+03  0.7818609E-02  0.9565569E-01
       -4   -1    0    0    0  501  0.00000000000E+00  0.00000000000E+00  0.59551616202E+03  0.59551751622E+03  0.12699999809E+01 0.  1.
        4   -1    0    0  501    0  0.00000000000E+00  0.00000000000E+00 -0.26610903332E+03  0.26611206383E+03  0.12699999809E+01 0. -1.
    10030    2    1    2    0    0  0.00000000000E+00  0.00000000000E+00  0.32940712869E+03  0.86162958005E+03  0.79617615939E+03 0.  0.
        1    1    3    3  502    0 -0.12927551367E+03 -0.36528937264E+03  0.26344970115E+03  0.46856614182E+03  0.50400001928E-02 0. -1.
       -1    1    3    3    0  502  0.12927551367E+03  0.36528937264E+03  0.65957427540E+02  0.39306343823E+03  0.50400001928E-02 0.  1.
</event>
<event>
 5   0  0.2910501E-03  0.7875408E+03  0.7818609E-02  0.9578228E-01
        2   -1    0    0  501    0  0.00000000000E+00  0.00000000000E+00  0.75033898729E+03  0.75033898730E+03  0.25500000920E-02 0.  1.
       -2   -1    0    0    0  501  0.00000000000E+00  0.00000000000E+00 -0.20664675802E+03  0.20664675803E+03  0.25500000920E-02 0. -1.
    10030    2    1    2    0    0  0.00000000000E+00  0.00000000000E+00  0.54369222927E+03  0.95698574533E+03  0.78754077773E+03 0.  0.
        1    1    3    3  502    0 -0.17294510232E+03  0.53250825440E+02 -0.15312796650E+03  0.23705238446E+03  0.50400001928E-02 0. -1.
       -1    1    3    3    0  502  0.17294510232E+03 -0.53250825440E+02  0.69682019578E+03  0.71993336087E+03  0.50400001928E-02 0.  1.
</event>
<event>
 5   0  0.2763587E-03  0.7981383E+03  0.7818609E-02  0.9562716E-01
        2   -1    0    0  501    0  0.00000000000E+00  0.00000000000E+00  0.72800910961E+03  0.72800910961E+03  0.25500000920E-02 0. -1.
       -2   -1    0    0    0  501  0.00000000000E+00  0.00000000000E+00 -0.21875573362E+03  0.21875573364E+03  0.25500000920E-02 0.  1.
    10030    2    1    2    0    0  0.00000000000E+00  0.00000000000E+00  0.50925337598E+03  0.94676484325E+03  0.79813825084E+03 0.  0.
        3    1    3    3  502    0 -0.77558449820E+02  0.77369334767E+02 -0.20056966247E+03  0.22853780169E+03  0.10100000352E+00 0.  1.
       -3    1    3    3    0  502  0.77558449820E+02 -0.77369334767E+02  0.70982303845E+03  0.71822704155E+03  0.10100000352E+00 0. -1.
</event>
<event>
 5   0  0.2763587E-03  0.8009776E+03  0.7818609E-02  0.9558603E-01
        2   -1    0    0  501    0  0.00000000000E+00  0.00000000000E+00  0.86321474610E+03  0.86321474610E+03  0.25500000920E-02 0.  1.
       -2   -1    0    0    0  501  0.00000000000E+00  0.00000000000E+00 -0.18580693991E+03  0.18580693993E+03  0.25500000920E-02 0. -1.
    10030    2    1    2    0    0  0.00000000000E+00  0.00000000000E+00  0.67740780619E+03  0.10490216860E+04  0.80097762882E+03 0.  0.
        3    1    3    3  502    0 -0.13721445231E+03  0.37394295269E+03  0.39317987838E+03  0.55968881064E+03  0.10100000352E+00 0.  1.
       -3    1    3    3    0  502  0.13721445231E+03 -0.37394295269E+03  0.28422792781E+03  0.48933287539E+03  0.10100000352E+00 0. -1.
</event>
<event>
 5   0  0.1712793E-03  0.7966260E+03  0.7818609E-02  0.9564914E-01
       -1   -1    0    0    0  501  0.00000000000E+00  0.00000000000E+00  0.24597583553E+03  0.24597583558E+03  0.50400001928E-02 0.  1.
        1   -1    0    0  501    0  0.00000000000E+00  0.00000000000E+00 -0.64499532376E+03  0.64499532378E+03  0.50400001928E-02 0. -1.
    10030    2    1    2    0    0  0.00000000000E+00  0.00000000000E+00 -0.39901948823E+03  0.89097115937E+03  0.79662604453E+03 0.  0.
        4    1    3    3  502    0  0.13277184249E+03  0.22831235063E+03 -0.53297616606E+03  0.59482778861E+03  0.12699999809E+01 0. -1.
       -4    1    3    3    0  502 -0.13277184249E+03 -0.22831235063E+03  0.13395667783E+03  0.29614337076E+03  0.12699999809E+01 0.  1.
</event>
<event>
 5   0  0.2910501E-03  0.8004077E+03  0.7818609E-02  0.9559427E-01
        2   -1    0    0  501    0  0.00000000000E+00  0.00000000000E+00  0.23936612067E+03  0.23936612068E+03  0.25500000920E-02 0.  1.
       -2   -1    0    0    0  501  0.00000000000E+00  0.00000000000E+00 -0.66911364046E+03  0.66911364046E+03  0.25500000920E-02 0. -1.
    10030    2    1    2    0    0  0.00000000000E+00  0.00000000000E+00 -0.42974751979E+03  0.90847976114E+03  0.80040773712E+03 0.  0.
        1    1    3    3  502    0  0.18574523749E+03 -0.35050590442E+03 -0.15473419097E+03  0.42579144210E+03  0.50400001928E-02 0. -1.
       -1    1    3    3    0  502 -0.18574523749E+03  0.35050590442E+03 -0.27501332882E+03  0.48268831904E+03  0.50400001928E-02 0.  1.
</event>
<event>
 5   0  0.1637228E-03  0.7995386E+03  0.7818609E-02  0.9560685E-01
       -1   -1    0    0    0  501  0.00000000000E+00  0.00000000000E+00  0.23714649551E+03  0.23714649556E+03  0.50400001928E-02 0.  1.
        1   -1    0    0  501    0  0.00000000000E+00  0.00000000000E+00 -0.67391035446E+03  0.67391035448E+03  0.50400001928E-02 0. -1.
    10030    2    1    2    0    0  0.00000000000E+00  0.00000000000E+00 -0.43676385895E+03  0.91105685004E+03  0.79953856412E+03 0.  0.
        2    1    3    3  502    0 -0.36042642949E+03 -0.93457176179E+02 -0.38419080065E+03  0.53501778117E+03  0.25500000920E-02 0. -1.
       -2    1    3    3    0  502  0.36042642949E+03  0.93457176179E+02 -0.52573058299E+02  0.37603906887E+03  0.25500000920E-02 0.  1.
</event>
<event>
 5   0  0.1617491E-03  0.7852961E+03  0.7818609E-02  0.9581548E-01
       -1   -1    0    0    0  501  0.00000000000E+00  0.00000000000E+00  0.25692476937E+03  0.25692476941E+03  0.50400001928E-02 0.  1.
        1   -1    0    0  501    0  0.00000000000E+00  0.00000000000E+00 -0.60006863881E+03  0.60006863884E+03  0.50400001928E-02 0. -1.
    10030    2    1    2    0    0  0.00000000000E+00  0.00000000000E+00 -0.34314386945E+03  0.85699340825E+03  0.78529611399E+03 0.  0.
        1    1    3    3  502    0 -0.13874229949E+03 -0.31050940056E+03  0.42575945810E+02  0.34275096600E+03  0.50400001928E-02 0. -1.
       -1    1    3    3    0  502  0.13874229949E+03  0.31050940056E+03 -0.38571981526E+03  0.51424244225E+03  0.50400001928E-02 0.  1.
</event>
<event>
 5   0  0.1640035E-03  0.8000267E+03  0.7818609E-02  0.9559978E-01
        1   -1    0    0  501    0  0.00000000000E+00  0.00000000000E+00  0.12866289433E+04  0.12866289433E+04  0.50400001928E-02 0.  1.
       -1   -1    0    0    0  501  0.00000000000E+00  0.00000000000E+00 -0.12436428361E+03  0.12436428371E+03  0.50400001928E-02 0. -1.
    10030    2    1    2    0    0  0.00000000000E+00  0.00000000000E+00  0.11622646597E+04  0.14109932270E+04  0.80002671677E+03 0.  0.
        5    1    3    3  502    0 -0.16007743575E+03 -0.22149991838E+03  0.66023468309E+02  0.28119066066E+03  0.46999998093E+01 0. -1.
       -5    1    3    3    0  502  0.16007743575E+03  0.22149991838E+03  0.10962411914E+04  0.11298025664E+04  0.46999998093E+01 0.  1.
</event>
<event>
 5   0  0.2873212E-03  0.7994916E+03  0.7818609E-02  0.9560753E-01
       -2   -1    0    0    0  501  0.00000000000E+00  0.00000000000E+00  0.94311014697E+02  0.94311014731E+02  0.25500000920E-02 0. -1.
        2   -1    0    0  501    0  0.00000000000E+00  0.00000000000E+00 -0.16943589110E+04  0.16943589110E+04  0.25500000920E-02 0.  1.
    10030    2    1    2    0    0  0.00000000000E+00  0.00000000000E+00 -0.16000478963E+04  0.17886699257E+04  0.79949160894E+03 0.  0.
        2    1    3    3  502    0 -0.12165081756E+03  0.73707388169E+02  0.35780285929E+02  0.14666945610E+03  0.25500000920E-02 0. -1.
       -2    1    3    3    0  502  0.12165081756E+03 -0.73707388169E+02 -0.16358281822E+04  0.16420004696E+04  0.25500000920E-02 0.  1.
</event>
<event>
 5   0  0.2910501E-03  0.7993831E+03  0.7818609E-02  0.9560910E-01
        2   -1    0    0  501    0  0.00000000000E+00  0.00000000000E+00  0.22456021820E+04  0.22456021820E+04  0.25500000920E-02 0.  1.
       -2   -1    0    0    0  501  0.00000000000E+00  0.00000000000E+00 -0.71140530724E+02  0.71140530770E+02  0.25500000920E-02 0. -1.
    10030    2    1    2    0    0  0.00000000000E+00  0.00000000000E+00  0.21744616513E+04  0.23167427128E+04  0.79938308984E+03 0.  0.
        1    1    3    3  502    0 -0.30066590823E+03  0.22002094427E+03  0.15066555016E+04  0.15520373722E+04  0.50400001928E-02 0.  1.
       -1    1    3    3    0  502  0.30066590823E+03 -0.22002094427E+03  0.66780614976E+03  0.76470534062E+03  0.50400001928E-02 0. -1.
</event>
<event>
 5   0  0.2690809E-03  0.7984844E+03  0.7818609E-02  0.9562213E-01
        2   -1    0    0  501    0  0.00000000000E+00  0.00000000000E+00  0.67571952272E+03  0.67571952273E+03  0.25500000920E-02 0.  1.
       -2   -1    0    0    0  501  0.00000000000E+00  0.00000000000E+00 -0.23588833358E+03  0.23588833359E+03  0.25500000920E-02 0. -1.
    10030    2    1    2    0    0  0.00000000000E+00  0.00000000000E+00  0.43983118915E+03  0.91160785632E+03  0.79848444490E+03 0.  0.
        5    1    3    3  502    0  0.12996174700E+03 -0.63827104936E+02 -0.20482393103E+03  0.25087623987E+03  0.46999998093E+01 0. -1.
       -5    1    3    3    0  502 -0.12996174700E+03  0.63827104936E+02  0.64465512018E+03  0.66073161645E+03  0.46999998093E+01 0.  1.
</event>
<event>
 5   0  0.1095350E-03  0.7894641E+03  0.7818609E-02  0.9575394E-01
       -3   -1    0    0    0  501  0.00000000000E+00  0.00000000000E+00  0.17463509766E+03  0.17463512686E+03  0.10100000352E+00 0. -1.
        3   -1    0    0  501    0  0.00000000000E+00  0.00000000000E+00 -0.89222249770E+03  0.89222250342E+03  0.10100000352E+00 0.  1.
    10030    2    1    2    0    0  0.00000000000E+00  0.00000000000E+00 -0.71758740004E+03  0.10668576303E+04  0.78946407555E+03 0.  0.
        2    1    3    3  502    0 -0.39148768724E+03  0.42826291310E+02 -0.39497107802E+03  0.55776236245E+03  0.25500000920E-02 0. -1.
       -2    1    3    3    0  502  0.39148768724E+03 -0.42826291310E+02 -0.32261632202E+03  0.50909526783E+03  0.25500000920E-02 0.  1.
</event>
<event>
 5   0  0.1095350E-03  0.8008994E+03  0.7818609E-02  0.9558716E-01
        4   -1    0    0  501    0  0.00000000000E+00  0.00000000000E+00  0.22965564685E+03  0.22965915838E+03  0.12699999809E+01 0. -1.
       -4   -1    0    0    0  501  0.00000000000E+00  0.00000000000E+00 -0.69825322251E+03  0.69825437746E+03  0.12699999809E+01 0.  1.
    10030    2    1    2    0    0  0.00000000000E+00  0.00000000000E+00 -0.46859757566E+03  0.92791353584E+03  0.80089939573E+03 0.  0.
        4    1    3    3  502    0 -0.17225811469E+03  0.29753967663E+03  0.35808879872E+01  0.34382721373E+03  0.12699999809E+01 0. -1.
       -4    1    3    3    0  502  0.17225811469E+03 -0.29753967663E+03 -0.47217846365E+03  0.58408632211E+03  0.12699999809E+01 0.  1.
</event>
<event>
 5   0  0.2768834E-03  0.7918665E+03  0.7818609E-02  0.9571865E-01
        2   -1    0    0  501    0  0.00000000000E+00  0.00000000000E+00  0.68504060136E+03  0.68504060137E+03  0.25500000920E-02 0.  1.
       -2   -1    0    0    0  501  0.00000000000E+00  0.00000000000E+00 -0.22883772839E+03  0.22883772840E+03  0.25500000920E-02 0. -1.
    10030    2    1    2    0    0  0.00000000000E+00  0.00000000000E+00  0.45620287298E+03  0.91387832977E+03  0.79186649147E+03 0.  0.
        4    1    3    3  502    0  0.29964154901E+03  0.18484526676E+03  0.19060727668E+02  0.35258723003E+03  0.12699999809E+01 0. -1.
       -4    1    3    3    0  502 -0.29964154901E+03 -0.18484526676E+03  0.43714214531E+03  0.56129109974E+03  0.12699999809E+01 0.  1.
</event>
<event>
 5   0  0.2910501E-03  0.8001489E+03  0.7818609E-02  0.9559802E-01
       -2   -1    0    0    0  501  0.00000000000E+00  0.00000000000E+00  0.14326749826E+03  0.14326749828E+03  0.25500000920E-02 0.  1.
        2   -1    0    0  501    0  0.00000000000E+00  0.00000000000E+00 -0.11172079059E+04  0.11172079059E+04  0.25500000920E-02 0. -1.
    10030    2    1    2    0    0  0.00000000000E+00  0.00000000000E+00 -0.97394040763E+03  0.12604754042E+04  0.80014894045E+03 0.  0.
        1    1    3    3  502    0  0.28323188762E+03 -0.20622042889E+03 -0.18267842686E+03  0.39511843177E+03  0.50400001928E-02 0.  1.
       -1    1    3    3    0  502 -0.28323188762E+03  0.20622042889E+03 -0.79126198077E+03  0.86535697241E+03  0.50400001928E-02 0. -1.
</event>
<event>
 5   0  0.1712793E-03  0.8004984E+03  0.7818609E-02  0.9559296E-01
       -1   -1    0    0    0  501  0.00000000000E+00  0.00000000000E+00  0.49280757141E+03  0.49280757144E+03  0.50400001928E-02 0.  1.
        1   -1    0    0  501    0  0.00000000000E+00  0.00000000000E+00 -0.32507497457E+03  0.32507497461E+03  0.50400001928E-02 0. -1.
    10030    2    1    2    0    0  0.00000000000E+00  0.00000000000E+00  0.16773259684E+03  0.81788254605E+03  0.80049836670E+03 0.  0.
        4    1    3    3  502    0 -0.14274646746E+03 -0.12216451959E+03  0.44494894651E+03  0.48299265183E+03  0.12699999809E+01 0.  1.
       -4    1    3    3    0  502  0.14274646746E+03  0.12216451959E+03 -0.27721634967E+03  0.33488989421E+03  0.12699999809E+01 0. -1.
</event>
<event>
 5   0  0.1640035E-03  0.7990520E+03  0.7818609E-02  0.9561390E-01
       -1   -1    0    0    0  501  0.00000000000E+00  0.00000000000E+00  0.12286098997E+03  0.12286099007E+03  0.50400001928E-02 0. -1.
        1   -1    0    0  501    0  0.00000000000E+00  0.00000000000E+00 -0.12992000762E+04  0.12992000762E+04  0.50400001928E-02 0.  1.
    10030    2    1    2    0    0  0.00000000000E+00  0.00000000000E+00 -0.11763390863E+04  0.14220610663E+04  0.79905195729E+03 0.  0.
        5    1    3    3  502    0 -0.63836378377E+01 -0.36275563291E+03 -0.29054933086E+03  0.46483696464E+03  0.46999998093E+01 0. -1.
       -5    1    3    3    0  502  0.63836378377E+01  0.36275563291E+03 -0.88578975541E+03  0.95722410167E+03  0.46999998093E+01 0.  1.
</event>
<event>
 5   0  0.2690809E-03  0.8009520E+03  0.7818609E-02  0.9558640E-01
        2   -1    0    0  501    0  0.00000000000E+00  0.00000000000E+00  0.67314674539E+03  0.67314674540E+03  0.25500000920E-02 0. -1.
       -2   -1    0    0    0  501  0.00000000000E+00  0.00000000000E+00 -0.23825566088E+03  0.23825566090E+03  0.25500000920E-02 0.  1.
    10030    2    1    2    0    0  0.00000000000E+00  0.00000000000E+00  0.43489108451E+03  0.91140240629E+03  0.80095199033E+03 0.  0.
        5    1    3    3  502    0  0.16849968194E+03  0.25806718935E+03 -0.73483226484E+02  0.31687961690E+03  0.46999998093E+01 0. -1.
       -5    1    3    3    0  502 -0.16849968194E+03 -0.25806718935E+03  0.50837431100E+03  0.59452278940E+03  0.46999998093E+01 0.  1.
</event>
<event>
 5   0  0.2690809E-03  0.8013467E+03  0.7818609E-02  0.9558070E-01
        2   -1    0    0  501    0  0.00000000000E+00  0.00000000000E+00  0.39751190365E+03  0.39751190366E+03  0.25500000920E-02 0.  1.
       -2   -1    0    0    0  501  0.00000000000E+00  0.00000000000E+00 -0.40385989247E+03  0.40385989248E+03  0.25500000920E-02 0. -1.
    10030    2    1    2    0    0  0.00000000000E+00  0.00000000000E+00 -0.63479888197E+01  0.80137179615E+03  0.80134665326E+03 0.  0.
        5    1    3    3  502    0  0.11393192911E+03  0.59448288962E+02  0.37631444766E+03  0.39767981725E+03  0.46999998093E+01 0.  1.
       -5    1    3    3    0  502 -0.11393192911E+03 -0.59448288962E+02 -0.38266243648E+03  0.40369197889E+03  0.46999998093E+01 0. -1.
</event>
<event>
 5   0  0.2690809E-03  0.8025882E+03  0.7818609E-02  0.9556278E-01
       -2   -1    0    0    0  501  0.00000000000E+00  0.00000000000E+00  0.17012460244E+03  0.17012460246E+03  0.25500000920E-02 0.  1.
        2   -1    0    0  501    0  0.00000000000E+00  0.00000000000E+00 -0.94658251239E+03  0.94658251240E+03  0.25500000920E-02 0. -1.
    10030    2    1    2    0    0  0.00000000000E+00  0.00000000000E+00 -0.77645790995E+03  0.11167071149E+04  0.80258824715E+03 0.  0.
        5    1    3    3  502    0  0.34744591590E+03  0.18348851402E+03 -0.27495142330E+03  0.47959052788E+03  0.46999998093E+01 0. -1.
       -5    1    3    3    0  502 -0.34744591590E+03 -0.18348851402E+03 -0.50150648665E+03  0.63711658698E+03  0.46999998093E+01 0.  1.
</event>
<event>
 5   0  0.2768834E-03  0.8099804E+03  0.7818609E-02  0.9545682E-01
       -2   -1    0    0    0  501  0.00000000000E+00  0.00000000000E+00  0.24040440503E+03  0.24040440504E+03  0.25500000920E-02 0. -1.
        2   -1    0    0  501    0  0.00000000000E+00  0.00000000000E+00 -0.68225487064E+03  0.68225487065E+03  0.25500000920E-02 0.  1.
    10030    2    1    2    0    0  0.00000000000E+00  0.00000000000E+00 -0.44185046561E+03  0.92265927569E+03  0.80998043498E+03 0.  0.
        4    1    3    3  502    0  0.59490267614E+02 -0.80546099719E+02 -0.66792906452E+03  0.67539441384E+03  0.12699999809E+01 0.  1.
       -4    1    3    3    0  502 -0.59490267614E+02  0.80546099719E+02  0.22607859891E+03  0.24726486185E+03  0.12699999809E+01 0. -1.
</event>
<event>
 5   0  0.2768834E-03  0.7996338E+03  0.7818609E-02  0.9560547E-01
       -2   -1    0    0    0  501  0.00000000000E+00  0.00000000000E+00  0.36097232894E+03  0.36097232894E+03  0.25500000920E-02 0.  1.
        2   -1    0    0  501    0  0.00000000000E+00  0.00000000000E+00 -0.44284152069E+03  0.44284152069E+03  0.25500000920E-02 0. -1.
    10030    2    1    2    0    0  0.00000000000E+00  0.00000000000E+00 -0.81869191750E+02  0.80381384964E+03  0.79963375386E+03 0.  0.
        4    1    3    3  502    0  0.38295987935E+03  0.77640707505E+02 -0.12602681406E+03  0.41057364676E+03  0.12699999809E+01 0. -1.
       -4    1    3    3    0  502 -0.38295987935E+03 -0.77640707505E+02  0.44157622306E+02  0.39324020288E+03  0.12699999809E+01 0.  1.
</event>
<event>
 5   0  0.1640035E-03  0.8021744E+03  0.7818609E-02  0.9556875E-01
       -1   -1    0    0    0  501  0.00000000000E+00  0.00000000000E+00  0.26321742852E+03  0.26321742856E+03  0.50400001928E-02 0. -1.
        1   -1    0    0  501    0  0.00000000000E+00  0.00000000000E+00 -0.61117134360E+03  0.61117134362E+03  0.50400001928E-02 0.  1.
    10030    2    1    2    0    0  0.00000000000E+00  0.00000000000E+00 -0.34795391509E+03  0.87438877219E+03  0.80217441863E+03 0.  0.
        5    1    3    3  502    0  0.35064681857E+02 -0.33307934310E+03 -0.41446849683E+03  0.53289549217E+03  0.46999998093E+01 0.  1.
       -5    1    3    3    0  502 -0.35064681857E+02  0.33307934310E+03  0.66514581740E+02  0.34149328002E+03  0.46999998093E+01 0. -1.
</event>
<event>
 5   0  0.2763587E-03  0.7992919E+03  0.7818609E-02  0.9561043E-01
       -2   -1    0    0    0  501  0.00000000000E+00  0.00000000000E+00  0.15124191456E+03  0.15124191458E+03  0.25500000920E-02 0. -1.
        2   -1    0    0  501    0  0.00000000000E+00  0.00000000000E+00 -0.10560358002E+04  0.10560358002E+04  0.25500000920E-02 0.  1.
    10030    2    1    2    0    0  0.00000000000E+00  0.00000000000E+00 -0.90479388565E+03  0.12072777148E+04  0.79929187732E+03 0.  0.
        3    1    3    3  502    0 -0.98995182305E+02 -0.38353325358E+03 -0.53259321911E+03  0.66374193024E+03  0.10100000352E+00 0.  1.
       -3    1    3    3    0  502  0.98995182305E+02  0.38353325358E+03 -0.37220066654E+03  0.54353578456E+03  0.10100000352E+00 0. -1.
</event>
<event>
 5   0  0.2768834E-03  0.8087252E+03  0.7818609E-02  0.9547473E-01
       -2   -1    0    0    0  501  0.00000000000E+00  0.00000000000E+00  0.89928360203E+02  0.89928360239E+02  0.25500000920E-02 0.  1.
        2   -1    0    0  501    0  0.00000000000E+00  0.00000000000E+00 -0.18182153013E+04  0.18182153013E+04  0.25500000920E-02 0. -1.
    10030    2    1    2    0    0  0.00000000000E+00  0.00000000000E+00 -0.17282869411E+04  0.19081436616E+04  0.80872522053E+03 0.  0.
        4    1    3    3  502    0  0.23480944272E+03 -0.32658785564E+03 -0.96178024693E+03  0.10425056154E+04  0.12699999809E+01 0. -1.
       -4    1    3    3    0  502 -0.23480944272E+03  0.32658785564E+03 -0.76650669419E+03  0.86563804617E+03  0.12699999809E+01 0.  1.
</event>
<event>
 5   0  0.1617491E-03  0.7997185E+03  0.7818609E-02  0.9560425E-01
       -1   -1    0    0    0  501  0.00000000000E+00  0.00000000000E+00  0.33663403854E+03  0.33663403857E+03  0.50400001928E-02 0.  1.
        1   -1    0    0  501    0  0.00000000000E+00  0.00000000000E+00 -0.47495920279E+03  0.47495920282E+03  0.50400001928E-02 0. -1.
    10030    2    1    2    0    0  0.00000000000E+00  0.00000000000E+00 -0.13832516425E+03  0.81159324139E+03  0.79971853699E+03 0.  0.
        1    1    3    3  502    0  0.12902593249E+03 -0.12874995542E+03 -0.43034489408E+03  0.46735529329E+03  0.50400001928E-02 0. -1.
       -1    1    3    3    0  502 -0.12902593249E+03  0.12874995542E+03  0.29201972983E+03  0.34423794810E+03  0.50400001928E-02 0.  1.
</event>
<event>
 5   0  0.2690809E-03  0.8020763E+03  0.7818609E-02  0.9557017E-01
       -2   -1    0    0    0  501  0.00000000000E+00  0.00000000000E+00  0.30224257842E+03  0.30224257843E+03  0.25500000920E-02 0. -1.
        2   -1    0    0  501    0  0.00000000000E+00  0.00000000000E+00 -0.53212759525E+03  0.53212759526E+03  0.25500000920E-02 0.  1.
    10030    2    1    2    0    0  0.00000000000E+00  0.00000000000E+00 -0.22988501683E+03  0.83437017368E+03  0.80207634660E+03 0.  0.
        5    1    3    3  502    0  0.36242313212E+03  0.11662100093E+02 -0.29307667500E+03  0.46626447292E+03  0.46999998093E+01 0.  1.
       -5    1    3    3    0  502 -0.36242313212E+03 -0.11662100093E+02  0.63191658166E+02  0.36810570077E+03  0.46999998093E+01 0. -1.
</event>
<event>
 5   0  0.2873212E-03  0.7998946E+03  0.7818609E-02  0.9560170E-01
        2   -1    0    0  501    0  0.00000000000E+00  0.00000000000E+00  0.13206662780E+04  0.13206662781E+04  0.25500000920E-02 0.  1.
       -2   -1    0    0    0  501  0.00000000000E+00  0.00000000000E+00 -0.12111903702E+03  0.12111903705E+03  0.25500000920E-02 0. -1.
    10030    2    1    2    0    0  0.00000000000E+00  0.00000000000E+00  0.11995472410E+04  0.14417853151E+04  0.79989456266E+03 0.  0.
        2    1    3    3  502    0  0.44487097495E+02  0.27829643496E+03  0.11112743037E+04  0.11464547900E+04  0.25500000920E-02 0.  1.
       -2    1    3    3    0  502 -0.44487097495E+02 -0.27829643496E+03  0.88272937331E+02  0.29533052505E+03  0.25500000920E-02 0. -1.
</event>
<event>
 5   0  0.1617491E-03  0.7982919E+03  0.7818609E-02  0.9562493E-01
        1   -1    0    0  501    0  0.00000000000E+00  0.00000000000E+00  0.12361505677E+04  0.12361505677E+04  0.50400001928E-02 0.  1.
       -1   -1    0    0    0  501  0.00000000000E+00  0.00000000000E+00 -0.12888194959E+03  0.12888194969E+03  0.50400001928E-02 0. -1.
    10030    2    1    2    0    0  0.00000000000E+00  0.00000000000E+00  0.11072686181E+04  0.13650325174E+04  0.79829191461E+03 0.  0.
        1    1    3    3  502    0 -0.10943819592E+03  0.17012286235E+03  0.11420107326E+04  0.11597874893E+04  0.50400001928E-02 0.  1.
       -1    1    3    3    0  502  0.10943819592E+03 -0.17012286235E+03 -0.34742114459E+02  0.20524502810E+03  0.50400001928E-02 0. -1.
</event>
<event>
 5   0  0.2690809E-03  0.7999354E+03  0.7818609E-02  0.9560111E-01
       -2   -1    0    0    0  501  0.00000000000E+00  0.00000000000E+00  0.34717464250E+03  0.34717464251E+03  0.25500000920E-02 0. -1.
        2   -1    0    0  501    0  0.00000000000E+00  0.00000000000E+00 -0.46078872689E+03  0.46078872690E+03  0.25500000920E-02 0.  1.
    10030    2    1    2    0    0  0.00000000000E+00  0.00000000000E+00 -0.11361408439E+03  0.80796336941E+03  0.79993540122E+03 0.  0.
        5    1    3    3  502    0 -0.12299960415E+03 -0.21654811768E+03  0.25927135394E+03  0.35953541531E+03  0.46999998093E+01 0. -1.
       -5    1    3    3    0  502  0.12299960415E+03  0.21654811768E+03 -0.37288543833E+03  0.44842795409E+03  0.46999998093E+01 0.  1.
</event>
<event>
 5   0  0.1095350E-03  0.7970603E+03  0.7818609E-02  0.9564282E-01
        4   -1    0    0  501    0  0.00000000000E+00  0.00000000000E+00  0.44089751201E+03  0.44089934111E+03  0.12699999809E+01 0. -1.
       -4   -1    0    0    0  501  0.00000000000E+00  0.00000000000E+00 -0.36023031763E+03  0.36023255633E+03  0.12699999809E+01 0.  1.
    10030    2    1    2    0    0  0.00000000000E+00  0.00000000000E+00  0.80667194375E+02  0.80113189745E+03  0.79706029939E+03 0.  0.
        2    1    3    3  502    0  0.17878918006E+03  0.34667834391E+03 -0.41783411082E+02  0.39229746174E+03  0.25500000920E-02 0.  1.
       -2    1    3    3    0  502 -0.17878918006E+03 -0.34667834391E+03  0.12245060546E+03  0.40883443571E+03  0.25500000920E-02 0. -1.
</event>
<event>
 5   0  0.2763587E-03  0.7799206E+03  0.7818609E-02  0.9589545E-01
       -2   -1    0    0    0  501  0.00000000000E+00  0.00000000000E+00  0.14982944473E+03  0.14982944475E+03  0.25500000920E-02 0. -1.
        2   -1    0    0  501    0  0.00000000000E+00  0.00000000000E+00 -0.10149475685E+04  0.10149475685E+04  0.25500000920E-02 0.  1.
    10030    2    1    2    0    0  0.00000000000E+00  0.00000000000E+00 -0.86511812379E+03  0.11647770133E+04  0.77992058733E+03 0.  0.
        3    1    3    3  502    0 -0.24935791058E+03 -0.28957763940E+03 -0.31654489542E+03  0.49622097681E+03  0.10100000352E+00 0. -1.
       -3    1    3    3    0  502  0.24935791058E+03  0.28957763940E+03 -0.54857322838E+03  0.66855603647E+03  0.10100000352E+00 0.  1.
</event>
<event>
 5   0  0.1095350E-03  0.8031761E+03  0.7818609E-02  0.9555431E-01
       -4   -1    0    0    0  501  0.00000000000E+00  0.00000000000E+00  0.84612398564E+03  0.84612493875E+03  0.12699999809E+01 0.  1.
        4   -1    0    0  501    0  0.00000000000E+00  0.00000000000E+00 -0.19059887218E+03  0.19060310327E+03  0.12699999809E+01 0. -1.
    10030    2    1    2    0    0  0.00000000000E+00  0.00000000000E+00  0.65552511347E+03  0.10367280420E+04  0.80317610692E+03 0.  0.
        5    1    3    3  502    0 -0.49381821135E+02  0.28188901406E+03  0.69136766650E+03  0.74827222372E+03  0.46999998093E+01 0.  1.
       -5    1    3    3    0  502  0.49381821135E+02 -0.28188901406E+03 -0.35842553031E+02  0.28845581831E+03  0.46999998093E+01 0. -1.
</event>
<event>
 5   0  0.1640035E-03  0.7987917E+03  0.7818609E-02  0.9561768E-01
        1   -1    0    0  501    0  0.00000000000E+00  0.00000000000E+00  0.17207602309E+04  0.17207602309E+04  0.50400001928E-02 0.  1.
       -1   -1    0    0    0  501  0.00000000000E+00  0.00000000000E+00 -0.92701495905E+02  0.92701496042E+02  0.50400001928E-02 0. -1.
    10030    2    1    2    0    0  0.00000000000E+00  0.00000000000E+00  0.16280587349E+04  0.18134617269E+04  0.79879170658E+03 0.  0.
        5    1    3    3  502    0 -0.52494703368E+02  0.60974864641E+02  0.17021067972E+04  0.17040138694E+04  0.46999998093E+01 0.  1.
       -5    1    3    3    0  502  0.52494703368E+02 -0.60974864641E+02 -0.74048062233E+02  0.10944785753E+03  0.46999998093E+01 0. -1.
</event>
<event>
 5   0  0.2873212E-03  0.8005694E+03  0.7818609E-02  0.9559193E-01
       -2   -1    0    0    0  501  0.00000000000E+00  0.00000000000E+00  0.68330092929E+02  0.68330092977E+02  0.25500000920E-02 0. -1.
        2   -1    0    0  501    0  0.00000000000E+00  0.00000000000E+00 -0.23449086403E+04  0.23449086403E+04  0.25500000920E-02 0.  1.
    10030    2    1    2    0    0  0.00000000000E+00  0.00000000000E+00 -0.22765785473E+04  0.24132387332E+04  0.80056936079E+03 0.  0.
        2    1    3    3  502    0 -0.11400670075E+03  0.33217795464E+03 -0.17172438473E+04  0.17527881083E+04  0.25500000920E-02 0.  1.
       -2    1    3    3    0  502  0.11400670075E+03 -0.33217795464E+03 -0.55933469999E+03  0.66045062494E+03  0.25500000920E-02 0. -1.
</event>
<event>
 5   0  0.2910501E-03  0.7980194E+03  0.7818609E-02  0.9562888E-01
       -2   -1    0    0    0  501  0.00000000000E+00  0.00000000000E+00  0.10964173793E+03  0.10964173796E+03  0.25500000920E-02 0. -1.
        2   -1    0    0  501    0  0.00000000000E+00  0.00000000000E+00 -0.14520815617E+04  0.14520815617E+04  0.25500000920E-02 0.  1.
    10030    2    1    2    0    0  0.00000000000E+00  0.00000000000E+00 -0.13424398238E+04  0.15617232996E+04  0.79801941344E+03 0.  0.
        1    1    3    3  502    0  0.25964639008E+03 -0.22829987757E+03 -0.10610100454E+04  0.11159208746E+04  0.50400001928E-02 0.  1.
       -1    1    3    3    0  502 -0.25964639008E+03  0.22829987757E+03 -0.28142977840E+03  0.44580242505E+03  0.50400001928E-02 0. -1.
</event>
<event>
 5   0  0.1637228E-03  0.8047086E+03  0.7818609E-02  0.9553226E-01
       -1   -1    0    0    0  501  0.00000000000E+00  0.00000000000E+00  0.44601501097E+03  0.44601501100E+03  0.50400001928E-02 0.  1.
        1   -1    0    0  501    0  0.00000000000E+00  0.00000000000E+00 -0.36296760865E+03  0.36296760869E+03  0.50400001928E-02 0. -1.
    10030    2    1    2    0    0  0.00000000000E+00  0.00000000000E+00  0.83047402322E+02  0.80898261969E+03  0.80470864785E+03 0.  0.
        2    1    3    3  502    0  0.29193081804E+02 -0.33226307526E+03 -0.18470039319E+03  0.38126791428E+03  0.25500000920E-02 0. -1.
       -2    1    3    3    0  502 -0.29193081804E+02  0.33226307526E+03  0.26774779552E+03  0.42771470540E+03  0.25500000920E-02 0.  1.
</event>
<event>
 5   0  0.1656051E-03  0.7858446E+03  0.7818609E-02  0.9580736E-01
       -1   -1    0    0    0  501  0.00000000000E+00  0.00000000000E+00  0.28662476170E+03  0.28662476175E+03  0.50400001928E-02 0. -1.
        1   -1    0    0  501    0  0.00000000000E+00  0.00000000000E+00 -0.53864127798E+03  0.53864127801E+03  0.50400001928E-02 0.  1.
    10030    2    1    2    0    0  0.00000000000E+00  0.00000000000E+00 -0.25201651628E+03  0.82526603975E+03  0.78584458507E+03 0.  0.
        3    1    3    3  502    0  0.20061748147E+03  0.31266433585E+03 -0.26041928453E+03  0.45367893355E+03  0.10100000352E+00 0.  1.
       -3    1    3    3    0  502 -0.20061748147E+03 -0.31266433585E+03  0.84027682536E+01  0.37158710621E+03  0.10100000352E+00 0. -1.
</event>
<event>
 5   0  0.2873212E-03  0.7989536E+03  0.7818609E-02  0.9561533E-01
        2   -1    0    0  501    0  0.00000000000E+00  0.00000000000E+00  0.19064620983E+04  0.19064620983E+04  0.25500000920E-02 0.  1.
       -2   -1    0    0    0  501  0.00000000000E+00  0.00000000000E+00 -0.83705688270E+02  0.83705688309E+02  0.25500000920E-02 0. -1.
    10030    2    1    2    0    0  0.00000000000E+00  0.00000000000E+00  0.18227564100E+04  0.19901677866E+04  0.79895362102E+03 0.  0.
        2    1    3    3  502    0  0.21336075584E+03  0.32539517339E+03  0.68612953740E+03  0.78878296958E+03  0.25500000920E-02 0. -1.
       -2    1    3    3    0  502 -0.21336075584E+03 -0.32539517339E+03  0.11366268726E+04  0.12013848170E+04  0.25500000920E-02 0.  1.
</event>
<event>
 5   0  0.1617491E-03  0.8003712E+03  0.7818609E-02  0.9559480E-01
       -1   -1    0    0    0  501  0.00000000000E+00  0.00000000000E+00  0.20363772803E+03  0.20363772809E+03  0.50400001928E-02 0.  1.
        1   -1    0    0  501    0  0.00000000000E+00  0.00000000000E+00 -0.78643829698E+03  0.78643829699E+03  0.50400001928E-02 0. -1.
    10030    2    1    2    0    0  0.00000000000E+00  0.00000000000E+00 -0.58280056895E+03  0.99007602509E+03  0.80037118407E+03 0.  0.
        1    1    3    3  502    0  0.28440737932E+03 -0.12424468041E+03 -0.60391453364E+03  0.67899710013E+03  0.50400001928E-02 0. -1.
       -1    1    3    3    0  502 -0.28440737932E+03  0.12424468041E+03  0.21113964696E+02  0.31107892495E+03  0.50400001928E-02 0.  1.
</event>
<event>
 5   0  0.1617491E-03  0.8013073E+03  0.7818609E-02  0.9558127E-01
        1   -1    0    0  501    0  0.00000000000E+00  0.00000000000E+00  0.11428680352E+04  0.11428680352E+04  0.50400001928E-02 0.  1.
       -1   -1    0    0    0  501  0.00000000000E+00  0.00000000000E+00 -0.14045658563E+03  0.14045658572E+03  0.50400001928E-02 0. -1.
    10030    2    1    2    0    0  0.00000000000E+00  0.00000000000E+00  0.10024114496E+04  0.12833246210E+04  0.80130728718E+03 0.  0.
        1    1    3    3  502    0 -0.19633263491E+03  0.81933975409E+02  0.10449361575E+04  0.10663729428E+04  0.50400001928E-02 0.  1.
       -1    1    3    3    0  502  0.19633263491E+03 -0.81933975409E+02 -0.42524707893E+02  0.21695167817E+03  0.50400001928E-02 0. -1.
</event>
<event>
 5   0  0.1637228E-03  0.7996494E+03  0.7818609E-02  0.9560525E-01
       -1   -1    0    0    0  501  0.00000000000E+00  0.00000000000E+00  0.28953800877E+03  0.28953800881E+03  0.50400001928E-02 0.  1.
        1   -1    0    0  501    0  0.00000000000E+00  0.00000000000E+00 -0.55212018472E+03  0.55212018474E+03  0.50400001928E-02 0. -1.
    10030    2    1    2    0    0  0.00000000000E+00  0.00000000000E+00 -0.26258217595E+03  0.84165819355E+03  0.79964937044E+03 0.  0.
        2    1    3    3  502    0 -0.18820771365E+03 -0.15721627733E+03  0.20108423040E+03  0.31713399228E+03  0.25500000920E-02 0.  1.
       -2    1    3    3    0  502  0.18820771365E+03  0.15721627733E+03 -0.46366640636E+03  0.52452420128E+03  0.25500000920E-02 0. -1.
</event>
<event>
 5   0  0.2768834E-03  0.7968353E+03  0.7818609E-02  0.9564609E-01
       -2   -1    0    0    0  501  0.00000000000E+00  0.00000000000E+00  0.17630931340E+03  0.17630931342E+03  0.25500000920E-02 0.  1.
        2   -1    0    0  501    0  0.00000000000E+00  0.00000000000E+00 -0.90033039833E+03  0.90033039834E+03  0.25500000920E-02 0. -1.
    10030    2    1    2    0    0  0.00000000000E+00  0.00000000000E+00 -0.72402108493E+03  0.10766397118E+04  0.79683532647E+03 0.  0.
        4    1    3    3  502    0  0.20540295713E+03  0.23826090401E+03 -0.69235471556E+03  0.76047044534E+03  0.12699999809E+01 0. -1.
       -4    1    3    3    0  502 -0.20540295713E+03 -0.23826090401E+03 -0.31666369365E+02  0.31616926642E+03  0.12699999809E+01 0.  1.
</event>
<event>
 5   0  0.1095350E-03  0.8003872E+03  0.7818609E-02  0.9559457E-01
        4   -1    0    0  501    0  0.00000000000E+00  0.00000000000E+00  0.22789132097E+03  0.22789485969E+03  0.12699999809E+01 0.  1.
       -4   -1    0    0    0  501  0.00000000000E+00  0.00000000000E+00 -0.70275933110E+03  0.70276047865E+03  0.12699999809E+01 0. -1.
    10030    2    1    2    0    0  0.00000000000E+00  0.00000000000E+00 -0.47486801013E+03  0.93065533834E+03  0.80038723861E+03 0.  0.
        2    1    3    3  502    0 -0.27675916450E+03 -0.27022487195E+03 -0.11807257035E+03  0.40442335298E+03  0.25500000920E-02 0.  1.
       -2    1    3    3    0  502  0.27675916450E+03  0.27022487195E+03 -0.35679543978E+03  0.52623198536E+03  0.25500000920E-02 0. -1.
</event>
<event>
 5   0  0.2768834E-03  0.7980153E+03  0.7818609E-02  0.9562894E-01
       -2   -1    0    0    0  501  0.00000000000E+00  0.00000000000E+00  0.13630884186E+03  0.13630884188E+03  0.25500000920E-02 0.  1.
        2   -1    0    0  501    0  0.00000000000E+00  0.00000000000E+00 -0.11679881811E+04  0.11679881811E+04  0.25500000920E-02 0. -1.
    10030    2    1    2    0    0  0.00000000000E+00  0.00000000000E+00 -0.10316793393E+04  0.13042970230E+04  0.79801532891E+03 0.  0.
        4    1    3    3  502    0  0.10229601121E+03 -0.15489548641E+02  0.11400014348E+03  0.15395468697E+03  0.12699999809E+01 0.  1.
       -4    1    3    3    0  502 -0.10229601121E+03  0.15489548641E+02 -0.11456794827E+04  0.11503423361E+04  0.12699999809E+01 0. -1.
</event>
<event>
 5   0  0.2910501E-03  0.8017562E+03  0.7818609E-02  0.9557479E-01
       -2   -1    0    0    0  501  0.00000000000E+00  0.00000000000E+00  0.91658910050E+03  0.91658910050E+03  0.25500000920E-02 0. -1.
        2   -1    0    0  501    0  0.00000000000E+00  0.00000000000E+00 -0.17532746757E+03  0.17532746759E+03  0.25500000920E-02 0.  1.
    10030    2    1    2    0    0  0.00000000000E+00  0.00000000000E+00  0.74126163293E+03  0.10919165681E+04  0.80175618688E+03 0.  0.
        1    1    3    3  502    0 -0.17236812704E+03 -0.29453052864E+03  0.65709842112E+03  0.74043050895E+03  0.50400001928E-02 0. -1.
       -1    1    3    3    0  502  0.17236812704E+03  0.29453052864E+03  0.84163211809E+02  0.35148605914E+03  0.50400001928E-02 0.  1.
</event>
<event>
 5   0  0.2690809E-03  0.8001979E+03  0.7818609E-02  0.9559731E-01
       -2   -1    0    0    0  501  0.00000000000E+00  0.00000000000E+00  0.24611384581E+03  0.24611384582E+03  0.25500000920E-02 0. -1.
        2   -1    0    0  501    0  0.00000000000E+00  0.00000000000E+00 -0.65042728505E+03  0.65042728506E+03  0.25500000920E-02 0.  1.
    10030    2    1    2    0    0  0.00000000000E+00  0.00000000000E+00 -0.40431343925E+03  0.89654113088E+03  0.80019787691E+03 0.  0.
        5    1    3    3  502    0  0.28452785432E+03  0.21008681477E+03  0.73444686848E+01  0.35379174785E+03  0.46999998093E+01 0. -1.
       -5    1    3    3    0  502 -0.28452785432E+03 -0.21008681477E+03 -0.41165790793E+03  0.54274938304E+03  0.46999998093E+01 0.  1.
</event>
<event>
 5   0  0.2763587E-03  0.7997003E+03  0.7818609E-02  0.9560451E-01
       -2   -1    0    0    0  501  0.00000000000E+00  0.00000000000E+00  0.12994616100E+03  0.12994616103E+03  0.25500000920E-02 0. -1.
        2   -1    0    0  501    0  0.00000000000E+00  0.00000000000E+00 -0.12303567689E+04  0.12303567689E+04  0.25500000920E-02 0.  1.
    10030    2    1    2    0    0  0.00000000000E+00  0.00000000000E+00 -0.11004106079E+04  0.13603029300E+04  0.79970029086E+03 0.  0.
        3    1    3    3  502    0 -0.76001933318E+02  0.26162964283E+03 -0.52374681188E+02  0.27743374219E+03  0.10100000352E+00 0. -1.
       -3    1    3    3    0  502  0.76001933318E+02 -0.26162964283E+03 -0.10480359267E+04  0.10828691878E+04  0.10100000352E+00 0.  1.
</event>
<event>
 5   0  0.2768834E-03  0.8013399E+03  0.7818609E-02  0.9558080E-01
       -2   -1    0    0    0  501  0.00000000000E+00  0.00000000000E+00  0.16771246616E+03  0.16771246618E+03  0.25500000920E-02 0.  1.
        2   -1    0    0  501    0  0.00000000000E+00  0.00000000000E+00 -0.95721204306E+03  0.95721204307E+03  0.25500000920E-02 0. -1.
    10030    2    1    2    0    0  0.00000000000E+00  0.00000000000E+00 -0.78949957691E+03  0.11249245092E+04  0.80133985896E+03 0.  0.
        4    1    3    3  502    0 -0.25111262178E+03 -0.45686739921E+01  0.43489916288E+02  0.25489489465E+03  0.12699999809E+01 0.  1.
       -4    1    3    3    0  502  0.25111262178E+03  0.45686739921E+01 -0.83298949319E+03  0.87002961459E+03  0.12699999809E+01 0. -1.
</event>
<event>
 5   0  0.1656051E-03  0.8085664E+03  0.7818609E-02  0.9547700E-01
        1   -1    0    0  501    0  0.00000000000E+00  0.00000000000E+00  0.10146454026E+04  0.10146454026E+04  0.50400001928E-02 0. -1.
       -1   -1    0    0    0  501  0.00000000000E+00  0.00000000000E+00 -0.16108575790E+03  0.16108575798E+03  0.50400001928E-02 0.  1.
    10030    2    1    2    0    0  0.00000000000E+00  0.00000000000E+00  0.85355964468E+03  0.11757311606E+04  0.80856644435E+03 0.  0.
        3    1    3    3  502    0  0.29190836358E+02 -0.29511423786E+03  0.27233693717E+02  0.29780228775E+03  0.10100000352E+00 0.  1.
       -3    1    3    3    0  502 -0.29190836358E+02  0.29511423786E+03  0.82632595097E+03  0.87792887283E+03  0.10100000352E+00 0. -1.
</event>
<event>
 5   0  0.1637228E-03  0.8007870E+03  0.7818609E-02  0.9558879E-01
       -1   -1    0    0    0  501  0.00000000000E+00  0.00000000000E+00  0.22763852100E+03  0.22763852106E+03  0.50400001928E-02 0. -1.
        1   -1    0    0  501    0  0.00000000000E+00  0.00000000000E+00 -0.70425238459E+03  0.70425238461E+03  0.50400001928E-02 0.  1.
    10030    2    1    2    0    0  0.00000000000E+00  0.00000000000E+00 -0.47661386359E+03  0.93189090566E+03  0.80078704104E+03 0.  0.
        2    1    3    3  502    0  0.25928000514E+03 -0.30318433866E+03 -0.19853384030E+03  0.44560357946E+03  0.25500000920E-02 0. -1.
       -2    1    3    3    0  502 -0.25928000514E+03  0.30318433866E+03 -0.27808002329E+03  0.48628732621E+03  0.25500000920E-02 0.  1.
</event>
<event>
 5   0  0.1656051E-03  0.7998072E+03  0.7818609E-02  0.9560296E-01
       -1   -1    0    0    0  501  0.00000000000E+00  0.00000000000E+00  0.18384427345E+03  0.18384427352E+03  0.50400001928E-02 0.  1.
        1   -1    0    0  501    0  0.00000000000E+00  0.00000000000E+00 -0.86988228057E+03  0.86988228059E+03  0.50400001928E-02 0. -1.
    10030    2    1    2    0    0  0.00000000000E+00  0.00000000000E+00 -0.68603800712E+03  0.10537265541E+04  0.79980716652E+03 0.  0.
        3    1    3    3  502    0  0.14821029787E+03  0.19986160973E+03 -0.75547921505E+03  0.79539915138E+03  0.10100000352E+00 0. -1.
       -3    1    3    3    0  502 -0.14821029787E+03 -0.19986160973E+03  0.69441207933E+02  0.25832740273E+03  0.10100000352E+00 0.  1.
</event>
<event>
 5   0  0.2768834E-03  0.7996327E+03  0.7818609E-02  0.9560549E-01
       -2   -1    0    0    0  501  0.00000000000E+00  0.00000000000E+00  0.16724034337E+03  0.16724034339E+03  0.25500000920E-02 0. -1.
        2   -1    0    0  501    0  0.00000000000E+00  0.00000000000E+00 -0.95582872259E+03  0.95582872259E+03  0.25500000920E-02 0.  1.
    10030    2    1    2    0    0  0.00000000000E+00  0.00000000000E+00 -0.78858837922E+03  0.11230690660E+04  0.79963272515E+03 0.  0.
        4    1    3    3  502    0 -0.26319341799E+03  0.13579919022E+03 -0.17067932568E+02  0.29665657344E+03  0.12699999809E+01 0. -1.
       -4    1    3    3    0  502  0.26319341799E+03 -0.13579919022E+03 -0.77152044665E+03  0.82641249255E+03  0.12699999809E+01 0.  1.
</event>
<event>
 5   0  0.1617491E-03  0.8013288E+03  0.7818609E-02  0.9558096E-01
        1   -1    0    0  501    0  0.00000000000E+00  0.00000000000E+00  0.17420982622E+04  0.17420982623E+04  0.50400001928E-02 0.  1.
       -1   -1    0    0    0  501  0.00000000000E+00  0.00000000000E+00 -0.92148629044E+02  0.92148629182E+02  0.50400001928E-02 0. -1.
    10030    2    1    2    0    0  0.00000000000E+00  0.00000000000E+00  0.16499496332E+04  0.18342468914E+04  0.80132881306E+03 0.  0.
        1    1    3    3  502    0  0.33402325398E+03 -0.13709546771E+03  0.42741671638E+03  0.55951027778E+03  0.50400001928E-02 0. -1.
       -1    1    3    3    0  502 -0.33402325398E+03  0.13709546771E+03  0.12225329168E+04  0.12747366137E+04  0.50400001928E-02 0.  1.
</event>
<event>
 5   0  0.1640035E-03  0.7991866E+03  0.7818609E-02  0.9561195E-01
       -1   -1    0    0    0  501  0.00000000000E+00  0.00000000000E+00  0.51486004727E+03  0.51486004730E+03  0.50400001928E-02 0.  1.
        1   -1    0    0  501    0  0.00000000000E+00  0.00000000000E+00 -0.31013247723E+03  0.31013247728E+03  0.50400001928E-02 0. -1.
    10030    2    1    2    0    0  0.00000000000E+00  0.00000000000E+00  0.20472757004E+03  0.82499252457E+03  0.79918664132E+03 0.  0.
        5    1    3    3  502    0 -0.38266317901E+03 -0.69658974790E+02  0.79261542511E+01  0.38906091458E+03  0.46999998093E+01 0. -1.
       -5    1    3    3    0  502  0.38266317901E+03  0.69658974790E+02  0.19680141579E+03  0.43593160999E+03  0.46999998093E+01 0.  1.
</event>
<event>
 5   0  0.1617491E-03  0.8019280E+03  0.7818609E-02  0.9557231E-01
       -1   -1    0    0    0  501  0.00000000000E+00  0.00000000000E+00  0.11714096543E+03  0.11714096554E+03  0.50400001928E-02 0. -1.
        1   -1    0    0  501    0  0.00000000000E+00  0.00000000000E+00 -0.13724672826E+04  0.13724672826E+04  0.50400001928E-02 0.  1.
    10030    2    1    2    0    0  0.00000000000E+00  0.00000000000E+00 -0.12553263172E+04  0.14896082481E+04  0.80192803316E+03 0.  0.
        1    1    3    3  502    0 -0.29818678544E+03  0.14794836721E+03 -0.21243869247E+03  0.39488514337E+03  0.50400001928E-02 0. -1.
       -1    1    3    3    0  502  0.29818678544E+03 -0.14794836721E+03 -0.10428876247E+04  0.10947231048E+04  0.50400001928E-02 0.  1.
</event>
<event>
 5   0  0.1637228E-03  0.8005335E+03  0.7818609E-02  0.9559245E-01
       -1   -1    0    0    0  501  0.00000000000E+00  0.00000000000E+00  0.87294794699E+02  0.87294794845E+02  0.50400001928E-02 0. -1.
        1   -1    0    0  501    0  0.00000000000E+00  0.00000000000E+00 -0.18353152624E+04  0.18353152624E+04  0.50400001928E-02 0.  1.
    10030    2    1    2    0    0  0.00000000000E+00  0.00000000000E+00 -0.17480204677E+04  0.19226100573E+04  0.80053349509E+03 0.  0.
        2    1    3    3  502    0 -0.14037115674E+03 -0.15441107648E+03 -0.16943334879E+04  0.17071358500E+04  0.25500000920E-02 0.  1.
       -2    1    3    3    0  502  0.14037115674E+03  0.15441107648E+03 -0.53686979829E+02  0.21547420726E+03  0.25500000920E-02 0. -1.
</event>
<event>
 5   0  0.2690809E-03  0.7976600E+03  0.7818609E-02  0.9563410E-01
       -2   -1    0    0    0  501  0.00000000000E+00  0.00000000000E+00  0.26425097721E+03  0.26425097722E+03  0.25500000920E-02 0. -1.
        2   -1    0    0  501    0  0.00000000000E+00  0.00000000000E+00 -0.60194810982E+03  0.60194810982E+03  0.25500000920E-02 0.  1.
    10030    2    1    2    0    0  0.00000000000E+00  0.00000000000E+00 -0.33769713261E+03  0.86619908704E+03  0.79766001844E+03 0.  0.
        5    1    3    3  502    0  0.69182562912E+02  0.19688833216E+03 -0.53789068174E+03  0.57697462497E+03  0.46999998093E+01 0.  1.
       -5    1    3    3    0  502 -0.69182562912E+02 -0.19688833216E+03  0.20019354913E+03  0.28922446208E+03  0.46999998093E+01 0. -1.
</event>
<event>
 5   0  0.2768834E-03  0.8002836E+03  0.7818609E-02  0.9559607E-01
        2   -1    0    0  501    0  0.00000000000E+00  0.00000000000E+00  0.76261218792E+03  0.76261218793E+03  0.25500000920E-02 0. -1.
       -2   -1    0    0    0  501  0.00000000000E+00  0.00000000000E+00 -0.20995397728E+03  0.20995397730E+03  0.25500000920E-02 0.  1.
    10030    2    1    2    0    0  0.00000000000E+00  0.00000000000E+00  0.55265821064E+03  0.97256616522E+03  0.80028360470E+03 0.  0.
        4    1    3    3  502    0  0.27294947832E+03 -0.27978338297E+03  0.17227067189E+03  0.42715214666E+03  0.12699999809E+01 0. -1.
       -4    1    3    3    0  502 -0.27294947832E+03  0.27978338297E+03  0.38038753875E+03  0.54541401856E+03  0.12699999809E+01 0.  1.
</event>
<event>
 5   0  0.1656051E-03  0.8123246E+03  0.7818609E-02  0.9542347E-01
        1   -1    0    0  501    0  0.00000000000E+00  0.00000000000E+00  0.27415898104E+04  0.27415898104E+04  0.50400001928E-02 0. -1.
       -1   -1    0    0    0  501  0.00000000000E+00  0.00000000000E+00 -0.60172310693E+02  0.60172310904E+02  0.50400001928E-02 0.  1.
    10030    2    1    2    0    0  0.00000000000E+00  0.00000000000E+00  0.26814174997E+04  0.28017621213E+04  0.81232455132E+03 0.  0.
        3    1    3    3  502    0 -0.10489582162E+02  0.29524916079E+03  0.23020380557E+04  0.23209182059E+04  0.10100000352E+00 0. -1.
       -3    1    3    3    0  502  0.10489582162E+02 -0.29524916079E+03  0.37937944404E+03  0.48084391547E+03  0.10100000352E+00 0.  1.
</event>
<event>
 5   0  0.1637228E-03  0.7992477E+03  0.7818609E-02  0.9561107E-01
        1   -1    0    0  501    0  0.00000000000E+00  0.00000000000E+00  0.95345343890E+03  0.95345343892E+03  0.50400001928E-02 0.  1.
       -1   -1    0    0    0  501  0.00000000000E+00  0.00000000000E+00 -0.16749558383E+03  0.16749558391E+03  0.50400001928E-02 0. -1.
    10030    2    1    2    0    0  0.00000000000E+00  0.00000000000E+00  0.78595785508E+03  0.11209490228E+04  0.79924774746E+03 0.  0.
        2    1    3    3  502    0 -0.95808809334E+02  0.27111107330E+03  0.78220554251E+03  0.83338229688E+03  0.25500000920E-02 0.  1.
       -2    1    3    3    0  502  0.95808809334E+02 -0.27111107330E+03  0.37523125660E+01  0.28756672594E+03  0.25500000920E-02 0. -1.
</event>
<event>
 5   0  0.2768834E-03  0.7997972E+03  0.7818609E-02  0.9560311E-01
        2   -1    0    0  501    0  0.00000000000E+00  0.00000000000E+00  0.11920050628E+04  0.11920050628E+04  0.25500000920E-02 0.  1.
       -2   -1    0    0    0  501  0.00000000000E+00  0.00000000000E+00 -0.13415958444E+03  0.13415958446E+03  0.25500000920E-02 0. -1.
    10030    2    1    2    0    0  0.00000000000E+00  0.00000000000E+00  0.10578454783E+04  0.13261646472E+04  0.79979723402E+03 0.  0.
        4    1    3    3  502    0  0.26194170040E+03  0.24058044770E+03  0.22577627448E+03  0.42127063183E+03  0.12699999809E+01 0. -1.
       -4    1    3    3    0  502 -0.26194170040E+03 -0.24058044770E+03  0.83206920385E+03  0.90489401541E+03  0.12699999809E+01 0.  1.
</event>
<event>
 5   0  0.1617491E-03  0.8001530E+03  0.7818609E-02  0.9559796E-01
        1   -1    0    0  501    0  0.00000000000E+00  0.00000000000E+00  0.10890688517E+04  0.10890688517E+04  0.50400001928E-02 0.  1.
       -1   -1    0    0    0  501  0.00000000000E+00  0.00000000000E+00 -0.14697071072E+03  0.14697071081E+03  0.50400001928E-02 0. -1.
    10030    2    1    2    0    0  0.00000000000E+00  0.00000000000E+00  0.94209814101E+03  0.12360395626E+04  0.80015304343E+03 0.  0.
        1    1    3    3  502    0 -0.38221301115E+03 -0.49751908629E+02  0.30539853705E+03  0.49176244749E+03  0.50400001928E-02 0. -1.
       -1    1    3    3    0  502  0.38221301115E+03  0.49751908629E+02  0.63669960396E+03  0.74427711507E+03  0.50400001928E-02 0.  1.
</event>
<event>
 5   0  0.2910501E-03  0.8000379E+03  0.7818609E-02  0.9559962E-01
       -2   -1    0    0    0  501  0.00000000000E+00  0.00000000000E+00  0.11128559894E+03  0.11128559897E+03  0.25500000920E-02 0.  1.
        2   -1    0    0  501    0  0.00000000000E+00  0.00000000000E+00 -0.14378784300E+04  0.14378784300E+04  0.25500000920E-02 0. -1.
    10030    2    1    2    0    0  0.00000000000E+00  0.00000000000E+00 -0.13265928310E+04  0.15491640289E+04  0.80003790488E+03 0.  0.
        1    1    3    3  502    0 -0.12441680303E+02  0.15335842063E+03 -0.13782880698E+04  0.13868495246E+04  0.50400001928E-02 0. -1.
       -1    1    3    3    0  502  0.12441680303E+02 -0.15335842063E+03  0.51695238743E+02  0.16231450435E+03  0.50400001928E-02 0.  1.
</event>
<event>
 5   0  0.1712793E-03  0.7996560E+03  0.7818609E-02  0.9560515E-01
       -1   -1    0    0    0  501  0.00000000000E+00  0.00000000000E+00  0.17246200743E+03  0.17246200751E+03  0.50400001928E-02 0.  1.
        1   -1    0    0  501    0  0.00000000000E+00  0.00000000000E+00 -0.92694299385E+03  0.92694299387E+03  0.50400001928E-02 0. -1.
    10030    2    1    2    0    0  0.00000000000E+00  0.00000000000E+00 -0.75448098642E+03  0.10994050014E+04  0.79965604992E+03 0.  0.
        4    1    3    3  502    0  0.28138152361E+03  0.28293549246E+03 -0.41182499413E+03  0.57343656442E+03  0.12699999809E+01 0. -1.
       -4    1    3    3    0  502 -0.28138152361E+03 -0.28293549246E+03 -0.34265599229E+03  0.52596843696E+03  0.12699999809E+01 0.  1.
</event>
<event>
 5   0  0.1617491E-03  0.7998053E+03  0.7818609E-02  0.9560299E-01
        1   -1    0    0  501    0  0.00000000000E+00  0.00000000000E+00  0.44972486491E+03  0.44972486494E+03  0.50400001928E-02 0. -1.
       -1   -1    0    0    0  501  0.00000000000E+00  0.00000000000E+00 -0.35559995633E+03  0.35559995637E+03  0.50400001928E-02 0.  1.
    10030    2    1    2    0    0  0.00000000000E+00  0.00000000000E+00  0.94124908580E+02  0.80532482131E+03  0.79980533219E+03 0.  0.
        1    1    3    3  502    0  0.28355687765E+03  0.25208530155E+03 -0.80184663062E+02  0.38778999772E+03  0.50400001928E-02 0.  1.
       -1    1    3    3    0  502 -0.28355687765E+03 -0.25208530155E+03  0.17430957164E+03  0.41753482359E+03  0.50400001928E-02 0. -1.
</event>
<event>
 5   0  0.2690809E-03  0.7985925E+03  0.7818609E-02  0.9562057E-01
       -2   -1    0    0    0  501  0.00000000000E+00  0.00000000000E+00  0.26125681706E+03  0.26125681707E+03  0.25500000920E-02 0.  1.
        2   -1    0    0  501    0  0.00000000000E+00  0.00000000000E+00 -0.61027112228E+03  0.61027112228E+03  0.25500000920E-02 0. -1.
    10030    2    1    2    0    0  0.00000000000E+00  0.00000000000E+00 -0.34901430522E+03  0.87152793935E+03  0.79859248921E+03 0.  0.
        5    1    3    3  502    0 -0.12071718212E+03  0.14050634099E+03 -0.56050600785E+03  0.59034205742E+03  0.46999998093E+01 0. -1.
       -5    1    3    3    0  502  0.12071718212E+03 -0.14050634099E+03  0.21149170264E+03  0.28118588193E+03  0.46999998093E+01 0.  1.
</event>
<event>
 5   0  0.1640035E-03  0.8046819E+03  0.7818609E-02  0.9553265E-01
        1   -1    0    0  501    0  0.00000000000E+00  0.00000000000E+00  0.25624729000E+03  0.25624729005E+03  0.50400001928E-02 0.  1.
       -1   -1    0    0    0  501  0.00000000000E+00  0.00000000000E+00 -0.63172663496E+03  0.63172663498E+03  0.50400001928E-02 0. -1.
    10030    2    1    2    0    0  0.00000000000E+00  0.00000000000E+00 -0.37547934496E+03  0.88797392504E+03  0.80468189557E+03 0.  0.
        5    1    3    3  502    0 -0.12849031554E+02 -0.36832055531E+03 -0.36578130547E+03  0.51927178097E+03  0.46999998093E+01 0. -1.
       -5    1    3    3    0  502  0.12849031554E+02  0.36832055531E+03 -0.96980394877E+01  0.36870214407E+03  0.46999998093E+01 0.  1.
</event>
<event>
 5   0  0.2763587E-03  0.7796274E+03  0.7818609E-02  0.9589983E-01
       -2   -1    0    0    0  501  0.00000000000E+00  0.00000000000E+00  0.37025179405E+03  0.37025179405E+03  0.25500000920E-02 0.  1.
        2   -1    0    0  501    0  0.00000000000E+00  0.00000000000E+00 -0.41040910379E+03  0.41040910380E+03  0.25500000920E-02 0. -1.
    10030    2    1    2    0    0  0.00000000000E+00  0.00000000000E+00 -0.40157309742E+02  0.78066089785E+03  0.77962736477E+03 0.  0.
        3    1    3    3  502    0 -0.90567834086E+02  0.30786274970E+03  0.20151245830E+03  0.37893176994E+03  0.10100000352E+00 0.  1.
       -3    1    3    3    0  502  0.90567834086E+02 -0.30786274970E+03 -0.24166976804E+03  0.40172912791E+03  0.10100000352E+00 0. -1.
</event>
<event>
 5   0  0.2768834E-03  0.7992779E+03  0.7818609E-02  0.9561063E-01
       -2   -1    0    0    0  501  0.00000000000E+00  0.00000000000E+00  0.21694733413E+03  0.21694733415E+03  0.25500000920E-02 0. -1.
        2   -1    0    0  501    0  0.00000000000E+00  0.00000000000E+00 -0.73617546425E+03  0.73617546426E+03  0.25500000920E-02 0.  1.
    10030    2    1    2    0    0  0.00000000000E+00  0.00000000000E+00 -0.51922813012E+03  0.95312279840E+03  0.79927793522E+03 0.  0.
        4    1    3    3  502    0  0.11423234081E+03 -0.34027443254E+03 -0.46914459129E+03  0.59070633784E+03  0.12699999809E+01 0.  1.
       -4    1    3    3    0  502 -0.11423234081E+03  0.34027443254E+03 -0.50083538831E+02  0.36241646056E+03  0.12699999809E+01 0. -1.
</event>
<event>
 5   0  0.2763587E-03  0.8003149E+03  0.7818609E-02  0.9559561E-01
        2   -1    0    0  501    0  0.00000000000E+00  0.00000000000E+00  0.84705416141E+03  0.84705416141E+03  0.25500000920E-02 0. -1.
       -2   -1    0    0    0  501  0.00000000000E+00  0.00000000000E+00 -0.18903866103E+03  0.18903866105E+03  0.25500000920E-02 0.  1.
    10030    2    1    2    0    0  0.00000000000E+00  0.00000000000E+00  0.65801550037E+03  0.10360928225E+04  0.80031489929E+03 0.  0.
        3    1    3    3  502    0 -0.13448891039E+03  0.27363775040E+03 -0.64954192711E+01  0.30497063159E+03  0.10100000352E+00 0.  1.
       -3    1    3    3    0  502  0.13448891039E+03 -0.27363775040E+03  0.66451091965E+03  0.73112219087E+03  0.10100000352E+00 0. -1.
</event>
<event>
 5   0  0.2910501E-03  0.8023006E+03  0.7818609E-02  0.9556693E-01
        2   -1    0    0  501    0  0.00000000000E+00  0.00000000000E+00  0.56658672442E+03  0.56658672442E+03  0.25500000920E-02 0. -1.
       -2   -1    0    0    0  501  0.00000000000E+00  0.00000000000E+00 -0.28401929066E+03  0.28401929067E+03  0.25500000920E-02 0.  1.
    10030    2    1    2    0    0  0.00000000000E+00  0.00000000000E+00  0.28256743376E+03  0.85060601509E+03  0.80230059098E+03 0.  0.
        1    1    3    3  502    0  0.32146909013E+01  0.38999899017E+03  0.41759469636E+02  0.39224150711E+03  0.50400001928E-02 0.  1.
       -1    1    3    3    0  502 -0.32146909013E+01 -0.38999899017E+03  0.24080796412E+03  0.45836450798E+03  0.50400001928E-02 0. -1.
</event>
<event>
 5   0  0.1637228E-03  0.7993209E+03  0.7818609E-02  0.9561001E-01
        1   -1    0    0  501    0  0.00000000000E+00  0.00000000000E+00  0.10325828248E+04  0.10325828248E+04  0.50400001928E-02 0.  1.
       -1   -1    0    0    0  501  0.00000000000E+00  0.00000000000E+00 -0.15468829282E+03  0.15468829290E+03  0.50400001928E-02 0. -1.
    10030    2    1    2    0    0  0.00000000000E+00  0.00000000000E+00  0.87789453196E+03  0.11872711177E+04  0.79932089779E+03 0.  0.
        2    1    3    3  502    0  0.14032865729E+03 -0.31859417081E+03  0.14737156605E+03  0.37803803541E+03  0.25500000920E-02 0. -1.
       -2    1    3    3    0  502 -0.14032865729E+03  0.31859417081E+03  0.73052296591E+03  0.80923308228E+03  0.25500000920E-02 0.  1.
</event>
<event>
 5   0  0.1712793E-03  0.8003753E+03  0.7818609E-02  0.9559474E-01
       -1   -1    0    0    0  501  0.00000000000E+00  0.00000000000E+00  0.10191453509E+03  0.10191453522E+03  0.50400001928E-02 0. -1.
        1   -1    0    0  501    0  0.00000000000E+00  0.00000000000E+00 -0.15714160418E+04  0.15714160418E+04  0.50400001928E-02 0.  1.
    10030    2    1    2    0    0  0.00000000000E+00  0.00000000000E+00 -0.14695015067E+04  0.16733305770E+04  0.80037525060E+03 0.  0.
        4    1    3    3  502    0 -0.20253730940E+02  0.98505010703E+01  0.10058427310E+03  0.10308275745E+03  0.12699999809E+01 0. -1.
       -4    1    3    3    0  502  0.20253730940E+02 -0.98505010703E+01 -0.15700857798E+04  0.15702478196E+04  0.12699999809E+01 0.  1.
</event>
<event>
 5   0  0.2690809E-03  0.7979747E+03  0.7818609E-02  0.9562953E-01
        2   -1    0    0  501    0  0.00000000000E+00  0.00000000000E+00  0.55228585772E+03  0.55228585773E+03  0.25500000920E-02 0.  1.
       -2   -1    0    0    0  501  0.00000000000E+00  0.00000000000E+00 -0.28824004435E+03  0.28824004436E+03  0.25500000920E-02 0. -1.
    10030    2    1    2    0    0  0.00000000000E+00  0.00000000000E+00  0.26404581338E+03  0.84052590209E+03  0.79797468664E+03 0.  0.
        5    1    3    3  502    0  0.12701439764E+03  0.37243091670E+03  0.62700379253E+02  0.39848572431E+03  0.46999998093E+01 0. -1.
       -5    1    3    3    0  502 -0.12701439764E+03 -0.37243091670E+03  0.20134543412E+03  0.44204017777E+03  0.46999998093E+01 0.  1.
</event>
<event>
 5   0  0.1617491E-03  0.7929644E+03  0.7818609E-02  0.9570257E-01
        1   -1    0    0  501    0  0.00000000000E+00  0.00000000000E+00  0.93997431030E+03  0.93997431031E+03  0.50400001928E-02 0.  1.
       -1   -1    0    0    0  501  0.00000000000E+00  0.00000000000E+00 -0.16723662748E+03  0.16723662755E+03  0.50400001928E-02 0. -1.
    10030    2    1    2    0    0  0.00000000000E+00  0.00000000000E+00  0.77273768282E+03  0.11072109379E+04  0.79296439673E+03 0.  0.
        1    1    3    3  502    0 -0.37698896445E+03 -0.68531394203E+02  0.24410509850E+03  0.45431765368E+03  0.50400001928E-02 0.  1.
       -1    1    3    3    0  502  0.37698896445E+03  0.68531394203E+02  0.52863258432E+03  0.65289328418E+03  0.50400001928E-02 0. -1.
</event>
<event>
 5   0  0.1712793E-03  0.8009149E+03  0.7818609E-02  0.9558694E-01
        1   -1    0    0  501    0  0.00000000000E+00  0.00000000000E+00  0.28236686962E+03  0.28236686967E+03  0.50400001928E-02 0. -1.
       -1   -1    0    0    0  501  0.00000000000E+00  0.00000000000E+00 -0.56793551332E+03  0.56793551334E+03  0.50400001928E-02 0.  1.
    10030    2    1    2    0    0  0.00000000000E+00  0.00000000000E+00 -0.28556864369E+03  0.85030238300E+03  0.80091490951E+03 0.  0.
        4    1    3    3  502    0  0.38111041391E+03 -0.56560906072E+02 -0.25869679765E+03  0.46407965879E+03  0.12699999809E+01 0.  1.
       -4    1    3    3    0  502 -0.38111041391E+03  0.56560906072E+02 -0.26871846047E+02  0.38622272421E+03  0.12699999809E+01 0. -1.
</event>
<event>
 5   0  0.1640035E-03  0.7805588E+03  0.7818609E-02  0.9588592E-01
        1   -1    0    0  501    0  0.00000000000E+00  0.00000000000E+00  0.22716869306E+03  0.22716869312E+03  0.50400001928E-02 0. -1.
       -1   -1    0    0    0  501  0.00000000000E+00  0.00000000000E+00 -0.67050616648E+03  0.67050616650E+03  0.50400001928E-02 0.  1.
    10030    2    1    2    0    0  0.00000000000E+00  0.00000000000E+00 -0.44333747342E+03  0.89767485962E+03  0.78055879871E+03 0.  0.
        5    1    3    3  502    0  0.12158699336E+03  0.31047348759E+03 -0.45487129873E+03  0.56400990404E+03  0.46999998093E+01 0.  1.
       -5    1    3    3    0  502 -0.12158699336E+03 -0.31047348759E+03  0.11533825306E+02  0.33366495557E+03  0.46999998093E+01 0. -1.
</event>
<event>
 5   0  0.2768834E-03  0.8006430E+03  0.7818609E-02  0.9559087E-01
        2   -1    0    0  501    0  0.00000000000E+00  0.00000000000E+00  0.10083024430E+04  0.10083024430E+04  0.25500000920E-02 0.  1.
       -2   -1    0    0    0  501  0.00000000000E+00  0.00000000000E+00 -0.15893771814E+03  0.15893771816E+03  0.25500000920E-02 0. -1.
    10030    2    1    2    0    0  0.00000000000E+00  0.00000000000E+00  0.84936472486E+03  0.11672401612E+04  0.80064296538E+03 0.  0.
        4    1    3    3  502    0  0.37350408370E+03  0.13857797435E+03  0.36735007721E+03  0.54190114194E+03  0.12699999809E+01 0. -1.
       -4    1    3    3    0  502 -0.37350408370E+03 -0.13857797435E+03  0.48201464766E+03  0.62533901923E+03  0.12699999809E+01 0.  1.
</event>
<event>
 5   0  0.1617491E-03  0.7979947E+03  0.7818609E-02  0.9562924E-01
        1   -1    0    0  501    0  0.00000000000E+00  0.00000000000E+00  0.10630054363E+04  0.10630054363E+04  0.50400001928E-02 0.  1.
       -1   -1    0    0    0  501  0.00000000000E+00  0.00000000000E+00 -0.14976299663E+03  0.14976299671E+03  0.50400001928E-02 0. -1.
    10030    2    1    2    0    0  0.00000000000E+00  0.00000000000E+00  0.91324243968E+03  0.12127684330E+04  0.79799468578E+03 0.  0.
        1    1    3    3  502    0 -0.87687556945E+02  0.21451647921E+03  0.95023648144E+03  0.97808782743E+03  0.50400001928E-02 0.  1.
       -1    1    3    3    0  502  0.87687556945E+02 -0.21451647921E+03 -0.36994041753E+02  0.23468060560E+03  0.50400001928E-02 0. -1.
</event>
<event>
 5   0  0.2873212E-03  0.8016576E+03  0.7818609E-02  0.9557621E-01
        2   -1    0    0  501    0  0.00000000000E+00  0.00000000000E+00  0.94507509971E+03  0.94507509971E+03  0.25500000920E-02 0. -1.
       -2   -1    0    0    0  501  0.00000000000E+00  0.00000000000E+00 -0.17000100236E+03  0.17000100238E+03  0.25500000920E-02 0.  1.
    10030    2    1    2    0    0  0.00000000000E+00  0.00000000000E+00  0.77507409735E+03  0.11150761021E+04  0.80165756847E+03 0.  0.
        2    1    3    3  502    0  0.31864773023E+03 -0.27569508027E+02  0.51489860243E+02  0.32395626165E+03  0.25500000920E-02 0.  1.
       -2    1    3    3    0  502 -0.31864773023E+03  0.27569508027E+02  0.72358423710E+03  0.79111984044E+03  0.25500000920E-02 0. -1.
</event>
<event>
 5   0  0.2690809E-03  0.7965161E+03  0.7818609E-02  0.9565074E-01
       -2   -1    0    0    0  501  0.00000000000E+00  0.00000000000E+00  0.24891249619E+03  0.24891249621E+03  0.25500000920E-02 0. -1.
        2   -1    0    0  501    0  0.00000000000E+00  0.00000000000E+00 -0.63720982039E+03  0.63720982039E+03  0.25500000920E-02 0.  1.
    10030    2    1    2    0    0  0.00000000000E+00  0.00000000000E+00 -0.38829732419E+03  0.88612231660E+03  0.79651613166E+03 0.  0.
        5    1    3    3  502    0 -0.39041914162E+03 -0.13082443421E+02 -0.10805298415E+03  0.40533417553E+03  0.46999998093E+01 0.  1.
       -5    1    3    3    0  502  0.39041914162E+03  0.13082443421E+02 -0.28024434004E+03  0.48078814107E+03  0.46999998093E+01 0. -1.
</event>
<event>
 5   0  0.1656051E-03  0.8008237E+03  0.7818609E-02  0.9558826E-01
       -1   -1    0    0    0  501  0.00000000000E+00  0.00000000000E+00  0.11880692222E+03  0.11880692232E+03  0.50400001928E-02 0. -1.
        1   -1    0    0  501    0  0.00000000000E+00  0.00000000000E+00 -0.13494974956E+04  0.13494974956E+04  0.50400001928E-02 0.  1.
    10030    2    1    2    0    0  0.00000000000E+00  0.00000000000E+00 -0.12306905734E+04  0.14683044179E+04  0.80082368616E+03 0.  0.
        3    1    3    3  502    0  0.20737788332E+03  0.17706277542E+03 -0.77744637893E+02  0.28355079236E+03  0.10100000352E+00 0. -1.
       -3    1    3    3    0  502 -0.20737788332E+03 -0.17706277542E+03 -0.11529459355E+04  0.11847536256E+04  0.10100000352E+00 0.  1.
</event>
<event>
 5   0  0.1095350E-03  0.8194249E+03  0.7818609E-02  0.9532318E-01
        3   -1    0    0  501    0  0.00000000000E+00  0.00000000000E+00  0.13681799433E+04  0.13681799470E+04  0.10100000352E+00 0.  1.
       -3   -1    0    0    0  501  0.00000000000E+00  0.00000000000E+00 -0.12269164727E+03  0.12269168884E+03  0.10100000352E+00 0. -1.
    10030    2    1    2    0    0  0.00000000000E+00  0.00000000000E+00  0.12454882960E+04  0.14908716359E+04  0.81942488313E+03 0.  0.
        1    1    3    3  502    0 -0.12382196884E+03 -0.19268585456E+03  0.12408211737E+04  0.12617832238E+04  0.50400001928E-02 0.  1.
       -1    1    3    3    0  502  0.12382196884E+03  0.19268585456E+03  0.46671223039E+01  0.22908841213E+03  0.50400001928E-02 0. -1.
</event>
<event>
 5   0  0.1640035E-03  0.8002127E+03  0.7818609E-02  0.9559709E-01
       -1   -1    0    0    0  501  0.00000000000E+00  0.00000000000E+00  0.27223057865E+03  0.27223057870E+03  0.50400001928E-02 0.  1.
        1   -1    0    0  501    0  0.00000000000E+00  0.00000000000E+00 -0.58804965673E+03  0.58804965675E+03  0.50400001928E-02 0. -1.
    10030    2    1    2    0    0  0.00000000000E+00  0.00000000000E+00 -0.31581907808E+03  0.86028023545E+03  0.80021271761E+03 0.  0.
        5    1    3    3  502    0  0.19391358667E+03 -0.34822701485E+03 -0.12069187973E+03  0.41647707356E+03  0.46999998093E+01 0.  1.
       -5    1    3    3    0  502 -0.19391358667E+03  0.34822701485E+03 -0.19512719835E+03  0.44380316189E+03  0.46999998093E+01 0. -1.
</event>
<event>
 5   0  0.2873212E-03  0.7996484E+03  0.7818609E-02  0.9560526E-01
       -2   -1    0    0    0  501  0.00000000000E+00  0.00000000000E+00  0.25953663221E+03  0.25953663223E+03  0.25500000920E-02 0.  1.
        2   -1    0    0  501    0  0.00000000000E+00  0.00000000000E+00 -0.61594150059E+03  0.61594150059E+03  0.25500000920E-02 0. -1.
    10030    2    1    2    0    0  0.00000000000E+00  0.00000000000E+00 -0.35640486838E+03  0.87547813282E+03  0.79964837950E+03 0.  0.
        2    1    3    3  502    0 -0.55649441421E+02 -0.25530628034E+03 -0.50952381842E+03  0.57261913926E+03  0.25500000920E-02 0. -1.
       -2    1    3    3    0  502  0.55649441421E+02  0.25530628034E+03  0.15311895004E+03  0.30285899356E+03  0.25500000920E-02 0.  1.
</event>
<event>
 5   0  0.1712793E-03  0.7997726E+03  0.7818609E-02  0.9560346E-01
        1   -1    0    0  501    0  0.00000000000E+00  0.00000000000E+00  0.56349563344E+03  0.56349563346E+03  0.50400001928E-02 0. -1.
       -1   -1    0    0    0  501  0.00000000000E+00  0.00000000000E+00 -0.28378046012E+03  0.28378046017E+03  0.50400001928E-02 0.  1.
    10030    2    1    2    0    0  0.00000000000E+00  0.00000000000E+00  0.27971517331E+03  0.84727609363E+03  0.79977259308E+03 0.  0.
        4    1    3    3  502    0  0.15884415686E+03 -0.24379698905E+03 -0.15073192851E+03  0.32770438692E+03  0.12699999809E+01 0.  1.
       -4    1    3    3    0  502 -0.15884415686E+03  0.24379698905E+03  0.43044710183E+03  0.51957170670E+03  0.12699999809E+01 0. -1.
</event>
<event>
 5   0  0.2763587E-03  0.8005938E+03  0.7818609E-02  0.9559158E-01
        2   -1    0    0  501    0  0.00000000000E+00  0.00000000000E+00  0.17840659703E+04  0.17840659703E+04  0.25500000920E-02 0.  1.
       -2   -1    0    0    0  501  0.00000000000E+00  0.00000000000E+00 -0.89815970285E+02  0.89815970321E+02  0.25500000920E-02 0. -1.
    10030    2    1    2    0    0  0.00000000000E+00  0.00000000000E+00  0.16942500000E+04  0.18738819406E+04  0.80059382014E+03 0.  0.
        3    1    3    3  502    0  0.31005509478E+03 -0.10489167853E+03  0.13864891519E+04  0.14246012089E+04  0.10100000352E+00 0.  1.
       -3    1    3    3    0  502 -0.31005509478E+03  0.10489167853E+03  0.30776084815E+03  0.44928073170E+03  0.10100000352E+00 0. -1.
</event>
<event>
 5   0  0.2690809E-03  0.8053199E+03  0.7818609E-02  0.9552349E-01
       -2   -1    0    0    0  501  0.00000000000E+00  0.00000000000E+00  0.75786197861E+02  0.75786197903E+02  0.25500000920E-02 0.  1.
        2   -1    0    0  501    0  0.00000000000E+00  0.00000000000E+00 -0.21393739709E+04  0.21393739709E+04  0.25500000920E-02 0. -1.
    10030    2    1    2    0    0  0.00000000000E+00  0.00000000000E+00 -0.20635877730E+04  0.22151601688E+04  0.80531985969E+03 0.  0.
        5    1    3    3  502    0  0.34479011200E+03 -0.20396152576E+03 -0.11429288013E+04  0.12111105895E+04  0.46999998093E+01 0. -1.
       -5    1    3    3    0  502 -0.34479011200E+03  0.20396152576E+03 -0.92065897176E+03  0.10040495793E+04  0.46999998093E+01 0.  1.
</event>
<event>
 5   0  0.2910501E-03  0.8037399E+03  0.7818609E-02  0.9554619E-01
       -2   -1    0    0    0  501  0.00000000000E+00  0.00000000000E+00  0.63157792045E+02  0.63157792097E+02  0.25500000920E-02 0. -1.
        2   -1    0    0  501    0  0.00000000000E+00  0.00000000000E+00 -0.25570789330E+04  0.25570789330E+04  0.25500000920E-02 0.  1.
    10030    2    1    2    0    0  0.00000000000E+00  0.00000000000E+00 -0.24939211410E+04  0.26202367251E+04  0.80373990709E+03 0.  0.
        1    1    3    3  502    0  0.28150734882E+03 -0.26310674548E+03 -0.16190629223E+04  0.16642825161E+04  0.50400001928E-02 0.  1.
       -1    1    3    3    0  502 -0.28150734882E+03  0.26310674548E+03 -0.87485821870E+03  0.95595420906E+03  0.50400001928E-02 0. -1.
</event>
<event>
 5   0  0.1712793E-03  0.7975599E+03  0.7818609E-02  0.9563556E-01
       -1   -1    0    0    0  501  0.00000000000E+00  0.00000000000E+00  0.28759456160E+03  0.28759456165E+03  0.50400001928E-02 0.  1.
        1   -1    0    0  501    0  0.00000000000E+00  0.00000000000E+00 -0.55295018711E+03  0.55295018714E+03  0.50400001928E-02 0. -1.
    10030    2    1    2    0    0  0.00000000000E+00  0.00000000000E+00 -0.26535562551E+03  0.84054474878E+03  0.79755994553E+03 0.  0.
        4    1    3    3  502    0  0.30462929168E+03  0.91145654338E+02 -0.38630845769E+03  0.50034225590E+03  0.12699999809E+01 0. -1.
       -4    1    3    3    0  502 -0.30462929168E+03 -0.91145654338E+02  0.12095283218E+03  0.34020249289E+03  0.12699999809E+01 0.  1.
</event>
<event>
 5   0  0.2910501E-03  0.7971695E+03  0.7818609E-02  0.9564123E-01
        2   -1    0    0  501    0  0.00000000000E+00  0.00000000000E+00  0.35542601358E+03  0.35542601359E+03  0.25500000920E-02 0.  1.
       -2   -1    0    0    0  501  0.00000000000E+00  0.00000000000E+00 -0.44698421570E+03  0.44698421570E+03  0.25500000920E-02 0. -1.
    10030    2    1    2    0    0  0.00000000000E+00  0.00000000000E+00 -0.91558202118E+02  0.80241022929E+03  0.79716953761E+03 0.  0.
        1    1    3    3  502    0  0.10906813901E+03  0.82290476352E+02  0.33111837803E+03  0.35819961159E+03  0.50400001928E-02 0.  1.
       -1    1    3    3    0  502 -0.10906813901E+03 -0.82290476352E+02 -0.42267658015E+03  0.44421061770E+03  0.50400001928E-02 0. -1.
</event>
<event>
 5   0  0.1712793E-03  0.7987400E+03  0.7818609E-02  0.9561843E-01
        1   -1    0    0  501    0  0.00000000000E+00  0.00000000000E+00  0.72155184488E+03  0.72155184490E+03  0.50400001928E-02 0. -1.
       -1   -1    0    0    0  501  0.00000000000E+00  0.00000000000E+00 -0.22104632086E+03  0.22104632091E+03  0.50400001928E-02 0.  1.
    10030    2    1    2    0    0  0.00000000000E+00  0.00000000000E+00  0.50050552403E+03  0.94259816582E+03  0.79873995932E+03 0.  0.
        4    1    3    3  502    0  0.34877097265E+03 -0.16907401526E+03  0.13664611682E+03  0.41097565395E+03  0.12699999809E+01 0.  1.
       -4    1    3    3    0  502 -0.34877097265E+03  0.16907401526E+03  0.36385940721E+03  0.53162251186E+03  0.12699999809E+01 0. -1.
</event>
<event>
 5   0  0.2768834E-03  0.8008775E+03  0.7818609E-02  0.9558748E-01
        2   -1    0    0  501    0  0.00000000000E+00  0.00000000000E+00  0.38789534905E+03  0.38789534906E+03  0.25500000920E-02 0. -1.
       -2   -1    0    0    0  501  0.00000000000E+00  0.00000000000E+00 -0.41338777229E+03  0.41338777230E+03  0.25500000920E-02 0.  1.
    10030    2    1    2    0    0  0.00000000000E+00  0.00000000000E+00 -0.25492423239E+02  0.80128312135E+03  0.80087750432E+03 0.  0.
        4    1    3    3  502    0  0.18253112657E+03  0.15670967568E+03  0.30753159309E+03  0.39045208191E+03  0.12699999809E+01 0. -1.
       -4    1    3    3    0  502 -0.18253112657E+03 -0.15670967568E+03 -0.33302401633E+03  0.41083103945E+03  0.12699999809E+01 0.  1.
</event>
<event>
 5   0  0.1617491E-03  0.7981864E+03  0.7818609E-02  0.9562646E-01
        1   -1    0    0  501    0  0.00000000000E+00  0.00000000000E+00  0.29542966298E+03  0.29542966302E+03  0.50400001928E-02 0.  1.
       -1   -1    0    0    0  501  0.00000000000E+00  0.00000000000E+00 -0.53913129550E+03  0.53913129553E+03  0.50400001928E-02 0. -1.
    10030    2    1    2    0    0  0.00000000000E+00  0.00000000000E+00 -0.24370163253E+03  0.83456095855E+03  0.79818638665E+03 0.  0.
        1    1    3    3  502    0 -0.60073536002E+02  0.37559444758E+03  0.44659869052E+01  0.38039448451E+03  0.50400001928E-02 0. -1.
       -1    1    3    3    0  502  0.60073536002E+02 -0.37559444758E+03 -0.24816761943E+03  0.45416647404E+03  0.50400001928E-02 0.  1.
</event>
<event>
 5   0  0.2690809E-03  0.8004748E+03  0.7818609E-02  0.9559330E-01
       -2   -1    0    0    0  501  0.00000000000E+00  0.00000000000E+00  0.28556838782E+03  0.28556838783E+03  0.25500000920E-02 0.  1.
        2   -1    0    0  501    0  0.00000000000E+00  0.00000000000E+00 -0.56095134449E+03  0.56095134450E+03  0.25500000920E-02 0. -1.
    10030    2    1    2    0    0  0.00000000000E+00  0.00000000000E+00 -0.27538295667E+03  0.84651973233E+03  0.80047478686E+03 0.  0.
        5    1    3    3  502    0 -0.28130455744E+03  0.11437345788E+03  0.13798392941E+03  0.33357937088E+03  0.46999998093E+01 0.  1.
       -5    1    3    3    0  502  0.28130455744E+03 -0.11437345788E+03 -0.41336688608E+03  0.51294036145E+03  0.46999998093E+01 0. -1.
</event>
<event>
 5   0  0.2690809E-03  0.8006917E+03  0.7818609E-02  0.9559016E-01
        2   -1    0    0  501    0  0.00000000000E+00  0.00000000000E+00  0.11956018918E+04  0.11956018918E+04  0.25500000920E-02 0.  1.
       -2   -1    0    0    0  501  0.00000000000E+00  0.00000000000E+00 -0.13405533557E+03  0.13405533559E+03  0.25500000920E-02 0. -1.
    10030    2    1    2    0    0  0.00000000000E+00  0.00000000000E+00  0.10615465563E+04  0.13296572274E+04  0.80069173301E+03 0.  0.
        5    1    3    3  502    0  0.27425234865E+03  0.25968027275E+03  0.75112234482E+03  0.84074672862E+03  0.46999998093E+01 0.  1.
       -5    1    3    3    0  502 -0.27425234865E+03 -0.25968027275E+03  0.31042421143E+03  0.48891049879E+03  0.46999998093E+01 0. -1.
</event>
<event>
 5   0  0.2873212E-03  0.7996447E+03  0.7818609E-02  0.9560532E-01
        2   -1    0    0  501    0  0.00000000000E+00  0.00000000000E+00  0.11672254889E+04  0.11672254889E+04  0.25500000920E-02 0.  1.
       -2   -1    0    0    0  501  0.00000000000E+00  0.00000000000E+00 -0.13695545560E+03  0.13695545563E+03  0.25500000920E-02 0. -1.
    10030    2    1    2    0    0  0.00000000000E+00  0.00000000000E+00  0.10302700333E+04  0.13041809445E+04  0.79964466769E+03 0.  0.
        2    1    3    3  502    0  0.55638791949E+02 -0.16066188339E+03 -0.75057267575E+02  0.18585346208E+03  0.25500000920E-02 0. -1.
       -2    1    3    3    0  502 -0.55638791949E+02  0.16066188339E+03  0.11053273009E+04  0.11183274824E+04  0.25500000920E-02 0.  1.
</event>
<event>
 5   0  0.2873212E-03  0.7996395E+03  0.7818609E-02  0.9560539E-01
       -2   -1    0    0    0  501  0.00000000000E+00  0.00000000000E+00  0.35583164379E+03  0.35583164379E+03  0.25500000920E-02 0. -1.
        2   -1    0    0  501    0  0.00000000000E+00  0.00000000000E+00 -0.44924573051E+03  0.44924573052E+03  0.25500000920E-02 0.  1.
    10030    2    1    2    0    0  0.00000000000E+00  0.00000000000E+00 -0.93414086729E+02  0.80507737432E+03  0.79963953569E+03 0.  0.
        2    1    3    3  502    0  0.35060573237E+03 -0.65373240727E+02 -0.22865067935E+03  0.42364982397E+03  0.25500000920E-02 0.  1.
       -2    1    3    3    0  502 -0.35060573237E+03  0.65373240727E+02  0.13523659262E+03  0.38142755035E+03  0.25500000920E-02 0. -1.
</event>
<event>
 5   0  0.2910501E-03  0.7984696E+03  0.7818609E-02  0.9562235E-01
        2   -1    0    0  501    0  0.00000000000E+00  0.00000000000E+00  0.25975561623E+03  0.25975561624E+03  0.25500000920E-02 0.  1.
       -2   -1    0    0    0  501  0.00000000000E+00  0.00000000000E+00 -0.61360916512E+03  0.61360916512E+03  0.25500000920E-02 0. -1.
    10030    2    1    2    0    0  0.00000000000E+00  0.00000000000E+00 -0.35385354889E+03  0.87336478137E+03  0.79846960323E+03 0.  0.
        1    1    3    3  502    0  0.33005837546E+03  0.15695894920E+03 -0.11898094636E+01  0.36548058583E+03  0.50400001928E-02 0. -1.
       -1    1    3    3    0  502 -0.33005837546E+03 -0.15695894920E+03 -0.35266373942E+03  0.50788419554E+03  0.50400001928E-02 0.  1.
</event>
<event>
 5   0  0.1656051E-03  0.8004330E+03  0.7818609E-02  0.9559391E-01
       -1   -1    0    0    0  501  0.00000000000E+00  0.00000000000E+00  0.28186949859E+03  0.28186949863E+03  0.50400001928E-02 0.  1.
        1   -1    0    0  501    0  0.00000000000E+00  0.00000000000E+00 -0.56825322800E+03  0.56825322802E+03  0.50400001928E-02 0. -1.
    10030    2    1    2    0    0  0.00000000000E+00  0.00000000000E+00 -0.28638372941E+03  0.85012272666E+03  0.80043301400E+03 0.  0.
        3    1    3    3  502    0 -0.75789065094E+01 -0.27960939406E+03 -0.44720317687E+03  0.52747468629E+03  0.10100000352E+00 0. -1.
       -3    1    3    3    0  502  0.75789065094E+01  0.27960939406E+03  0.16081944746E+03  0.32264804037E+03  0.10100000352E+00 0.  1.
</event>
<event>
 5   0  0.1656051E-03  0.8004490E+03  0.7818609E-02  0.9559367E-01
        1   -1    0    0  501    0  0.00000000000E+00  0.00000000000E+00  0.64111805761E+03  0.64111805763E+03  0.50400001928E-02 0.  1.
       -1   -1    0    0    0  501  0.00000000000E+00  0.00000000000E+00 -0.24984424950E+03  0.24984424955E+03  0.50400001928E-02 0. -1.
    10030    2    1    2    0    0  0.00000000000E+00  0.00000000000E+00  0.39127380810E+03  0.89096230718E+03  0.80044902393E+03 0.  0.
        3    1    3    3  502    0 -0.97612479368E+02 -0.38714727567E+03  0.22649227702E+03  0.45903155767E+03  0.10100000352E+00 0.  1.
       -3    1    3    3    0  502  0.97612479368E+02  0.38714727567E+03  0.16478153108E+03  0.43193074951E+03  0.10100000352E+00 0. -1.
</event>
<event>
 5   0  0.1095350E-03  0.8006633E+03  0.7818609E-02  0.9559058E-01
       -3   -1    0    0    0  501  0.00000000000E+00  0.00000000000E+00  0.74993414465E+03  0.74993415145E+03  0.10100000352E+00 0. -1.
        3   -1    0    0  501    0  0.00000000000E+00  0.00000000000E+00 -0.21370596492E+03  0.21370598878E+03  0.10100000352E+00 0.  1.
    10030    2    1    2    0    0  0.00000000000E+00  0.00000000000E+00  0.53622817973E+03  0.96364014023E+03  0.80066326201E+03 0.  0.
        4    1    3    3  502    0  0.72293984628E+02 -0.32708084147E+03  0.53195160766E+03  0.62863536559E+03  0.12699999809E+01 0. -1.
       -4    1    3    3    0  502 -0.72293984628E+02  0.32708084147E+03  0.42765720666E+01  0.33500477465E+03  0.12699999809E+01 0.  1.
</event>
<event>
 5   0  0.2763587E-03  0.8003341E+03  0.7818609E-02  0.9559534E-01
        2   -1    0    0  501    0  0.00000000000E+00  0.00000000000E+00  0.16428860396E+04  0.16428860396E+04  0.25500000920E-02 0. -1.
       -2   -1    0    0    0  501  0.00000000000E+00  0.00000000000E+00 -0.97470957092E+02  0.97470957126E+02  0.25500000920E-02 0.  1.
    10030    2    1    2    0    0  0.00000000000E+00  0.00000000000E+00  0.15454150825E+04  0.17403569968E+04  0.80033411700E+03 0.  0.
        3    1    3    3  502    0 -0.21965838043E+03 -0.30102404006E+03  0.45557975392E+03  0.58857301940E+03  0.10100000352E+00 0.  1.
       -3    1    3    3    0  502  0.21965838043E+03  0.30102404006E+03  0.10898353286E+04  0.11517839774E+04  0.10100000352E+00 0. -1.
</event>
<event>
 5   0  0.1617491E-03  0.8012850E+03  0.7818609E-02  0.9558159E-01
        1   -1    0    0  501    0  0.00000000000E+00  0.00000000000E+00  0.45103827702E+03  0.45103827705E+03  0.50400001928E-02 0. -1.
       -1   -1    0    0    0  501  0.00000000000E+00  0.00000000000E+00 -0.35587757471E+03  0.35587757474E+03  0.50400001928E-02 0.  1.
    10030    2    1    2    0    0  0.00000000000E+00  0.00000000000E+00  0.95160702317E+02  0.80691585179E+03  0.80128498839E+03 0.  0.
        1    1    3    3  502    0  0.54278432672E+02  0.17703706762E+03  0.40536020770E+03  0.44565139917E+03  0.50400001928E-02 0. -1.
       -1    1    3    3    0  502 -0.54278432672E+02 -0.17703706762E+03 -0.31019950539E+03  0.36126445263E+03  0.50400001928E-02 0.  1.
</event>
<event>
 5   0  0.2873212E-03  0.8000688E+03  0.7818609E-02  0.9559917E-01
        2   -1    0    0  501    0  0.00000000000E+00  0.00000000000E+00  0.54168443139E+03  0.54168443140E+03  0.25500000920E-02 0. -1.
       -2   -1    0    0    0  501  0.00000000000E+00  0.00000000000E+00 -0.29542575221E+03  0.29542575222E+03  0.25500000920E-02 0.  1.
    10030    2    1    2    0    0  0.00000000000E+00  0.00000000000E+00  0.24625867918E+03  0.83711018362E+03  0.80006882357E+03 0.  0.
        2    1    3    3  502    0  0.19530290874E+03 -0.31751498789E+03 -0.28740825968E+02  0.37387836095E+03  0.25500000920E-02 0.  1.
       -2    1    3    3    0  502 -0.19530290874E+03  0.31751498789E+03  0.27499950515E+03  0.46323182268E+03  0.25500000920E-02 0. -1.
</event>
<event>
 5   0  0.1712793E-03  0.8005767E+03  0.7818609E-02  0.9559183E-01
       -1   -1    0    0    0  501  0.00000000000E+00  0.00000000000E+00  0.17898701580E+03  0.17898701587E+03  0.50400001928E-02 0.  1.
        1   -1    0    0  501    0  0.00000000000E+00  0.00000000000E+00 -0.89520881540E+03  0.89520881542E+03  0.50400001928E-02 0. -1.
    10030    2    1    2    0    0  0.00000000000E+00  0.00000000000E+00 -0.71622179960E+03  0.10741958313E+04  0.80057667823E+03 0.  0.
        4    1    3    3  502    0  0.31725298962E+03 -0.15875059797E+03 -0.60689372083E+03  0.70297426202E+03  0.12699999809E+01 0. -1.
       -4    1    3    3    0  502 -0.31725298962E+03  0.15875059797E+03 -0.10932807877E+03  0.37122156927E+03  0.12699999809E+01 0.  1.
</event>
<event>
 5   0  0.1617491E-03  0.8010597E+03  0.7818609E-02  0.9558484E-01
        1   -1    0    0  501    0  0.00000000000E+00  0.00000000000E+00  0.79811835730E+03  0.79811835731E+03  0.50400001928E-02 0.  1.
       -1   -1    0    0    0  501  0.00000000000E+00  0.00000000000E+00 -0.20100298539E+03  0.20100298545E+03  0.50400001928E-02 0. -1.
    10030    2    1    2    0    0  0.00000000000E+00  0.00000000000E+00  0.59711537191E+03  0.99912134277E+03  0.80105972949E+03 0.  0.
        1    1    3    3  502    0  0.22378968417E+03  0.13886870171E+03 -0.77809709048E+02  0.27462827587E+03  0.50400001928E-02 0. -1.
       -1    1    3    3    0  502 -0.22378968417E+03 -0.13886870171E+03  0.67492508096E+03  0.72449306690E+03  0.50400001928E-02 0.  1.
</event>
<event>
 5   0  0.1637228E-03  0.7999190E+03  0.7818609E-02  0.9560134E-01
       -1   -1    0    0    0  501  0.00000000000E+00  0.00000000000E+00  0.70876744835E+03  0.70876744837E+03  0.50400001928E-02 0. -1.
        1   -1    0    0  501    0  0.00000000000E+00  0.00000000000E+00 -0.22569831592E+03  0.22569831598E+03  0.50400001928E-02 0.  1.
    10030    2    1    2    0    0  0.00000000000E+00  0.00000000000E+00  0.48306913243E+03  0.93446576435E+03  0.79991904467E+03 0.  0.
        2    1    3    3  502    0  0.16639177983E+03  0.30062851232E+03  0.23987963230E+01  0.34361239943E+03  0.25500000920E-02 0.  1.
       -2    1    3    3    0  502 -0.16639177983E+03 -0.30062851232E+03  0.48067033611E+03  0.59085336492E+03  0.25500000920E-02 0. -1.
</event>
<event>
 5   0  0.1656051E-03  0.7981083E+03  0.7818609E-02  0.9562759E-01
        1   -1    0    0  501    0  0.00000000000E+00  0.00000000000E+00  0.58703759372E+03  0.58703759374E+03  0.50400001928E-02 0.  1.
       -1   -1    0    0    0  501  0.00000000000E+00  0.00000000000E+00 -0.27126751969E+03  0.27126751973E+03  0.50400001928E-02 0. -1.
    10030    2    1    2    0    0  0.00000000000E+00  0.00000000000E+00  0.31577007404E+03  0.85830511348E+03  0.79810834362E+03 0.  0.
        3    1    3    3  502    0 -0.18238698964E+03  0.62468100222E+02 -0.21786295969E+03  0.29091503389E+03  0.10100000352E+00 0. -1.
       -3    1    3    3    0  502  0.18238698964E+03 -0.62468100222E+02  0.53363303372E+03  0.56739007959E+03  0.10100000352E+00 0.  1.
</event>
<event>
 5   0  0.2768834E-03  0.7998112E+03  0.7818609E-02  0.9560290E-01
        2   -1    0    0  501    0  0.00000000000E+00  0.00000000000E+00  0.37454905296E+03  0.37454905297E+03  0.25500000920E-02 0.  1.
       -2   -1    0    0    0  501  0.00000000000E+00  0.00000000000E+00 -0.42697876126E+03  0.42697876127E+03  0.25500000920E-02 0. -1.
    10030    2    1    2    0    0  0.00000000000E+00  0.00000000000E+00 -0.52429708295E+02  0.80152781424E+03  0.79981120440E+03 0.  0.
        4    1    3    3  502    0 -0.97146456289E+02  0.11423074710E+03  0.34530548966E+03  0.37646193917E+03  0.12699999809E+01 0.  1.
       -4    1    3    3    0  502  0.97146456289E+02 -0.11423074710E+03 -0.39773519796E+03  0.42506587507E+03  0.12699999809E+01 0. -1.
</event>
<event>
 5   0  0.2768834E-03  0.7997686E+03  0.7818609E-02  0.9560352E-01
       -2   -1    0    0    0  501  0.00000000000E+00  0.00000000000E+00  0.31491937370E+03  0.31491937371E+03  0.25500000920E-02 0. -1.
        2   -1    0    0  501    0  0.00000000000E+00  0.00000000000E+00 -0.50777266747E+03  0.50777266748E+03  0.25500000920E-02 0.  1.
    10030    2    1    2    0    0  0.00000000000E+00  0.00000000000E+00 -0.19285329377E+03  0.82269204119E+03  0.79976859261E+03 0.  0.
        4    1    3    3  502    0 -0.39689904806E+03 -0.29259097004E+02 -0.56310276938E+02  0.40194204719E+03  0.12699999809E+01 0.  1.
       -4    1    3    3    0  502  0.39689904806E+03  0.29259097004E+02 -0.13654301684E+03  0.42074999400E+03  0.12699999809E+01 0. -1.
</event>
<event>
 5   0  0.1637228E-03  0.7862861E+03  0.7818609E-02  0.9580082E-01
        1   -1    0    0  501    0  0.00000000000E+00  0.00000000000E+00  0.66096835912E+03  0.66096835914E+03  0.50400001928E-02 0. -1.
       -1   -1    0    0    0  501  0.00000000000E+00  0.00000000000E+00 -0.23384095350E+03  0.23384095355E+03  0.50400001928E-02 0.  1.
    10030    2    1    2    0    0  0.00000000000E+00  0.00000000000E+00  0.42712740563E+03  0.89480931269E+03  0.78628613459E+03 0.  0.
        2    1    3    3  502    0  0.11567013610E+03  0.26379700252E+03  0.51806227251E+03  0.59275370697E+03  0.25500000920E-02 0.  1.
       -2    1    3    3    0  502 -0.11567013610E+03 -0.26379700252E+03 -0.90934866881E+02  0.30205560572E+03  0.25500000920E-02 0. -1.
</event>
<event>
 5   0  0.2768834E-03  0.7982124E+03  0.7818609E-02  0.9562608E-01
       -2   -1    0    0    0  501  0.00000000000E+00  0.00000000000E+00  0.15347001578E+03  0.15347001580E+03  0.25500000920E-02 0. -1.
        2   -1    0    0  501    0  0.00000000000E+00  0.00000000000E+00 -0.10378948684E+04  0.10378948684E+04  0.25500000920E-02 0.  1.
    10030    2    1    2    0    0  0.00000000000E+00  0.00000000000E+00 -0.88442485259E+03  0.11913648842E+04  0.79821235731E+03 0.  0.
        4    1    3    3  502    0 -0.29924436500E+03 -0.23942837948E+03 -0.27593642876E+03  0.47224534354E+03  0.12699999809E+01 0. -1.
       -4    1    3    3    0  502  0.29924436500E+03  0.23942837948E+03 -0.60848842383E+03  0.71911954063E+03  0.12699999809E+01 0.  1.
</event>
<event>
 5   0  0.2910501E-03  0.7995840E+03  0.7818609E-02  0.9560619E-01
       -2   -1    0    0    0  501  0.00000000000E+00  0.00000000000E+00  0.22457467882E+03  0.22457467883E+03  0.25500000920E-02 0. -1.
        2   -1    0    0  501    0  0.00000000000E+00  0.00000000000E+00 -0.71171712655E+03  0.71171712655E+03  0.25500000920E-02 0.  1.
    10030    2    1    2    0    0  0.00000000000E+00  0.00000000000E+00 -0.48714244773E+03  0.93629180539E+03  0.79958400463E+03 0.  0.
        1    1    3    3  502    0  0.35298297026E+03  0.38415932012E+02 -0.28414942619E+02  0.35620242857E+03  0.50400001928E-02 0. -1.
       -1    1    3    3    0  502 -0.35298297026E+03 -0.38415932012E+02 -0.45872750511E+03  0.58008937682E+03  0.50400001928E-02 0.  1.
</event>
<event>
 5   0  0.1095350E-03  0.8020210E+03  0.7818609E-02  0.9557096E-01
       -3   -1    0    0    0  501  0.00000000000E+00  0.00000000000E+00  0.10430938394E+03  0.10430943284E+03  0.10100000352E+00 0. -1.
        3   -1    0    0  501    0  0.00000000000E+00  0.00000000000E+00 -0.15416578976E+04  0.15416579009E+04  0.10100000352E+00 0.  1.
    10030    2    1    2    0    0  0.00000000000E+00  0.00000000000E+00 -0.14373485136E+04  0.16459673337E+04  0.80202101844E+03 0.  0.
        5    1    3    3  502    0  0.27529093326E+03  0.26625184684E+03 -0.96247371752E+03  0.10358826627E+04  0.46999998093E+01 0.  1.
       -5    1    3    3    0  502 -0.27529093326E+03 -0.26625184684E+03 -0.47487479613E+03  0.61008467107E+03  0.46999998093E+01 0. -1.
</event>
<event>
 5   0  0.2768834E-03  0.7997346E+03  0.7818609E-02  0.9560401E-01
       -2   -1    0    0    0  501  0.00000000000E+00  0.00000000000E+00  0.17199292722E+03  0.17199292723E+03  0.25500000920E-02 0.  1.
        2   -1    0    0  501    0  0.00000000000E+00  0.00000000000E+00 -0.92965357130E+03  0.92965357130E+03  0.25500000920E-02 0. -1.
    10030    2    1    2    0    0  0.00000000000E+00  0.00000000000E+00 -0.75766064408E+03  0.11016464985E+04  0.79973455355E+03 0.  0.
        4    1    3    3  502    0  0.31165887486E+03  0.24554131973E+03 -0.31036307528E+03  0.50373469741E+03  0.12699999809E+01 0. -1.
       -4    1    3    3    0  502 -0.31165887486E+03 -0.24554131973E+03 -0.44729756880E+03  0.59791180113E+03  0.12699999809E+01 0.  1.
</event>
<event>
 5   0  0.1656051E-03  0.7989734E+03  0.7818609E-02  0.9561504E-01
       -1   -1    0    0    0  501  0.00000000000E+00  0.00000000000E+00  0.90691792859E+02  0.90691792999E+02  0.50400001928E-02 0. -1.
        1   -1    0    0  501    0  0.00000000000E+00  0.00000000000E+00 -0.17596919907E+04  0.17596919907E+04  0.50400001928E-02 0.  1.
    10030    2    1    2    0    0  0.00000000000E+00  0.00000000000E+00 -0.16690001979E+04  0.18503837837E+04  0.79897339544E+03 0.  0.
        3    1    3    3  502    0  0.20169392287E+01 -0.26728146902E+03 -0.14690749975E+03  0.30500045149E+03  0.10100000352E+00 0. -1.
       -3    1    3    3    0  502 -0.20169392287E+01  0.26728146902E+03 -0.15220926981E+04  0.15453833323E+04  0.10100000352E+00 0.  1.
</event>
<event>
 5   0  0.2690809E-03  0.8003874E+03  0.7818609E-02  0.9559457E-01
       -2   -1    0    0    0  501  0.00000000000E+00  0.00000000000E+00  0.10627503999E+03  0.10627504002E+03  0.25500000920E-02 0.  1.
        2   -1    0    0  501    0  0.00000000000E+00  0.00000000000E+00 -0.15069859928E+04  0.15069859928E+04  0.25500000920E-02 0. -1.
    10030    2    1    2    0    0  0.00000000000E+00  0.00000000000E+00 -0.14007109528E+04  0.16132610328E+04  0.80038739790E+03 0.  0.
        5    1    3    3  502    0  0.12751263318E+03 -0.78041830967E+01  0.64012994600E+02  0.14296898395E+03  0.46999998093E+01 0.  1.
       -5    1    3    3    0  502 -0.12751263318E+03  0.78041830967E+01 -0.14647239474E+04  0.14702920489E+04  0.46999998093E+01 0. -1.
</event>
<event>
 5   0  0.1656051E-03  0.7998591E+03  0.7818609E-02  0.9560221E-01
       -1   -1    0    0    0  501  0.00000000000E+00  0.00000000000E+00  0.34845215944E+03  0.34845215948E+03  0.50400001928E-02 0.  1.
        1   -1    0    0  501    0  0.00000000000E+00  0.00000000000E+00 -0.45901176720E+03  0.45901176723E+03  0.50400001928E-02 0. -1.
    10030    2    1    2    0    0  0.00000000000E+00  0.00000000000E+00 -0.11055960776E+03  0.80746392671E+03  0.79985909138E+03 0.  0.
        3    1    3    3  502    0 -0.13426982304E+03  0.36009770056E+03 -0.16698853615E+03  0.41902735082E+03  0.10100000352E+00 0.  1.
       -3    1    3    3    0  502  0.13426982304E+03 -0.36009770056E+03  0.56428928392E+02  0.38843657589E+03  0.10100000352E+00 0. -1.
</event>
<event>
 5   0  0.1656051E-03  0.8007979E+03  0.7818609E-02  0.9558863E-01
        1   -1    0    0  501    0  0.00000000000E+00  0.00000000000E+00  0.19729773929E+04  0.19729773929E+04  0.50400001928E-02 0. -1.
       -1   -1    0    0    0  501  0.00000000000E+00  0.00000000000E+00 -0.81257556131E+02  0.81257556287E+02  0.50400001928E-02 0.  1.
    10030    2    1    2    0    0  0.00000000000E+00  0.00000000000E+00  0.18917198367E+04  0.20542349492E+04  0.80079790563E+03 0.  0.
        3    1    3    3  502    0  0.20736656443E+03 -0.20927523748E+03  0.25029653694E+03  0.38658166494E+03  0.10100000352E+00 0.  1.
       -3    1    3    3    0  502 -0.20736656443E+03  0.20927523748E+03  0.16414232998E+04  0.16676532842E+04  0.10100000352E+00 0. -1.
</event>
<event>
 5   0  0.2690809E-03  0.7994606E+03  0.7818609E-02  0.9560798E-01
       -2   -1    0    0    0  501  0.00000000000E+00  0.00000000000E+00  0.11557246933E+03  0.11557246936E+03  0.25500000920E-02 0. -1.
        2   -1    0    0  501    0  0.00000000000E+00  0.00000000000E+00 -0.13825466590E+04  0.13825466590E+04  0.25500000920E-02 0.  1.
    10030    2    1    2    0    0  0.00000000000E+00  0.00000000000E+00 -0.12669741896E+04  0.14981191283E+04  0.79946064661E+03 0.  0.
        5    1    3    3  502    0  0.32654403287E+03  0.14942617735E+03 -0.96237366801E+03  0.10272021976E+04  0.46999998093E+01 0.  1.
       -5    1    3    3    0  502 -0.32654403287E+03 -0.14942617735E+03 -0.30460052162E+03  0.47091693073E+03  0.46999998093E+01 0. -1.
</event>
<event>
 5   0  0.1617491E-03  0.7998137E+03  0.7818609E-02  0.9560287E-01
        1   -1    0    0  501    0  0.00000000000E+00  0.00000000000E+00  0.15752508978E+03  0.15752508986E+03  0.50400001928E-02 0.  1.
       -1   -1    0    0    0  501  0.00000000000E+00  0.00000000000E+00 -0.10152383099E+04  0.10152383099E+04  0.50400001928E-02 0. -1.
    10030    2    1    2    0    0  0.00000000000E+00  0.00000000000E+00 -0.85771322014E+03  0.11727633998E+04  0.79981374326E+03 0.  0.
        1    1    3    3  502    0  0.64825920914E+02 -0.23271536944E+02 -0.10064757456E+04  0.10088297136E+04  0.50400001928E-02 0. -1.
       -1    1    3    3    0  502 -0.64825920914E+02  0.23271536944E+02  0.14876252550E+03  0.16393368620E+03  0.50400001928E-02 0.  1.
</event>
<event>
 5   0  0.1712793E-03  0.7986016E+03  0.7818609E-02  0.9562043E-01
       -1   -1    0    0    0  501  0.00000000000E+00  0.00000000000E+00  0.10206573739E+03  0.10206573751E+03  0.50400001928E-02 0.  1.
        1   -1    0    0  501    0  0.00000000000E+00  0.00000000000E+00 -0.15621414097E+04  0.15621414097E+04  0.50400001928E-02 0. -1.
    10030    2    1    2    0    0  0.00000000000E+00  0.00000000000E+00 -0.14600756723E+04  0.16642071472E+04  0.79860156523E+03 0.  0.
        4    1    3    3  502    0 -0.10573905842E+03  0.10237192677E+03 -0.15035521125E+04  0.15107386696E+04  0.12699999809E+01 0. -1.
       -4    1    3    3    0  502  0.10573905842E+03 -0.10237192677E+03  0.43476440217E+02  0.15346847761E+03  0.12699999809E+01 0.  1.
</event>
<event>
 5   0  0.1640035E-03  0.8006549E+03  0.7818609E-02  0.9559070E-01
        1   -1    0    0  501    0  0.00000000000E+00  0.00000000000E+00  0.50906243282E+03  0.50906243285E+03  0.50400001928E-02 0.  1.
       -1   -1    0    0    0  501  0.00000000000E+00  0.00000000000E+00 -0.31481806305E+03  0.31481806309E+03  0.50400001928E-02 0. -1.
    10030    2    1    2    0    0  0.00000000000E+00  0.00000000000E+00  0.19424436977E+03  0.82388049594E+03  0.80065485473E+03 0.  0.
        5    1    3    3  502    0 -0.54039326914E+02  0.39603870270E+03  0.11950296684E+03  0.41721691237E+03  0.46999998093E+01 0. -1.
       -5    1    3    3    0  502  0.54039326914E+02 -0.39603870270E+03  0.74741402930E+02  0.40666358357E+03  0.46999998093E+01 0.  1.
</event>
<event>
 5   0  0.1712793E-03  0.8005200E+03  0.7818609E-02  0.9559265E-01
        1   -1    0    0  501    0  0.00000000000E+00  0.00000000000E+00  0.67221056978E+03  0.67221056980E+03  0.50400001928E-02 0. -1.
       -1   -1    0    0    0  501  0.00000000000E+00  0.00000000000E+00 -0.23833018894E+03  0.23833018899E+03  0.50400001928E-02 0.  1.
    10030    2    1    2    0    0  0.00000000000E+00  0.00000000000E+00  0.43388038085E+03  0.91054075879E+03  0.80052001133E+03 0.  0.
        4    1    3    3  502    0 -0.27771314467E+03 -0.19831083776E+03  0.45486484904E+03  0.56864349367E+03  0.12699999809E+01 0. -1.
       -4    1    3    3    0  502  0.27771314467E+03  0.19831083776E+03 -0.20984468197E+02  0.34189726513E+03  0.12699999809E+01 0.  1.
</event>
<event>
 5   0  0.1617491E-03  0.7994811E+03  0.7818609E-02  0.9560768E-01
       -1   -1    0    0    0  501  0.00000000000E+00  0.00000000000E+00  0.36811270300E+03  0.36811270303E+03  0.50400001928E-02 0. -1.
        1   -1    0    0  501    0  0.00000000000E+00  0.00000000000E+00 -0.43408587524E+03  0.43408587527E+03  0.50400001928E-02 0.  1.
    10030    2    1    2    0    0  0.00000000000E+00  0.00000000000E+00 -0.65973172245E+02  0.80219857831E+03  0.79948114398E+03 0.  0.
        1    1    3    3  502    0  0.21141840725E+03 -0.31159169781E+03 -0.16762686395E+03  0.41217216622E+03  0.50400001928E-02 0. -1.
       -1    1    3    3    0  502 -0.21141840725E+03  0.31159169781E+03  0.10165369170E+03  0.39002641209E+03  0.50400001928E-02 0.  1.
</event>
<event>
 5   0  0.2768834E-03  0.8018029E+03  0.7818609E-02  0.9557411E-01
        2   -1    0    0  501    0  0.00000000000E+00  0.00000000000E+00  0.88996663443E+03  0.88996663443E+03  0.25500000920E-02 0. -1.
       -2   -1    0    0    0  501  0.00000000000E+00  0.00000000000E+00 -0.18059323701E+03  0.18059323703E+03  0.25500000920E-02 0.  1.
    10030    2    1    2    0    0  0.00000000000E+00  0.00000000000E+00  0.70937339742E+03  0.10705598715E+04  0.80180285696E+03 0.  0.
        4    1    3    3  502    0 -0.26387986431E+03 -0.26746743263E+03  0.16800365173E+03  0.41158018684E+03  0.12699999809E+01 0.  1.
       -4    1    3    3    0  502  0.26387986431E+03  0.26746743263E+03  0.54136974569E+03  0.65897968463E+03  0.12699999809E+01 0. -1.
</event>
<event>
 5   0  0.1712793E-03  0.7994313E+03  0.7818609E-02  0.9560841E-01
       -1   -1    0    0    0  501  0.00000000000E+00  0.00000000000E+00  0.14566804005E+03  0.14566804013E+03  0.50400001928E-02 0.  1.
        1   -1    0    0  501    0  0.00000000000E+00  0.00000000000E+00 -0.10968267454E+04  0.10968267454E+04  0.50400001928E-02 0. -1.
    10030    2    1    2    0    0  0.00000000000E+00  0.00000000000E+00 -0.95115870538E+03  0.12424947856E+04  0.79943130371E+03 0.  0.
        4    1    3    3  502    0 -0.20275094021E+02 -0.34053560272E+03 -0.79934840871E+03  0.86910014818E+03  0.12699999809E+01 0.  1.
       -4    1    3    3    0  502  0.20275094021E+02  0.34053560272E+03 -0.15181029668E+03  0.37339463740E+03  0.12699999809E+01 0. -1.
</event>
<event>
 5   0  0.1712793E-03  0.8001611E+03  0.7818609E-02  0.9559784E-01
       -1   -1    0    0    0  501  0.00000000000E+00  0.00000000000E+00  0.22021314245E+03  0.22021314251E+03  0.50400001928E-02 0.  1.
        1   -1    0    0  501    0  0.00000000000E+00  0.00000000000E+00 -0.72686146917E+03  0.72686146919E+03  0.50400001928E-02 0. -1.
    10030    2    1    2    0    0  0.00000000000E+00  0.00000000000E+00 -0.50664832672E+03  0.94707461170E+03  0.80016110450E+03 0.  0.
        4    1    3    3  502    0 -0.14041922340E+03 -0.28845077130E+02  0.18876968122E+03  0.23703417944E+03  0.12699999809E+01 0.  1.
       -4    1    3    3    0  502  0.14041922340E+03  0.28845077130E+02 -0.69541800794E+03  0.71004043226E+03  0.12699999809E+01 0. -1.
</event>
<event>
 5   0  0.1656051E-03  0.7999276E+03  0.7818609E-02  0.9560122E-01
       -1   -1    0    0    0  501  0.00000000000E+00  0.00000000000E+00  0.18895759386E+03  0.18895759393E+03  0.50400001928E-02 0. -1.
        1   -1    0    0  501    0  0.00000000000E+00  0.00000000000E+00 -0.84659761983E+03  0.84659761984E+03  0.50400001928E-02 0.  1.
    10030    2    1    2    0    0  0.00000000000E+00  0.00000000000E+00 -0.65764002597E+03  0.10355552138E+04  0.79992761985E+03 0.  0.
        3    1    3    3  502    0  0.94859449554E+02 -0.36903645466E+03 -0.17141064562E+03  0.41781316360E+03  0.10100000352E+00 0. -1.
       -3    1    3    3    0  502 -0.94859449554E+02  0.36903645466E+03 -0.48622938034E+03  0.61774205017E+03  0.10100000352E+00 0.  1.
</event>
<event>
 5   0  0.1656051E-03  0.8102131E+03  0.7818609E-02  0.9545351E-01
       -1   -1    0    0    0  501  0.00000000000E+00  0.00000000000E+00  0.64907169057E+03  0.64907169059E+03  0.50400001928E-02 0.  1.
        1   -1    0    0  501    0  0.00000000000E+00  0.00000000000E+00 -0.25284007519E+03  0.25284007524E+03  0.50400001928E-02 0. -1.
    10030    2    1    2    0    0  0.00000000000E+00  0.00000000000E+00  0.39623161537E+03  0.90191176583E+03  0.81021314500E+03 0.  0.
        3    1    3    3  502    0 -0.38929569732E+03  0.75797265308E+02  0.10621985019E+03  0.41058376996E+03  0.10100000352E+00 0. -1.
       -3    1    3    3    0  502  0.38929569732E+03 -0.75797265308E+02  0.29001176519E+03  0.49132799587E+03  0.10100000352E+00 0.  1.
</event>
<event>
 5   0  0.1095350E-03  0.7998653E+03  0.7818609E-02  0.9560212E-01
        3   -1    0    0  501    0  0.00000000000E+00  0.00000000000E+00  0.95737695483E+02  0.95737748759E+02  0.10100000352E+00 0. -1.
       -3   -1    0    0    0  501  0.00000000000E+00  0.00000000000E+00 -0.16706697374E+04  0.16706697405E+04  0.10100000352E+00 0.  1.
    10030    2    1    2    0    0  0.00000000000E+00  0.00000000000E+00 -0.15749320420E+04  0.17664074893E+04  0.79986528947E+03 0.  0.
        5    1    3    3  502    0 -0.37328002229E+02  0.34307809484E+02 -0.16634827957E+04  0.16642618505E+04  0.46999998093E+01 0.  1.
       -5    1    3    3    0  502  0.37328002229E+02 -0.34307809484E+02  0.88550753694E+02  0.10214563877E+03  0.46999998093E+01 0. -1.
</event>
<event>
 5   0  0.2768834E-03  0.8004488E+03  0.7818609E-02  0.9559368E-01
        2   -1    0    0  501    0  0.00000000000E+00  0.00000000000E+00  0.34431059778E+04  0.34431059778E+04  0.25500000920E-02 0. -1.
       -2   -1    0    0    0  501  0.00000000000E+00  0.00000000000E+00 -0.46521820857E+02  0.46521820927E+02  0.25500000920E-02 0.  1.
    10030    2    1    2    0    0  0.00000000000E+00  0.00000000000E+00  0.33965841569E+04  0.34896277987E+04  0.80044877317E+03 0.  0.
        4    1    3    3  502    0  0.12368713652E+03 -0.25092090315E+03  0.29460651369E+04  0.29593176935E+04  0.12699999809E+01 0. -1.
       -4    1    3    3    0  502 -0.12368713652E+03  0.25092090315E+03  0.45051902007E+03  0.53031010525E+03  0.12699999809E+01 0.  1.
</event>
<event>
 5   0  0.1637228E-03  0.8010593E+03  0.7818609E-02  0.9558485E-01
       -1   -1    0    0    0  501  0.00000000000E+00  0.00000000000E+00  0.33242639845E+03  0.33242639849E+03  0.50400001928E-02 0. -1.
        1   -1    0    0  501    0  0.00000000000E+00  0.00000000000E+00 -0.48258497927E+03  0.48258497929E+03  0.50400001928E-02 0.  1.
    10030    2    1    2    0    0  0.00000000000E+00  0.00000000000E+00 -0.15015858081E+03  0.81501137778E+03  0.80105926530E+03 0.  0.
        2    1    3    3  502    0 -0.17237786386E+03  0.30483526398E+03  0.12269078490E+03  0.37106831557E+03  0.25500000920E-02 0. -1.
       -2    1    3    3    0  502  0.17237786386E+03 -0.30483526398E+03 -0.27284936571E+03  0.44394306221E+03  0.25500000920E-02 0.  1.
</event>
<event>
 5   0  0.1712793E-03  0.7981136E+03  0.7818609E-02  0.9562752E-01
        1   -1    0    0  501    0  0.00000000000E+00  0.00000000000E+00  0.16742665691E+04  0.16742665691E+04  0.50400001928E-02 0. -1.
       -1   -1    0    0    0  501  0.00000000000E+00  0.00000000000E+00 -0.95114092332E+02  0.95114092465E+02  0.50400001928E-02 0.  1.
    10030    2    1    2    0    0  0.00000000000E+00  0.00000000000E+00  0.15791524767E+04  0.17693806615E+04  0.79811363893E+03 0.  0.
        4    1    3    3  502    0 -0.24273482934E+03  0.23589528006E+03  0.32097528144E+03  0.46646921091E+03  0.12699999809E+01 0.  1.
       -4    1    3    3    0  502  0.24273482934E+03 -0.23589528006E+03  0.12581771953E+04  0.13029114506E+04  0.12699999809E+01 0. -1.
</event>
<event>
 5   0  0.2768834E-03  0.8002072E+03  0.7818609E-02  0.9559717E-01
        2   -1    0    0  501    0  0.00000000000E+00  0.00000000000E+00  0.36960741223E+03  0.36960741224E+03  0.25500000920E-02 0. -1.
       -2   -1    0    0    0  501  0.00000000000E+00  0.00000000000E+00 -0.43311598713E+03  0.43311598713E+03  0.25500000920E-02 0.  1.
    10030    2    1    2    0    0  0.00000000000E+00  0.00000000000E+00 -0.63508574894E+02  0.80272339938E+03  0.80020717119E+03 0.  0.
        4    1    3    3  502    0 -0.63981312403E+02 -0.11314402079E+03  0.34783495541E+03  0.37132997035E+03  0.12699999809E+01 0. -1.
       -4    1    3    3    0  502  0.63981312403E+02  0.11314402079E+03 -0.41134353031E+03  0.43139342902E+03  0.12699999809E+01 0.  1.
</event>
<event>
 5   0  0.2690809E-03  0.7976293E+03  0.7818609E-02  0.9563455E-01
       -2   -1    0    0    0  501  0.00000000000E+00  0.00000000000E+00  0.10077776478E+04  0.10077776478E+04  0.25500000920E-02 0. -1.
        2   -1    0    0  501    0  0.00000000000E+00  0.00000000000E+00 -0.15782562295E+03  0.15782562297E+03  0.25500000920E-02 0.  1.
    10030    2    1    2    0    0  0.00000000000E+00  0.00000000000E+00  0.84995202486E+03  0.11656032708E+04  0.79762932512E+03 0.  0.
        5    1    3    3  502    0  0.22933744239E+03 -0.11222212594E+03 -0.22682960186E+02  0.25637097089E+03  0.46999998093E+01 0.  1.
       -5    1    3    3    0  502 -0.22933744239E+03  0.11222212594E+03  0.87263498504E+03  0.90923229988E+03  0.46999998093E+01 0. -1.
</event>
<event>
 5   0  0.1712793E-03  0.7996716E+03  0.7818609E-02  0.9560493E-01
        1   -1    0    0  501    0  0.00000000000E+00  0.00000000000E+00  0.21937287610E+03  0.21937287615E+03  0.50400001928E-02 0.  1.
       -1   -1    0    0    0  501  0.00000000000E+00  0.00000000000E+00 -0.72875304449E+03  0.72875304451E+03  0.50400001928E-02 0. -1.
    10030    2    1    2    0    0  0.00000000000E+00  0.00000000000E+00 -0.50938016840E+03  0.94812592067E+03  0.79967156101E+03 0.  0.
        4    1    3    3  502    0  0.31354121389E+03 -0.60122806761E+02 -0.54009360790E+03  0.62739585821E+03  0.12699999809E+01 0. -1.
       -4    1    3    3    0  502 -0.31354121389E+03  0.60122806761E+02  0.30713439506E+02  0.32073006246E+03  0.12699999809E+01 0.  1.
</event>
<event>
 5   0  0.2768834E-03  0.7989233E+03  0.7818609E-02  0.9561577E-01
        2   -1    0    0  501    0  0.00000000000E+00  0.00000000000E+00  0.11270800056E+04  0.11270800056E+04  0.25500000920E-02 0.  1.
       -2   -1    0    0    0  501  0.00000000000E+00  0.00000000000E+00 -0.14157790085E+03  0.14157790087E+03  0.25500000920E-02 0. -1.
    10030    2    1    2    0    0  0.00000000000E+00  0.00000000000E+00  0.98550210476E+03  0.12686579065E+04  0.79892332873E+03 0.  0.
        4    1    3    3  502    0  0.17547286688E+03  0.30147867289E+03  0.18365771469E+03  0.39422314276E+03  0.12699999809E+01 0. -1.
       -4    1    3    3    0  502 -0.17547286688E+03 -0.30147867289E+03  0.80184439007E+03  0.87443476372E+03  0.12699999809E+01 0.  1.
</event>
<event>
 5   0  0.2763587E-03  0.8004842E+03  0.7818609E-02  0.9559316E-01
       -2   -1    0    0    0  501  0.00000000000E+00  0.00000000000E+00  0.94002535463E+02  0.94002535498E+02  0.25500000920E-02 0. -1.
        2   -1    0    0  501    0  0.00000000000E+00  0.00000000000E+00 -0.17041428477E+04  0.17041428477E+04  0.25500000920E-02 0.  1.
    10030    2    1    2    0    0  0.00000000000E+00  0.00000000000E+00 -0.16101403122E+04  0.17981453832E+04  0.80048422471E+03 0.  0.
        3    1    3    3  502    0 -0.38017879061E+02  0.37592695446E+03 -0.50852753002E+03  0.63353507654E+03  0.10100000352E+00 0. -1.
       -3    1    3    3    0  502  0.38017879061E+02 -0.37592695446E+03 -0.11016127822E+04  0.11646103066E+04  0.10100000352E+00 0.  1.
</event>
<event>
 5   0  0.1640035E-03  0.8015960E+03  0.7818609E-02  0.9557710E-01
        1   -1    0    0  501    0  0.00000000000E+00  0.00000000000E+00  0.34418847162E+03  0.34418847166E+03  0.50400001928E-02 0.  1.
       -1   -1    0    0    0  501  0.00000000000E+00  0.00000000000E+00 -0.46671825082E+03  0.46671825084E+03  0.50400001928E-02 0. -1.
    10030    2    1    2    0    0  0.00000000000E+00  0.00000000000E+00 -0.12252977919E+03  0.81090672250E+03  0.80159601160E+03 0.  0.
        5    1    3    3  502    0 -0.19446267191E+03  0.19326824125E+03  0.23444636120E+03  0.36077074455E+03  0.46999998093E+01 0.  1.
       -5    1    3    3    0  502  0.19446267191E+03 -0.19326824125E+03 -0.35697614040E+03  0.45013597796E+03  0.46999998093E+01 0. -1.
</event>
<event>
 5   0  0.2873212E-03  0.7995729E+03  0.7818609E-02  0.9560636E-01
        2   -1    0    0  501    0  0.00000000000E+00  0.00000000000E+00  0.32640829066E+03  0.32640829067E+03  0.25500000920E-02 0. -1.
       -2   -1    0    0    0  501  0.00000000000E+00  0.00000000000E+00 -0.48966031802E+03  0.48966031802E+03  0.25500000920E-02 0.  1.
    10030    2    1    2    0    0  0.00000000000E+00  0.00000000000E+00 -0.16325202736E+03  0.81606860869E+03  0.79957285450E+03 0.  0.
        2    1    3    3  502    0 -0.12273940003E+03 -0.37622206761E+03 -0.23699642142E+02  0.39644631102E+03  0.25500000920E-02 0. -1.
       -2    1    3    3    0  502  0.12273940003E+03  0.37622206761E+03 -0.13955238522E+03  0.41962229767E+03  0.25500000920E-02 0.  1.
</event>
<event>
 5   0  0.1640035E-03  0.8000331E+03  0.7818609E-02  0.9559969E-01
       -1   -1    0    0    0  501  0.00000000000E+00  0.00000000000E+00  0.14656769722E+03  0.14656769731E+03  0.50400001928E-02 0. -1.
        1   -1    0    0  501    0  0.00000000000E+00  0.00000000000E+00 -0.10917359683E+04  0.10917359683E+04  0.50400001928E-02 0.  1.
    10030    2    1    2    0    0  0.00000000000E+00  0.00000000000E+00 -0.94516827109E+03  0.12383036656E+04  0.80003306659E+03 0.  0.
        5    1    3    3  502    0 -0.24123452910E+03  0.23721033090E+03 -0.14232113085E+03  0.36706979364E+03  0.46999998093E+01 0. -1.
       -5    1    3    3    0  502  0.24123452910E+03 -0.23721033090E+03 -0.80284714025E+03  0.87123387200E+03  0.46999998093E+01 0.  1.
</event>
<event>
 5   0  0.2873212E-03  0.7975630E+03  0.7818609E-02  0.9563551E-01
        2   -1    0    0  501    0  0.00000000000E+00  0.00000000000E+00  0.13675752691E+04  0.13675752691E+04  0.25500000920E-02 0. -1.
       -2   -1    0    0    0  501  0.00000000000E+00  0.00000000000E+00 -0.11628367252E+03  0.11628367254E+03  0.25500000920E-02 0.  1.
    10030    2    1    2    0    0  0.00000000000E+00  0.00000000000E+00  0.12512915966E+04  0.14838589416E+04  0.79756297496E+03 0.  0.
        2    1    3    3  502    0 -0.27100795561E+03  0.39461886357E+02  0.11649448115E+04  0.11967033744E+04  0.25500000920E-02 0. -1.
       -2    1    3    3    0  502  0.27100795561E+03 -0.39461886357E+02  0.86346785049E+02  0.28715556720E+03  0.25500000920E-02 0.  1.
</event>
<event>
 5   0  0.1656051E-03  0.7990328E+03  0.7818609E-02  0.9561418E-01
       -1   -1    0    0    0  501  0.00000000000E+00  0.00000000000E+00  0.44471820238E+03  0.44471820241E+03  0.50400001928E-02 0.  1.
        1   -1    0    0  501    0  0.00000000000E+00  0.00000000000E+00 -0.35890895525E+03  0.35890895528E+03  0.50400001928E-02 0. -1.
    10030    2    1    2    0    0  0.00000000000E+00  0.00000000000E+00  0.85809247134E+02  0.80362715770E+03  0.79903277886E+03 0.  0.
        3    1    3    3  502    0 -0.36418711187E+02  0.65992377082E+02 -0.35169302385E+03  0.35967945394E+03  0.10100000352E+00 0. -1.
       -3    1    3    3    0  502  0.36418711187E+02 -0.65992377082E+02  0.43750227098E+03  0.44394770376E+03  0.10100000352E+00 0.  1.
</event>
<event>
 5   0  0.2763587E-03  0.8011936E+03  0.7818609E-02  0.9558291E-01
       -2   -1    0    0    0  501  0.00000000000E+00  0.00000000000E+00  0.49012421447E+03  0.49012421448E+03  0.25500000920E-02 0. -1.
        2   -1    0    0  501    0  0.00000000000E+00  0.00000000000E+00 -0.32742267290E+03  0.32742267291E+03  0.25500000920E-02 0.  1.
    10030    2    1    2    0    0  0.00000000000E+00  0.00000000000E+00  0.16270154157E+03  0.81754688739E+03  0.80119356054E+03 0.  0.
        3    1    3    3  502    0  0.25827366961E+03  0.92304201474E+02  0.37929060201E+03  0.46806700909E+03  0.10100000352E+00 0. -1.
       -3    1    3    3    0  502 -0.25827366961E+03 -0.92304201474E+02 -0.21658906044E+03  0.34947987829E+03  0.10100000352E+00 0.  1.
</event>
<event>
 5   0  0.1637228E-03  0.7989965E+03  0.7818609E-02  0.9561471E-01
        1   -1    0    0  501    0  0.00000000000E+00  0.00000000000E+00  0.30743939224E+04  0.30743939224E+04  0.50400001928E-02 0.  1.
       -1   -1    0    0    0  501  0.00000000000E+00  0.00000000000E+00 -0.51912302355E+02  0.51912302599E+02  0.50400001928E-02 0. -1.
    10030    2    1    2    0    0  0.00000000000E+00  0.00000000000E+00  0.30224816201E+04  0.31263062250E+04  0.79899653879E+03 0.  0.
        2    1    3    3  502    0 -0.28563395870E+03 -0.10011591342E+03  0.25314886067E+04  0.25495184879E+04  0.25500000920E-02 0.  1.
       -2    1    3    3    0  502  0.28563395870E+03  0.10011591342E+03  0.49099301343E+03  0.57678773715E+03  0.25500000920E-02 0. -1.
</event>
<event>
 5   0  0.1617491E-03  0.8019506E+03  0.7818609E-02  0.9557198E-01
       -1   -1    0    0    0  501  0.00000000000E+00  0.00000000000E+00  0.10768780557E+04  0.10768780557E+04  0.50400001928E-02 0. -1.
        1   -1    0    0  501    0  0.00000000000E+00  0.00000000000E+00 -0.14930304991E+03  0.14930304999E+03  0.50400001928E-02 0.  1.
    10030    2    1    2    0    0  0.00000000000E+00  0.00000000000E+00  0.92757500582E+03  0.12261811057E+04  0.80195056744E+03 0.  0.
        1    1    3    3  502    0  0.25266111870E+03 -0.16803481968E+03  0.86457130213E+03  0.91627336424E+03  0.50400001928E-02 0. -1.
       -1    1    3    3    0  502 -0.25266111870E+03  0.16803481968E+03  0.63003703685E+02  0.30990774148E+03  0.50400001928E-02 0.  1.
</event>
<event>
 5   0  0.2873212E-03  0.8000618E+03  0.7818609E-02  0.9559928E-01
       -2   -1    0    0    0  501  0.00000000000E+00  0.00000000000E+00  0.23828919868E+03  0.23828919869E+03  0.25500000920E-02 0. -1.
        2   -1    0    0  501    0  0.00000000000E+00  0.00000000000E+00 -0.67155681206E+03  0.67155681207E+03  0.25500000920E-02 0.  1.
    10030    2    1    2    0    0  0.00000000000E+00  0.00000000000E+00 -0.43326761338E+03  0.90984601076E+03  0.80006183417E+03 0.  0.
        2    1    3    3  502    0  0.18807229524E+02 -0.87620455903E+02 -0.65999441526E+03  0.66605081214E+03  0.25500000920E-02 0.  1.
       -2    1    3    3    0  502 -0.18807229524E+02  0.87620455903E+02  0.22672680188E+03  0.24379519862E+03  0.25500000920E-02 0. -1.
</event>
<event>
 5   0  0.1656051E-03  0.8035838E+03  0.7818609E-02  0.9554844E-01
       -1   -1    0    0    0  501  0.00000000000E+00  0.00000000000E+00  0.56264012658E+03  0.56264012661E+03  0.50400001928E-02 0.  1.
        1   -1    0    0  501    0  0.00000000000E+00  0.00000000000E+00 -0.28692717796E+03  0.28692717800E+03  0.50400001928E-02 0. -1.
    10030    2    1    2    0    0  0.00000000000E+00  0.00000000000E+00  0.27571294862E+03  0.84956730461E+03  0.80358383198E+03 0.  0.
        3    1    3    3  502    0  0.22864337771E+03 -0.21384274616E+03 -0.12840890797E+03  0.33837164790E+03  0.10100000352E+00 0. -1.
       -3    1    3    3    0  502 -0.22864337771E+03  0.21384274616E+03  0.40412185660E+03  0.51119565671E+03  0.10100000352E+00 0.  1.
</event>
<event>
 5   0  0.2768834E-03  0.8036604E+03  0.7818609E-02  0.9554734E-01
        2   -1    0    0  501    0  0.00000000000E+00  0.00000000000E+00  0.43954405503E+03  0.43954405504E+03  0.25500000920E-02 0. -1.
       -2   -1    0    0    0  501  0.00000000000E+00  0.00000000000E+00 -0.36735228633E+03  0.36735228634E+03  0.25500000920E-02 0.  1.
    10030    2    1    2    0    0  0.00000000000E+00  0.00000000000E+00  0.72191768706E+02  0.80689634138E+03  0.80366040979E+03 0.  0.
        4    1    3    3  502    0 -0.33600139193E+03  0.20996692792E+03 -0.31127827933E+02  0.39743376904E+03  0.12699999809E+01 0. -1.
       -4    1    3    3    0  502  0.33600139193E+03 -0.20996692792E+03  0.10331959664E+03  0.40946257234E+03  0.12699999809E+01 0.  1.
</event>
<event>
 5   0  0.2763587E-03  0.8001662E+03  0.7818609E-02  0.9559777E-01
        2   -1    0    0  501    0  0.00000000000E+00  0.00000000000E+00  0.44886024022E+03  0.44886024023E+03  0.25500000920E-02 0. -1.
       -2   -1    0    0    0  501  0.00000000000E+00  0.00000000000E+00 -0.35660652987E+03  0.35660652988E+03  0.25500000920E-02 0.  1.
    10030    2    1    2    0    0  0.00000000000E+00  0.00000000000E+00  0.92253710350E+02  0.80546677010E+03  0.80016621440E+03 0.  0.
        3    1    3    3  502    0 -0.33618632819E+03 -0.18704295577E+03  0.15667312557E+03  0.41539474364E+03  0.10100000352E+00 0. -1.
       -3    1    3    3    0  502  0.33618632819E+03  0.18704295577E+03 -0.64419415222E+02  0.39007202646E+03  0.10100000352E+00 0.  1.
</event>
<event>
 5   0  0.2690809E-03  0.7974949E+03  0.7818609E-02  0.9563650E-01
        2   -1    0    0  501    0  0.00000000000E+00  0.00000000000E+00  0.13794246992E+04  0.13794246992E+04  0.25500000920E-02 0. -1.
       -2   -1    0    0    0  501  0.00000000000E+00  0.00000000000E+00 -0.11526511579E+03  0.11526511582E+03  0.25500000920E-02 0.  1.
    10030    2    1    2    0    0  0.00000000000E+00  0.00000000000E+00  0.12641595834E+04  0.14946898150E+04  0.79749494719E+03 0.  0.
        5    1    3    3  502    0  0.25959038856E+03  0.11676035673E+03  0.10877881046E+03  0.30475411455E+03  0.46999998093E+01 0.  1.
       -5    1    3    3    0  502 -0.25959038856E+03 -0.11676035673E+03  0.11553807730E+04  0.11899357005E+04  0.46999998093E+01 0. -1.
</event>
<event>
 5   0  0.1712793E-03  0.8007010E+03  0.7818609E-02  0.9559003E-01
        1   -1    0    0  501    0  0.00000000000E+00  0.00000000000E+00  0.36549009111E+03  0.36549009114E+03  0.50400001928E-02 0. -1.
       -1   -1    0    0    0  501  0.00000000000E+00  0.00000000000E+00 -0.43853589762E+03  0.43853589765E+03  0.50400001928E-02 0.  1.
    10030    2    1    2    0    0  0.00000000000E+00  0.00000000000E+00 -0.73045806517E+02  0.80402598880E+03  0.80070100588E+03 0.  0.
        4    1    3    3  502    0  0.39348319203E+02  0.16269192136E+03 -0.40171148591E+03  0.43519039777E+03  0.12699999809E+01 0.  1.
       -4    1    3    3    0  502 -0.39348319203E+02 -0.16269192136E+03  0.32866567939E+03  0.36883559103E+03  0.12699999809E+01 0. -1.
</event>
<event>
 5   0  0.1617491E-03  0.8036956E+03  0.7818609E-02  0.9554683E-01
        1   -1    0    0  501    0  0.00000000000E+00  0.00000000000E+00  0.58085723830E+03  0.58085723832E+03  0.50400001928E-02 0.  1.
       -1   -1    0    0    0  501  0.00000000000E+00  0.00000000000E+00 -0.27800573578E+03  0.27800573582E+03  0.50400001928E-02 0. -1.
    10030    2    1    2    0    0  0.00000000000E+00  0.00000000000E+00  0.30285150252E+03  0.85886297414E+03  0.80369557406E+03 0.  0.
        1    1    3    3  502    0  0.29009282470E+03 -0.47515367456E+02 -0.14137066918E+03  0.32618587219E+03  0.50400001928E-02 0.  1.
       -1    1    3    3    0  502 -0.29009282470E+03  0.47515367456E+02  0.44422217170E+03  0.53267710195E+03  0.50400001928E-02 0. -1.
</event>
<event>
 5   0  0.1640035E-03  0.7976898E+03  0.7818609E-02  0.9563367E-01
       -1   -1    0    0    0  501  0.00000000000E+00  0.00000000000E+00  0.16315015391E+03  0.16315015398E+03  0.50400001928E-02 0. -1.
        1   -1    0    0  501    0  0.00000000000E+00  0.00000000000E+00 -0.97503584373E+03  0.97503584374E+03  0.50400001928E-02 0.  1.
    10030    2    1    2    0    0  0.00000000000E+00  0.00000000000E+00 -0.81188568982E+03  0.11381859977E+04  0.79768978436E+03 0.  0.
        5    1    3    3  502    0  0.28784006449E+03  0.98928696939E+02 -0.77366243737E+03  0.83139307599E+03  0.46999998093E+01 0.  1.
       -5    1    3    3    0  502 -0.28784006449E+03 -0.98928696939E+02 -0.38223252449E+02  0.30679292174E+03  0.46999998093E+01 0. -1.
</event>
<event>
 5   0  0.2768834E-03  0.7839575E+03  0.7818609E-02  0.9583533E-01
       -2   -1    0    0    0  501  0.00000000000E+00  0.00000000000E+00  0.32235017159E+03  0.32235017160E+03  0.25500000920E-02 0. -1.
        2   -1    0    0  501    0  0.00000000000E+00  0.00000000000E+00 -0.47664735661E+03  0.47664735662E+03  0.25500000920E-02 0.  1.
    10030    2    1    2    0    0  0.00000000000E+00  0.00000000000E+00 -0.15429718502E+03  0.79899752823E+03  0.78395754273E+03 0.  0.
        4    1    3    3  502    0  0.13092777787E+02  0.30996003282E+03 -0.32132597843E+03  0.44665270635E+03  0.12699999809E+01 0. -1.
       -4    1    3    3    0  502 -0.13092777787E+02 -0.30996003282E+03  0.16702879341E+03  0.35234482188E+03  0.12699999809E+01 0.  1.
</event>
<event>
 5   0  0.2910501E-03  0.7973467E+03  0.7818609E-02  0.9563866E-01
        2   -1    0    0  501    0  0.00000000000E+00  0.00000000000E+00  0.35643424415E+03  0.35643424416E+03  0.25500000920E-02 0.  1.
       -2   -1    0    0    0  501  0.00000000000E+00  0.00000000000E+00 -0.44591799291E+03  0.44591799292E+03  0.25500000920E-02 0. -1.
    10030    2    1    2    0    0  0.00000000000E+00  0.00000000000E+00 -0.89483748761E+02  0.80235223709E+03  0.79734670694E+03 0.  0.
        1    1    3    3  502    0  0.35130337078E+03  0.64243846099E+02 -0.22305222354E+03  0.42106249481E+03  0.50400001928E-02 0. -1.
       -1    1    3    3    0  502 -0.35130337078E+03 -0.64243846099E+02  0.13356847477E+03  0.38128974228E+03  0.50400001928E-02 0.  1.
</event>
<event>
 5   0  0.2690809E-03  0.8013679E+03  0.7818609E-02  0.9558039E-01
       -2   -1    0    0    0  501  0.00000000000E+00  0.00000000000E+00  0.17187565691E+03  0.17187565693E+03  0.25500000920E-02 0. -1.
        2   -1    0    0  501    0  0.00000000000E+00  0.00000000000E+00 -0.93409183522E+03  0.93409183522E+03  0.25500000920E-02 0.  1.
    10030    2    1    2    0    0  0.00000000000E+00  0.00000000000E+00 -0.76221617831E+03  0.11059674922E+04  0.80136794996E+03 0.  0.
        5    1    3    3  502    0 -0.29582146222E+03  0.32330446726E+02 -0.75135038552E+03  0.80814917380E+03  0.46999998093E+01 0.  1.
       -5    1    3    3    0  502  0.29582146222E+03 -0.32330446726E+02 -0.10865792781E+02  0.29781831835E+03  0.46999998093E+01 0. -1.
</event>
<event>
 5   0  0.2768834E-03  0.7996625E+03  0.7818609E-02  0.9560506E-01
        2   -1    0    0  501    0  0.00000000000E+00  0.00000000000E+00  0.11246662855E+04  0.11246662855E+04  0.25500000920E-02 0.  1.
       -2   -1    0    0    0  501  0.00000000000E+00  0.00000000000E+00 -0.14214442609E+03  0.14214442612E+03  0.25500000920E-02 0. -1.
    10030    2    1    2    0    0  0.00000000000E+00  0.00000000000E+00  0.98252185944E+03  0.12668107117E+04  0.79966253813E+03 0.  0.
        4    1    3    3  502    0 -0.74802964044E+02  0.10864124748E+01 -0.13095505657E+03  0.15082275513E+03  0.12699999809E+01 0. -1.
       -4    1    3    3    0  502  0.74802964044E+02 -0.10864124748E+01  0.11134769160E+04  0.11159879565E+04  0.12699999809E+01 0.  1.
</event>
<event>
 5   0  0.2873212E-03  0.7986752E+03  0.7818609E-02  0.9561937E-01
        2   -1    0    0  501    0  0.00000000000E+00  0.00000000000E+00  0.69657430899E+03  0.69657430899E+03  0.25500000920E-02 0.  1.
       -2   -1    0    0    0  501  0.00000000000E+00  0.00000000000E+00 -0.22893540305E+03  0.22893540306E+03  0.25500000920E-02 0. -1.
    10030    2    1    2    0    0  0.00000000000E+00  0.00000000000E+00  0.46763890594E+03  0.92550971205E+03  0.79867520354E+03 0.  0.
        2    1    3    3  502    0 -0.27867064590E+03  0.89933094794E+02 -0.80824106672E+02  0.30377265619E+03  0.25500000920E-02 0. -1.
       -2    1    3    3    0  502  0.27867064590E+03 -0.89933094794E+02  0.54846301261E+03  0.62173705586E+03  0.25500000920E-02 0.  1.
</event>
<event>
 5   0  0.2690809E-03  0.7982487E+03  0.7818609E-02  0.9562556E-01
        2   -1    0    0  501    0  0.00000000000E+00  0.00000000000E+00  0.11340277699E+04  0.11340277699E+04  0.25500000920E-02 0. -1.
       -2   -1    0    0    0  501  0.00000000000E+00  0.00000000000E+00 -0.14047296027E+03  0.14047296029E+03  0.25500000920E-02 0.  1.
    10030    2    1    2    0    0  0.00000000000E+00  0.00000000000E+00  0.99355480959E+03  0.12745007302E+04  0.79824867773E+03 0.  0.
        5    1    3    3  502    0  0.15714481914E+02  0.22190282212E+03  0.10258118464E+04  0.10496665383E+04  0.46999998093E+01 0. -1.
       -5    1    3    3    0  502 -0.15714481914E+02 -0.22190282212E+03 -0.32257036806E+02  0.22483419186E+03  0.46999998093E+01 0.  1.
</event>
<event>
 5   0  0.2690809E-03  0.7968811E+03  0.7818609E-02  0.9564543E-01
        2   -1    0    0  501    0  0.00000000000E+00  0.00000000000E+00  0.16017083136E+04  0.16017083136E+04  0.25500000920E-02 0. -1.
       -2   -1    0    0    0  501  0.00000000000E+00  0.00000000000E+00 -0.99115975513E+02  0.99115975546E+02  0.25500000920E-02 0.  1.
    10030    2    1    2    0    0  0.00000000000E+00  0.00000000000E+00  0.15025923381E+04  0.17008242892E+04  0.79688112544E+03 0.  0.
        5    1    3    3  502    0 -0.23223272582E+02  0.23315664996E+03  0.63546540359E+02  0.24282009102E+03  0.46999998093E+01 0.  1.
       -5    1    3    3    0  502  0.23223272582E+02 -0.23315664996E+03  0.14390457977E+04  0.14580041981E+04  0.46999998093E+01 0. -1.
</event>
<event>
 5   0  0.1637228E-03  0.8009926E+03  0.7818609E-02  0.9558581E-01
        1   -1    0    0  501    0  0.00000000000E+00  0.00000000000E+00  0.64040519954E+03  0.64040519956E+03  0.50400001928E-02 0.  1.
       -1   -1    0    0    0  501  0.00000000000E+00  0.00000000000E+00 -0.25046220947E+03  0.25046220952E+03  0.50400001928E-02 0. -1.
    10030    2    1    2    0    0  0.00000000000E+00  0.00000000000E+00  0.38994299008E+03  0.89086740908E+03  0.80099263733E+03 0.  0.
        2    1    3    3  502    0  0.38806212066E+03 -0.25504365855E+02  0.88556044875E+02  0.39885442865E+03  0.25500000920E-02 0. -1.
       -2    1    3    3    0  502 -0.38806212066E+03  0.25504365855E+02  0.30138694520E+03  0.49201298043E+03  0.25500000920E-02 0.  1.
</event>
<event>
 5   0  0.1637228E-03  0.8019495E+03  0.7818609E-02  0.9557200E-01
       -1   -1    0    0    0  501  0.00000000000E+00  0.00000000000E+00  0.17813730590E+03  0.17813730597E+03  0.50400001928E-02 0. -1.
        1   -1    0    0  501    0  0.00000000000E+00  0.00000000000E+00 -0.90256632906E+03  0.90256632907E+03  0.50400001928E-02 0.  1.
    10030    2    1    2    0    0  0.00000000000E+00  0.00000000000E+00 -0.72442902315E+03  0.10807036350E+04  0.80194946051E+03 0.  0.
        2    1    3    3  502    0  0.10750939346E+03  0.38375724632E+03 -0.42176605215E+03  0.58027105437E+03  0.25500000920E-02 0. -1.
       -2    1    3    3    0  502 -0.10750939346E+03 -0.38375724632E+03 -0.30266297100E+03  0.50043258068E+03  0.25500000920E-02 0.  1.
</event>
<event>
 5   0  0.1095350E-03  0.7991497E+03  0.7818609E-02  0.9561249E-01
       -4   -1    0    0    0  501  0.00000000000E+00  0.00000000000E+00  0.98044676758E+03  0.98044759011E+03  0.12699999809E+01 0.  1.
        4   -1    0    0  501    0  0.00000000000E+00  0.00000000000E+00 -0.16284083192E+03  0.16284578423E+03  0.12699999809E+01 0. -1.
    10030    2    1    2    0    0  0.00000000000E+00  0.00000000000E+00  0.81760593566E+03  0.11432933743E+04  0.79914971925E+03 0.  0.
        1    1    3    3  502    0 -0.27918340626E+03  0.36844257022E+02  0.32502429909E+01  0.28162286433E+03  0.50400001928E-02 0. -1.
       -1    1    3    3    0  502  0.27918340626E+03 -0.36844257022E+02  0.81435569267E+03  0.86167051001E+03  0.50400001928E-02 0.  1.
</event>
<event>
 5   0  0.1640035E-03  0.8000332E+03  0.7818609E-02  0.9559969E-01
       -1   -1    0    0    0  501  0.00000000000E+00  0.00000000000E+00  0.22341170392E+03  0.22341170398E+03  0.50400001928E-02 0.  1.
        1   -1    0    0  501    0  0.00000000000E+00  0.00000000000E+00 -0.71622605068E+03  0.71622605070E+03  0.50400001928E-02 0. -1.
    10030    2    1    2    0    0  0.00000000000E+00  0.00000000000E+00 -0.49281434676E+03  0.93963775468E+03  0.80003320534E+03 0.  0.
        5    1    3    3  502    0  0.37897313505E+03  0.12684719714E+03 -0.22674198999E+03  0.45950502558E+03  0.46999998093E+01 0.  1.
       -5    1    3    3    0  502 -0.37897313505E+03 -0.12684719714E+03 -0.26607235677E+03  0.48013272910E+03  0.46999998093E+01 0. -1.
</event>
<event>
 5   0  0.2763587E-03  0.7836711E+03  0.7818609E-02  0.9583958E-01
       -2   -1    0    0    0  501  0.00000000000E+00  0.00000000000E+00  0.20137789137E+03  0.20137789139E+03  0.25500000920E-02 0. -1.
        2   -1    0    0  501    0  0.00000000000E+00  0.00000000000E+00 -0.76242290219E+03  0.76242290220E+03  0.25500000920E-02 0.  1.
    10030    2    1    2    0    0  0.00000000000E+00  0.00000000000E+00 -0.56104501082E+03  0.96380079358E+03  0.78367114630E+03 0.  0.
        3    1    3    3  502    0 -0.18278064019E+02 -0.30453984737E+03  0.21872715230E+02  0.30587094033E+03  0.10100000352E+00 0. -1.
       -3    1    3    3    0  502  0.18278064019E+02  0.30453984737E+03 -0.58291772605E+03  0.65792985326E+03  0.10100000352E+00 0.  1.
</event>
<event>
 5   0  0.1617491E-03  0.8000924E+03  0.7818609E-02  0.9559883E-01
        1   -1    0    0  501    0  0.00000000000E+00  0.00000000000E+00  0.37197129655E+03  0.37197129658E+03  0.50400001928E-02 0. -1.
       -1   -1    0    0    0  501  0.00000000000E+00  0.00000000000E+00 -0.43024005532E+03  0.43024005535E+03  0.50400001928E-02 0.  1.
    10030    2    1    2    0    0  0.00000000000E+00  0.00000000000E+00 -0.58268758771E+02  0.80221135193E+03  0.80009237274E+03 0.  0.
        1    1    3    3  502    0  0.23452389008E+03  0.29254499702E+03  0.11070873374E+03  0.39094814752E+03  0.50400001928E-02 0. -1.
       -1    1    3    3    0  502 -0.23452389008E+03 -0.29254499702E+03 -0.16897749251E+03  0.41126320441E+03  0.50400001928E-02 0.  1.
</event>
<event>
 5   0  0.1637228E-03  0.8011535E+03  0.7818609E-02  0.9558349E-01
        1   -1    0    0  501    0  0.00000000000E+00  0.00000000000E+00  0.45459705729E+03  0.45459705732E+03  0.50400001928E-02 0. -1.
       -1   -1    0    0    0  501  0.00000000000E+00  0.00000000000E+00 -0.35297573826E+03  0.35297573830E+03  0.50400001928E-02 0.  1.
    10030    2    1    2    0    0  0.00000000000E+00  0.00000000000E+00  0.10162131902E+03  0.80757279562E+03  0.80115349824E+03 0.  0.
        2    1    3    3  502    0 -0.23811312619E+03  0.26567678226E+03  0.23442318129E+03  0.42689136959E+03  0.25500000920E-02 0. -1.
       -2    1    3    3    0  502  0.23811312619E+03 -0.26567678226E+03 -0.13280186227E+03  0.38068142603E+03  0.25500000920E-02 0.  1.
</event>
<event>
 5   0  0.1640035E-03  0.8004415E+03  0.7818609E-02  0.9559378E-01
        1   -1    0    0  501    0  0.00000000000E+00  0.00000000000E+00  0.11267472590E+04  0.11267472590E+04  0.50400001928E-02 0.  1.
       -1   -1    0    0    0  501  0.00000000000E+00  0.00000000000E+00 -0.14215844870E+03  0.14215844879E+03  0.50400001928E-02 0. -1.
    10030    2    1    2    0    0  0.00000000000E+00  0.00000000000E+00  0.98458881026E+03  0.12689057078E+04  0.80044148438E+03 0.  0.
        5    1    3    3  502    0 -0.57371032111E+02 -0.39408908661E+03  0.42974382057E+03  0.58591764338E+03  0.46999998093E+01 0.  1.
       -5    1    3    3    0  502  0.57371032111E+02  0.39408908661E+03  0.55484498970E+03  0.68298806439E+03  0.46999998093E+01 0. -1.
</event>
<event>
 5   0  0.2873212E-03  0.8014097E+03  0.7818609E-02  0.9557979E-01
        2   -1    0    0  501    0  0.00000000000E+00  0.00000000000E+00  0.15235390754E+04  0.15235390754E+04  0.25500000920E-02 0. -1.
       -2   -1    0    0    0  501  0.00000000000E+00  0.00000000000E+00 -0.10538907061E+03  0.10538907064E+03  0.25500000920E-02 0.  1.
    10030    2    1    2    0    0  0.00000000000E+00  0.00000000000E+00  0.14181500048E+04  0.16289281461E+04  0.80140967606E+03 0.  0.
        2    1    3    3  502    0 -0.80518727769E+02 -0.36400591845E+03  0.10076689810E+04  0.10744209368E+04  0.25500000920E-02 0. -1.
       -2    1    3    3    0  502  0.80518727769E+02  0.36400591845E+03  0.41048102378E+03  0.55450720922E+03  0.25500000920E-02 0.  1.
</event>
<event>
 5   0  0.2768834E-03  0.7987557E+03  0.7818609E-02  0.9561820E-01
       -2   -1    0    0    0  501  0.00000000000E+00  0.00000000000E+00  0.47067982672E+03  0.47067982672E+03  0.25500000920E-02 0.  1.
        2   -1    0    0  501    0  0.00000000000E+00  0.00000000000E+00 -0.33887722121E+03  0.33887722122E+03  0.25500000920E-02 0. -1.
    10030    2    1    2    0    0  0.00000000000E+00  0.00000000000E+00  0.13180260551E+03  0.80955704794E+03  0.79875571175E+03 0.  0.
        4    1    3    3  502    0 -0.17727482084E+03  0.22060960815E+03  0.35150275261E+03  0.45127681007E+03  0.12699999809E+01 0.  1.
       -4    1    3    3    0  502  0.17727482084E+03 -0.22060960815E+03 -0.21970014710E+03  0.35828023787E+03  0.12699999809E+01 0. -1.
</event>
<event>
 5   0  0.1656051E-03  0.7999509E+03  0.7818609E-02  0.9560088E-01
       -1   -1    0    0    0  501  0.00000000000E+00  0.00000000000E+00  0.18407354922E+03  0.18407354929E+03  0.50400001928E-02 0. -1.
        1   -1    0    0  501    0  0.00000000000E+00  0.00000000000E+00 -0.86911098352E+03  0.86911098353E+03  0.50400001928E-02 0.  1.
    10030    2    1    2    0    0  0.00000000000E+00  0.00000000000E+00 -0.68503743430E+03  0.10531845328E+04  0.79995085711E+03 0.  0.
        3    1    3    3  502    0  0.32675869605E+02  0.26089230129E+02  0.18118817068E+03  0.18595032610E+03  0.10100000352E+00 0. -1.
       -3    1    3    3    0  502 -0.32675869605E+02 -0.26089230129E+02 -0.86622560498E+03  0.86723420672E+03  0.10100000352E+00 0.  1.
</event>
<event>
 5   0  0.2873212E-03  0.7999256E+03  0.7818609E-02  0.9560125E-01
       -2   -1    0    0    0  501  0.00000000000E+00  0.00000000000E+00  0.13324844735E+03  0.13324844737E+03  0.25500000920E-02 0.  1.
        2   -1    0    0  501    0  0.00000000000E+00  0.00000000000E+00 -0.12005411839E+04  0.12005411839E+04  0.25500000920E-02 0. -1.
    10030    2    1    2    0    0  0.00000000000E+00  0.00000000000E+00 -0.10672927365E+04  0.13337896313E+04  0.79992561841E+03 0.  0.
        2    1    3    3  502    0 -0.35830253590E+03 -0.11104837396E+03 -0.76503449438E+03  0.85205060072E+03  0.25500000920E-02 0. -1.
       -2    1    3    3    0  502  0.35830253590E+03  0.11104837396E+03 -0.30225824216E+03  0.48173903054E+03  0.25500000920E-02 0.  1.
</event>
<event>
 5   0  0.1640035E-03  0.8004456E+03  0.7818609E-02  0.9559372E-01
       -1   -1    0    0    0  501  0.00000000000E+00  0.00000000000E+00  0.12521528762E+03  0.12521528772E+03  0.50400001928E-02 0.  1.
        1   -1    0    0  501    0  0.00000000000E+00  0.00000000000E+00 -0.12792230152E+04  0.12792230152E+04  0.50400001928E-02 0. -1.
    10030    2    1    2    0    0  0.00000000000E+00  0.00000000000E+00 -0.11540077276E+04  0.14044383029E+04  0.80044557054E+03 0.  0.
        5    1    3    3  502    0 -0.21149652153E+03  0.12945787825E+03 -0.11281347726E+04  0.11550758746E+04  0.46999998093E+01 0. -1.
       -5    1    3    3    0  502  0.21149652153E+03 -0.12945787825E+03 -0.25872954940E+02  0.24936242832E+03  0.46999998093E+01 0.  1.
</event>
<event>
 5   0  0.1095350E-03  0.8005921E+03  0.7818609E-02  0.9559160E-01
       -3   -1    0    0    0  501  0.00000000000E+00  0.00000000000E+00  0.54704032032E+03  0.54704032964E+03  0.10100000352E+00 0.  1.
        3   -1    0    0  501    0  0.00000000000E+00  0.00000000000E+00 -0.29291610007E+03  0.29291611749E+03  0.10100000352E+00 0. -1.
    10030    2    1    2    0    0  0.00000000000E+00  0.00000000000E+00  0.25412422024E+03  0.83995644713E+03  0.80059210198E+03 0.  0.
        4    1    3    3  502    0 -0.29089435479E+03  0.26466333270E+03  0.20535789335E+03  0.44366618373E+03  0.12699999809E+01 0. -1.
       -4    1    3    3    0  502  0.29089435479E+03 -0.26466333270E+03  0.48766326889E+02  0.39629026340E+03  0.12699999809E+01 0.  1.
</event>
<event>
 5   0  0.1712793E-03  0.7966998E+03  0.7818609E-02  0.9564806E-01
       -1   -1    0    0    0  501  0.00000000000E+00  0.00000000000E+00  0.23819973068E+03  0.23819973073E+03  0.50400001928E-02 0. -1.
        1   -1    0    0  501    0  0.00000000000E+00  0.00000000000E+00 -0.66617472432E+03  0.66617472434E+03  0.50400001928E-02 0.  1.
    10030    2    1    2    0    0  0.00000000000E+00  0.00000000000E+00 -0.42797499364E+03  0.90437445507E+03  0.79669979277E+03 0.  0.
        4    1    3    3  502    0 -0.25922741899E+03 -0.18151719864E+03 -0.48862288209E+03  0.58215228416E+03  0.12699999809E+01 0.  1.
       -4    1    3    3    0  502  0.25922741899E+03  0.18151719864E+03  0.60647888444E+02  0.32222217091E+03  0.12699999809E+01 0. -1.
</event>
<event>
 5   0  0.1637228E-03  0.7995106E+03  0.7818609E-02  0.9560726E-01
        1   -1    0    0  501    0  0.00000000000E+00  0.00000000000E+00  0.31711343903E+03  0.31711343907E+03  0.50400001928E-02 0. -1.
       -1   -1    0    0    0  501  0.00000000000E+00  0.00000000000E+00 -0.50393414127E+03  0.50393414129E+03  0.50400001928E-02 0.  1.
    10030    2    1    2    0    0  0.00000000000E+00  0.00000000000E+00 -0.18682070223E+03  0.82104758036E+03  0.79951057181E+03 0.  0.
        2    1    3    3  502    0 -0.16999889896E+03 -0.13835944054E+03  0.24990236675E+03  0.33240660846E+03  0.25500000920E-02 0. -1.
       -2    1    3    3    0  502  0.16999889896E+03  0.13835944054E+03 -0.43672306898E+03  0.48864097190E+03  0.25500000920E-02 0.  1.
</event>
<event>
 5   0  0.1640035E-03  0.8000537E+03  0.7818609E-02  0.9559939E-01
        1   -1    0    0  501    0  0.00000000000E+00  0.00000000000E+00  0.99608799773E+03  0.99608799775E+03  0.50400001928E-02 0. -1.
       -1   -1    0    0    0  501  0.00000000000E+00  0.00000000000E+00 -0.16064994588E+03  0.16064994596E+03  0.50400001928E-02 0.  1.
    10030    2    1    2    0    0  0.00000000000E+00  0.00000000000E+00  0.83543805185E+03  0.11567379437E+04  0.80005370565E+03 0.  0.
        5    1    3    3  502    0 -0.14863583764E+03  0.29888758986E+03  0.73636853730E+03  0.80850919372E+03  0.46999998093E+01 0.  1.
       -5    1    3    3    0  502  0.14863583764E+03 -0.29888758986E+03  0.99069514547E+02  0.34822874998E+03  0.46999998093E+01 0. -1.
</event>
<event>
 5   0  0.1617491E-03  0.7986198E+03  0.7818609E-02  0.9562017E-01
        1   -1    0    0  501    0  0.00000000000E+00  0.00000000000E+00  0.22092055900E+03  0.22092055906E+03  0.50400001928E-02 0.  1.
       -1   -1    0    0    0  501  0.00000000000E+00  0.00000000000E+00 -0.72174543372E+03  0.72174543373E+03  0.50400001928E-02 0. -1.
    10030    2    1    2    0    0  0.00000000000E+00  0.00000000000E+00 -0.50082487472E+03  0.94266599279E+03  0.79861982121E+03 0.  0.
        1    1    3    3  502    0  0.22138218968E+03 -0.29426184084E+03 -0.68129311938E+02  0.37448859536E+03  0.50400001928E-02 0.  1.
       -1    1    3    3    0  502 -0.22138218968E+03  0.29426184084E+03 -0.43269556278E+03  0.56817739743E+03  0.50400001928E-02 0. -1.
</event>
<event>
 5   0  0.2763587E-03  0.7796192E+03  0.7818609E-02  0.9589995E-01
       -2   -1    0    0    0  501  0.00000000000E+00  0.00000000000E+00  0.89625788477E+02  0.89625788513E+02  0.25500000920E-02 0. -1.
        2   -1    0    0  501    0  0.00000000000E+00  0.00000000000E+00 -0.16953995230E+04  0.16953995230E+04  0.25500000920E-02 0.  1.
    10030    2    1    2    0    0  0.00000000000E+00  0.00000000000E+00 -0.16057737345E+04  0.17850253115E+04  0.77961918669E+03 0.  0.
        3    1    3    3  502    0 -0.30084813473E+03  0.21909127802E+03 -0.53744075583E+03  0.65372254397E+03  0.10100000352E+00 0. -1.
       -3    1    3    3    0  502  0.30084813473E+03 -0.21909127802E+03 -0.10683329787E+04  0.11313027675E+04  0.10100000352E+00 0.  1.
</event>
<event>
 5   0  0.2763587E-03  0.8005477E+03  0.7818609E-02  0.9559225E-01
       -2   -1    0    0    0  501  0.00000000000E+00  0.00000000000E+00  0.44022402787E+03  0.44022402787E+03  0.25500000920E-02 0. -1.
        2   -1    0    0  501    0  0.00000000000E+00  0.00000000000E+00 -0.36394916984E+03  0.36394916984E+03  0.25500000920E-02 0.  1.
    10030    2    1    2    0    0  0.00000000000E+00  0.00000000000E+00  0.76274858032E+02  0.80417319772E+03  0.80054773622E+03 0.  0.
        3    1    3    3  502    0  0.22746611786E+03  0.12494757987E+03  0.34425744579E+03  0.43112171329E+03  0.10100000352E+00 0. -1.
       -3    1    3    3    0  502 -0.22746611786E+03 -0.12494757987E+03 -0.26798258776E+03  0.37305148443E+03  0.10100000352E+00 0.  1.
</event>
<event>
 5   0  0.1640035E-03  0.7983396E+03  0.7818609E-02  0.9562424E-01
        1   -1    0    0  501    0  0.00000000000E+00  0.00000000000E+00  0.59794303278E+03  0.59794303280E+03  0.50400001928E-02 0.  1.
       -1   -1    0    0    0  501  0.00000000000E+00  0.00000000000E+00 -0.26647446026E+03  0.26647446031E+03  0.50400001928E-02 0. -1.
    10030    2    1    2    0    0  0.00000000000E+00  0.00000000000E+00  0.33146857252E+03  0.86441749311E+03  0.79833964440E+03 0.  0.
        5    1    3    3  502    0 -0.18054992314E+03 -0.17772342155E+03 -0.16822682300E+03  0.30414839025E+03  0.46999998093E+01 0. -1.
       -5    1    3    3    0  502  0.18054992314E+03  0.17772342155E+03  0.49969539553E+03  0.56026910286E+03  0.46999998093E+01 0.  1.
</event>
<event>
 5   0  0.1656051E-03  0.7984364E+03  0.7818609E-02  0.9562283E-01
        1   -1    0    0  501    0  0.00000000000E+00  0.00000000000E+00  0.10771660176E+04  0.10771660177E+04  0.50400001928E-02 0.  1.
       -1   -1    0    0    0  501  0.00000000000E+00  0.00000000000E+00 -0.14795785778E+03  0.14795785787E+03  0.50400001928E-02 0. -1.
    10030    2    1    2    0    0  0.00000000000E+00  0.00000000000E+00  0.92920815987E+03  0.12251238755E+04  0.79843641326E+03 0.  0.
        3    1    3    3  502    0  0.32981730293E+03 -0.11162777553E+03  0.16496305445E+03  0.38529603309E+03  0.10100000352E+00 0. -1.
       -3    1    3    3    0  502 -0.32981730293E+03  0.11162777553E+03  0.76424510542E+03  0.83982784244E+03  0.10100000352E+00 0.  1.
</event>
<event>
 5   0  0.1656051E-03  0.8000407E+03  0.7818609E-02  0.9559958E-01
        1   -1    0    0  501    0  0.00000000000E+00  0.00000000000E+00  0.76959094242E+03  0.76959094243E+03  0.50400001928E-02 0. -1.
       -1   -1    0    0    0  501  0.00000000000E+00  0.00000000000E+00 -0.20792379506E+03  0.20792379512E+03  0.50400001928E-02 0.  1.
    10030    2    1    2    0    0  0.00000000000E+00  0.00000000000E+00  0.56166714735E+03  0.97751473756E+03  0.80004067254E+03 0.  0.
        3    1    3    3  502    0 -0.10722463813E+03 -0.38026164259E+03  0.35733445408E+03  0.53271377129E+03  0.10100000352E+00 0.  1.
       -3    1    3    3    0  502  0.10722463813E+03  0.38026164259E+03  0.20433269327E+03  0.44480096627E+03  0.10100000352E+00 0. -1.
</event>
<event>
 5   0  0.2873212E-03  0.8042629E+03  0.7818609E-02  0.9553867E-01
       -2   -1    0    0    0  501  0.00000000000E+00  0.00000000000E+00  0.50694234744E+03  0.50694234745E+03  0.25500000920E-02 0. -1.
        2   -1    0    0  501    0  0.00000000000E+00  0.00000000000E+00 -0.31899034023E+03  0.31899034024E+03  0.25500000920E-02 0.  1.
    10030    2    1    2    0    0  0.00000000000E+00  0.00000000000E+00  0.18795200721E+03  0.82593268769E+03  0.80426292192E+03 0.  0.
        2    1    3    3  502    0 -0.21836769985E+03 -0.31295165731E+03 -0.36273973335E+02  0.38332622308E+03  0.25500000920E-02 0.  1.
       -2    1    3    3    0  502  0.21836769985E+03  0.31295165731E+03  0.22422598055E+03  0.44260646461E+03  0.25500000920E-02 0. -1.
</event>
<event>
 5   0  0.2873212E-03  0.8009663E+03  0.7818609E-02  0.9558619E-01
        2   -1    0    0  501    0  0.00000000000E+00  0.00000000000E+00  0.11576920936E+04  0.11576920936E+04  0.25500000920E-02 0.  1.
       -2   -1    0    0    0  501  0.00000000000E+00  0.00000000000E+00 -0.13854009567E+03  0.13854009569E+03  0.25500000920E-02 0. -1.
    10030    2    1    2    0    0  0.00000000000E+00  0.00000000000E+00  0.10191519979E+04  0.12962321893E+04  0.80096634990E+03 0.  0.
        2    1    3    3  502    0  0.10197663774E+03 -0.15311493191E+03  0.10852653629E+04  0.11007471667E+04  0.25500000920E-02 0.  1.
       -2    1    3    3    0  502 -0.10197663774E+03  0.15311493191E+03 -0.66113365000E+02  0.19548502259E+03  0.25500000920E-02 0. -1.
</event>
<event>
 5   0  0.1712793E-03  0.7803004E+03  0.7818609E-02  0.9588977E-01
       -1   -1    0    0    0  501  0.00000000000E+00  0.00000000000E+00  0.56877772278E+02  0.56877772501E+02  0.50400001928E-02 0. -1.
        1   -1    0    0  501    0  0.00000000000E+00  0.00000000000E+00 -0.26762158129E+04  0.26762158130E+04  0.50400001928E-02 0.  1.
    10030    2    1    2    0    0  0.00000000000E+00  0.00000000000E+00 -0.26193380407E+04  0.27330935855E+04  0.78030043929E+03 0.  0.
        4    1    3    3  502    0  0.84464602136E+01 -0.38233966325E+03 -0.15800887516E+04  0.16257112402E+04  0.12699999809E+01 0.  1.
       -4    1    3    3    0  502 -0.84464602136E+01  0.38233966325E+03 -0.10392492891E+04  0.11073823453E+04  0.12699999809E+01 0. -1.
</event>
<event>
 5   0  0.2910501E-03  0.7998606E+03  0.7818609E-02  0.9560219E-01
        2   -1    0    0  501    0  0.00000000000E+00  0.00000000000E+00  0.37043124530E+03  0.37043124531E+03  0.25500000920E-02 0. -1.
       -2   -1    0    0    0  501  0.00000000000E+00  0.00000000000E+00 -0.43177850063E+03  0.43177850063E+03  0.25500000920E-02 0.  1.
    10030    2    1    2    0    0  0.00000000000E+00  0.00000000000E+00 -0.61347255324E+02  0.80220974595E+03  0.79986060708E+03 0.  0.
        1    1    3    3  502    0 -0.15255238632E+02 -0.18494639038E+03  0.32463560205E+03  0.37393336808E+03  0.50400001928E-02 0. -1.
       -1    1    3    3    0  502  0.15255238632E+02  0.18494639038E+03 -0.38598285738E+03  0.42827637786E+03  0.50400001928E-02 0.  1.
</event>
<event>
 5   0  0.1095350E-03  0.7995903E+03  0.7818609E-02  0.9560610E-01
       -3   -1    0    0    0  501  0.00000000000E+00  0.00000000000E+00  0.15332469931E+04  0.15332469964E+04  0.10100000352E+00 0.  1.
        3   -1    0    0  501    0  0.00000000000E+00  0.00000000000E+00 -0.10424682529E+03  0.10424687422E+03  0.10100000352E+00 0. -1.
    10030    2    1    2    0    0  0.00000000000E+00  0.00000000000E+00  0.14290001678E+04  0.16374938706E+04  0.79959033059E+03 0.  0.
        2    1    3    3  502    0  0.37579350617E+03  0.47246901676E+02  0.45237366791E+03  0.58999573255E+03  0.25500000920E-02 0. -1.
       -2    1    3    3    0  502 -0.37579350617E+03 -0.47246901676E+02  0.97662649988E+03  0.10474981381E+04  0.25500000920E-02 0.  1.
</event>
<event>
 5   0  0.2690809E-03  0.7998399E+03  0.7818609E-02  0.9560249E-01
       -2   -1    0    0    0  501  0.00000000000E+00  0.00000000000E+00  0.11151097853E+03  0.11151097856E+03  0.25500000920E-02 0. -1.
        2   -1    0    0  501    0  0.00000000000E+00  0.00000000000E+00 -0.14342620365E+04  0.14342620365E+04  0.25500000920E-02 0.  1.
    10030    2    1    2    0    0  0.00000000000E+00  0.00000000000E+00 -0.13227510580E+04  0.15457730151E+04  0.79983989195E+03 0.  0.
        5    1    3    3  502    0  0.13116223017E+03  0.25840894690E+03 -0.11939300958E+04  0.12286048503E+04  0.46999998093E+01 0.  1.
       -5    1    3    3    0  502 -0.13116223017E+03 -0.25840894690E+03 -0.12882096216E+03  0.31716816478E+03  0.46999998093E+01 0. -1.
</event>
<event>
 5   0  0.2690809E-03  0.8009832E+03  0.7818609E-02  0.9558595E-01
       -2   -1    0    0    0  501  0.00000000000E+00  0.00000000000E+00  0.14879226984E+03  0.14879226986E+03  0.25500000920E-02 0. -1.
        2   -1    0    0  501    0  0.00000000000E+00  0.00000000000E+00 -0.10779695243E+04  0.10779695243E+04  0.25500000920E-02 0.  1.
    10030    2    1    2    0    0  0.00000000000E+00  0.00000000000E+00 -0.92917725444E+03  0.12267617941E+04  0.80098322667E+03 0.  0.
        5    1    3    3  502    0 -0.17273310674E+03 -0.16574031860E+03 -0.95627948740E+03  0.98579872560E+03  0.46999998093E+01 0.  1.
       -5    1    3    3    0  502  0.17273310674E+03  0.16574031860E+03  0.27102232962E+02  0.24096306855E+03  0.46999998093E+01 0. -1.
</event>
<event>
 5   0  0.1095350E-03  0.7976994E+03  0.7818609E-02  0.9563353E-01
       -3   -1    0    0    0  501  0.00000000000E+00  0.00000000000E+00  0.43883618826E+03  0.43883619988E+03  0.10100000352E+00 0.  1.
        3   -1    0    0  501    0  0.00000000000E+00  0.00000000000E+00 -0.36250675230E+03  0.36250676637E+03  0.10100000352E+00 0. -1.
    10030    2    1    2    0    0  0.00000000000E+00  0.00000000000E+00  0.76329435964E+02  0.80134296625E+03  0.79769942132E+03 0.  0.
        5    1    3    3  502    0  0.37990116356E+03 -0.28591424665E+02 -0.80342913538E+02  0.38938340667E+03  0.46999998093E+01 0. -1.
       -5    1    3    3    0  502 -0.37990116356E+03  0.28591424665E+02  0.15667234950E+03  0.41195955958E+03  0.46999998093E+01 0.  1.
</event>
<event>
 5   0  0.2873212E-03  0.7956318E+03  0.7818609E-02  0.9566362E-01
       -2   -1    0    0    0  501  0.00000000000E+00  0.00000000000E+00  0.16103825063E+03  0.16103825065E+03  0.25500000920E-02 0.  1.
        2   -1    0    0  501    0  0.00000000000E+00  0.00000000000E+00 -0.98273225929E+03  0.98273225929E+03  0.25500000920E-02 0. -1.
    10030    2    1    2    0    0  0.00000000000E+00  0.00000000000E+00 -0.82169400866E+03  0.11437705099E+04  0.79563178390E+03 0.  0.
        2    1    3    3  502    0  0.34104987970E+02  0.18399874162E+03 -0.91550887776E+03  0.93443843692E+03  0.25500000920E-02 0. -1.
       -2    1    3    3    0  502 -0.34104987970E+02 -0.18399874162E+03  0.93814869109E+02  0.20933207302E+03  0.25500000920E-02 0.  1.
</event>
<event>
 5   0  0.1640035E-03  0.7975080E+03  0.7818609E-02  0.9563631E-01
       -1   -1    0    0    0  501  0.00000000000E+00  0.00000000000E+00  0.10148214537E+03  0.10148214550E+03  0.50400001928E-02 0.  1.
        1   -1    0    0  501    0  0.00000000000E+00  0.00000000000E+00 -0.15668247869E+04  0.15668247869E+04  0.50400001928E-02 0. -1.
    10030    2    1    2    0    0  0.00000000000E+00  0.00000000000E+00 -0.14653426415E+04  0.16683069324E+04  0.79750797087E+03 0.  0.
        5    1    3    3  502    0  0.20768626272E+03  0.33699697137E+03 -0.63273828897E+03  0.74637817141E+03  0.46999998093E+01 0. -1.
       -5    1    3    3    0  502 -0.20768626272E+03 -0.33699697137E+03 -0.83260435251E+03  0.92192876094E+03  0.46999998093E+01 0.  1.
</event>
<event>
 5   0  0.2763587E-03  0.7995284E+03  0.7818609E-02  0.9560700E-01
        2   -1    0    0  501    0  0.00000000000E+00  0.00000000000E+00  0.34396572893E+03  0.34396572894E+03  0.25500000920E-02 0. -1.
       -2   -1    0    0    0  501  0.00000000000E+00  0.00000000000E+00 -0.46461438602E+03  0.46461438603E+03  0.25500000920E-02 0.  1.
    10030    2    1    2    0    0  0.00000000000E+00  0.00000000000E+00 -0.12064865709E+03  0.80858011497E+03  0.79952842593E+03 0.  0.
        3    1    3    3  502    0 -0.20221883050E+02  0.25595643425E+03  0.24955744314E+03  0.35805243809E+03  0.10100000352E+00 0. -1.
       -3    1    3    3    0  502  0.20221883050E+02 -0.25595643425E+03 -0.37020610023E+03  0.45052767689E+03  0.10100000352E+00 0.  1.
</event>
<event>
 5   0  0.1656051E-03  0.8096531E+03  0.7818609E-02  0.9546149E-01
        1   -1    0    0  501    0  0.00000000000E+00  0.00000000000E+00  0.87821294374E+03  0.87821294376E+03  0.50400001928E-02 0. -1.
       -1   -1    0    0    0  501  0.00000000000E+00  0.00000000000E+00 -0.18661139994E+03  0.18661140000E+03  0.50400001928E-02 0.  1.
    10030    2    1    2    0    0  0.00000000000E+00  0.00000000000E+00  0.69160154381E+03  0.10648243438E+04  0.80965312799E+03 0.  0.
        3    1    3    3  502    0 -0.33908517371E+03 -0.76385776183E+02  0.72858108581E+02  0.35513639073E+03  0.10100000352E+00 0.  1.
       -3    1    3    3    0  502  0.33908517371E+03  0.76385776183E+02  0.61874343522E+03  0.70968795303E+03  0.10100000352E+00 0. -1.
</event>
<event>
 5   0  0.2768834E-03  0.7998282E+03  0.7818609E-02  0.9560266E-01
        2   -1    0    0  501    0  0.00000000000E+00  0.00000000000E+00  0.56481743893E+03  0.56481743894E+03  0.25500000920E-02 0. -1.
       -2   -1    0    0    0  501  0.00000000000E+00  0.00000000000E+00 -0.28315574837E+03  0.28315574838E+03  0.25500000920E-02 0.  1.
    10030    2    1    2    0    0  0.00000000000E+00  0.00000000000E+00  0.28166169056E+03  0.84797318732E+03  0.79982824311E+03 0.  0.
        4    1    3    3  502    0  0.67720851353E+00  0.23138703182E+03 -0.20497657531E+03  0.30912364263E+03  0.12699999809E+01 0.  1.
       -4    1    3    3    0  502 -0.67720851353E+00 -0.23138703182E+03  0.48663826587E+03  0.53884954469E+03  0.12699999809E+01 0. -1.
</event>
<event>
 5   0  0.1637228E-03  0.7990464E+03  0.7818609E-02  0.9561398E-01
       -1   -1    0    0    0  501  0.00000000000E+00  0.00000000000E+00  0.33444263385E+03  0.33444263389E+03  0.50400001928E-02 0.  1.
        1   -1    0    0  501    0  0.00000000000E+00  0.00000000000E+00 -0.47726810307E+03  0.47726810309E+03  0.50400001928E-02 0. -1.
    10030    2    1    2    0    0  0.00000000000E+00  0.00000000000E+00 -0.14282546921E+03  0.81171073699E+03  0.79904643537E+03 0.  0.
        2    1    3    3  502    0  0.35470896703E+03  0.18318160298E+03 -0.55517030439E+02  0.40305842211E+03  0.25500000920E-02 0.  1.
       -2    1    3    3    0  502 -0.35470896703E+03 -0.18318160298E+03 -0.87308438774E+02  0.40865231487E+03  0.25500000920E-02 0. -1.
</event>
<event>
 5   0  0.1617491E-03  0.7993376E+03  0.7818609E-02  0.9560976E-01
       -1   -1    0    0    0  501  0.00000000000E+00  0.00000000000E+00  0.16464088310E+03  0.16464088317E+03  0.50400001928E-02 0. -1.
        1   -1    0    0  501    0  0.00000000000E+00  0.00000000000E+00 -0.97020349434E+03  0.97020349435E+03  0.50400001928E-02 0.  1.
    10030    2    1    2    0    0  0.00000000000E+00  0.00000000000E+00 -0.80556261124E+03  0.11348443775E+04  0.79933762615E+03 0.  0.
        1    1    3    3  502    0 -0.38933043599E+03  0.60726126014E+02 -0.49769442830E+03  0.63479571104E+03  0.50400001928E-02 0.  1.
       -1    1    3    3    0  502  0.38933043599E+03 -0.60726126014E+02 -0.30786818294E+03  0.50004866649E+03  0.50400001928E-02 0. -1.
</event>
<event>
 5   0  0.2690809E-03  0.8054414E+03  0.7818609E-02  0.9552174E-01
        2   -1    0    0  501    0  0.00000000000E+00  0.00000000000E+00  0.58990371088E+03  0.58990371088E+03  0.25500000920E-02 0.  1.
       -2   -1    0    0    0  501  0.00000000000E+00  0.00000000000E+00 -0.27493292293E+03  0.27493292294E+03  0.25500000920E-02 0. -1.
    10030    2    1    2    0    0  0.00000000000E+00  0.00000000000E+00  0.31497078795E+03  0.86483663382E+03  0.80544137337E+03 0.  0.
        5    1    3    3  502    0 -0.83618818609E+02 -0.14189218685E+03 -0.23708591979E+03  0.28871668271E+03  0.46999998093E+01 0. -1.
       -5    1    3    3    0  502  0.83618818609E+02  0.14189218685E+03  0.55205670774E+03  0.57611995111E+03  0.46999998093E+01 0.  1.
</event>
<event>
 5   0  0.1640035E-03  0.8000924E+03  0.7818609E-02  0.9559883E-01
       -1   -1    0    0    0  501  0.00000000000E+00  0.00000000000E+00  0.30830331153E+03  0.30830331157E+03  0.50400001928E-02 0. -1.
        1   -1    0    0  501    0  0.00000000000E+00  0.00000000000E+00 -0.51908937593E+03  0.51908937596E+03  0.50400001928E-02 0.  1.
    10030    2    1    2    0    0  0.00000000000E+00  0.00000000000E+00 -0.21078606441E+03  0.82739268753E+03  0.80009242867E+03 0.  0.
        5    1    3    3  502    0  0.77527157960E+02  0.24502469607E+03 -0.42239352832E+03  0.49445519987E+03  0.46999998093E+01 0.  1.
       -5    1    3    3    0  502 -0.77527157960E+02 -0.24502469607E+03  0.21160746391E+03  0.33293748766E+03  0.46999998093E+01 0. -1.
</event>
<event>
 5   0  0.2763587E-03  0.7997362E+03  0.7818609E-02  0.9560399E-01
        2   -1    0    0  501    0  0.00000000000E+00  0.00000000000E+00  0.42316911545E+03  0.42316911545E+03  0.25500000920E-02 0. -1.
       -2   -1    0    0    0  501  0.00000000000E+00  0.00000000000E+00 -0.37785006989E+03  0.37785006990E+03  0.25500000920E-02 0.  1.
    10030    2    1    2    0    0  0.00000000000E+00  0.00000000000E+00  0.45319045560E+02  0.80101918535E+03  0.79973615612E+03 0.  0.
        3    1    3    3  502    0 -0.16717774043E+03 -0.34551231949E+03  0.13494338647E+03  0.40686224643E+03  0.10100000352E+00 0.  1.
       -3    1    3    3    0  502  0.16717774043E+03  0.34551231949E+03 -0.89624340909E+02  0.39415693892E+03  0.10100000352E+00 0. -1.
</event>
<event>
 5   0  0.2910501E-03  0.7995598E+03  0.7818609E-02  0.9560654E-01
       -2   -1    0    0    0  501  0.00000000000E+00  0.00000000000E+00  0.64699098129E+03  0.64699098129E+03  0.25500000920E-02 0.  1.
        2   -1    0    0  501    0  0.00000000000E+00  0.00000000000E+00 -0.24702658291E+03  0.24702658292E+03  0.25500000920E-02 0. -1.
    10030    2    1    2    0    0  0.00000000000E+00  0.00000000000E+00  0.39996439838E+03  0.89401756422E+03  0.79955980712E+03 0.  0.
        1    1    3    3  502    0  0.32429302176E+03  0.10839520410E+03 -0.31632808995E+02  0.34338916532E+03  0.50400001928E-02 0. -1.
       -1    1    3    3    0  502 -0.32429302176E+03 -0.10839520410E+03  0.43159720737E+03  0.55062839890E+03  0.50400001928E-02 0.  1.
</event>
<event>
 5   0  0.1637228E-03  0.7954271E+03  0.7818609E-02  0.9566660E-01
       -1   -1    0    0    0  501  0.00000000000E+00  0.00000000000E+00  0.33202905675E+03  0.33202905679E+03  0.50400001928E-02 0.  1.
        1   -1    0    0  501    0  0.00000000000E+00  0.00000000000E+00 -0.47639223744E+03  0.47639223747E+03  0.50400001928E-02 0. -1.
    10030    2    1    2    0    0  0.00000000000E+00  0.00000000000E+00 -0.14436318069E+03  0.80842129426E+03  0.79542709350E+03 0.  0.
        2    1    3    3  502    0  0.20003539050E+03  0.27218823534E+03  0.14118963562E+03  0.36610805252E+03  0.25500000920E-02 0.  1.
       -2    1    3    3    0  502 -0.20003539050E+03 -0.27218823534E+03 -0.28555281631E+03  0.44231324174E+03  0.25500000920E-02 0. -1.
</event>
<event>
 5   0  0.1637228E-03  0.7941549E+03  0.7818609E-02  0.9568516E-01
        1   -1    0    0  501    0  0.00000000000E+00  0.00000000000E+00  0.55995362189E+03  0.55995362191E+03  0.50400001928E-02 0.  1.
       -1   -1    0    0    0  501  0.00000000000E+00  0.00000000000E+00 -0.28157781524E+03  0.28157781528E+03  0.50400001928E-02 0. -1.
    10030    2    1    2    0    0  0.00000000000E+00  0.00000000000E+00  0.27837580665E+03  0.84153143719E+03  0.79415494084E+03 0.  0.
        2    1    3    3  502    0 -0.38901564946E+03  0.75607278381E+02  0.16559188617E+03  0.42950006850E+03  0.25500000920E-02 0. -1.
       -2    1    3    3    0  502  0.38901564946E+03 -0.75607278381E+02  0.11278392048E+03  0.41203136870E+03  0.25500000920E-02 0.  1.
</event>
<event>
 5   0  0.2763587E-03  0.8021227E+03  0.7818609E-02  0.9556950E-01
       -2   -1    0    0    0  501  0.00000000000E+00  0.00000000000E+00  0.14147258874E+03  0.14147258876E+03  0.25500000920E-02 0. -1.
        2   -1    0    0  501    0  0.00000000000E+00  0.00000000000E+00 -0.11369707814E+04  0.11369707814E+04  0.25500000920E-02 0.  1.
    10030    2    1    2    0    0  0.00000000000E+00  0.00000000000E+00 -0.99549819265E+03  0.12784433702E+04  0.80212268333E+03 0.  0.
        3    1    3    3  502    0 -0.21013245340E+03 -0.31328503047E+03 -0.28069004544E+03  0.47020215875E+03  0.10100000352E+00 0. -1.
       -3    1    3    3    0  502  0.21013245340E+03  0.31328503047E+03 -0.71480814721E+03  0.80824121140E+03  0.10100000352E+00 0.  1.
</event>
<event>
 5   0  0.2690809E-03  0.7985437E+03  0.7818609E-02  0.9562127E-01
        2   -1    0    0  501    0  0.00000000000E+00  0.00000000000E+00  0.19070628865E+03  0.19070628867E+03  0.25500000920E-02 0.  1.
       -2   -1    0    0    0  501  0.00000000000E+00  0.00000000000E+00 -0.83593482969E+03  0.83593482969E+03  0.25500000920E-02 0. -1.
    10030    2    1    2    0    0  0.00000000000E+00  0.00000000000E+00 -0.64522854104E+03  0.10266411184E+04  0.79854374691E+03 0.  0.
        5    1    3    3  502    0  0.36637268114E+03 -0.14175764169E+03 -0.23105556352E+03  0.45577728541E+03  0.46999998093E+01 0.  1.
       -5    1    3    3    0  502 -0.36637268114E+03  0.14175764169E+03 -0.41417297752E+03  0.57086383295E+03  0.46999998093E+01 0. -1.
</event>
<event>
 5   0  0.1712793E-03  0.7991983E+03  0.7818609E-02  0.9561178E-01
        1   -1    0    0  501    0  0.00000000000E+00  0.00000000000E+00  0.60115864709E+03  0.60115864711E+03  0.50400001928E-02 0.  1.
       -1   -1    0    0    0  501  0.00000000000E+00  0.00000000000E+00 -0.26561951112E+03  0.26561951117E+03  0.50400001928E-02 0. -1.
    10030    2    1    2    0    0  0.00000000000E+00  0.00000000000E+00  0.33553913597E+03  0.86677815828E+03  0.79919826320E+03 0.  0.
        4    1    3    3  502    0 -0.12403819268E+03 -0.31074704660E+02  0.57836776973E+03  0.59233605367E+03  0.12699999809E+01 0.  1.
       -4    1    3    3    0  502  0.12403819268E+03  0.31074704660E+02 -0.24282863375E+03  0.27444210461E+03  0.12699999809E+01 0. -1.
</event>
<event>
 5   0  0.1712793E-03  0.8004034E+03  0.7818609E-02  0.9559433E-01
       -1   -1    0    0    0  501  0.00000000000E+00  0.00000000000E+00  0.15888414382E+03  0.15888414390E+03  0.50400001928E-02 0. -1.
        1   -1    0    0  501    0  0.00000000000E+00  0.00000000000E+00 -0.10080389684E+04  0.10080389684E+04  0.50400001928E-02 0.  1.
    10030    2    1    2    0    0  0.00000000000E+00  0.00000000000E+00 -0.84915482460E+03  0.11669231123E+04  0.80040341951E+03 0.  0.
        4    1    3    3  502    0  0.35434306334E+03  0.18274161235E+03 -0.37394139247E+03  0.54661438082E+03  0.12699999809E+01 0. -1.
       -4    1    3    3    0  502 -0.35434306334E+03 -0.18274161235E+03 -0.47521343213E+03  0.62030873151E+03  0.12699999809E+01 0.  1.
</event>
<event>
 5   0  0.1617491E-03  0.8006079E+03  0.7818609E-02  0.9559138E-01
       -1   -1    0    0    0  501  0.00000000000E+00  0.00000000000E+00  0.52430670405E+03  0.52430670408E+03  0.50400001928E-02 0.  1.
        1   -1    0    0  501    0  0.00000000000E+00  0.00000000000E+00 -0.30562881279E+03  0.30562881283E+03  0.50400001928E-02 0. -1.
    10030    2    1    2    0    0  0.00000000000E+00  0.00000000000E+00  0.21867789126E+03  0.82993551691E+03  0.80060785788E+03 0.  0.
        1    1    3    3  502    0 -0.26118431756E+03  0.13676444859E+03 -0.17135955565E+03  0.34100712526E+03  0.50400001928E-02 0. -1.
       -1    1    3    3    0  502  0.26118431756E+03 -0.13676444859E+03  0.39003744691E+03  0.48892839165E+03  0.50400001928E-02 0.  1.
</event>
<event>
 5   0  0.1617491E-03  0.7999190E+03  0.7818609E-02  0.9560134E-01
       -1   -1    0    0    0  501  0.00000000000E+00  0.00000000000E+00  0.17778943867E+03  0.17778943874E+03  0.50400001928E-02 0. -1.
        1   -1    0    0  501    0  0.00000000000E+00  0.00000000000E+00 -0.89975880085E+03  0.89975880086E+03  0.50400001928E-02 0.  1.
    10030    2    1    2    0    0  0.00000000000E+00  0.00000000000E+00 -0.72196936218E+03  0.10775482396E+04  0.79991902636E+03 0.  0.
        1    1    3    3  502    0 -0.33308558522E+03  0.21980513938E+03 -0.39681034923E+03  0.56277771781E+03  0.50400001928E-02 0.  1.
       -1    1    3    3    0  502  0.33308558522E+03 -0.21980513938E+03 -0.32515901296E+03  0.51477052180E+03  0.50400001928E-02 0. -1.
</event>
<event>
 5   0  0.1637228E-03  0.7999917E+03  0.7818609E-02  0.9560029E-01
        1   -1    0    0  501    0  0.00000000000E+00  0.00000000000E+00  0.41277196836E+03  0.41277196839E+03  0.50400001928E-02 0. -1.
       -1   -1    0    0    0  501  0.00000000000E+00  0.00000000000E+00 -0.38761514515E+03  0.38761514518E+03  0.50400001928E-02 0.  1.
    10030    2    1    2    0    0  0.00000000000E+00  0.00000000000E+00  0.25156823212E+02  0.80038711358E+03  0.79999166610E+03 0.  0.
        2    1    3    3  502    0  0.32910772748E+03  0.16794043724E+03 -0.14073172902E+03  0.39537489337E+03  0.25500000920E-02 0. -1.
       -2    1    3    3    0  502 -0.32910772748E+03 -0.16794043724E+03  0.16588855223E+03  0.40501222021E+03  0.25500000920E-02 0.  1.
</event>
<event>
 5   0  0.1640035E-03  0.8004599E+03  0.7818609E-02  0.9559352E-01
       -1   -1    0    0    0  501  0.00000000000E+00  0.00000000000E+00  0.17361976476E+03  0.17361976483E+03  0.50400001928E-02 0. -1.
        1   -1    0    0  501    0  0.00000000000E+00  0.00000000000E+00 -0.92261404020E+03  0.92261404022E+03  0.50400001928E-02 0.  1.
    10030    2    1    2    0    0  0.00000000000E+00  0.00000000000E+00 -0.74899427544E+03  0.10962338050E+04  0.80045994946E+03 0.  0.
        5    1    3    3  502    0  0.22500972865E+03  0.17692671766E+03 -0.75754131425E+03  0.80982922533E+03  0.46999998093E+01 0.  1.
       -5    1    3    3    0  502 -0.22500972865E+03 -0.17692671766E+03  0.85470388073E+01  0.28640457971E+03  0.46999998093E+01 0. -1.
</event>
<event>
 5   0  0.1095350E-03  0.8004566E+03  0.7818609E-02  0.9559356E-01
       -3   -1    0    0    0  501  0.00000000000E+00  0.00000000000E+00  0.82632051198E+03  0.82632051815E+03  0.10100000352E+00 0. -1.
        3   -1    0    0  501    0  0.00000000000E+00  0.00000000000E+00 -0.19385056081E+03  0.19385058712E+03  0.10100000352E+00 0.  1.
    10030    2    1    2    0    0  0.00000000000E+00  0.00000000000E+00  0.63246995116E+03  0.10201711053E+04  0.80045664774E+03 0.  0.
        5    1    3    3  502    0  0.34159708824E+02  0.76561653661E+02 -0.18249818969E+03  0.20088865512E+03  0.46999998093E+01 0.  1.
       -5    1    3    3    0  502 -0.34159708824E+02 -0.76561653661E+02  0.81496814085E+03  0.81928245015E+03  0.46999998093E+01 0. -1.
</event>
<event>
 5   0  0.1637228E-03  0.8005013E+03  0.7818609E-02  0.9559292E-01
       -1   -1    0    0    0  501  0.00000000000E+00  0.00000000000E+00  0.14399839164E+03  0.14399839172E+03  0.50400001928E-02 0. -1.
        1   -1    0    0  501    0  0.00000000000E+00  0.00000000000E+00 -0.11125164860E+04  0.11125164860E+04  0.50400001928E-02 0.  1.
    10030    2    1    2    0    0  0.00000000000E+00  0.00000000000E+00 -0.96851809432E+03  0.12565148777E+04  0.80050130470E+03 0.  0.
        2    1    3    3  502    0 -0.19747604755E+02  0.33183933819E+03 -0.13435063706E+03  0.35854903144E+03  0.25500000920E-02 0. -1.
       -2    1    3    3    0  502  0.19747604755E+02 -0.33183933819E+03 -0.83416745726E+03  0.89796584625E+03  0.25500000920E-02 0.  1.
</event>
<event>
 5   0  0.2910501E-03  0.7967724E+03  0.7818609E-02  0.9564701E-01
       -2   -1    0    0    0  501  0.00000000000E+00  0.00000000000E+00  0.29556942512E+03  0.29556942513E+03  0.25500000920E-02 0.  1.
        2   -1    0    0  501    0  0.00000000000E+00  0.00000000000E+00 -0.53696887740E+03  0.53696887741E+03  0.25500000920E-02 0. -1.
    10030    2    1    2    0    0  0.00000000000E+00  0.00000000000E+00 -0.24139945228E+03  0.83253830254E+03  0.79677244533E+03 0.  0.
        1    1    3    3  502    0 -0.16155397842E+03 -0.36336188274E+03 -0.95534686410E+02  0.40897239773E+03  0.50400001928E-02 0. -1.
       -1    1    3    3    0  502  0.16155397842E+03  0.36336188274E+03 -0.14586476587E+03  0.42356590481E+03  0.50400001928E-02 0.  1.
</event>
<event>
 5   0  0.2910501E-03  0.8012241E+03  0.7818609E-02  0.9558247E-01
        2   -1    0    0  501    0  0.00000000000E+00  0.00000000000E+00  0.10190537667E+04  0.10190537667E+04  0.25500000920E-02 0. -1.
       -2   -1    0    0    0  501  0.00000000000E+00  0.00000000000E+00 -0.15748923496E+03  0.15748923498E+03  0.25500000920E-02 0.  1.
    10030    2    1    2    0    0  0.00000000000E+00  0.00000000000E+00  0.86156453177E+03  0.11765430017E+04  0.80122405886E+03 0.  0.
        1    1    3    3  502    0 -0.23406913501E+03  0.36013116658E+02  0.90525781249E+03  0.93572272155E+03  0.50400001928E-02 0. -1.
       -1    1    3    3    0  502  0.23406913501E+03 -0.36013116658E+02 -0.43693280714E+02  0.24082028017E+03  0.50400001928E-02 0.  1.
</event>
<event>
 5   0  0.2873212E-03  0.8009637E+03  0.7818609E-02  0.9558623E-01
        2   -1    0    0  501    0  0.00000000000E+00  0.00000000000E+00  0.17310896848E+03  0.17310896850E+03  0.25500000920E-02 0. -1.
       -2   -1    0    0    0  501  0.00000000000E+00  0.00000000000E+00 -0.92650149741E+03  0.92650149742E+03  0.25500000920E-02 0.  1.
    10030    2    1    2    0    0  0.00000000000E+00  0.00000000000E+00 -0.75339252893E+03  0.10996104659E+04  0.80096371585E+03 0.  0.
        2    1    3    3  502    0 -0.24777003267E+03  0.10507790262E+03  0.30453996817E+02  0.27084829820E+03  0.25500000920E-02 0. -1.
       -2    1    3    3    0  502  0.24777003267E+03 -0.10507790262E+03 -0.78384652575E+03  0.82876216772E+03  0.25500000920E-02 0.  1.
</event>
<event>
 5   0  0.1712793E-03  0.7971224E+03  0.7818609E-02  0.9564192E-01
        1   -1    0    0  501    0  0.00000000000E+00  0.00000000000E+00  0.11081868164E+04  0.11081868164E+04  0.50400001928E-02 0. -1.
       -1   -1    0    0    0  501  0.00000000000E+00  0.00000000000E+00 -0.14334318218E+03  0.14334318226E+03  0.50400001928E-02 0.  1.
    10030    2    1    2    0    0  0.00000000000E+00  0.00000000000E+00  0.96484363426E+03  0.12515299987E+04  0.79712238652E+03 0.  0.
        4    1    3    3  502    0 -0.18933226926E+03  0.33539496283E+03  0.64340406648E+03  0.74987125224E+03  0.12699999809E+01 0. -1.
       -4    1    3    3    0  502  0.18933226926E+03 -0.33539496283E+03  0.32143956777E+03  0.50165874647E+03  0.12699999809E+01 0.  1.
</event>
<event>
 5   0  0.1712793E-03  0.8000595E+03  0.7818609E-02  0.9559931E-01
        1   -1    0    0  501    0  0.00000000000E+00  0.00000000000E+00  0.55087810340E+03  0.55087810343E+03  0.50400001928E-02 0. -1.
       -1   -1    0    0    0  501  0.00000000000E+00  0.00000000000E+00 -0.29048861943E+03  0.29048861948E+03  0.50400001928E-02 0.  1.
    10030    2    1    2    0    0  0.00000000000E+00  0.00000000000E+00  0.26038948397E+03  0.84136672290E+03  0.80005954719E+03 0.  0.
        4    1    3    3  502    0  0.23337576574E+03  0.25523010252E+03 -0.81220982169E+02  0.35525359127E+03  0.12699999809E+01 0.  1.
       -4    1    3    3    0  502 -0.23337576574E+03 -0.25523010252E+03  0.34161046614E+03  0.48611313163E+03  0.12699999809E+01 0. -1.
</event>
<event>
 5   0  0.1617491E-03  0.7982255E+03  0.7818609E-02  0.9562589E-01
        1   -1    0    0  501    0  0.00000000000E+00  0.00000000000E+00  0.52620095040E+03  0.52620095042E+03  0.50400001928E-02 0. -1.
       -1   -1    0    0    0  501  0.00000000000E+00  0.00000000000E+00 -0.30271894630E+03  0.30271894634E+03  0.50400001928E-02 0.  1.
    10030    2    1    2    0    0  0.00000000000E+00  0.00000000000E+00  0.22348200410E+03  0.82891989677E+03  0.79822552521E+03 0.  0.
        1    1    3    3  502    0  0.23304915086E+03 -0.59577598467E+02 -0.21898573791E+03  0.32529394460E+03  0.50400001928E-02 0.  1.
       -1    1    3    3    0  502 -0.23304915086E+03  0.59577598467E+02  0.44246774201E+03  0.50362595217E+03  0.50400001928E-02 0. -1.
</event>
<event>
 5   0  0.1637228E-03  0.7872302E+03  0.7818609E-02  0.9578687E-01
        1   -1    0    0  501    0  0.00000000000E+00  0.00000000000E+00  0.71539470554E+03  0.71539470556E+03  0.50400001928E-02 0. -1.
       -1   -1    0    0    0  501  0.00000000000E+00  0.00000000000E+00 -0.21656976131E+03  0.21656976137E+03  0.50400001928E-02 0.  1.
    10030    2    1    2    0    0  0.00000000000E+00  0.00000000000E+00  0.49882494423E+03  0.93196446693E+03  0.78723023483E+03 0.  0.
        2    1    3    3  502    0 -0.27709250053E+03 -0.22844887092E+03  0.44016972025E+03  0.56808320087E+03  0.25500000920E-02 0. -1.
       -2    1    3    3    0  502  0.27709250053E+03  0.22844887092E+03  0.58655223978E+02  0.36388126605E+03  0.25500000920E-02 0.  1.
</event>
<event>
 5   0  0.1095350E-03  0.8028965E+03  0.7818609E-02  0.9555834E-01
       -4   -1    0    0    0  501  0.00000000000E+00  0.00000000000E+00  0.65281454492E+03  0.65281578027E+03  0.12699999809E+01 0. -1.
        4   -1    0    0  501    0  0.00000000000E+00  0.00000000000E+00 -0.24686746636E+03  0.24687073307E+03  0.12699999809E+01 0.  1.
    10030    2    1    2    0    0  0.00000000000E+00  0.00000000000E+00  0.40594707857E+03  0.89968651333E+03  0.80289650122E+03 0.  0.
        5    1    3    3  502    0 -0.23042825029E+03  0.10742911535E+03  0.55106729633E+03  0.60690645773E+03  0.46999998093E+01 0. -1.
       -5    1    3    3    0  502  0.23042825029E+03 -0.10742911535E+03 -0.14512021776E+03  0.29278005560E+03  0.46999998093E+01 0.  1.
</event>
<event>
 5   0  0.2763587E-03  0.7908754E+03  0.7818609E-02  0.9573319E-01
       -2   -1    0    0    0  501  0.00000000000E+00  0.00000000000E+00  0.16155654133E+03  0.16155654135E+03  0.25500000920E-02 0. -1.
        2   -1    0    0  501    0  0.00000000000E+00  0.00000000000E+00 -0.96790235656E+03  0.96790235656E+03  0.25500000920E-02 0.  1.
    10030    2    1    2    0    0  0.00000000000E+00  0.00000000000E+00 -0.80634581522E+03  0.11294588979E+04  0.79087535576E+03 0.  0.
        3    1    3    3  502    0 -0.35330207160E+03 -0.37729735189E+02 -0.65104426774E+03  0.74169032316E+03  0.10100000352E+00 0.  1.
       -3    1    3    3    0  502  0.35330207160E+03  0.37729735189E+02 -0.15530154748E+03  0.38776857475E+03  0.10100000352E+00 0. -1.
</event>
<event>
 5   0  0.2910501E-03  0.8110477E+03  0.7818609E-02  0.9544162E-01
       -2   -1    0    0    0  501  0.00000000000E+00  0.00000000000E+00  0.66216628759E+02  0.66216628808E+02  0.25500000920E-02 0. -1.
        2   -1    0    0  501    0  0.00000000000E+00  0.00000000000E+00 -0.24835090995E+04  0.24835090995E+04  0.25500000920E-02 0.  1.
    10030    2    1    2    0    0  0.00000000000E+00  0.00000000000E+00 -0.24172924708E+04  0.25497257283E+04  0.81104771778E+03 0.  0.
        1    1    3    3  502    0 -0.15326090544E+03 -0.25438500209E+03 -0.34055766505E+03  0.45186298551E+03  0.50400001928E-02 0. -1.
       -1    1    3    3    0  502  0.15326090544E+03  0.25438500209E+03 -0.20767348057E+04  0.20978627428E+04  0.50400001928E-02 0.  1.
</event>
<event>
 5   0  0.2763587E-03  0.8006572E+03  0.7818609E-02  0.9559066E-01
       -2   -1    0    0    0  501  0.00000000000E+00  0.00000000000E+00  0.42535549866E+03  0.42535549867E+03  0.25500000920E-02 0.  1.
        2   -1    0    0  501    0  0.00000000000E+00  0.00000000000E+00 -0.37677418945E+03  0.37677418946E+03  0.25500000920E-02 0. -1.
    10030    2    1    2    0    0  0.00000000000E+00  0.00000000000E+00  0.48581309207E+02  0.80212968813E+03  0.80065716319E+03 0.  0.
        3    1    3    3  502    0  0.33955149998E+03  0.12185898360E+03 -0.14957427898E+03  0.39053464399E+03  0.10100000352E+00 0. -1.
       -3    1    3    3    0  502 -0.33955149998E+03 -0.12185898360E+03  0.19815558818E+03  0.41159504413E+03  0.10100000352E+00 0.  1.
</event>
<event>
 5   0  0.1712793E-03  0.7996311E+03  0.7818609E-02  0.9560551E-01
        1   -1    0    0  501    0  0.00000000000E+00  0.00000000000E+00  0.54438098861E+03  0.54438098863E+03  0.50400001928E-02 0. -1.
       -1   -1    0    0    0  501  0.00000000000E+00  0.00000000000E+00 -0.29364081200E+03  0.29364081204E+03  0.50400001928E-02 0.  1.
    10030    2    1    2    0    0  0.00000000000E+00  0.00000000000E+00  0.25074017661E+03  0.83802180067E+03  0.79963110384E+03 0.  0.
        4    1    3    3  502    0 -0.28903702047E+03 -0.27544315082E+03  0.14734170094E+03  0.42558491312E+03  0.12699999809E+01 0.  1.
       -4    1    3    3    0  502  0.28903702047E+03  0.27544315082E+03  0.10339847567E+03  0.41243688755E+03  0.12699999809E+01 0. -1.
</event>
<event>
 5   0  0.2873212E-03  0.8001603E+03  0.7818609E-02  0.9559785E-01
        2   -1    0    0  501    0  0.00000000000E+00  0.00000000000E+00  0.12252198221E+03  0.12252198224E+03  0.25500000920E-02 0. -1.
       -2   -1    0    0    0  501  0.00000000000E+00  0.00000000000E+00 -0.13064113401E+04  0.13064113401E+04  0.25500000920E-02 0.  1.
    10030    2    1    2    0    0  0.00000000000E+00  0.00000000000E+00 -0.11838893579E+04  0.14289333223E+04  0.80016025143E+03 0.  0.
        2    1    3    3  502    0 -0.59603600612E+02  0.10574444160E+02  0.11429635393E+03  0.12933701946E+03  0.25500000920E-02 0. -1.
       -2    1    3    3    0  502  0.59603600612E+02 -0.10574444160E+02 -0.12981857118E+04  0.12995963029E+04  0.25500000920E-02 0.  1.
</event>
<event>
 5   0  0.2873212E-03  0.7996584E+03  0.7818609E-02  0.9560512E-01
       -2   -1    0    0    0  501  0.00000000000E+00  0.00000000000E+00  0.75372966363E+02  0.75372966406E+02  0.25500000920E-02 0.  1.
        2   -1    0    0  501    0  0.00000000000E+00  0.00000000000E+00 -0.21209646364E+04  0.21209646364E+04  0.25500000920E-02 0. -1.
    10030    2    1    2    0    0  0.00000000000E+00  0.00000000000E+00 -0.20455916700E+04  0.21963376028E+04  0.79965841769E+03 0.  0.
        2    1    3    3  502    0 -0.13671054697E+03  0.27709545731E+03 -0.17197586870E+04  0.17472955124E+04  0.25500000920E-02 0. -1.
       -2    1    3    3    0  502  0.13671054697E+03 -0.27709545731E+03 -0.32583298300E+03  0.44904209038E+03  0.25500000920E-02 0.  1.
</event>
<event>
 5   0  0.1712793E-03  0.7917250E+03  0.7818609E-02  0.9572073E-01
        1   -1    0    0  501    0  0.00000000000E+00  0.00000000000E+00  0.25769983033E+03  0.25769983038E+03  0.50400001928E-02 0. -1.
       -1   -1    0    0    0  501  0.00000000000E+00  0.00000000000E+00 -0.60809943791E+03  0.60809943793E+03  0.50400001928E-02 0.  1.
    10030    2    1    2    0    0  0.00000000000E+00  0.00000000000E+00 -0.35039960758E+03  0.86579926831E+03  0.79172500783E+03 0.  0.
        4    1    3    3  502    0  0.21967317758E+03  0.28903610706E+03 -0.34778616203E+03  0.50274745502E+03  0.12699999809E+01 0.  1.
       -4    1    3    3    0  502 -0.21967317758E+03 -0.28903610706E+03 -0.26134455522E+01  0.36305181329E+03  0.12699999809E+01 0. -1.
</event>
<event>
 5   0  0.1637228E-03  0.7999091E+03  0.7818609E-02  0.9560149E-01
        1   -1    0    0  501    0  0.00000000000E+00  0.00000000000E+00  0.18719427406E+04  0.18719427407E+04  0.50400001928E-02 0.  1.
       -1   -1    0    0    0  501  0.00000000000E+00  0.00000000000E+00 -0.85453277053E+02  0.85453277201E+02  0.50400001928E-02 0. -1.
    10030    2    1    2    0    0  0.00000000000E+00  0.00000000000E+00  0.17864894636E+04  0.19573960179E+04  0.79990909932E+03 0.  0.
        2    1    3    3  502    0 -0.20047587162E+03  0.98411755837E+02  0.17051557497E+04  0.17197184594E+04  0.25500000920E-02 0.  1.
       -2    1    3    3    0  502  0.20047587162E+03 -0.98411755837E+02  0.81333713919E+02  0.23767755850E+03  0.25500000920E-02 0. -1.
</event>
<event>
 5   0  0.1640035E-03  0.8009483E+03  0.7818609E-02  0.9558645E-01
        1   -1    0    0  501    0  0.00000000000E+00  0.00000000000E+00  0.69100520627E+03  0.69100520629E+03  0.50400001928E-02 0. -1.
       -1   -1    0    0    0  501  0.00000000000E+00  0.00000000000E+00 -0.23209600956E+03  0.23209600962E+03  0.50400001928E-02 0.  1.
    10030    2    1    2    0    0  0.00000000000E+00  0.00000000000E+00  0.45890919671E+03  0.92310121591E+03  0.80094831543E+03 0.  0.
        5    1    3    3  502    0 -0.24527369354E+03  0.19466985197E+03  0.51712525423E+03  0.60456277967E+03  0.46999998093E+01 0. -1.
       -5    1    3    3    0  502  0.24527369354E+03 -0.19466985197E+03 -0.58216057516E+02  0.31853843624E+03  0.46999998093E+01 0.  1.
</event>
<event>
 5   0  0.2768834E-03  0.7991274E+03  0.7818609E-02  0.9561281E-01
        2   -1    0    0  501    0  0.00000000000E+00  0.00000000000E+00  0.53973631995E+03  0.53973631995E+03  0.25500000920E-02 0.  1.
       -2   -1    0    0    0  501  0.00000000000E+00  0.00000000000E+00 -0.29579470668E+03  0.29579470670E+03  0.25500000920E-02 0. -1.
    10030    2    1    2    0    0  0.00000000000E+00  0.00000000000E+00  0.24394161326E+03  0.83553102665E+03  0.79912739023E+03 0.  0.
        4    1    3    3  502    0  0.39014926210E+03  0.14959796334E+02  0.21074625064E+03  0.44368438927E+03  0.12699999809E+01 0.  1.
       -4    1    3    3    0  502 -0.39014926210E+03 -0.14959796334E+02  0.33195362622E+02  0.39184663738E+03  0.12699999809E+01 0. -1.
</event>
<event>
 5   0  0.1640035E-03  0.7971367E+03  0.7818609E-02  0.9564171E-01
        1   -1    0    0  501    0  0.00000000000E+00  0.00000000000E+00  0.78841014688E+03  0.78841014689E+03  0.50400001928E-02 0. -1.
       -1   -1    0    0    0  501  0.00000000000E+00  0.00000000000E+00 -0.20148993798E+03  0.20148993805E+03  0.50400001928E-02 0.  1.
    10030    2    1    2    0    0  0.00000000000E+00  0.00000000000E+00  0.58692020889E+03  0.98990008494E+03  0.79713665488E+03 0.  0.
        5    1    3    3  502    0 -0.18874398479E+02 -0.14617585072E+03 -0.16636717233E+03  0.22231452557E+03  0.46999998093E+01 0.  1.
       -5    1    3    3    0  502  0.18874398479E+02  0.14617585072E+03  0.75328738122E+03  0.76758555937E+03  0.46999998093E+01 0. -1.
</event>
<event>
 5   0  0.2763587E-03  0.8017779E+03  0.7818609E-02  0.9557447E-01
        2   -1    0    0  501    0  0.00000000000E+00  0.00000000000E+00  0.86161305212E+03  0.86161305212E+03  0.25500000920E-02 0.  1.
       -2   -1    0    0    0  501  0.00000000000E+00  0.00000000000E+00 -0.18652448587E+03  0.18652448589E+03  0.25500000920E-02 0. -1.
    10030    2    1    2    0    0  0.00000000000E+00  0.00000000000E+00  0.67508856624E+03  0.10481375380E+04  0.80177785346E+03 0.  0.
        3    1    3    3  502    0 -0.29881358144E+03 -0.18620407556E+03  0.58815249429E+03  0.68548149570E+03  0.10100000352E+00 0.  1.
       -3    1    3    3    0  502  0.29881358144E+03  0.18620407556E+03  0.86936071958E+02  0.36265604231E+03  0.10100000352E+00 0. -1.
</event>
<event>
 5   0  0.1640035E-03  0.8007164E+03  0.7818609E-02  0.9558981E-01
       -1   -1    0    0    0  501  0.00000000000E+00  0.00000000000E+00  0.19288697741E+03  0.19288697747E+03  0.50400001928E-02 0. -1.
        1   -1    0    0  501    0  0.00000000000E+00  0.00000000000E+00 -0.83098752261E+03  0.83098752263E+03  0.50400001928E-02 0.  1.
    10030    2    1    2    0    0  0.00000000000E+00  0.00000000000E+00 -0.63810054521E+03  0.10238745001E+04  0.80071635812E+03 0.  0.
        5    1    3    3  502    0  0.15998728434E+03  0.36697132767E+03 -0.31798422037E+03  0.51127286344E+03  0.46999998093E+01 0.  1.
       -5    1    3    3    0  502 -0.15998728434E+03 -0.36697132767E+03 -0.32011632484E+03  0.51260163667E+03  0.46999998093E+01 0. -1.
</event>
<event>
 5   0  0.1617491E-03  0.8001133E+03  0.7818609E-02  0.9559853E-01
        1   -1    0    0  501    0  0.00000000000E+00  0.00000000000E+00  0.90792742247E+03  0.90792742249E+03  0.50400001928E-02 0. -1.
       -1   -1    0    0    0  501  0.00000000000E+00  0.00000000000E+00 -0.17627547700E+03  0.17627547708E+03  0.50400001928E-02 0.  1.
    10030    2    1    2    0    0  0.00000000000E+00  0.00000000000E+00  0.73165194547E+03  0.10842028996E+04  0.80011334079E+03 0.  0.
        1    1    3    3  502    0  0.26406873392E+03 -0.22494756122E+03  0.95792281547E+02  0.35987478761E+03  0.50400001928E-02 0.  1.
       -1    1    3    3    0  502 -0.26406873392E+03  0.22494756122E+03  0.63585966392E+03  0.72432811195E+03  0.50400001928E-02 0. -1.
</event>
<event>
 5   0  0.1656051E-03  0.8009344E+03  0.7818609E-02  0.9558666E-01
        1   -1    0    0  501    0  0.00000000000E+00  0.00000000000E+00  0.91988125403E+03  0.91988125405E+03  0.50400001928E-02 0. -1.
       -1   -1    0    0    0  501  0.00000000000E+00  0.00000000000E+00 -0.17434205539E+03  0.17434205546E+03  0.50400001928E-02 0.  1.
    10030    2    1    2    0    0  0.00000000000E+00  0.00000000000E+00  0.74553919864E+03  0.10942233095E+04  0.80093442575E+03 0.  0.
        3    1    3    3  502    0 -0.24668017497E+03  0.11485721561E+03  0.77418275930E+03  0.82061089665E+03  0.10100000352E+00 0. -1.
       -3    1    3    3    0  502  0.24668017497E+03 -0.11485721561E+03 -0.28643560660E+02  0.27361241285E+03  0.10100000352E+00 0.  1.
</event>
<event>
 5   0  0.1640035E-03  0.8006747E+03  0.7818609E-02  0.9559041E-01
       -1   -1    0    0    0  501  0.00000000000E+00  0.00000000000E+00  0.76881319793E+02  0.76881319959E+02  0.50400001928E-02 0.  1.
        1   -1    0    0  501    0  0.00000000000E+00  0.00000000000E+00 -0.20846416006E+04  0.20846416006E+04  0.50400001928E-02 0. -1.
    10030    2    1    2    0    0  0.00000000000E+00  0.00000000000E+00 -0.20077602808E+04  0.21615229206E+04  0.80067470982E+03 0.  0.
        5    1    3    3  502    0 -0.34536751398E+02 -0.26615687402E+03 -0.18056994782E+04  0.18255423754E+04  0.46999998093E+01 0. -1.
       -5    1    3    3    0  502  0.34536751398E+02  0.26615687402E+03 -0.20206080260E+03  0.33598054517E+03  0.46999998093E+01 0.  1.
</event>
<event>
 5   0  0.2768834E-03  0.8000529E+03  0.7818609E-02  0.9559941E-01
        2   -1    0    0  501    0  0.00000000000E+00  0.00000000000E+00  0.86874901696E+03  0.86874901697E+03  0.25500000920E-02 0.  1.
       -2   -1    0    0    0  501  0.00000000000E+00  0.00000000000E+00 -0.18419722879E+03  0.18419722880E+03  0.25500000920E-02 0. -1.
    10030    2    1    2    0    0  0.00000000000E+00  0.00000000000E+00  0.68455178818E+03  0.10529462458E+04  0.80005290187E+03 0.  0.
        4    1    3    3  502    0  0.18775224483E+03  0.29761481722E+03  0.59265966093E+03  0.68925508446E+03  0.12699999809E+01 0.  1.
       -4    1    3    3    0  502 -0.18775224483E+03 -0.29761481722E+03  0.91892127247E+02  0.36369116131E+03  0.12699999809E+01 0. -1.
</event>
<event>
 5   0  0.2763587E-03  0.8004892E+03  0.7818609E-02  0.9559309E-01
       -2   -1    0    0    0  501  0.00000000000E+00  0.00000000000E+00  0.24986028977E+03  0.24986028978E+03  0.25500000920E-02 0.  1.
        2   -1    0    0  501    0  0.00000000000E+00  0.00000000000E+00 -0.64114120758E+03  0.64114120759E+03  0.25500000920E-02 0. -1.
    10030    2    1    2    0    0  0.00000000000E+00  0.00000000000E+00 -0.39128091781E+03  0.89100149737E+03  0.80048917024E+03 0.  0.
        3    1    3    3  502    0  0.25681964536E+03  0.66098796277E+02 -0.52932121222E+03  0.59203575654E+03  0.10100000352E+00 0. -1.
       -3    1    3    3    0  502 -0.25681964536E+03 -0.66098796277E+02  0.13804029441E+03  0.29896574083E+03  0.10100000352E+00 0.  1.
</event>
<event>
 5   0  0.2873212E-03  0.7992906E+03  0.7818609E-02  0.9561045E-01
        2   -1    0    0  501    0  0.00000000000E+00  0.00000000000E+00  0.34873373938E+03  0.34873373939E+03  0.25500000920E-02 0.  1.
       -2   -1    0    0    0  501  0.00000000000E+00  0.00000000000E+00 -0.45798940362E+03  0.45798940363E+03  0.25500000920E-02 0. -1.
    10030    2    1    2    0    0  0.00000000000E+00  0.00000000000E+00 -0.10925566424E+03  0.80672314302E+03  0.79929057878E+03 0.  0.
        2    1    3    3  502    0 -0.42806555235E+01  0.12098779348E+03 -0.43903691382E+03  0.45542264094E+03  0.25500000920E-02 0. -1.
       -2    1    3    3    0  502  0.42806555235E+01 -0.12098779348E+03  0.32978124958E+03  0.35130050208E+03  0.25500000920E-02 0.  1.
</event>
<event>
 5   0  0.2910501E-03  0.7994189E+03  0.7818609E-02  0.9560859E-01
        2   -1    0    0  501    0  0.00000000000E+00  0.00000000000E+00  0.21045601817E+04  0.21045601817E+04  0.25500000920E-02 0. -1.
       -2   -1    0    0    0  501  0.00000000000E+00  0.00000000000E+00 -0.75914970945E+02  0.75914970988E+02  0.25500000920E-02 0.  1.
    10030    2    1    2    0    0  0.00000000000E+00  0.00000000000E+00  0.20286452107E+04  0.21804751527E+04  0.79941885165E+03 0.  0.
        1    1    3    3  502    0  0.30632052205E+03 -0.17350452047E+02  0.17131055027E+04  0.17403631126E+04  0.50400001928E-02 0. -1.
       -1    1    3    3    0  502 -0.30632052205E+03  0.17350452047E+02  0.31553970805E+03  0.44011204005E+03  0.50400001928E-02 0.  1.
</event>
<event>
 5   0  0.2690809E-03  0.7993441E+03  0.7818609E-02  0.9560967E-01
        2   -1    0    0  501    0  0.00000000000E+00  0.00000000000E+00  0.32899113455E+03  0.32899113456E+03  0.25500000920E-02 0. -1.
       -2   -1    0    0    0  501  0.00000000000E+00  0.00000000000E+00 -0.48553819196E+03  0.48553819197E+03  0.25500000920E-02 0.  1.
    10030    2    1    2    0    0  0.00000000000E+00  0.00000000000E+00 -0.15654705742E+03  0.81452932653E+03  0.79934413276E+03 0.  0.
        5    1    3    3  502    0  0.32501860293E+03  0.16178127532E+03  0.91949000587E+02  0.37454903818E+03  0.46999998093E+01 0. -1.
       -5    1    3    3    0  502 -0.32501860293E+03 -0.16178127532E+03 -0.24849605800E+03  0.43998028835E+03  0.46999998093E+01 0.  1.
</event>
<event>
 5   0  0.2763587E-03  0.7993834E+03  0.7818609E-02  0.9560910E-01
       -2   -1    0    0    0  501  0.00000000000E+00  0.00000000000E+00  0.22034460020E+03  0.22034460022E+03  0.25500000920E-02 0. -1.
        2   -1    0    0  501    0  0.00000000000E+00  0.00000000000E+00 -0.72501638285E+03  0.72501638285E+03  0.25500000920E-02 0.  1.
    10030    2    1    2    0    0  0.00000000000E+00  0.00000000000E+00 -0.50467178265E+03  0.94536098307E+03  0.79938337493E+03 0.  0.
        3    1    3    3  502    0 -0.11196596634E+03 -0.60614521608E+02 -0.70039310753E+03  0.71187148638E+03  0.10100000352E+00 0.  1.
       -3    1    3    3    0  502  0.11196596634E+03  0.60614521608E+02  0.19572132488E+03  0.23348949669E+03  0.10100000352E+00 0. -1.
</event>
<event>
 5   0  0.1617491E-03  0.7989979E+03  0.7818609E-02  0.9561469E-01
        1   -1    0    0  501    0  0.00000000000E+00  0.00000000000E+00  0.71279765034E+03  0.71279765035E+03  0.50400001928E-02 0.  1.
       -1   -1    0    0    0  501  0.00000000000E+00  0.00000000000E+00 -0.22390565619E+03  0.22390565625E+03  0.50400001928E-02 0. -1.
    10030    2    1    2    0    0  0.00000000000E+00  0.00000000000E+00  0.48889199415E+03  0.93670330660E+03  0.79899793658E+03 0.  0.
        1    1    3    3  502    0  0.22664167482E+02 -0.34853508692E+03  0.17091995597E+02  0.34968915860E+03  0.50400001928E-02 0. -1.
       -1    1    3    3    0  502 -0.22664167482E+02  0.34853508692E+03  0.47179999855E+03  0.58701414800E+03  0.50400001928E-02 0.  1.
</event>
<event>
 5   0  0.1656051E-03  0.7990694E+03  0.7818609E-02  0.9561365E-01
       -1   -1    0    0    0  501  0.00000000000E+00  0.00000000000E+00  0.12172164667E+03  0.12172164678E+03  0.50400001928E-02 0. -1.
        1   -1    0    0  501    0  0.00000000000E+00  0.00000000000E+00 -0.13114179976E+04  0.13114179977E+04  0.50400001928E-02 0.  1.
    10030    2    1    2    0    0  0.00000000000E+00  0.00000000000E+00 -0.11896963510E+04  0.14331396444E+04  0.79906935427E+03 0.  0.
        3    1    3    3  502    0  0.21653592300E+03 -0.33513439644E+03 -0.55787058950E+03  0.68587351199E+03  0.10100000352E+00 0. -1.
       -3    1    3    3    0  502 -0.21653592300E+03  0.33513439644E+03 -0.63182576147E+03  0.74726613243E+03  0.10100000352E+00 0.  1.
</event>
<event>
 5   0  0.1640035E-03  0.7985244E+03  0.7818609E-02  0.9562155E-01
        1   -1    0    0  501    0  0.00000000000E+00  0.00000000000E+00  0.68465454022E+03  0.68465454024E+03  0.50400001928E-02 0. -1.
       -1   -1    0    0    0  501  0.00000000000E+00  0.00000000000E+00 -0.23283318438E+03  0.23283318444E+03  0.50400001928E-02 0.  1.
    10030    2    1    2    0    0  0.00000000000E+00  0.00000000000E+00  0.45182135584E+03  0.91748772468E+03  0.79852438118E+03 0.  0.
        5    1    3    3  502    0 -0.28666026768E+03  0.13995767137E+03  0.50172773671E+03  0.59457133350E+03  0.46999998093E+01 0. -1.
       -5    1    3    3    0  502  0.28666026768E+03 -0.13995767137E+03 -0.49906380869E+02  0.32291639118E+03  0.46999998093E+01 0.  1.
</event>
<event>
 5   0  0.1656051E-03  0.7994785E+03  0.7818609E-02  0.9560772E-01
        1   -1    0    0  501    0  0.00000000000E+00  0.00000000000E+00  0.33946636668E+03  0.33946636672E+03  0.50400001928E-02 0.  1.
       -1   -1    0    0    0  501  0.00000000000E+00  0.00000000000E+00 -0.47071365301E+03  0.47071365304E+03  0.50400001928E-02 0. -1.
    10030    2    1    2    0    0  0.00000000000E+00  0.00000000000E+00 -0.13124728633E+03  0.81018001976E+03  0.79947846391E+03 0.  0.
        3    1    3    3  502    0 -0.32835421291E+03 -0.19125714668E+03  0.60116481854E+02  0.38472040092E+03  0.10100000352E+00 0. -1.
       -3    1    3    3    0  502  0.32835421291E+03  0.19125714668E+03 -0.19136376818E+03  0.42545961884E+03  0.10100000352E+00 0.  1.
</event>
<event>
 5   0  0.2873212E-03  0.7991553E+03  0.7818609E-02  0.9561241E-01
       -2   -1    0    0    0  501  0.00000000000E+00  0.00000000000E+00  0.37265288170E+03  0.37265288171E+03  0.25500000920E-02 0.  1.
        2   -1    0    0  501    0  0.00000000000E+00  0.00000000000E+00 -0.42844772714E+03  0.42844772715E+03  0.25500000920E-02 0. -1.
    10030    2    1    2    0    0  0.00000000000E+00  0.00000000000E+00 -0.55794845445E+02  0.80110060886E+03  0.79915525446E+03 0.  0.
        2    1    3    3  502    0 -0.38446457260E+03  0.54597396307E+02  0.66503983437E+02  0.39397546001E+03  0.25500000920E-02 0.  1.
       -2    1    3    3    0  502  0.38446457260E+03 -0.54597396307E+02 -0.12229882888E+03  0.40712514885E+03  0.25500000920E-02 0. -1.
</event>
<event>
 5   0  0.2763587E-03  0.8069130E+03  0.7818609E-02  0.9550064E-01
       -2   -1    0    0    0  501  0.00000000000E+00  0.00000000000E+00  0.17032885414E+03  0.17032885416E+03  0.25500000920E-02 0.  1.
        2   -1    0    0  501    0  0.00000000000E+00  0.00000000000E+00 -0.95566389973E+03  0.95566389974E+03  0.25500000920E-02 0. -1.
    10030    2    1    2    0    0  0.00000000000E+00  0.00000000000E+00 -0.78533504559E+03  0.11259927539E+04  0.80691297423E+03 0.  0.
        3    1    3    3  502    0 -0.36107194514E+03 -0.64294226796E+02 -0.62729296357E+03  0.72663826593E+03  0.10100000352E+00 0. -1.
       -3    1    3    3    0  502  0.36107194514E+03  0.64294226796E+02 -0.15804208202E+03  0.39935448797E+03  0.10100000352E+00 0.  1.
</event>
<event>
 5   0  0.1656051E-03  0.7941211E+03  0.7818609E-02  0.9568566E-01
        1   -1    0    0  501    0  0.00000000000E+00  0.00000000000E+00  0.12905625673E+04  0.12905625673E+04  0.50400001928E-02 0.  1.
       -1   -1    0    0    0  501  0.00000000000E+00  0.00000000000E+00 -0.12216152874E+03  0.12216152884E+03  0.50400001928E-02 0. -1.
    10030    2    1    2    0    0  0.00000000000E+00  0.00000000000E+00  0.11684010386E+04  0.14127240962E+04  0.79412113998E+03 0.  0.
        3    1    3    3  502    0  0.13067547718E+03  0.35664464809E+03  0.79002144543E+03  0.87658734864E+03  0.10100000352E+00 0.  1.
       -3    1    3    3    0  502 -0.13067547718E+03 -0.35664464809E+03  0.37837959316E+03  0.53613674754E+03  0.10100000352E+00 0. -1.
</event>
<event>
 5   0  0.1637228E-03  0.8002602E+03  0.7818609E-02  0.9559641E-01
       -1   -1    0    0    0  501  0.00000000000E+00  0.00000000000E+00  0.12083822680E+03  0.12083822691E+03  0.50400001928E-02 0.  1.
        1   -1    0    0  501    0  0.00000000000E+00  0.00000000000E+00 -0.13249458007E+04  0.13249458007E+04  0.50400001928E-02 0. -1.
    10030    2    1    2    0    0  0.00000000000E+00  0.00000000000E+00 -0.12041075739E+04  0.14457840276E+04  0.80026021079E+03 0.  0.
        2    1    3    3  502    0 -0.38036119568E+03 -0.20538798301E+02 -0.38072999204E+03  0.53856458132E+03  0.25500000920E-02 0.  1.
       -2    1    3    3    0  502  0.38036119568E+03  0.20538798301E+02 -0.82337758184E+03  0.90721944628E+03  0.25500000920E-02 0. -1.
</event>
<event>
 5   0  0.2873212E-03  0.7992991E+03  0.7818609E-02  0.9561032E-01
        2   -1    0    0  501    0  0.00000000000E+00  0.00000000000E+00  0.95208272619E+03  0.95208272620E+03  0.25500000920E-02 0. -1.
       -2   -1    0    0    0  501  0.00000000000E+00  0.00000000000E+00 -0.16775827001E+03  0.16775827003E+03  0.25500000920E-02 0.  1.
    10030    2    1    2    0    0  0.00000000000E+00  0.00000000000E+00  0.78432445618E+03  0.11198409962E+04  0.79929907061E+03 0.  0.
        2    1    3    3  502    0 -0.23204696227E+03 -0.32401244311E+03  0.43395647034E+03  0.58919273090E+03  0.25500000920E-02 0.  1.
       -2    1    3    3    0  502  0.23204696227E+03  0.32401244311E+03  0.35036798584E+03  0.53064826533E+03  0.25500000920E-02 0. -1.
</event>
<event>
 5   0  0.1637228E-03  0.7993879E+03  0.7818609E-02  0.9560903E-01
       -1   -1    0    0    0  501  0.00000000000E+00  0.00000000000E+00  0.12975041780E+03  0.12975041790E+03  0.50400001928E-02 0.  1.
        1   -1    0    0  501    0  0.00000000000E+00  0.00000000000E+00 -0.12312505486E+04  0.12312505486E+04  0.50400001928E-02 0. -1.
    10030    2    1    2    0    0  0.00000000000E+00  0.00000000000E+00 -0.11015001308E+04  0.13610009665E+04  0.79938794880E+03 0.  0.
        2    1    3    3  502    0 -0.18354216179E+03 -0.33585958835E+03 -0.74684616239E+03  0.83920711301E+03  0.25500000920E-02 0. -1.
       -2    1    3    3    0  502  0.18354216179E+03  0.33585958835E+03 -0.35465396844E+03  0.52179385353E+03  0.25500000920E-02 0.  1.
</event>
<event>
 5   0  0.1095350E-03  0.7847906E+03  0.7818609E-02  0.9582297E-01
       -3   -1    0    0    0  501  0.00000000000E+00  0.00000000000E+00  0.95792060076E+03  0.95792060608E+03  0.10100000352E+00 0. -1.
        3   -1    0    0  501    0  0.00000000000E+00  0.00000000000E+00 -0.16073780849E+03  0.16073784023E+03  0.10100000352E+00 0.  1.
    10030    2    1    2    0    0  0.00000000000E+00  0.00000000000E+00  0.79718279226E+03  0.11186584463E+04  0.78479061871E+03 0.  0.
        4    1    3    3  502    0 -0.15962715486E+03 -0.23595655051E+03  0.13948655403E+02  0.28522359682E+03  0.12699999809E+01 0.  1.
       -4    1    3    3    0  502  0.15962715486E+03  0.23595655051E+03  0.78323413686E+03  0.83343484949E+03  0.12699999809E+01 0. -1.
</event>
<event>
 5   0  0.2910501E-03  0.7998831E+03  0.7818609E-02  0.9560186E-01
       -2   -1    0    0    0  501  0.00000000000E+00  0.00000000000E+00  0.45272134420E+03  0.45272134421E+03  0.25500000920E-02 0.  1.
        2   -1    0    0  501    0  0.00000000000E+00  0.00000000000E+00 -0.35331498521E+03  0.35331498522E+03  0.25500000920E-02 0. -1.
    10030    2    1    2    0    0  0.00000000000E+00  0.00000000000E+00  0.99406358995E+02  0.80603632942E+03  0.79988307904E+03 0.  0.
        1    1    3    3  502    0 -0.35660404352E+03  0.91571738899E+02  0.20711435001E+03  0.42243127397E+03  0.50400001928E-02 0.  1.
       -1    1    3    3    0  502  0.35660404352E+03 -0.91571738899E+02 -0.10770799102E+03  0.38360505546E+03  0.50400001928E-02 0. -1.
</event>
<event>
 5   0  0.1712793E-03  0.8041854E+03  0.7818609E-02  0.9553979E-01
        1   -1    0    0  501    0  0.00000000000E+00  0.00000000000E+00  0.76189891158E+03  0.76189891159E+03  0.50400001928E-02 0. -1.
       -1   -1    0    0    0  501  0.00000000000E+00  0.00000000000E+00 -0.21220469235E+03  0.21220469241E+03  0.50400001928E-02 0.  1.
    10030    2    1    2    0    0  0.00000000000E+00  0.00000000000E+00  0.54969421923E+03  0.97410360400E+03  0.80418536213E+03 0.  0.
        4    1    3    3  502    0 -0.90840175399E+02 -0.12336791488E+03 -0.17546267605E+03  0.23293849719E+03  0.12699999809E+01 0.  1.
       -4    1    3    3    0  502  0.90840175399E+02  0.12336791488E+03  0.72515689527E+03  0.74116510681E+03  0.12699999809E+01 0. -1.
</event>
<event>
 5   0  0.1617491E-03  0.7993507E+03  0.7818609E-02  0.9560957E-01
        1   -1    0    0  501    0  0.00000000000E+00  0.00000000000E+00  0.17604945583E+03  0.17604945590E+03  0.50400001928E-02 0. -1.
       -1   -1    0    0    0  501  0.00000000000E+00  0.00000000000E+00 -0.90736084897E+03  0.90736084899E+03  0.50400001928E-02 0.  1.
    10030    2    1    2    0    0  0.00000000000E+00  0.00000000000E+00 -0.73131139314E+03  0.10834103049E+04  0.79935069587E+03 0.  0.
        1    1    3    3  502    0  0.27408236825E+03  0.14870354129E+03 -0.26797354672E+02  0.31297281994E+03  0.50400001928E-02 0. -1.
       -1    1    3    3    0  502 -0.27408236825E+03 -0.14870354129E+03 -0.70451403847E+03  0.77043748495E+03  0.50400001928E-02 0.  1.
</event>
<event>
 5   0  0.1637228E-03  0.8003835E+03  0.7818609E-02  0.9559462E-01
        1   -1    0    0  501    0  0.00000000000E+00  0.00000000000E+00  0.68979218016E+03  0.68979218018E+03  0.50400001928E-02 0.  1.
       -1   -1    0    0    0  501  0.00000000000E+00  0.00000000000E+00 -0.23217633411E+03  0.23217633416E+03  0.50400001928E-02 0. -1.
    10030    2    1    2    0    0  0.00000000000E+00  0.00000000000E+00  0.45761584605E+03  0.92196851435E+03  0.80038345741E+03 0.  0.
        2    1    3    3  502    0 -0.27814665496E+03  0.98865130972E+02 -0.82449487740E+02  0.30649273045E+03  0.25500000920E-02 0. -1.
       -2    1    3    3    0  502  0.27814665496E+03 -0.98865130972E+02  0.54006533380E+03  0.61547578389E+03  0.25500000920E-02 0.  1.
</event>
<event>
 5   0  0.2910501E-03  0.8031862E+03  0.7818609E-02  0.9555417E-01
       -2   -1    0    0    0  501  0.00000000000E+00  0.00000000000E+00  0.13279547081E+03  0.13279547084E+03  0.25500000920E-02 0.  1.
        2   -1    0    0  501    0  0.00000000000E+00  0.00000000000E+00 -0.12144768305E+04  0.12144768305E+04  0.25500000920E-02 0. -1.
    10030    2    1    2    0    0  0.00000000000E+00  0.00000000000E+00 -0.10816813597E+04  0.13472723013E+04  0.80318621131E+03 0.  0.
        1    1    3    3  502    0 -0.25174068394E+03 -0.18789873067E+03 -0.96052078892E+03  0.10105837377E+04  0.50400001928E-02 0. -1.
       -1    1    3    3    0  502  0.25174068394E+03  0.18789873067E+03 -0.12116057075E+03  0.33668856361E+03  0.50400001928E-02 0.  1.
</event>
<event>
 5   0  0.2690809E-03  0.7955043E+03  0.7818609E-02  0.9566547E-01
        2   -1    0    0  501    0  0.00000000000E+00  0.00000000000E+00  0.30012014797E+03  0.30012014799E+03  0.25500000920E-02 0.  1.
       -2   -1    0    0    0  501  0.00000000000E+00  0.00000000000E+00 -0.52714474643E+03  0.52714474644E+03  0.25500000920E-02 0. -1.
    10030    2    1    2    0    0  0.00000000000E+00  0.00000000000E+00 -0.22702459846E+03  0.82726489442E+03  0.79550426601E+03 0.  0.
        5    1    3    3  502    0  0.29835602746E+03  0.24467861808E+03 -0.13221645621E+02  0.38610989003E+03  0.46999998093E+01 0.  1.
       -5    1    3    3    0  502 -0.29835602746E+03 -0.24467861808E+03 -0.21380295284E+03  0.44115500440E+03  0.46999998093E+01 0. -1.
</event>
<event>
 5   0  0.1656051E-03  0.8039973E+03  0.7818609E-02  0.9554249E-01
        1   -1    0    0  501    0  0.00000000000E+00  0.00000000000E+00  0.57212270976E+03  0.57212270978E+03  0.50400001928E-02 0. -1.
       -1   -1    0    0    0  501  0.00000000000E+00  0.00000000000E+00 -0.28246200470E+03  0.28246200475E+03  0.50400001928E-02 0.  1.
    10030    2    1    2    0    0  0.00000000000E+00  0.00000000000E+00  0.28966070505E+03  0.85458471453E+03  0.80399733224E+03 0.  0.
        3    1    3    3  502    0 -0.36234357271E+03  0.16318378094E+03  0.20931995399E+03  0.44915104852E+03  0.10100000352E+00 0. -1.
       -3    1    3    3    0  502  0.36234357271E+03 -0.16318378094E+03  0.80340751065E+02  0.40543366601E+03  0.10100000352E+00 0.  1.
</event>
<event>
 5   0  0.2768834E-03  0.7986989E+03  0.7818609E-02  0.9561902E-01
       -2   -1    0    0    0  501  0.00000000000E+00  0.00000000000E+00  0.33357736071E+03  0.33357736072E+03  0.25500000920E-02 0.  1.
        2   -1    0    0  501    0  0.00000000000E+00  0.00000000000E+00 -0.47808988869E+03  0.47808988870E+03  0.25500000920E-02 0. -1.
    10030    2    1    2    0    0  0.00000000000E+00  0.00000000000E+00 -0.14451252798E+03  0.81166724941E+03  0.79869885002E+03 0.  0.
        4    1    3    3  502    0 -0.32578051299E+03  0.19816354206E+03 -0.19282761602E+03  0.42730063708E+03  0.12699999809E+01 0. -1.
       -4    1    3    3    0  502  0.32578051299E+03 -0.19816354206E+03  0.48315088042E+02  0.38436661234E+03  0.12699999809E+01 0.  1.
</event>
<event>
 5   0  0.1712793E-03  0.7985328E+03  0.7818609E-02  0.9562143E-01
       -1   -1    0    0    0  501  0.00000000000E+00  0.00000000000E+00  0.29616722834E+03  0.29616722839E+03  0.50400001928E-02 0. -1.
        1   -1    0    0  501    0  0.00000000000E+00  0.00000000000E+00 -0.53825555187E+03  0.53825555190E+03  0.50400001928E-02 0.  1.
    10030    2    1    2    0    0  0.00000000000E+00  0.00000000000E+00 -0.24208832353E+03  0.83442278028E+03  0.79853279198E+03 0.  0.
        4    1    3    3  502    0 -0.52274189993E+02 -0.33103646627E+03 -0.34780999074E+03  0.48300221066E+03  0.12699999809E+01 0.  1.
       -4    1    3    3    0  502  0.52274189993E+02  0.33103646627E+03  0.10572166720E+03  0.35142056963E+03  0.12699999809E+01 0. -1.
</event>
<event>
 5   0  0.1640035E-03  0.7999055E+03  0.7818609E-02  0.9560154E-01
       -1   -1    0    0    0  501  0.00000000000E+00  0.00000000000E+00  0.36069660317E+03  0.36069660320E+03  0.50400001928E-02 0.  1.
        1   -1    0    0  501    0  0.00000000000E+00  0.00000000000E+00 -0.44348130551E+03  0.44348130554E+03  0.50400001928E-02 0. -1.
    10030    2    1    2    0    0  0.00000000000E+00  0.00000000000E+00 -0.82784702345E+02  0.80417790874E+03  0.79990549564E+03 0.  0.
        5    1    3    3  502    0  0.37137090728E+03 -0.14780602936E+03 -0.54772735731E+02  0.40346637489E+03  0.46999998093E+01 0.  1.
       -5    1    3    3    0  502 -0.37137090728E+03  0.14780602936E+03 -0.28011966614E+02  0.40071153385E+03  0.46999998093E+01 0. -1.
</event>
<event>
 5   0  0.1637228E-03  0.7998023E+03  0.7818609E-02  0.9560303E-01
        1   -1    0    0  501    0  0.00000000000E+00  0.00000000000E+00  0.27045307599E+03  0.27045307604E+03  0.50400001928E-02 0. -1.
       -1   -1    0    0    0  501  0.00000000000E+00  0.00000000000E+00 -0.59130747250E+03  0.59130747253E+03  0.50400001928E-02 0.  1.
    10030    2    1    2    0    0  0.00000000000E+00  0.00000000000E+00 -0.32085439651E+03  0.86176054856E+03  0.79980228763E+03 0.  0.
        2    1    3    3  502    0 -0.74182363877E+02  0.35283564152E+03 -0.34681625288E+03  0.50027744933E+03  0.25500000920E-02 0.  1.
       -2    1    3    3    0  502  0.74182363877E+02 -0.35283564152E+03  0.25961856363E+02  0.36148309923E+03  0.25500000920E-02 0. -1.
</event>
<event>
 5   0  0.1637228E-03  0.8064145E+03  0.7818609E-02  0.9550778E-01
       -1   -1    0    0    0  501  0.00000000000E+00  0.00000000000E+00  0.20868575747E+03  0.20868575753E+03  0.50400001928E-02 0. -1.
        1   -1    0    0  501    0  0.00000000000E+00  0.00000000000E+00 -0.77904740214E+03  0.77904740215E+03  0.50400001928E-02 0.  1.
    10030    2    1    2    0    0  0.00000000000E+00  0.00000000000E+00 -0.57036164466E+03  0.98773315969E+03  0.80641452680E+03 0.  0.
        2    1    3    3  502    0  0.23757755272E+03 -0.23786089985E+03 -0.55784362253E+03  0.65131436990E+03  0.25500000920E-02 0.  1.
       -2    1    3    3    0  502 -0.23757755272E+03  0.23786089985E+03 -0.12518022133E+02  0.33641878978E+03  0.25500000920E-02 0. -1.
</event>
<event>
 5   0  0.1640035E-03  0.8056343E+03  0.7818609E-02  0.9551897E-01
       -1   -1    0    0    0  501  0.00000000000E+00  0.00000000000E+00  0.21610982667E+03  0.21610982672E+03  0.50400001928E-02 0.  1.
        1   -1    0    0  501    0  0.00000000000E+00  0.00000000000E+00 -0.75082951506E+03  0.75082951508E+03  0.50400001928E-02 0. -1.
    10030    2    1    2    0    0  0.00000000000E+00  0.00000000000E+00 -0.53471968840E+03  0.96693934180E+03  0.80563425049E+03 0.  0.
        5    1    3    3  502    0  0.32862823842E+03  0.21931098533E+03 -0.36145075220E+03  0.53550216026E+03  0.46999998093E+01 0. -1.
       -5    1    3    3    0  502 -0.32862823842E+03 -0.21931098533E+03 -0.17326893619E+03  0.43143718155E+03  0.46999998093E+01 0.  1.
</event>
<event>
 5   0  0.1640035E-03  0.8213990E+03  0.7818609E-02  0.9529549E-01
       -1   -1    0    0    0  501  0.00000000000E+00  0.00000000000E+00  0.16477181354E+03  0.16477181362E+03  0.50400001928E-02 0. -1.
        1   -1    0    0  501    0  0.00000000000E+00  0.00000000000E+00 -0.10236829169E+04  0.10236829169E+04  0.50400001928E-02 0.  1.
    10030    2    1    2    0    0  0.00000000000E+00  0.00000000000E+00 -0.85891110336E+03  0.11884547305E+04  0.82139902791E+03 0.  0.
        5    1    3    3  502    0 -0.34485639215E+03 -0.90524993950E+02 -0.72431577889E+03  0.80732654068E+03  0.46999998093E+01 0.  1.
       -5    1    3    3    0  502  0.34485639215E+03  0.90524993950E+02 -0.13459532447E+03  0.38112818986E+03  0.46999998093E+01 0. -1.
</event>
<event>
 5   0  0.1637228E-03  0.8001571E+03  0.7818609E-02  0.9559790E-01
       -1   -1    0    0    0  501  0.00000000000E+00  0.00000000000E+00  0.14275463877E+03  0.14275463886E+03  0.50400001928E-02 0.  1.
        1   -1    0    0  501    0  0.00000000000E+00  0.00000000000E+00 -0.11212445248E+04  0.11212445248E+04  0.50400001928E-02 0. -1.
    10030    2    1    2    0    0  0.00000000000E+00  0.00000000000E+00 -0.97848988601E+03  0.12639991637E+04  0.80015712751E+03 0.  0.
        2    1    3    3  502    0 -0.30076623098E+03 -0.15812222767E+03 -0.82285444727E+03  0.89025412438E+03  0.25500000920E-02 0. -1.
       -2    1    3    3    0  502  0.30076623098E+03  0.15812222767E+03 -0.15563543874E+03  0.37374503927E+03  0.25500000920E-02 0.  1.
</event>
<event>
 5   0  0.1637228E-03  0.7997261E+03  0.7818609E-02  0.9560414E-01
       -1   -1    0    0    0  501  0.00000000000E+00  0.00000000000E+00  0.25027049742E+03  0.25027049747E+03  0.50400001928E-02 0. -1.
        1   -1    0    0  501    0  0.00000000000E+00  0.00000000000E+00 -0.63887057642E+03  0.63887057644E+03  0.50400001928E-02 0.  1.
    10030    2    1    2    0    0  0.00000000000E+00  0.00000000000E+00 -0.38860007900E+03  0.88914107390E+03  0.79972609555E+03 0.  0.
        2    1    3    3  502    0  0.63439873209E+02  0.37022341860E+03 -0.34674519955E+03  0.51119686092E+03  0.25500000920E-02 0. -1.
       -2    1    3    3    0  502 -0.63439873209E+02 -0.37022341860E+03 -0.41854879446E+02  0.37794421299E+03  0.25500000920E-02 0.  1.
</event>
<event>
 5   0  0.1095350E-03  0.7945933E+03  0.7818609E-02  0.9567876E-01
       -4   -1    0    0    0  501  0.00000000000E+00  0.00000000000E+00  0.53428352516E+03  0.53428503457E+03  0.12699999809E+01 0.  1.
        4   -1    0    0  501    0  0.00000000000E+00  0.00000000000E+00 -0.29542906181E+03  0.29543179155E+03  0.12699999809E+01 0. -1.
    10030    2    1    2    0    0  0.00000000000E+00  0.00000000000E+00  0.23885446336E+03  0.82971682612E+03  0.79459332799E+03 0.  0.
        4    1    3    3  502    0 -0.20459777531E+03 -0.19379758300E+03  0.41185122549E+03  0.49903987584E+03  0.12699999809E+01 0.  1.
       -4    1    3    3    0  502  0.20459777531E+03  0.19379758300E+03 -0.17299676213E+03  0.33067695028E+03  0.12699999809E+01 0. -1.
</event>
<event>
 5   0  0.2910501E-03  0.7992144E+03  0.7818609E-02  0.9561155E-01
        2   -1    0    0  501    0  0.00000000000E+00  0.00000000000E+00  0.12288829216E+04  0.12288829216E+04  0.25500000920E-02 0.  1.
       -2   -1    0    0    0  501  0.00000000000E+00  0.00000000000E+00 -0.12994397662E+03  0.12994397664E+03  0.25500000920E-02 0. -1.
    10030    2    1    2    0    0  0.00000000000E+00  0.00000000000E+00  0.10989389450E+04  0.13588268982E+04  0.79921444844E+03 0.  0.
        1    1    3    3  502    0  0.27632381702E+03 -0.28863210128E+03  0.55755069382E+03  0.68594906367E+03  0.50400001928E-02 0. -1.
       -1    1    3    3    0  502 -0.27632381702E+03  0.28863210128E+03  0.54138825115E+03  0.67287783457E+03  0.50400001928E-02 0.  1.
</event>
<event>
 5   0  0.1640035E-03  0.7998942E+03  0.7818609E-02  0.9560170E-01
       -1   -1    0    0    0  501  0.00000000000E+00  0.00000000000E+00  0.37131608519E+03  0.37131608522E+03  0.50400001928E-02 0.  1.
        1   -1    0    0  501    0  0.00000000000E+00  0.00000000000E+00 -0.43078578011E+03  0.43078578014E+03  0.50400001928E-02 0. -1.
    10030    2    1    2    0    0  0.00000000000E+00  0.00000000000E+00 -0.59469694923E+02  0.80210186537E+03  0.79989421664E+03 0.  0.
        5    1    3    3  502    0  0.25811783487E+03 -0.29159978588E+03 -0.12098240642E+03  0.40781623860E+03  0.46999998093E+01 0. -1.
       -5    1    3    3    0  502 -0.25811783487E+03  0.29159978588E+03  0.61512711502E+02  0.39428562677E+03  0.46999998093E+01 0.  1.
</event>
<event>
 5   0  0.1637228E-03  0.7976978E+03  0.7818609E-02  0.9563355E-01
        1   -1    0    0  501    0  0.00000000000E+00  0.00000000000E+00  0.17049358417E+04  0.17049358417E+04  0.50400001928E-02 0.  1.
       -1   -1    0    0    0  501  0.00000000000E+00  0.00000000000E+00 -0.93305828372E+02  0.93305828509E+02  0.50400001928E-02 0. -1.
    10030    2    1    2    0    0  0.00000000000E+00  0.00000000000E+00  0.16116300134E+04  0.17982416702E+04  0.79769781538E+03 0.  0.
        2    1    3    3  502    0 -0.85685650920E+02  0.36313381123E+03  0.11235998911E+04  0.11839277474E+04  0.25500000920E-02 0.  1.
       -2    1    3    3    0  502  0.85685650920E+02 -0.36313381123E+03  0.48803012223E+03  0.61431392288E+03  0.25500000920E-02 0. -1.
</event>
<event>
 5   0  0.1617491E-03  0.8000520E+03  0.7818609E-02  0.9559942E-01
       -1   -1    0    0    0  501  0.00000000000E+00  0.00000000000E+00  0.78848402633E+03  0.78848402635E+03  0.50400001928E-02 0.  1.
        1   -1    0    0  501    0  0.00000000000E+00  0.00000000000E+00 -0.20294741233E+03  0.20294741239E+03  0.50400001928E-02 0. -1.
    10030    2    1    2    0    0  0.00000000000E+00  0.00000000000E+00  0.58553661400E+03  0.99143143874E+03  0.80005198042E+03 0.  0.
        1    1    3    3  502    0  0.87145886613E+02 -0.76049707123E+02  0.76731057056E+03  0.77597904303E+03  0.50400001928E-02 0.  1.
       -1    1    3    3    0  502 -0.87145886613E+02  0.76049707123E+02 -0.18177395656E+03  0.21545239570E+03  0.50400001928E-02 0. -1.
</event>
<event>
 5   0  0.2690809E-03  0.8001229E+03  0.7818609E-02  0.9559839E-01
       -2   -1    0    0    0  501  0.00000000000E+00  0.00000000000E+00  0.46565234782E+03  0.46565234782E+03  0.25500000920E-02 0. -1.
        2   -1    0    0  501    0  0.00000000000E+00  0.00000000000E+00 -0.34370955071E+03  0.34370955072E+03  0.25500000920E-02 0.  1.
    10030    2    1    2    0    0  0.00000000000E+00  0.00000000000E+00  0.12194279711E+03  0.80936189854E+03  0.80012288871E+03 0.  0.
        5    1    3    3  502    0 -0.17388712152E+03  0.34928830691E+03 -0.28297361780E+02  0.39123123988E+03  0.46999998093E+01 0. -1.
       -5    1    3    3    0  502  0.17388712152E+03 -0.34928830691E+03  0.15024015889E+03  0.41813065866E+03  0.46999998093E+01 0.  1.
</event>
<event>
 5   0  0.2690809E-03  0.8013966E+03  0.7818609E-02  0.9557998E-01
       -2   -1    0    0    0  501  0.00000000000E+00  0.00000000000E+00  0.12298771500E+03  0.12298771503E+03  0.25500000920E-02 0. -1.
        2   -1    0    0  501    0  0.00000000000E+00  0.00000000000E+00 -0.13054892176E+04  0.13054892176E+04  0.25500000920E-02 0.  1.
    10030    2    1    2    0    0  0.00000000000E+00  0.00000000000E+00 -0.11825015026E+04  0.14284769327E+04  0.80139662056E+03 0.  0.
        5    1    3    3  502    0 -0.14197837307E+02 -0.25890401803E+03 -0.46777852488E+02  0.26352063794E+03  0.46999998093E+01 0. -1.
       -5    1    3    3    0  502  0.14197837307E+02  0.25890401803E+03 -0.11357236501E+04  0.11649562947E+04  0.46999998093E+01 0.  1.
</event>
<event>
 5   0  0.2768834E-03  0.8013282E+03  0.7818609E-02  0.9558097E-01
       -2   -1    0    0    0  501  0.00000000000E+00  0.00000000000E+00  0.89176416310E+02  0.89176416346E+02  0.25500000920E-02 0. -1.
        2   -1    0    0  501    0  0.00000000000E+00  0.00000000000E+00 -0.18001588974E+04  0.18001588974E+04  0.25500000920E-02 0.  1.
    10030    2    1    2    0    0  0.00000000000E+00  0.00000000000E+00 -0.17109824811E+04  0.18893353138E+04  0.80132819567E+03 0.  0.
        4    1    3    3  502    0 -0.35384251031E+02 -0.60271017183E+02 -0.17856709344E+04  0.17870385949E+04  0.12699999809E+01 0.  1.
       -4    1    3    3    0  502  0.35384251031E+02  0.60271017183E+02  0.74688453310E+02  0.10229671887E+03  0.12699999809E+01 0. -1.
</event>
<event>
 5   0  0.1640035E-03  0.7993011E+03  0.7818609E-02  0.9561029E-01
       -1   -1    0    0    0  501  0.00000000000E+00  0.00000000000E+00  0.35852097447E+03  0.35852097450E+03  0.50400001928E-02 0.  1.
        1   -1    0    0  501    0  0.00000000000E+00  0.00000000000E+00 -0.44549853332E+03  0.44549853335E+03  0.50400001928E-02 0. -1.
    10030    2    1    2    0    0  0.00000000000E+00  0.00000000000E+00 -0.86977558857E+02  0.80401950785E+03  0.79930111551E+03 0.  0.
        5    1    3    3  502    0  0.27590797031E+03 -0.18117669159E+03  0.18311482648E+03  0.37749613420E+03  0.46999998093E+01 0.  1.
       -5    1    3    3    0  502 -0.27590797031E+03  0.18117669159E+03 -0.27009238534E+03  0.42652337366E+03  0.46999998093E+01 0. -1.
</event>
<event>
 5   0  0.2873212E-03  0.7993352E+03  0.7818609E-02  0.9560980E-01
       -2   -1    0    0    0  501  0.00000000000E+00  0.00000000000E+00  0.30029672342E+03  0.30029672343E+03  0.25500000920E-02 0. -1.
        2   -1    0    0  501    0  0.00000000000E+00  0.00000000000E+00 -0.53192124881E+03  0.53192124882E+03  0.25500000920E-02 0.  1.
    10030    2    1    2    0    0  0.00000000000E+00  0.00000000000E+00 -0.23162452539E+03  0.83221797225E+03  0.79933524417E+03 0.  0.
        2    1    3    3  502    0 -0.19280172035E+03  0.16669301058E+03  0.20470790177E+03  0.32690119027E+03  0.25500000920E-02 0. -1.
       -2    1    3    3    0  502  0.19280172035E+03 -0.16669301058E+03 -0.43633242716E+03  0.50531678197E+03  0.25500000920E-02 0.  1.
</event>
<event>
 5   0  0.1637228E-03  0.8008498E+03  0.7818609E-02  0.9558788E-01
        1   -1    0    0  501    0  0.00000000000E+00  0.00000000000E+00  0.57791542534E+03  0.57791542536E+03  0.50400001928E-02 0. -1.
       -1   -1    0    0    0  501  0.00000000000E+00  0.00000000000E+00 -0.27744564762E+03  0.27744564766E+03  0.50400001928E-02 0.  1.
    10030    2    1    2    0    0  0.00000000000E+00  0.00000000000E+00  0.30046977772E+03  0.85536107303E+03  0.80084984730E+03 0.  0.
        2    1    3    3  502    0  0.22605986875E+02 -0.68420816209E+02 -0.27046367425E+03  0.27989826335E+03  0.25500000920E-02 0.  1.
       -2    1    3    3    0  502 -0.22605986875E+02  0.68420816209E+02  0.57093345197E+03  0.57546280968E+03  0.25500000920E-02 0. -1.
</event>
<event>
 5   0  0.2873212E-03  0.7962422E+03  0.7818609E-02  0.9565472E-01
       -2   -1    0    0    0  501  0.00000000000E+00  0.00000000000E+00  0.17278828711E+03  0.17278828713E+03  0.25500000920E-02 0.  1.
        2   -1    0    0  501    0  0.00000000000E+00  0.00000000000E+00 -0.91730986948E+03  0.91730986949E+03  0.25500000920E-02 0. -1.
    10030    2    1    2    0    0  0.00000000000E+00  0.00000000000E+00 -0.74452158238E+03  0.10900981566E+04  0.79624217699E+03 0.  0.
        2    1    3    3  502    0  0.23458404306E+03  0.22720724864E+03 -0.68399519203E+03  0.75795925340E+03  0.25500000920E-02 0. -1.
       -2    1    3    3    0  502 -0.23458404306E+03 -0.22720724864E+03 -0.60526390347E+02  0.33213890321E+03  0.25500000920E-02 0.  1.
</event>
<event>
 5   0  0.1640035E-03  0.7996677E+03  0.7818609E-02  0.9560498E-01
        1   -1    0    0  501    0  0.00000000000E+00  0.00000000000E+00  0.30892741108E+03  0.30892741112E+03  0.50400001928E-02 0. -1.
       -1   -1    0    0    0  501  0.00000000000E+00  0.00000000000E+00 -0.51749084117E+03  0.51749084120E+03  0.50400001928E-02 0.  1.
    10030    2    1    2    0    0  0.00000000000E+00  0.00000000000E+00 -0.20856343009E+03  0.82641825232E+03  0.79966769560E+03 0.  0.
        5    1    3    3  502    0 -0.61487998263E+02  0.28080697259E+03 -0.39144695310E+03  0.48568110616E+03  0.46999998093E+01 0.  1.
       -5    1    3    3    0  502  0.61487998263E+02 -0.28080697259E+03  0.18288352301E+03  0.34073714616E+03  0.46999998093E+01 0. -1.
</event>
<event>
 5   0  0.2768834E-03  0.8030918E+03  0.7818609E-02  0.9555553E-01
        2   -1    0    0  501    0  0.00000000000E+00  0.00000000000E+00  0.13967163694E+03  0.13967163696E+03  0.25500000920E-02 0.  1.
       -2   -1    0    0    0  501  0.00000000000E+00  0.00000000000E+00 -0.11544155674E+04  0.11544155674E+04  0.25500000920E-02 0. -1.
    10030    2    1    2    0    0  0.00000000000E+00  0.00000000000E+00 -0.10147439305E+04  0.12940872044E+04  0.80309180553E+03 0.  0.
        4    1    3    3  502    0  0.23229562348E+02 -0.30881427883E+03 -0.95502033351E+02  0.32408042621E+03  0.12699999809E+01 0.  1.
       -4    1    3    3    0  502 -0.23229562348E+02  0.30881427883E+03 -0.91924189713E+03  0.97000677818E+03  0.12699999809E+01 0. -1.
</event>
<event>
 5   0  0.1617491E-03  0.7992907E+03  0.7818609E-02  0.9561044E-01
       -1   -1    0    0    0  501  0.00000000000E+00  0.00000000000E+00  0.32922620850E+03  0.32922620854E+03  0.50400001928E-02 0. -1.
        1   -1    0    0  501    0  0.00000000000E+00  0.00000000000E+00 -0.48512663921E+03  0.48512663924E+03  0.50400001928E-02 0.  1.
    10030    2    1    2    0    0  0.00000000000E+00  0.00000000000E+00 -0.15590043071E+03  0.81435284778E+03  0.79929069580E+03 0.  0.
        1    1    3    3  502    0 -0.26306873269E+03 -0.24907591348E+03 -0.24986774781E+03  0.44008846862E+03  0.50400001928E-02 0. -1.
       -1    1    3    3    0  502  0.26306873269E+03  0.24907591348E+03  0.93967317093E+02  0.37426437915E+03  0.50400001928E-02 0.  1.
</event>
<event>
 5   0  0.1640035E-03  0.8002494E+03  0.7818609E-02  0.9559656E-01
        1   -1    0    0  501    0  0.00000000000E+00  0.00000000000E+00  0.80599630505E+03  0.80599630507E+03  0.50400001928E-02 0. -1.
       -1   -1    0    0    0  501  0.00000000000E+00  0.00000000000E+00 -0.19863584979E+03  0.19863584985E+03  0.50400001928E-02 0.  1.
    10030    2    1    2    0    0  0.00000000000E+00  0.00000000000E+00  0.60736045527E+03  0.10046321549E+04  0.80024936368E+03 0.  0.
        5    1    3    3  502    0 -0.30629169328E+03  0.18810499392E+03  0.83074168937E+02  0.36894646990E+03  0.46999998093E+01 0.  1.
       -5    1    3    3    0  502  0.30629169328E+03 -0.18810499392E+03  0.52428628633E+03  0.63568568502E+03  0.46999998093E+01 0. -1.
</event>
<event>
 5   0  0.1712793E-03  0.8144993E+03  0.7818609E-02  0.9539264E-01
       -1   -1    0    0    0  501  0.00000000000E+00  0.00000000000E+00  0.39614275673E+03  0.39614275676E+03  0.50400001928E-02 0.  1.
        1   -1    0    0  501    0  0.00000000000E+00  0.00000000000E+00 -0.41866800139E+03  0.41866800142E+03  0.50400001928E-02 0. -1.
    10030    2    1    2    0    0  0.00000000000E+00  0.00000000000E+00 -0.22525244662E+02  0.81481075818E+03  0.81449934623E+03 0.  0.
        4    1    3    3  502    0  0.26379137514E+03 -0.35470755824E+02 -0.31961190790E+03  0.41592961988E+03  0.12699999809E+01 0. -1.
       -4    1    3    3    0  502 -0.26379137514E+03  0.35470755824E+02  0.29708666324E+03  0.39888113830E+03  0.12699999809E+01 0.  1.
</event>
<event>
 5   0  0.2873212E-03  0.7998192E+03  0.7818609E-02  0.9560279E-01
        2   -1    0    0  501    0  0.00000000000E+00  0.00000000000E+00  0.46987121951E+03  0.46987121952E+03  0.25500000920E-02 0. -1.
       -2   -1    0    0    0  501  0.00000000000E+00  0.00000000000E+00 -0.34036492462E+03  0.34036492463E+03  0.25500000920E-02 0.  1.
    10030    2    1    2    0    0  0.00000000000E+00  0.00000000000E+00  0.12950629489E+03  0.81023614415E+03  0.79981918511E+03 0.  0.
        2    1    3    3  502    0 -0.97177406390E+02  0.29317335363E+03 -0.19259011638E+03  0.36398491250E+03  0.25500000920E-02 0.  1.
       -2    1    3    3    0  502  0.97177406390E+02 -0.29317335363E+03  0.32209641127E+03  0.44625123165E+03  0.25500000920E-02 0. -1.
</event>
<event>
 5   0  0.2763587E-03  0.8002431E+03  0.7818609E-02  0.9559665E-01
        2   -1    0    0  501    0  0.00000000000E+00  0.00000000000E+00  0.71157654327E+03  0.71157654328E+03  0.25500000920E-02 0. -1.
       -2   -1    0    0    0  501  0.00000000000E+00  0.00000000000E+00 -0.22498950320E+03  0.22498950321E+03  0.25500000920E-02 0.  1.
    10030    2    1    2    0    0  0.00000000000E+00  0.00000000000E+00  0.48658704008E+03  0.93656604649E+03  0.80024309548E+03 0.  0.
        3    1    3    3  502    0  0.11506222927E+03  0.13533627124E+03  0.66289695369E+03  0.68628536654E+03  0.10100000352E+00 0. -1.
       -3    1    3    3    0  502 -0.11506222927E+03 -0.13533627124E+03 -0.17630991361E+03  0.25028067995E+03  0.10100000352E+00 0.  1.
</event>
<event>
 5   0  0.1640035E-03  0.7998597E+03  0.7818609E-02  0.9560220E-01
        1   -1    0    0  501    0  0.00000000000E+00  0.00000000000E+00  0.38613292061E+03  0.38613292064E+03  0.50400001928E-02 0. -1.
       -1   -1    0    0    0  501  0.00000000000E+00  0.00000000000E+00 -0.41421974003E+03  0.41421974006E+03  0.50400001928E-02 0.  1.
    10030    2    1    2    0    0  0.00000000000E+00  0.00000000000E+00 -0.28086819428E+02  0.80035266070E+03  0.79985968274E+03 0.  0.
        5    1    3    3  502    0 -0.10061255770E+03 -0.31761415030E+03 -0.23535873528E+03  0.40794296110E+03  0.46999998093E+01 0.  1.
       -5    1    3    3    0  502  0.10061255770E+03  0.31761415030E+03  0.20727191585E+03  0.39240969960E+03  0.46999998093E+01 0. -1.
</event>
<event>
 5   0  0.2690809E-03  0.8004791E+03  0.7818609E-02  0.9559324E-01
        2   -1    0    0  501    0  0.00000000000E+00  0.00000000000E+00  0.64152675212E+03  0.64152675213E+03  0.25500000920E-02 0.  1.
       -2   -1    0    0    0  501  0.00000000000E+00  0.00000000000E+00 -0.24970383797E+03  0.24970383799E+03  0.25500000920E-02 0. -1.
    10030    2    1    2    0    0  0.00000000000E+00  0.00000000000E+00  0.39182291415E+03  0.89123059012E+03  0.80047908699E+03 0.  0.
        5    1    3    3  502    0 -0.46388406483E+02 -0.36289438452E+03  0.15265831845E+02  0.36619578669E+03  0.46999998093E+01 0. -1.
       -5    1    3    3    0  502  0.46388406483E+02  0.36289438452E+03  0.37655708230E+03  0.52503480342E+03  0.46999998093E+01 0.  1.
</event>
<event>
 5   0  0.2690809E-03  0.8026820E+03  0.7818609E-02  0.9556143E-01
        2   -1    0    0  501    0  0.00000000000E+00  0.00000000000E+00  0.63510758882E+03  0.63510758883E+03  0.25500000920E-02 0. -1.
       -2   -1    0    0    0  501  0.00000000000E+00  0.00000000000E+00 -0.25361782788E+03  0.25361782789E+03  0.25500000920E-02 0.  1.
    10030    2    1    2    0    0  0.00000000000E+00  0.00000000000E+00  0.38148976094E+03  0.88872541672E+03  0.80268202211E+03 0.  0.
        5    1    3    3  502    0  0.23301427700E+03 -0.25307247061E+03  0.41956536077E+03  0.54258502617E+03  0.46999998093E+01 0. -1.
       -5    1    3    3    0  502 -0.23301427700E+03  0.25307247061E+03 -0.38075599828E+02  0.34614039055E+03  0.46999998093E+01 0.  1.
</event>
<event>
 5   0  0.2690809E-03  0.7997933E+03  0.7818609E-02  0.9560316E-01
        2   -1    0    0  501    0  0.00000000000E+00  0.00000000000E+00  0.85693306654E+03  0.85693306654E+03  0.25500000920E-02 0.  1.
       -2   -1    0    0    0  501  0.00000000000E+00  0.00000000000E+00 -0.18661587487E+03  0.18661587489E+03  0.25500000920E-02 0. -1.
    10030    2    1    2    0    0  0.00000000000E+00  0.00000000000E+00  0.67031719166E+03  0.10435489414E+04  0.79979325811E+03 0.  0.
        5    1    3    3  502    0 -0.31821646177E+03  0.14633834095E+03  0.58687706619E+03  0.68346426928E+03  0.46999998093E+01 0.  1.
       -5    1    3    3    0  502  0.31821646177E+03 -0.14633834095E+03  0.83440125479E+02  0.36008467215E+03  0.46999998093E+01 0. -1.
</event>
<event>
 5   0  0.1712793E-03  0.7973065E+03  0.7818609E-02  0.9563924E-01
       -1   -1    0    0    0  501  0.00000000000E+00  0.00000000000E+00  0.10413132257E+03  0.10413132270E+03  0.50400001928E-02 0.  1.
        1   -1    0    0  501    0  0.00000000000E+00  0.00000000000E+00 -0.15261920818E+04  0.15261920818E+04  0.50400001928E-02 0. -1.
    10030    2    1    2    0    0  0.00000000000E+00  0.00000000000E+00 -0.14220607592E+04  0.16303234045E+04  0.79730646575E+03 0.  0.
        4    1    3    3  502    0  0.32848617449E+03 -0.83642134570E+02 -0.28199676376E+03  0.44093419144E+03  0.12699999809E+01 0.  1.
       -4    1    3    3    0  502 -0.32848617449E+03  0.83642134570E+02 -0.11400639954E+04  0.11893892130E+04  0.12699999809E+01 0. -1.
</event>
<event>
 5   0  0.2768834E-03  0.7979248E+03  0.7818609E-02  0.9563026E-01
       -2   -1    0    0    0  501  0.00000000000E+00  0.00000000000E+00  0.65021231547E+02  0.65021231597E+02  0.25500000920E-02 0.  1.
        2   -1    0    0  501    0  0.00000000000E+00  0.00000000000E+00 -0.24479848917E+04  0.24479848917E+04  0.25500000920E-02 0. -1.
    10030    2    1    2    0    0  0.00000000000E+00  0.00000000000E+00 -0.23829636602E+04  0.25130061233E+04  0.79792478977E+03 0.  0.
        4    1    3    3  502    0  0.19081906340E+03 -0.10433616285E+02 -0.88513876738E+02  0.21061124040E+03  0.12699999809E+01 0.  1.
       -4    1    3    3    0  502 -0.19081906340E+03  0.10433616285E+02 -0.22944497834E+04  0.23023948829E+04  0.12699999809E+01 0. -1.
</event>
<event>
 5   0  0.1617491E-03  0.8038733E+03  0.7818609E-02  0.9554428E-01
       -1   -1    0    0    0  501  0.00000000000E+00  0.00000000000E+00  0.10120558367E+03  0.10120558379E+03  0.50400001928E-02 0.  1.
        1   -1    0    0  501    0  0.00000000000E+00  0.00000000000E+00 -0.15962861315E+04  0.15962861315E+04  0.50400001928E-02 0. -1.
    10030    2    1    2    0    0  0.00000000000E+00  0.00000000000E+00 -0.14950805479E+04  0.16974917153E+04  0.80387329787E+03 0.  0.
        1    1    3    3  502    0  0.31420033415E+03 -0.14206885174E+03 -0.11836217807E+04  0.12328284262E+04  0.50400001928E-02 0. -1.
       -1    1    3    3    0  502 -0.31420033415E+03  0.14206885174E+03 -0.31145876712E+03  0.46466328912E+03  0.50400001928E-02 0.  1.
</event>
<event>
 5   0  0.1095350E-03  0.8001491E+03  0.7818609E-02  0.9559801E-01
       -3   -1    0    0    0  501  0.00000000000E+00  0.00000000000E+00  0.10536675869E+03  0.10536680710E+03  0.10100000352E+00 0. -1.
        3   -1    0    0  501    0  0.00000000000E+00  0.00000000000E+00 -0.15190710338E+04  0.15190710371E+04  0.10100000352E+00 0.  1.
    10030    2    1    2    0    0  0.00000000000E+00  0.00000000000E+00 -0.14137042751E+04  0.16244378442E+04  0.80014906886E+03 0.  0.
        3    1    3    3  502    0 -0.94498716131E+02 -0.37902790293E+03 -0.88228816040E+03  0.96489614298E+03  0.10100000352E+00 0. -1.
       -3    1    3    3    0  502  0.94498716131E+02  0.37902790293E+03 -0.53141611470E+03  0.65954170127E+03  0.10100000352E+00 0.  1.
</event>
<event>
 5   0  0.1617491E-03  0.8004051E+03  0.7818609E-02  0.9559431E-01
       -1   -1    0    0    0  501  0.00000000000E+00  0.00000000000E+00  0.16997053014E+03  0.16997053021E+03  0.50400001928E-02 0. -1.
        1   -1    0    0  501    0  0.00000000000E+00  0.00000000000E+00 -0.94229329992E+03  0.94229329993E+03  0.50400001928E-02 0.  1.
    10030    2    1    2    0    0  0.00000000000E+00  0.00000000000E+00 -0.77232276978E+03  0.11122638301E+04  0.80040512687E+03 0.  0.
        1    1    3    3  502    0 -0.56499549576E+02  0.56908380221E+02 -0.93101413021E+03  0.93446138150E+03  0.50400001928E-02 0.  1.
       -1    1    3    3    0  502  0.56499549576E+02 -0.56908380221E+02  0.15869136043E+03  0.17780244864E+03  0.50400001928E-02 0. -1.
</event>
<event>
 5   0  0.1637228E-03  0.7991520E+03  0.7818609E-02  0.9561245E-01
       -1   -1    0    0    0  501  0.00000000000E+00  0.00000000000E+00  0.62034308074E+03  0.62034308076E+03  0.50400001928E-02 0.  1.
        1   -1    0    0  501    0  0.00000000000E+00  0.00000000000E+00 -0.25737528944E+03  0.25737528949E+03  0.50400001928E-02 0. -1.
    10030    2    1    2    0    0  0.00000000000E+00  0.00000000000E+00  0.36296779131E+03  0.87771837025E+03  0.79915200053E+03 0.  0.
        2    1    3    3  502    0 -0.25266495777E+03  0.23820434073E+03  0.39860577081E+03  0.52864680965E+03  0.25500000920E-02 0.  1.
       -2    1    3    3    0  502  0.25266495777E+03 -0.23820434073E+03 -0.35637979502E+02  0.34907156060E+03  0.25500000920E-02 0. -1.
</event>
<event>
 5   0  0.2768834E-03  0.7997934E+03  0.7818609E-02  0.9560316E-01
        2   -1    0    0  501    0  0.00000000000E+00  0.00000000000E+00  0.17455020733E+04  0.17455020733E+04  0.25500000920E-02 0. -1.
       -2   -1    0    0    0  501  0.00000000000E+00  0.00000000000E+00 -0.91616841491E+02  0.91616841527E+02  0.25500000920E-02 0.  1.
    10030    2    1    2    0    0  0.00000000000E+00  0.00000000000E+00  0.16538852318E+04  0.18371189148E+04  0.79979344034E+03 0.  0.
        4    1    3    3  502    0  0.19712070658E+03 -0.26079746855E+03  0.29791654109E+03  0.44229828275E+03  0.12699999809E+01 0.  1.
       -4    1    3    3    0  502 -0.19712070658E+03  0.26079746855E+03  0.13559686907E+04  0.13948206321E+04  0.12699999809E+01 0. -1.
</event>
<event>
 5   0  0.1712793E-03  0.7991781E+03  0.7818609E-02  0.9561208E-01
        1   -1    0    0  501    0  0.00000000000E+00  0.00000000000E+00  0.47027301290E+03  0.47027301293E+03  0.50400001928E-02 0.  1.
       -1   -1    0    0    0  501  0.00000000000E+00  0.00000000000E+00 -0.33952913538E+03  0.33952913541E+03  0.50400001928E-02 0. -1.
    10030    2    1    2    0    0  0.00000000000E+00  0.00000000000E+00  0.13074387753E+03  0.80980214834E+03  0.79917805147E+03 0.  0.
        4    1    3    3  502    0  0.26841428746E+03 -0.10163116979E+03  0.34708702215E+03  0.45038443382E+03  0.12699999809E+01 0.  1.
       -4    1    3    3    0  502 -0.26841428746E+03  0.10163116979E+03 -0.21634314462E+03  0.35941771452E+03  0.12699999809E+01 0. -1.
</event>
<event>
 5   0  0.1617491E-03  0.8026863E+03  0.7818609E-02  0.9556137E-01
       -1   -1    0    0    0  501  0.00000000000E+00  0.00000000000E+00  0.17327113424E+03  0.17327113432E+03  0.50400001928E-02 0. -1.
        1   -1    0    0  501    0  0.00000000000E+00  0.00000000000E+00 -0.92962012014E+03  0.92962012016E+03  0.50400001928E-02 0.  1.
    10030    2    1    2    0    0  0.00000000000E+00  0.00000000000E+00 -0.75634898590E+03  0.11028912545E+04  0.80268632150E+03 0.  0.
        1    1    3    3  502    0  0.27690070469E+03  0.88886724473E+02  0.18588978510E+01  0.29082349557E+03  0.50400001928E-02 0. -1.
       -1    1    3    3    0  502 -0.27690070469E+03 -0.88886724473E+02 -0.75820788375E+03  0.81206775891E+03  0.50400001928E-02 0.  1.
</event>
<event>
 5   0  0.2910501E-03  0.8021401E+03  0.7818609E-02  0.9556925E-01
       -2   -1    0    0    0  501  0.00000000000E+00  0.00000000000E+00  0.78948897470E+03  0.78948897471E+03  0.25500000920E-02 0.  1.
        2   -1    0    0  501    0  0.00000000000E+00  0.00000000000E+00 -0.20374846672E+03  0.20374846673E+03  0.25500000920E-02 0. -1.
    10030    2    1    2    0    0  0.00000000000E+00  0.00000000000E+00  0.58574050798E+03  0.99323744144E+03  0.80214005784E+03 0.  0.
        1    1    3    3  502    0 -0.35187579680E+03 -0.82637469477E+02  0.50809392287E+03  0.62354226979E+03  0.50400001928E-02 0.  1.
       -1    1    3    3    0  502  0.35187579680E+03  0.82637469477E+02  0.77646585117E+02  0.36969517165E+03  0.50400001928E-02 0. -1.
</event>
<event>
 5   0  0.2690809E-03  0.8020686E+03  0.7818609E-02  0.9557028E-01
        2   -1    0    0  501    0  0.00000000000E+00  0.00000000000E+00  0.22505292882E+03  0.22505292884E+03  0.25500000920E-02 0.  1.
       -2   -1    0    0    0  501  0.00000000000E+00  0.00000000000E+00 -0.71462531987E+03  0.71462531988E+03  0.25500000920E-02 0. -1.
    10030    2    1    2    0    0  0.00000000000E+00  0.00000000000E+00 -0.48957239105E+03  0.93967824872E+03  0.80206862863E+03 0.  0.
        5    1    3    3  502    0  0.21829823952E+03 -0.17110768534E+03 -0.58408516314E+03  0.64661389496E+03  0.46999998093E+01 0. -1.
       -5    1    3    3    0  502 -0.21829823952E+03  0.17110768534E+03  0.94512772086E+02  0.29306435376E+03  0.46999998093E+01 0.  1.
</event>
<event>
 5   0  0.1712793E-03  0.8010615E+03  0.7818609E-02  0.9558482E-01
        1   -1    0    0  501    0  0.00000000000E+00  0.00000000000E+00  0.45006198462E+03  0.45006198465E+03  0.50400001928E-02 0. -1.
       -1   -1    0    0    0  501  0.00000000000E+00  0.00000000000E+00 -0.35645067291E+03  0.35645067295E+03  0.50400001928E-02 0.  1.
    10030    2    1    2    0    0  0.00000000000E+00  0.00000000000E+00  0.93611311708E+02  0.80651265760E+03  0.80106153895E+03 0.  0.
        4    1    3    3  502    0 -0.14986811553E+03 -0.22795446035E+03 -0.24844679647E+03  0.36898660087E+03  0.12699999809E+01 0.  1.
       -4    1    3    3    0  502  0.14986811553E+03  0.22795446035E+03  0.34205810818E+03  0.43752605673E+03  0.12699999809E+01 0. -1.
</event>
<event>
 5   0  0.2768834E-03  0.7951982E+03  0.7818609E-02  0.9566994E-01
       -2   -1    0    0    0  501  0.00000000000E+00  0.00000000000E+00  0.24309522906E+03  0.24309522907E+03  0.25500000920E-02 0.  1.
        2   -1    0    0  501    0  0.00000000000E+00  0.00000000000E+00 -0.65030086059E+03  0.65030086059E+03  0.25500000920E-02 0. -1.
    10030    2    1    2    0    0  0.00000000000E+00  0.00000000000E+00 -0.40720563153E+03  0.89339608966E+03  0.79519818075E+03 0.  0.
        4    1    3    3  502    0  0.30672742726E+03  0.21861011513E+03 -0.60556081148E+02  0.38149803267E+03  0.12699999809E+01 0.  1.
       -4    1    3    3    0  502 -0.30672742726E+03 -0.21861011513E+03 -0.34664955038E+03  0.51189805699E+03  0.12699999809E+01 0. -1.
</event>
<event>
 5   0  0.2873212E-03  0.8007491E+03  0.7818609E-02  0.9558933E-01
        2   -1    0    0  501    0  0.00000000000E+00  0.00000000000E+00  0.16951375861E+04  0.16951375861E+04  0.25500000920E-02 0.  1.
       -2   -1    0    0    0  501  0.00000000000E+00  0.00000000000E+00 -0.94564458391E+02  0.94564458425E+02  0.25500000920E-02 0. -1.
    10030    2    1    2    0    0  0.00000000000E+00  0.00000000000E+00  0.16005731277E+04  0.17897020445E+04  0.80074906870E+03 0.  0.
        2    1    3    3  502    0 -0.98568714588E+02  0.16103665785E+03  0.15893873453E+04  0.16005626292E+04  0.25500000920E-02 0.  1.
       -2    1    3    3    0  502  0.98568714588E+02 -0.16103665785E+03  0.11185782356E+02  0.18913941525E+03  0.25500000920E-02 0. -1.
</event>
<event>
 5   0  0.1617491E-03  0.8003468E+03  0.7818609E-02  0.9559515E-01
       -1   -1    0    0    0  501  0.00000000000E+00  0.00000000000E+00  0.61128448827E+03  0.61128448829E+03  0.50400001928E-02 0. -1.
        1   -1    0    0  501    0  0.00000000000E+00  0.00000000000E+00 -0.26197090545E+03  0.26197090550E+03  0.50400001928E-02 0.  1.
    10030    2    1    2    0    0  0.00000000000E+00  0.00000000000E+00  0.34931358283E+03  0.87325539379E+03  0.80034680210E+03 0.  0.
        1    1    3    3  502    0  0.12063167061E+03 -0.31117828468E+03  0.41557624447E+03  0.53299863021E+03  0.50400001928E-02 0. -1.
       -1    1    3    3    0  502 -0.12063167061E+03  0.31117828468E+03 -0.66262661640E+02  0.34025676358E+03  0.50400001928E-02 0.  1.
</event>
<event>
 5   0  0.2873212E-03  0.8016674E+03  0.7818609E-02  0.9557607E-01
        2   -1    0    0  501    0  0.00000000000E+00  0.00000000000E+00  0.67631527605E+03  0.67631527605E+03  0.25500000920E-02 0. -1.
       -2   -1    0    0    0  501  0.00000000000E+00  0.00000000000E+00 -0.23756325945E+03  0.23756325946E+03  0.25500000920E-02 0.  1.
    10030    2    1    2    0    0  0.00000000000E+00  0.00000000000E+00  0.43875201660E+03  0.91387853551E+03  0.80166741583E+03 0.  0.
        2    1    3    3  502    0 -0.26783250355E+03  0.35051355392E+02  0.55697874693E+03  0.61902194793E+03  0.25500000920E-02 0. -1.
       -2    1    3    3    0  502  0.26783250355E+03 -0.35051355392E+02 -0.11822673033E+03  0.29485658759E+03  0.25500000920E-02 0.  1.
</event>
<event>
 5   0  0.1637228E-03  0.8005496E+03  0.7818609E-02  0.9559222E-01
       -1   -1    0    0    0  501  0.00000000000E+00  0.00000000000E+00  0.24624242052E+03  0.24624242057E+03  0.50400001928E-02 0.  1.
        1   -1    0    0  501    0  0.00000000000E+00  0.00000000000E+00 -0.65065920620E+03  0.65065920622E+03  0.50400001928E-02 0. -1.
    10030    2    1    2    0    0  0.00000000000E+00  0.00000000000E+00 -0.40441678568E+03  0.89690162679E+03  0.80054955599E+03 0.  0.
        2    1    3    3  502    0 -0.40154663859E+02  0.27026850398E+03 -0.52992478317E+03  0.59621953767E+03  0.25500000920E-02 0. -1.
       -2    1    3    3    0  502  0.40154663859E+02 -0.27026850398E+03  0.12550799750E+03  0.30068208912E+03  0.25500000920E-02 0.  1.
</event>
<event>
 5   0  0.1712793E-03  0.8005258E+03  0.7818609E-02  0.9559256E-01
        1   -1    0    0  501    0  0.00000000000E+00  0.00000000000E+00  0.15383931577E+04  0.15383931577E+04  0.50400001928E-02 0.  1.
       -1   -1    0    0    0  501  0.00000000000E+00  0.00000000000E+00 -0.10414139145E+03  0.10414139157E+03  0.50400001928E-02 0. -1.
    10030    2    1    2    0    0  0.00000000000E+00  0.00000000000E+00  0.14342517663E+04  0.16425345493E+04  0.80052583755E+03 0.  0.
        4    1    3    3  502    0 -0.32183862099E+03 -0.23345263302E+03  0.62246244950E+03  0.73860770627E+03  0.12699999809E+01 0. -1.
       -4    1    3    3    0  502  0.32183862099E+03  0.23345263302E+03  0.81178931676E+03  0.90392684302E+03  0.12699999809E+01 0.  1.
</event>
<event>
 5   0  0.2910501E-03  0.7991850E+03  0.7818609E-02  0.9561198E-01
       -2   -1    0    0    0  501  0.00000000000E+00  0.00000000000E+00  0.41674342804E+03  0.41674342805E+03  0.25500000920E-02 0.  1.
        2   -1    0    0  501    0  0.00000000000E+00  0.00000000000E+00 -0.38314742794E+03  0.38314742794E+03  0.25500000920E-02 0. -1.
    10030    2    1    2    0    0  0.00000000000E+00  0.00000000000E+00  0.33596000105E+02  0.79989085599E+03  0.79918501630E+03 0.  0.
        1    1    3    3  502    0  0.21528436946E+01 -0.37340766592E+03  0.15917782276E+03  0.40592548453E+03  0.50400001928E-02 0. -1.
       -1    1    3    3    0  502 -0.21528436946E+01  0.37340766592E+03 -0.12558182265E+03  0.39396537146E+03  0.50400001928E-02 0.  1.
</event>
<event>
 5   0  0.2873212E-03  0.8005378E+03  0.7818609E-02  0.9559239E-01
       -2   -1    0    0    0  501  0.00000000000E+00  0.00000000000E+00  0.58774104656E+02  0.58774104711E+02  0.25500000920E-02 0. -1.
        2   -1    0    0  501    0  0.00000000000E+00  0.00000000000E+00 -0.27259486280E+04  0.27259486280E+04  0.25500000920E-02 0.  1.
    10030    2    1    2    0    0  0.00000000000E+00  0.00000000000E+00 -0.26671745233E+04  0.27847227327E+04  0.80053779430E+03 0.  0.
        2    1    3    3  502    0 -0.59304499023E+02  0.11665271303E+03 -0.17740749666E+02  0.13205912792E+03  0.25500000920E-02 0. -1.
       -2    1    3    3    0  502  0.59304499023E+02 -0.11665271303E+03 -0.26494337736E+04  0.26526636048E+04  0.25500000920E-02 0.  1.
</event>
<event>
 5   0  0.1617491E-03  0.7983329E+03  0.7818609E-02  0.9562433E-01
        1   -1    0    0  501    0  0.00000000000E+00  0.00000000000E+00  0.47835120786E+03  0.47835120789E+03  0.50400001928E-02 0.  1.
       -1   -1    0    0    0  501  0.00000000000E+00  0.00000000000E+00 -0.33308965637E+03  0.33308965640E+03  0.50400001928E-02 0. -1.
    10030    2    1    2    0    0  0.00000000000E+00  0.00000000000E+00  0.14526155149E+03  0.81144086429E+03  0.79833286159E+03 0.  0.
        1    1    3    3  502    0 -0.29199653806E+03  0.21903186362E+03 -0.91567034877E+02  0.37632626459E+03  0.50400001928E-02 0. -1.
       -1    1    3    3    0  502  0.29199653806E+03 -0.21903186362E+03  0.23682858637E+03  0.43511459970E+03  0.50400001928E-02 0.  1.
</event>
<event>
 5   0  0.1637228E-03  0.7984782E+03  0.7818609E-02  0.9562222E-01
       -1   -1    0    0    0  501  0.00000000000E+00  0.00000000000E+00  0.24247694104E+03  0.24247694109E+03  0.50400001928E-02 0.  1.
        1   -1    0    0  501    0  0.00000000000E+00  0.00000000000E+00 -0.65734853899E+03  0.65734853901E+03  0.50400001928E-02 0. -1.
    10030    2    1    2    0    0  0.00000000000E+00  0.00000000000E+00 -0.41487159795E+03  0.89982548010E+03  0.79847821001E+03 0.  0.
        2    1    3    3  502    0 -0.18735321550E+03 -0.27102416099E+03  0.46651647619E+02  0.33276372914E+03  0.25500000920E-02 0.  1.
       -2    1    3    3    0  502  0.18735321550E+03  0.27102416099E+03 -0.46152324557E+03  0.56706175096E+03  0.25500000920E-02 0. -1.
</event>
<event>
 5   0  0.2910501E-03  0.7994871E+03  0.7818609E-02  0.9560760E-01
       -2   -1    0    0    0  501  0.00000000000E+00  0.00000000000E+00  0.18481007772E+03  0.18481007774E+03  0.25500000920E-02 0.  1.
        2   -1    0    0  501    0  0.00000000000E+00  0.00000000000E+00 -0.86464386706E+03  0.86464386707E+03  0.25500000920E-02 0. -1.
    10030    2    1    2    0    0  0.00000000000E+00  0.00000000000E+00 -0.67983378935E+03  0.10494539448E+04  0.79948708628E+03 0.  0.
        1    1    3    3  502    0  0.23637346328E+03 -0.31352492508E+03 -0.24147090241E+03  0.46095389089E+03  0.50400001928E-02 0.  1.
       -1    1    3    3    0  502 -0.23637346328E+03  0.31352492508E+03 -0.43836288694E+03  0.58850005392E+03  0.50400001928E-02 0. -1.
</event>
<event>
 5   0  0.1637228E-03  0.7993697E+03  0.7818609E-02  0.9560930E-01
       -1   -1    0    0    0  501  0.00000000000E+00  0.00000000000E+00  0.61885878124E+03  0.61885878126E+03  0.50400001928E-02 0. -1.
        1   -1    0    0  501    0  0.00000000000E+00  0.00000000000E+00 -0.25813314461E+03  0.25813314466E+03  0.50400001928E-02 0.  1.
    10030    2    1    2    0    0  0.00000000000E+00  0.00000000000E+00  0.36072563663E+03  0.87699192592E+03  0.79936965992E+03 0.  0.
        2    1    3    3  502    0 -0.75977445444E+02  0.16538514437E+03  0.57075803034E+03  0.59907390813E+03  0.25500000920E-02 0. -1.
       -2    1    3    3    0  502  0.75977445444E+02 -0.16538514437E+03 -0.21003239372E+03  0.27791801779E+03  0.25500000920E-02 0.  1.
</event>
<event>
 5   0  0.1656051E-03  0.7987310E+03  0.7818609E-02  0.9561856E-01
       -1   -1    0    0    0  501  0.00000000000E+00  0.00000000000E+00  0.41397241242E+03  0.41397241245E+03  0.50400001928E-02 0. -1.
        1   -1    0    0  501    0  0.00000000000E+00  0.00000000000E+00 -0.38527397203E+03  0.38527397206E+03  0.50400001928E-02 0.  1.
    10030    2    1    2    0    0  0.00000000000E+00  0.00000000000E+00  0.28698440398E+02  0.79924638451E+03  0.79873098267E+03 0.  0.
        3    1    3    3  502    0  0.13133252897E+03  0.26471289998E+03 -0.25447191767E+03  0.38997066514E+03  0.10100000352E+00 0.  1.
       -3    1    3    3    0  502 -0.13133252897E+03 -0.26471289998E+03  0.28317035807E+03  0.40927571938E+03  0.10100000352E+00 0. -1.
</event>
<event>
 5   0  0.2768834E-03  0.7908653E+03  0.7818609E-02  0.9573334E-01
       -2   -1    0    0    0  501  0.00000000000E+00  0.00000000000E+00  0.46898817199E+03  0.46898817200E+03  0.25500000920E-02 0.  1.
        2   -1    0    0  501    0  0.00000000000E+00  0.00000000000E+00 -0.33341352533E+03  0.33341352534E+03  0.25500000920E-02 0. -1.
    10030    2    1    2    0    0  0.00000000000E+00  0.00000000000E+00  0.13557464666E+03  0.80240169734E+03  0.79086534826E+03 0.  0.
        4    1    3    3  502    0  0.36069180538E+03 -0.13471770196E+03  0.15920126917E+03  0.41664624646E+03  0.12699999809E+01 0.  1.
       -4    1    3    3    0  502 -0.36069180538E+03  0.13471770196E+03 -0.23626622503E+02  0.38575545087E+03  0.12699999809E+01 0. -1.
</event>
<event>
 5   0  0.2768834E-03  0.7972085E+03  0.7818609E-02  0.9564066E-01
       -2   -1    0    0    0  501  0.00000000000E+00  0.00000000000E+00  0.14285909857E+03  0.14285909859E+03  0.25500000920E-02 0.  1.
        2   -1    0    0  501    0  0.00000000000E+00  0.00000000000E+00 -0.11121822833E+04  0.11121822833E+04  0.25500000920E-02 0. -1.
    10030    2    1    2    0    0  0.00000000000E+00  0.00000000000E+00 -0.96932318471E+03  0.12550413819E+04  0.79720852592E+03 0.  0.
        4    1    3    3  502    0  0.12588331578E+03 -0.20641594291E+03  0.14242385320E+02  0.24219539451E+03  0.12699999809E+01 0.  1.
       -4    1    3    3    0  502 -0.12588331578E+03  0.20641594291E+03 -0.98356557003E+03  0.10128459874E+04  0.12699999809E+01 0. -1.
</event>
<event>
 5   0  0.2768834E-03  0.8047728E+03  0.7818609E-02  0.9553134E-01
        2   -1    0    0  501    0  0.00000000000E+00  0.00000000000E+00  0.10797557698E+04  0.10797557698E+04  0.25500000920E-02 0.  1.
       -2   -1    0    0    0  501  0.00000000000E+00  0.00000000000E+00 -0.14995504002E+03  0.14995504004E+03  0.25500000920E-02 0. -1.
    10030    2    1    2    0    0  0.00000000000E+00  0.00000000000E+00  0.92980072977E+03  0.12297108098E+04  0.80477281187E+03 0.  0.
        4    1    3    3  502    0  0.83011486249E+02  0.37063144464E+03  0.66792981185E+03  0.76836867523E+03  0.12699999809E+01 0.  1.
       -4    1    3    3    0  502 -0.83011486249E+02 -0.37063144464E+03  0.26187091791E+03  0.46134213460E+03  0.12699999809E+01 0. -1.
</event>
<event>
 5   0  0.2763587E-03  0.8006350E+03  0.7818609E-02  0.9559098E-01
       -2   -1    0    0    0  501  0.00000000000E+00  0.00000000000E+00  0.13187187768E+03  0.13187187771E+03  0.25500000920E-02 0.  1.
        2   -1    0    0  501    0  0.00000000000E+00  0.00000000000E+00 -0.12152258819E+04  0.12152258819E+04  0.25500000920E-02 0. -1.
    10030    2    1    2    0    0  0.00000000000E+00  0.00000000000E+00 -0.10833540043E+04  0.13470977596E+04  0.80063504514E+03 0.  0.
        3    1    3    3  502    0  0.28692995095E+03  0.93556165172E+02 -0.99158504460E+02  0.31766959566E+03  0.10100000352E+00 0.  1.
       -3    1    3    3    0  502 -0.28692995095E+03 -0.93556165172E+02 -0.98419549979E+03  0.10294281640E+04  0.10100000352E+00 0. -1.
</event>
<event>
 5   0  0.1617491E-03  0.8029958E+03  0.7818609E-02  0.9555691E-01
       -1   -1    0    0    0  501  0.00000000000E+00  0.00000000000E+00  0.20471123180E+03  0.20471123186E+03  0.50400001928E-02 0. -1.
        1   -1    0    0  501    0  0.00000000000E+00  0.00000000000E+00 -0.78745338139E+03  0.78745338140E+03  0.50400001928E-02 0.  1.
    10030    2    1    2    0    0  0.00000000000E+00  0.00000000000E+00 -0.58274214959E+03  0.99216461327E+03  0.80299577017E+03 0.  0.
        1    1    3    3  502    0  0.20308458047E+03 -0.34583275625E+03 -0.26802845588E+03  0.48237215436E+03  0.50400001928E-02 0. -1.
       -1    1    3    3    0  502 -0.20308458047E+03  0.34583275625E+03 -0.31471369371E+03  0.50979245890E+03  0.50400001928E-02 0.  1.
</event>
<event>
 5   0  0.2873212E-03  0.7971546E+03  0.7818609E-02  0.9564145E-01
        2   -1    0    0  501    0  0.00000000000E+00  0.00000000000E+00  0.17410420298E+04  0.17410420298E+04  0.25500000920E-02 0.  1.
       -2   -1    0    0    0  501  0.00000000000E+00  0.00000000000E+00 -0.91246421246E+02  0.91246421281E+02  0.25500000920E-02 0. -1.
    10030    2    1    2    0    0  0.00000000000E+00  0.00000000000E+00  0.16497956086E+04  0.18322884511E+04  0.79715457597E+03 0.  0.
        2    1    3    3  502    0  0.27396360099E+03  0.23571104839E+03  0.12112166842E+04  0.12639863960E+04  0.25500000920E-02 0.  1.
       -2    1    3    3    0  502 -0.27396360099E+03 -0.23571104839E+03  0.43857892435E+03  0.56830205516E+03  0.25500000920E-02 0. -1.
</event>
<event>
 5   0  0.2910501E-03  0.8009116E+03  0.7818609E-02  0.9558698E-01
       -2   -1    0    0    0  501  0.00000000000E+00  0.00000000000E+00  0.27418030532E+03  0.27418030533E+03  0.25500000920E-02 0.  1.
        2   -1    0    0  501    0  0.00000000000E+00  0.00000000000E+00 -0.58488834717E+03  0.58488834717E+03  0.25500000920E-02 0. -1.
    10030    2    1    2    0    0  0.00000000000E+00  0.00000000000E+00 -0.31070804185E+03  0.85906865250E+03  0.80091164459E+03 0.  0.
        1    1    3    3  502    0  0.99947923818E+02 -0.37396585560E+03 -0.45314031590E+02  0.38973505117E+03  0.50400001928E-02 0.  1.
       -1    1    3    3    0  502 -0.99947923818E+02  0.37396585560E+03 -0.26539401026E+03  0.46933360133E+03  0.50400001928E-02 0. -1.
</event>
<event>
 5   0  0.1637228E-03  0.8006776E+03  0.7818609E-02  0.9559037E-01
       -1   -1    0    0    0  501  0.00000000000E+00  0.00000000000E+00  0.40731609882E+03  0.40731609885E+03  0.50400001928E-02 0. -1.
        1   -1    0    0  501    0  0.00000000000E+00  0.00000000000E+00 -0.39348102976E+03  0.39348102980E+03  0.50400001928E-02 0.  1.
    10030    2    1    2    0    0  0.00000000000E+00  0.00000000000E+00  0.13835069056E+02  0.80079712865E+03  0.80067760810E+03 0.  0.
        2    1    3    3  502    0 -0.20739971091E+02 -0.29293204284E+03 -0.26521098960E+03  0.39569710276E+03  0.25500000920E-02 0.  1.
       -2    1    3    3    0  502  0.20739971091E+02  0.29293204284E+03  0.27904605865E+03  0.40510002589E+03  0.25500000920E-02 0. -1.
</event>
<event>
 5   0  0.1637228E-03  0.8032493E+03  0.7818609E-02  0.9555326E-01
        1   -1    0    0  501    0  0.00000000000E+00  0.00000000000E+00  0.54499183052E+03  0.54499183055E+03  0.50400001928E-02 0. -1.
       -1   -1    0    0    0  501  0.00000000000E+00  0.00000000000E+00 -0.29597205456E+03  0.29597205461E+03  0.50400001928E-02 0.  1.
    10030    2    1    2    0    0  0.00000000000E+00  0.00000000000E+00  0.24901977596E+03  0.84096388515E+03  0.80324928093E+03 0.  0.
        2    1    3    3  502    0 -0.14237873539E+03  0.21624596620E+03 -0.19693750364E+03  0.32529740629E+03  0.25500000920E-02 0.  1.
       -2    1    3    3    0  502  0.14237873539E+03 -0.21624596620E+03  0.44595727960E+03  0.51566647887E+03  0.25500000920E-02 0. -1.
</event>
<event>
 5   0  0.2910501E-03  0.7997501E+03  0.7818609E-02  0.9560379E-01
       -2   -1    0    0    0  501  0.00000000000E+00  0.00000000000E+00  0.87093786841E+02  0.87093786878E+02  0.25500000920E-02 0. -1.
        2   -1    0    0  501    0  0.00000000000E+00  0.00000000000E+00 -0.18359526657E+04  0.18359526657E+04  0.25500000920E-02 0.  1.
    10030    2    1    2    0    0  0.00000000000E+00  0.00000000000E+00 -0.17488588788E+04  0.19230464526E+04  0.79975013636E+03 0.  0.
        1    1    3    3  502    0 -0.35716537466E+03  0.29484597951E+02 -0.44790902519E+03  0.57363659336E+03  0.50400001928E-02 0. -1.
       -1    1    3    3    0  502  0.35716537466E+03 -0.29484597951E+02 -0.13009498537E+04  0.13494098592E+04  0.50400001928E-02 0.  1.
</event>
<event>
 5   0  0.2768834E-03  0.8010312E+03  0.7818609E-02  0.9558526E-01
        2   -1    0    0  501    0  0.00000000000E+00  0.00000000000E+00  0.11070657960E+04  0.11070657960E+04  0.25500000920E-02 0.  1.
       -2   -1    0    0    0  501  0.00000000000E+00  0.00000000000E+00 -0.14489901602E+03  0.14489901604E+03  0.25500000920E-02 0. -1.
    10030    2    1    2    0    0  0.00000000000E+00  0.00000000000E+00  0.96216678000E+03  0.12519648121E+04  0.80103119670E+03 0.  0.
        4    1    3    3  502    0 -0.22205523651E+03 -0.41509353799E+02 -0.35821704331E+02  0.22872770255E+03  0.12699999809E+01 0. -1.
       -4    1    3    3    0  502  0.22205523651E+03  0.41509353799E+02  0.99798848433E+03  0.10232371095E+04  0.12699999809E+01 0.  1.
</event>
<event>
 5   0  0.2768834E-03  0.8007625E+03  0.7818609E-02  0.9558914E-01
       -2   -1    0    0    0  501  0.00000000000E+00  0.00000000000E+00  0.97321016817E+02  0.97321016850E+02  0.25500000920E-02 0. -1.
        2   -1    0    0  501    0  0.00000000000E+00  0.00000000000E+00 -0.16471789231E+04  0.16471789231E+04  0.25500000920E-02 0.  1.
    10030    2    1    2    0    0  0.00000000000E+00  0.00000000000E+00 -0.15498579063E+04  0.17444999400E+04  0.80076245594E+03 0.  0.
        4    1    3    3  502    0  0.32514888880E+03  0.22117149542E+03 -0.93889834549E+03  0.10179245288E+04  0.12699999809E+01 0. -1.
       -4    1    3    3    0  502 -0.32514888880E+03 -0.22117149542E+03 -0.61095956084E+03  0.72657541119E+03  0.12699999809E+01 0.  1.
</event>
<event>
 5   0  0.1656051E-03  0.8105202E+03  0.7818609E-02  0.9544913E-01
       -1   -1    0    0    0  501  0.00000000000E+00  0.00000000000E+00  0.23216371052E+03  0.23216371058E+03  0.50400001928E-02 0.  1.
        1   -1    0    0  501    0  0.00000000000E+00  0.00000000000E+00 -0.70741346916E+03  0.70741346918E+03  0.50400001928E-02 0. -1.
    10030    2    1    2    0    0  0.00000000000E+00  0.00000000000E+00 -0.47524975864E+03  0.93957717976E+03  0.81052016856E+03 0.  0.
        3    1    3    3  502    0 -0.71828646591E+02 -0.39845214969E+03 -0.25810930457E+03  0.48014986553E+03  0.10100000352E+00 0. -1.
       -3    1    3    3    0  502  0.71828646591E+02  0.39845214969E+03 -0.21714045407E+03  0.45942731423E+03  0.10100000352E+00 0.  1.
</event>
<event>
 5   0  0.1095350E-03  0.8002426E+03  0.7818609E-02  0.9559666E-01
       -3   -1    0    0    0  501  0.00000000000E+00  0.00000000000E+00  0.38666463591E+03  0.38666464910E+03  0.10100000352E+00 0. -1.
        3   -1    0    0  501    0  0.00000000000E+00  0.00000000000E+00 -0.41404621492E+03  0.41404622724E+03  0.10100000352E+00 0.  1.
    10030    2    1    2    0    0  0.00000000000E+00  0.00000000000E+00 -0.27381579004E+02  0.80071087634E+03  0.80024256111E+03 0.  0.
        1    1    3    3  502    0 -0.19132279687E+02 -0.25758743335E+03 -0.31945055774E+03  0.41081137863E+03  0.50400001928E-02 0.  1.
       -1    1    3    3    0  502  0.19132279687E+02  0.25758743335E+03  0.29206897874E+03  0.38989949771E+03  0.50400001928E-02 0. -1.
</event>
<event>
 5   0  0.1656051E-03  0.7994336E+03  0.7818609E-02  0.9560837E-01
       -1   -1    0    0    0  501  0.00000000000E+00  0.00000000000E+00  0.10047225952E+04  0.10047225952E+04  0.50400001928E-02 0.  1.
        1   -1    0    0  501    0  0.00000000000E+00  0.00000000000E+00 -0.15902252829E+03  0.15902252837E+03  0.50400001928E-02 0. -1.
    10030    2    1    2    0    0  0.00000000000E+00  0.00000000000E+00  0.84570006687E+03  0.11637451235E+04  0.79943361793E+03 0.  0.
        3    1    3    3  502    0 -0.25098404450E+03 -0.29488252417E+03  0.56714056908E+03  0.68672929816E+03  0.10100000352E+00 0.  1.
       -3    1    3    3    0  502  0.25098404450E+03  0.29488252417E+03  0.27855949779E+03  0.47701582538E+03  0.10100000352E+00 0. -1.
</event>
<event>
 5   0  0.2873212E-03  0.7978484E+03  0.7818609E-02  0.9563137E-01
        2   -1    0    0  501    0  0.00000000000E+00  0.00000000000E+00  0.53285911865E+03  0.53285911866E+03  0.25500000920E-02 0.  1.
       -2   -1    0    0    0  501  0.00000000000E+00  0.00000000000E+00 -0.29865402042E+03  0.29865402043E+03  0.25500000920E-02 0. -1.
    10030    2    1    2    0    0  0.00000000000E+00  0.00000000000E+00  0.23420509823E+03  0.83151313909E+03  0.79784840192E+03 0.  0.
        2    1    3    3  502    0 -0.10629657484E+03 -0.36968119092E+03  0.22728656971E+03  0.44679114754E+03  0.25500000920E-02 0. -1.
       -2    1    3    3    0  502  0.10629657484E+03  0.36968119092E+03  0.69185285266E+01  0.38472199155E+03  0.25500000920E-02 0.  1.
</event>
<event>
 5   0  0.1637228E-03  0.7995153E+03  0.7818609E-02  0.9560719E-01
       -1   -1    0    0    0  501  0.00000000000E+00  0.00000000000E+00  0.38691867889E+03  0.38691867892E+03  0.50400001928E-02 0. -1.
        1   -1    0    0  501    0  0.00000000000E+00  0.00000000000E+00 -0.41302264946E+03  0.41302264949E+03  0.50400001928E-02 0.  1.
    10030    2    1    2    0    0  0.00000000000E+00  0.00000000000E+00 -0.26103970568E+02  0.79994132841E+03  0.79951529792E+03 0.  0.
        2    1    3    3  502    0  0.11456676065E+03  0.14596374044E+03  0.34122032869E+03  0.38840992377E+03  0.25500000920E-02 0. -1.
       -2    1    3    3    0  502 -0.11456676065E+03 -0.14596374044E+03 -0.36732429925E+03  0.41153140463E+03  0.25500000920E-02 0.  1.
</event>
<event>
 5   0  0.1637228E-03  0.7980440E+03  0.7818609E-02  0.9562853E-01
        1   -1    0    0  501    0  0.00000000000E+00  0.00000000000E+00  0.12642540619E+04  0.12642540619E+04  0.50400001928E-02 0.  1.
       -1   -1    0    0    0  501  0.00000000000E+00  0.00000000000E+00 -0.12593871878E+03  0.12593871888E+03  0.50400001928E-02 0. -1.
    10030    2    1    2    0    0  0.00000000000E+00  0.00000000000E+00  0.11383153431E+04  0.13901927808E+04  0.79804395078E+03 0.  0.
        2    1    3    3  502    0  0.12417931209E+03  0.19959740241E+03  0.74904464618E+01  0.23519296629E+03  0.25500000920E-02 0. -1.
       -2    1    3    3    0  502 -0.12417931209E+03 -0.19959740241E+03  0.11308248966E+04  0.11549998145E+04  0.25500000920E-02 0.  1.
</event>
<event>
 5   0  0.1617491E-03  0.7996742E+03  0.7818609E-02  0.9560489E-01
       -1   -1    0    0    0  501  0.00000000000E+00  0.00000000000E+00  0.55931428023E+03  0.55931428026E+03  0.50400001928E-02 0. -1.
        1   -1    0    0  501    0  0.00000000000E+00  0.00000000000E+00 -0.28583160986E+03  0.28583160991E+03  0.50400001928E-02 0.  1.
    10030    2    1    2    0    0  0.00000000000E+00  0.00000000000E+00  0.27348267037E+03  0.84514589016E+03  0.79967418657E+03 0.  0.
        1    1    3    3  502    0 -0.23589303404E+03 -0.29428141021E+03  0.27704013592E+03  0.46797255138E+03  0.50400001928E-02 0. -1.
       -1    1    3    3    0  502  0.23589303404E+03  0.29428141021E+03 -0.35574655529E+01  0.37717333879E+03  0.50400001928E-02 0.  1.
</event>
<event>
 5   0  0.2873212E-03  0.7998527E+03  0.7818609E-02  0.9560230E-01
       -2   -1    0    0    0  501  0.00000000000E+00  0.00000000000E+00  0.16512822091E+03  0.16512822093E+03  0.25500000920E-02 0. -1.
        2   -1    0    0  501    0  0.00000000000E+00  0.00000000000E+00 -0.96858727073E+03  0.96858727073E+03  0.25500000920E-02 0.  1.
    10030    2    1    2    0    0  0.00000000000E+00  0.00000000000E+00 -0.80345904982E+03  0.11337154917E+04  0.79985271849E+03 0.  0.
        2    1    3    3  502    0 -0.35471190029E+02  0.36099218047E+02 -0.96403001145E+03  0.96535756166E+03  0.25500000920E-02 0.  1.
       -2    1    3    3    0  502  0.35471190029E+02 -0.36099218047E+02  0.16057096163E+03  0.16835792999E+03  0.25500000920E-02 0. -1.
</event>
<event>
 5   0  0.2768834E-03  0.8000640E+03  0.7818609E-02  0.9559924E-01
       -2   -1    0    0    0  501  0.00000000000E+00  0.00000000000E+00  0.13340950043E+03  0.13340950045E+03  0.25500000920E-02 0.  1.
        2   -1    0    0  501    0  0.00000000000E+00  0.00000000000E+00 -0.11995069093E+04  0.11995069093E+04  0.25500000920E-02 0. -1.
    10030    2    1    2    0    0  0.00000000000E+00  0.00000000000E+00 -0.10660974089E+04  0.13329164098E+04  0.80006404131E+03 0.  0.
        4    1    3    3  502    0  0.17137604091E+03 -0.10988166723E+03  0.40650691152E+02  0.20760014399E+03  0.12699999809E+01 0.  1.
       -4    1    3    3    0  502 -0.17137604091E+03  0.10988166723E+03 -0.11067481000E+04  0.11253162658E+04  0.12699999809E+01 0. -1.
</event>
<event>
 5   0  0.1617491E-03  0.7964914E+03  0.7818609E-02  0.9565110E-01
       -1   -1    0    0    0  501  0.00000000000E+00  0.00000000000E+00  0.27504749159E+03  0.27504749164E+03  0.50400001928E-02 0. -1.
        1   -1    0    0  501    0  0.00000000000E+00  0.00000000000E+00 -0.57662642350E+03  0.57662642352E+03  0.50400001928E-02 0.  1.
    10030    2    1    2    0    0  0.00000000000E+00  0.00000000000E+00 -0.30157893190E+03  0.85167391516E+03  0.79649143473E+03 0.  0.
        1    1    3    3  502    0 -0.37109144281E+02 -0.23330721214E+03  0.19203224563E+03  0.30444330706E+03  0.50400001928E-02 0. -1.
       -1    1    3    3    0  502  0.37109144281E+02  0.23330721214E+03 -0.49361117754E+03  0.54723060810E+03  0.50400001928E-02 0.  1.
</event>
<event>
 5   0  0.2910501E-03  0.8000670E+03  0.7818609E-02  0.9559920E-01
        2   -1    0    0  501    0  0.00000000000E+00  0.00000000000E+00  0.76898145888E+03  0.76898145889E+03  0.25500000920E-02 0. -1.
       -2   -1    0    0    0  501  0.00000000000E+00  0.00000000000E+00 -0.20810229965E+03  0.20810229967E+03  0.25500000920E-02 0.  1.
    10030    2    1    2    0    0  0.00000000000E+00  0.00000000000E+00  0.56087915923E+03  0.97708375855E+03  0.80006702217E+03 0.  0.
        1    1    3    3  502    0  0.13718739120E+03  0.14980783278E+03  0.70130952275E+03  0.73013547633E+03  0.50400001928E-02 0. -1.
       -1    1    3    3    0  502 -0.13718739120E+03 -0.14980783278E+03 -0.14043036352E+03  0.24694828222E+03  0.50400001928E-02 0.  1.
</event>
<event>
 5   0  0.1637228E-03  0.8061133E+03  0.7818609E-02  0.9551210E-01
       -1   -1    0    0    0  501  0.00000000000E+00  0.00000000000E+00  0.39630109763E+03  0.39630109766E+03  0.50400001928E-02 0. -1.
        1   -1    0    0  501    0  0.00000000000E+00  0.00000000000E+00 -0.40992737409E+03  0.40992737412E+03  0.50400001928E-02 0.  1.
    10030    2    1    2    0    0  0.00000000000E+00  0.00000000000E+00 -0.13626276460E+02  0.80622847179E+03  0.80611331295E+03 0.  0.
        2    1    3    3  502    0 -0.18603733669E+02 -0.36522288269E+03  0.16268323900E+03  0.40024953367E+03  0.25500000920E-02 0. -1.
       -2    1    3    3    0  502  0.18603733669E+02  0.36522288269E+03 -0.17630951546E+03  0.40597893812E+03  0.25500000920E-02 0.  1.
</event>
<event>
 5   0  0.1712793E-03  0.7955476E+03  0.7818609E-02  0.9566484E-01
       -1   -1    0    0    0  501  0.00000000000E+00  0.00000000000E+00  0.27891850737E+03  0.27891850741E+03  0.50400001928E-02 0.  1.
        1   -1    0    0  501    0  0.00000000000E+00  0.00000000000E+00 -0.56727679787E+03  0.56727679790E+03  0.50400001928E-02 0. -1.
    10030    2    1    2    0    0  0.00000000000E+00  0.00000000000E+00 -0.28835829051E+03  0.84619530531E+03  0.79554760450E+03 0.  0.
        4    1    3    3  502    0 -0.37270939687E+01  0.23441992189E+03  0.19761266648E+03  0.30662512921E+03  0.12699999809E+01 0.  1.
       -4    1    3    3    0  502  0.37270939687E+01 -0.23441992189E+03 -0.48597095699E+03  0.53957017610E+03  0.12699999809E+01 0. -1.
</event>
<event>
 5   0  0.1617491E-03  0.8003342E+03  0.7818609E-02  0.9559533E-01
        1   -1    0    0  501    0  0.00000000000E+00  0.00000000000E+00  0.15094456232E+04  0.15094456232E+04  0.50400001928E-02 0. -1.
       -1   -1    0    0    0  501  0.00000000000E+00  0.00000000000E+00 -0.10608776766E+03  0.10608776778E+03  0.50400001928E-02 0.  1.
    10030    2    1    2    0    0  0.00000000000E+00  0.00000000000E+00  0.14033578556E+04  0.16155333910E+04  0.80033422189E+03 0.  0.
        1    1    3    3  502    0 -0.18676927200E+03  0.33374573845E+03  0.46399469059E+03  0.60129863780E+03  0.50400001928E-02 0. -1.
       -1    1    3    3    0  502  0.18676927200E+03 -0.33374573845E+03  0.93936316499E+03  0.10142347532E+04  0.50400001928E-02 0.  1.
</event>
<event>
 5   0  0.1617491E-03  0.8011251E+03  0.7818609E-02  0.9558390E-01
       -1   -1    0    0    0  501  0.00000000000E+00  0.00000000000E+00  0.14939160664E+03  0.14939160672E+03  0.50400001928E-02 0.  1.
        1   -1    0    0  501    0  0.00000000000E+00  0.00000000000E+00 -0.10740251298E+04  0.10740251298E+04  0.50400001928E-02 0. -1.
    10030    2    1    2    0    0  0.00000000000E+00  0.00000000000E+00 -0.92463352316E+03  0.12234167365E+04  0.80112505832E+03 0.  0.
        1    1    3    3  502    0  0.21250931056E+03 -0.23958372138E+03 -0.94886412873E+02  0.33401197284E+03  0.50400001928E-02 0.  1.
       -1    1    3    3    0  502 -0.21250931056E+03  0.23958372138E+03 -0.82974711028E+03  0.88940476369E+03  0.50400001928E-02 0. -1.
</event>
<event>
 5   0  0.1617491E-03  0.7993934E+03  0.7818609E-02  0.9560896E-01
        1   -1    0    0  501    0  0.00000000000E+00  0.00000000000E+00  0.54746781015E+03  0.54746781017E+03  0.50400001928E-02 0. -1.
       -1   -1    0    0    0  501  0.00000000000E+00  0.00000000000E+00 -0.29181156280E+03  0.29181156285E+03  0.50400001928E-02 0.  1.
    10030    2    1    2    0    0  0.00000000000E+00  0.00000000000E+00  0.25565624735E+03  0.83927937302E+03  0.79939336323E+03 0.  0.
        1    1    3    3  502    0  0.35703517362E+03  0.16476486389E+03  0.20306879664E+03  0.44255904890E+03  0.50400001928E-02 0. -1.
       -1    1    3    3    0  502 -0.35703517362E+03 -0.16476486389E+03  0.52587450705E+02  0.39672032412E+03  0.50400001928E-02 0.  1.
</event>
<event>
 5   0  0.1637228E-03  0.8012732E+03  0.7818609E-02  0.9558176E-01
        1   -1    0    0  501    0  0.00000000000E+00  0.00000000000E+00  0.27967159130E+03  0.27967159134E+03  0.50400001928E-02 0. -1.
       -1   -1    0    0    0  501  0.00000000000E+00  0.00000000000E+00 -0.57392203831E+03  0.57392203834E+03  0.50400001928E-02 0.  1.
    10030    2    1    2    0    0  0.00000000000E+00  0.00000000000E+00 -0.29425044702E+03  0.85359362968E+03  0.80127321125E+03 0.  0.
        2    1    3    3  502    0 -0.39462210123E+03  0.53291790093E+02 -0.10016663884E+03  0.41060927073E+03  0.25500000920E-02 0.  1.
       -2    1    3    3    0  502  0.39462210123E+03 -0.53291790093E+02 -0.19408380817E+03  0.44298435895E+03  0.25500000920E-02 0. -1.
</event>
<event>
 5   0  0.1712793E-03  0.7991944E+03  0.7818609E-02  0.9561184E-01
        1   -1    0    0  501    0  0.00000000000E+00  0.00000000000E+00  0.35142348287E+03  0.35142348290E+03  0.50400001928E-02 0. -1.
       -1   -1    0    0    0  501  0.00000000000E+00  0.00000000000E+00 -0.45437470733E+03  0.45437470736E+03  0.50400001928E-02 0.  1.
    10030    2    1    2    0    0  0.00000000000E+00  0.00000000000E+00 -0.10295122447E+03  0.80579819026E+03  0.79919444994E+03 0.  0.
        4    1    3    3  502    0 -0.44516736090E+02  0.31999297535E+03 -0.28857629361E+03  0.43319179840E+03  0.12699999809E+01 0.  1.
       -4    1    3    3    0  502  0.44516736090E+02 -0.31999297535E+03  0.18562506915E+03  0.37260639186E+03  0.12699999809E+01 0. -1.
</event>
<event>
 5   0  0.2873212E-03  0.7991289E+03  0.7818609E-02  0.9561279E-01
       -2   -1    0    0    0  501  0.00000000000E+00  0.00000000000E+00  0.15144108332E+03  0.15144108334E+03  0.25500000920E-02 0. -1.
        2   -1    0    0  501    0  0.00000000000E+00  0.00000000000E+00 -0.10542169390E+04  0.10542169390E+04  0.25500000920E-02 0.  1.
    10030    2    1    2    0    0  0.00000000000E+00  0.00000000000E+00 -0.90277585573E+03  0.12056580224E+04  0.79912891404E+03 0.  0.
        2    1    3    3  502    0  0.37574278413E+03 -0.46654466623E+02 -0.64396334341E+03  0.74702614864E+03  0.25500000920E-02 0.  1.
       -2    1    3    3    0  502 -0.37574278413E+03  0.46654466623E+02 -0.25881251231E+03  0.45863187375E+03  0.25500000920E-02 0. -1.
</event>
<event>
 5   0  0.1637228E-03  0.7996063E+03  0.7818609E-02  0.9560587E-01
        1   -1    0    0  501    0  0.00000000000E+00  0.00000000000E+00  0.32749776849E+03  0.32749776853E+03  0.50400001928E-02 0. -1.
       -1   -1    0    0    0  501  0.00000000000E+00  0.00000000000E+00 -0.48807219263E+03  0.48807219266E+03  0.50400001928E-02 0.  1.
    10030    2    1    2    0    0  0.00000000000E+00  0.00000000000E+00 -0.16057442414E+03  0.81556996119E+03  0.79960628806E+03 0.  0.
        2    1    3    3  502    0  0.20119885721E+03 -0.27216390201E+03  0.13677210601E+03  0.36504900862E+03  0.25500000920E-02 0. -1.
       -2    1    3    3    0  502 -0.20119885721E+03  0.27216390201E+03 -0.29734653015E+03  0.45052095257E+03  0.25500000920E-02 0.  1.
</event>
<event>
 5   0  0.1640035E-03  0.8016592E+03  0.7818609E-02  0.9557619E-01
        1   -1    0    0  501    0  0.00000000000E+00  0.00000000000E+00  0.18040372050E+04  0.18040372050E+04  0.50400001928E-02 0. -1.
       -1   -1    0    0    0  501  0.00000000000E+00  0.00000000000E+00 -0.89058223496E+02  0.89058223639E+02  0.50400001928E-02 0.  1.
    10030    2    1    2    0    0  0.00000000000E+00  0.00000000000E+00  0.17149789815E+04  0.18930954286E+04  0.80165915135E+03 0.  0.
        5    1    3    3  502    0  0.24282162076E+03  0.31593981989E+03  0.75559124819E+03  0.85423681356E+03  0.46999998093E+01 0. -1.
       -5    1    3    3    0  502 -0.24282162076E+03 -0.31593981989E+03  0.95938773328E+03  0.10388586151E+04  0.46999998093E+01 0.  1.
</event>
<event>
 5   0  0.2910501E-03  0.7998970E+03  0.7818609E-02  0.9560166E-01
       -2   -1    0    0    0  501  0.00000000000E+00  0.00000000000E+00  0.42569726997E+03  0.42569726998E+03  0.25500000920E-02 0.  1.
        2   -1    0    0  501    0  0.00000000000E+00  0.00000000000E+00 -0.37575721826E+03  0.37575721827E+03  0.25500000920E-02 0. -1.
    10030    2    1    2    0    0  0.00000000000E+00  0.00000000000E+00  0.49940051711E+02  0.80145448825E+03  0.79989704835E+03 0.  0.
        1    1    3    3  502    0  0.14998096429E+03 -0.16641780257E+03 -0.30699008850E+03  0.38004222018E+03  0.50400001928E-02 0. -1.
       -1    1    3    3    0  502 -0.14998096429E+03  0.16641780257E+03  0.35693014021E+03  0.42141226806E+03  0.50400001928E-02 0.  1.
</event>
<event>
 5   0  0.2910501E-03  0.7995981E+03  0.7818609E-02  0.9560599E-01
        2   -1    0    0  501    0  0.00000000000E+00  0.00000000000E+00  0.23337853793E+03  0.23337853794E+03  0.25500000920E-02 0.  1.
       -2   -1    0    0    0  501  0.00000000000E+00  0.00000000000E+00 -0.68489286983E+03  0.68489286984E+03  0.25500000920E-02 0. -1.
    10030    2    1    2    0    0  0.00000000000E+00  0.00000000000E+00 -0.45151433191E+03  0.91827140778E+03  0.79959814058E+03 0.  0.
        1    1    3    3  502    0  0.26429591324E+03  0.26039098048E+03 -0.54710599535E+02  0.37503205489E+03  0.50400001928E-02 0.  1.
       -1    1    3    3    0  502 -0.26429591324E+03 -0.26039098048E+03 -0.39680373237E+03  0.54323935288E+03  0.50400001928E-02 0. -1.
</event>
<event>
 5   0  0.2873212E-03  0.7993448E+03  0.7818609E-02  0.9560966E-01
       -2   -1    0    0    0  501  0.00000000000E+00  0.00000000000E+00  0.27438220447E+03  0.27438220448E+03  0.25500000920E-02 0.  1.
        2   -1    0    0  501    0  0.00000000000E+00  0.00000000000E+00 -0.58217338795E+03  0.58217338796E+03  0.25500000920E-02 0. -1.
    10030    2    1    2    0    0  0.00000000000E+00  0.00000000000E+00 -0.30779118349E+03  0.85655559244E+03  0.79934477561E+03 0.  0.
        2    1    3    3  502    0 -0.42993088233E+02 -0.36726146959E+03 -0.31643802094E+03  0.48668512797E+03  0.25500000920E-02 0. -1.
       -2    1    3    3    0  502  0.42993088233E+02  0.36726146959E+03  0.86468374554E+01  0.36987046447E+03  0.25500000920E-02 0.  1.
</event>
<event>
 5   0  0.2690809E-03  0.7989957E+03  0.7818609E-02  0.9561472E-01
        2   -1    0    0  501    0  0.00000000000E+00  0.00000000000E+00  0.68755704392E+03  0.68755704393E+03  0.25500000920E-02 0.  1.
       -2   -1    0    0    0  501  0.00000000000E+00  0.00000000000E+00 -0.23212408222E+03  0.23212408224E+03  0.25500000920E-02 0. -1.
    10030    2    1    2    0    0  0.00000000000E+00  0.00000000000E+00  0.45543296170E+03  0.91968112617E+03  0.79899573917E+03 0.  0.
        5    1    3    3  502    0 -0.15150069082E+03  0.31214367850E+03  0.45558389764E+03  0.57268220955E+03  0.46999998093E+01 0.  1.
       -5    1    3    3    0  502  0.15150069082E+03 -0.31214367850E+03 -0.15093593873E+00  0.34699891661E+03  0.46999998093E+01 0. -1.
</event>
<event>
 5   0  0.1712793E-03  0.7986679E+03  0.7818609E-02  0.9561947E-01
       -1   -1    0    0    0  501  0.00000000000E+00  0.00000000000E+00  0.98808243296E+02  0.98808243424E+02  0.50400001928E-02 0. -1.
        1   -1    0    0  501    0  0.00000000000E+00  0.00000000000E+00 -0.16139098296E+04  0.16139098296E+04  0.50400001928E-02 0.  1.
    10030    2    1    2    0    0  0.00000000000E+00  0.00000000000E+00 -0.15151015863E+04  0.17127180730E+04  0.79866787895E+03 0.  0.
        4    1    3    3  502    0  0.17104404538E+03 -0.29279830817E+03 -0.12098205001E+04  0.12564450525E+04  0.12699999809E+01 0.  1.
       -4    1    3    3    0  502 -0.17104404538E+03  0.29279830817E+03 -0.30528108622E+03  0.45627302049E+03  0.12699999809E+01 0. -1.
</event>
<event>
 5   0  0.2910501E-03  0.8001958E+03  0.7818609E-02  0.9559734E-01
        2   -1    0    0  501    0  0.00000000000E+00  0.00000000000E+00  0.38770357347E+03  0.38770357347E+03  0.25500000920E-02 0.  1.
       -2   -1    0    0    0  501  0.00000000000E+00  0.00000000000E+00 -0.41288850259E+03  0.41288850260E+03  0.25500000920E-02 0. -1.
    10030    2    1    2    0    0  0.00000000000E+00  0.00000000000E+00 -0.25184929128E+02  0.80059207607E+03  0.80019584579E+03 0.  0.
        1    1    3    3  502    0  0.35271590720E+03  0.18872953539E+03 -0.19737370090E+02  0.40052080162E+03  0.50400001928E-02 0. -1.
       -1    1    3    3    0  502 -0.35271590720E+03 -0.18872953539E+03 -0.54475590380E+01  0.40007127446E+03  0.50400001928E-02 0.  1.
</event>
<event>
 5   0  0.1617491E-03  0.8016612E+03  0.7818609E-02  0.9557616E-01
       -1   -1    0    0    0  501  0.00000000000E+00  0.00000000000E+00  0.16293166675E+03  0.16293166683E+03  0.50400001928E-02 0. -1.
        1   -1    0    0  501    0  0.00000000000E+00  0.00000000000E+00 -0.98608937768E+03  0.98608937770E+03  0.50400001928E-02 0.  1.
    10030    2    1    2    0    0  0.00000000000E+00  0.00000000000E+00 -0.82315771093E+03  0.11490210445E+04  0.80166123999E+03 0.  0.
        1    1    3    3  502    0 -0.15381989206E+03  0.29397360625E+02 -0.94042658343E+03  0.95337659025E+03  0.50400001928E-02 0.  1.
       -1    1    3    3    0  502  0.15381989206E+03 -0.29397360625E+02  0.11726887250E+03  0.19564445427E+03  0.50400001928E-02 0. -1.
</event>
<event>
 5   0  0.1095350E-03  0.8000117E+03  0.7818609E-02  0.9560000E-01
       -4   -1    0    0    0  501  0.00000000000E+00  0.00000000000E+00  0.43544699630E+03  0.43544884830E+03  0.12699999809E+01 0. -1.
        4   -1    0    0  501    0  0.00000000000E+00  0.00000000000E+00 -0.36744555280E+03  0.36744774754E+03  0.12699999809E+01 0.  1.
    10030    2    1    2    0    0  0.00000000000E+00  0.00000000000E+00  0.68001443504E+02  0.80289659584E+03  0.80001171697E+03 0.  0.
        3    1    3    3  502    0 -0.91907349918E+02  0.30141155035E+03  0.28128076497E+03  0.42239171700E+03  0.10100000352E+00 0. -1.
       -3    1    3    3    0  502  0.91907349918E+02 -0.30141155035E+03 -0.21327932146E+03  0.38050487883E+03  0.10100000352E+00 0.  1.
</event>
<event>
 5   0  0.1617491E-03  0.8024392E+03  0.7818609E-02  0.9556493E-01
        1   -1    0    0  501    0  0.00000000000E+00  0.00000000000E+00  0.49323542565E+03  0.49323542567E+03  0.50400001928E-02 0.  1.
       -1   -1    0    0    0  501  0.00000000000E+00  0.00000000000E+00 -0.32636986273E+03  0.32636986277E+03  0.50400001928E-02 0. -1.
    10030    2    1    2    0    0  0.00000000000E+00  0.00000000000E+00  0.16686556292E+03  0.81960528844E+03  0.80243922683E+03 0.  0.
        1    1    3    3  502    0 -0.36534232415E+03 -0.15880201474E+03  0.13224726298E+03  0.41974091091E+03  0.50400001928E-02 0.  1.
       -1    1    3    3    0  502  0.36534232415E+03  0.15880201474E+03  0.34618299935E+02  0.39986437753E+03  0.50400001928E-02 0. -1.
</event>
<event>
 5   0  0.1640035E-03  0.8001623E+03  0.7818609E-02  0.9559782E-01
        1   -1    0    0  501    0  0.00000000000E+00  0.00000000000E+00  0.22631418255E+03  0.22631418261E+03  0.50400001928E-02 0. -1.
       -1   -1    0    0    0  501  0.00000000000E+00  0.00000000000E+00 -0.70726864111E+03  0.70726864113E+03  0.50400001928E-02 0.  1.
    10030    2    1    2    0    0  0.00000000000E+00  0.00000000000E+00 -0.48095445856E+03  0.93358282374E+03  0.80016229452E+03 0.  0.
        5    1    3    3  502    0 -0.89204397407E+02 -0.35117258144E+02  0.21268173677E+03  0.23333721840E+03  0.46999998093E+01 0. -1.
       -5    1    3    3    0  502  0.89204397407E+02  0.35117258144E+02 -0.69363619533E+03  0.70024560534E+03  0.46999998093E+01 0.  1.
</event>
<event>
 5   0  0.1095350E-03  0.7993631E+03  0.7818609E-02  0.9560940E-01
       -4   -1    0    0    0  501  0.00000000000E+00  0.00000000000E+00  0.27962651767E+03  0.27962940168E+03  0.12699999809E+01 0. -1.
        4   -1    0    0  501    0  0.00000000000E+00  0.00000000000E+00 -0.57127449502E+03  0.57127590669E+03  0.12699999809E+01 0.  1.
    10030    2    1    2    0    0  0.00000000000E+00  0.00000000000E+00 -0.29164797735E+03  0.85090530837E+03  0.79936305964E+03 0.  0.
        5    1    3    3  502    0  0.36593536789E+03  0.16048328540E+03 -0.13760217640E+03  0.42263462626E+03  0.46999998093E+01 0. -1.
       -5    1    3    3    0  502 -0.36593536789E+03 -0.16048328540E+03 -0.15404580095E+03  0.42827068211E+03  0.46999998093E+01 0.  1.
</event>
<event>
 5   0  0.2910501E-03  0.8016107E+03  0.7818609E-02  0.9557689E-01
        2   -1    0    0  501    0  0.00000000000E+00  0.00000000000E+00  0.43944879312E+03  0.43944879313E+03  0.25500000920E-02 0. -1.
       -2   -1    0    0    0  501  0.00000000000E+00  0.00000000000E+00 -0.36556006859E+03  0.36556006860E+03  0.25500000920E-02 0.  1.
    10030    2    1    2    0    0  0.00000000000E+00  0.00000000000E+00  0.73888724525E+02  0.80500886173E+03  0.80161070592E+03 0.  0.
        1    1    3    3  502    0 -0.11679949358E+03  0.13668393158E+03 -0.32279242854E+03  0.36948554884E+03  0.50400001928E-02 0.  1.
       -1    1    3    3    0  502  0.11679949358E+03 -0.13668393158E+03  0.39668115306E+03  0.43552331289E+03  0.50400001928E-02 0. -1.
</event>
<event>
 5   0  0.2763587E-03  0.8000548E+03  0.7818609E-02  0.9559938E-01
       -2   -1    0    0    0  501  0.00000000000E+00  0.00000000000E+00  0.20315175905E+03  0.20315175906E+03  0.25500000920E-02 0. -1.
        2   -1    0    0  501    0  0.00000000000E+00  0.00000000000E+00 -0.78769645783E+03  0.78769645784E+03  0.25500000920E-02 0.  1.
    10030    2    1    2    0    0  0.00000000000E+00  0.00000000000E+00 -0.58454469879E+03  0.99084821690E+03  0.80005480066E+03 0.  0.
        3    1    3    3  502    0  0.22743591456E+03  0.28696303179E+03 -0.92777697790E+02  0.37773348839E+03  0.10100000352E+00 0. -1.
       -3    1    3    3    0  502 -0.22743591456E+03 -0.28696303179E+03 -0.49176700100E+03  0.61311472851E+03  0.10100000352E+00 0.  1.
</event>
<event>
 5   0  0.1617491E-03  0.8002721E+03  0.7818609E-02  0.9559623E-01
        1   -1    0    0  501    0  0.00000000000E+00  0.00000000000E+00  0.50625898015E+03  0.50625898018E+03  0.50400001928E-02 0. -1.
       -1   -1    0    0    0  501  0.00000000000E+00  0.00000000000E+00 -0.31625878618E+03  0.31625878622E+03  0.50400001928E-02 0.  1.
    10030    2    1    2    0    0  0.00000000000E+00  0.00000000000E+00  0.19000019397E+03  0.82251776640E+03  0.80027208019E+03 0.  0.
        1    1    3    3  502    0 -0.15828548320E+03  0.14402419512E+03 -0.25249825569E+03  0.33098735946E+03  0.50400001928E-02 0.  1.
       -1    1    3    3    0  502  0.15828548320E+03 -0.14402419512E+03  0.44249844966E+03  0.49153040694E+03  0.50400001928E-02 0. -1.
</event>
<event>
 5   0  0.1637228E-03  0.7988180E+03  0.7818609E-02  0.9561730E-01
       -1   -1    0    0    0  501  0.00000000000E+00  0.00000000000E+00  0.51734199135E+03  0.51734199138E+03  0.50400001928E-02 0.  1.
        1   -1    0    0  501    0  0.00000000000E+00  0.00000000000E+00 -0.30835993456E+03  0.30835993460E+03  0.50400001928E-02 0. -1.
    10030    2    1    2    0    0  0.00000000000E+00  0.00000000000E+00  0.20898205679E+03  0.82570192598E+03  0.79881798334E+03 0.  0.
        2    1    3    3  502    0 -0.55067023365E+02  0.21202932765E+03 -0.24072290120E+03  0.32547861376E+03  0.25500000920E-02 0. -1.
       -2    1    3    3    0  502  0.55067023365E+02 -0.21202932765E+03  0.44970495799E+03  0.50022331222E+03  0.25500000920E-02 0.  1.
</event>
<event>
 5   0  0.1095350E-03  0.7996782E+03  0.7818609E-02  0.9560483E-01
        3   -1    0    0  501    0  0.00000000000E+00  0.00000000000E+00  0.10669911239E+04  0.10669911287E+04  0.10100000352E+00 0.  1.
       -3   -1    0    0    0  501  0.00000000000E+00  0.00000000000E+00 -0.14983375701E+03  0.14983379105E+03  0.10100000352E+00 0. -1.
    10030    2    1    2    0    0  0.00000000000E+00  0.00000000000E+00  0.91715736687E+03  0.12168249197E+04  0.79967821631E+03 0.  0.
        4    1    3    3  502    0  0.30571128255E+03 -0.25768971584E+03  0.46240451251E+03  0.61129610175E+03  0.12699999809E+01 0.  1.
       -4    1    3    3    0  502 -0.30571128255E+03  0.25768971584E+03  0.45475285436E+03  0.60552881796E+03  0.12699999809E+01 0. -1.
</event>
<event>
 5   0  0.1712793E-03  0.8001241E+03  0.7818609E-02  0.9559838E-01
        1   -1    0    0  501    0  0.00000000000E+00  0.00000000000E+00  0.10462982116E+03  0.10462982129E+03  0.50400001928E-02 0.  1.
       -1   -1    0    0    0  501  0.00000000000E+00  0.00000000000E+00 -0.15296751946E+04  0.15296751947E+04  0.50400001928E-02 0. -1.
    10030    2    1    2    0    0  0.00000000000E+00  0.00000000000E+00 -0.14250453735E+04  0.16343050159E+04  0.80012409578E+03 0.  0.
        4    1    3    3  502    0 -0.26277874343E+03  0.19770140700E+03 -0.11778936151E+04  0.12229364235E+04  0.12699999809E+01 0. -1.
       -4    1    3    3    0  502  0.26277874343E+03 -0.19770140700E+03 -0.24715175833E+03  0.41136859247E+03  0.12699999809E+01 0.  1.
</event>
<event>
 5   0  0.1637228E-03  0.7994614E+03  0.7818609E-02  0.9560797E-01
        1   -1    0    0  501    0  0.00000000000E+00  0.00000000000E+00  0.28789059135E+03  0.28789059139E+03  0.50400001928E-02 0. -1.
       -1   -1    0    0    0  501  0.00000000000E+00  0.00000000000E+00 -0.55501856361E+03  0.55501856363E+03  0.50400001928E-02 0.  1.
    10030    2    1    2    0    0  0.00000000000E+00  0.00000000000E+00 -0.26712797226E+03  0.84290915503E+03  0.79946137497E+03 0.  0.
        2    1    3    3  502    0  0.24563432409E+03 -0.23613859109E+03  0.86809444542E+02  0.35161560694E+03  0.25500000920E-02 0. -1.
       -2    1    3    3    0  502 -0.24563432409E+03  0.23613859109E+03 -0.35393741680E+03  0.49129354809E+03  0.25500000920E-02 0.  1.
</event>
<event>
 5   0  0.1656051E-03  0.8013429E+03  0.7818609E-02  0.9558075E-01
       -1   -1    0    0    0  501  0.00000000000E+00  0.00000000000E+00  0.25669926778E+03  0.25669926783E+03  0.50400001928E-02 0.  1.
        1   -1    0    0  501    0  0.00000000000E+00  0.00000000000E+00 -0.62539179404E+03  0.62539179406E+03  0.50400001928E-02 0. -1.
    10030    2    1    2    0    0  0.00000000000E+00  0.00000000000E+00 -0.36869252626E+03  0.88209106189E+03  0.80134291196E+03 0.  0.
        3    1    3    3  502    0 -0.58602131060E+02 -0.35496920072E+03 -0.37846928664E+03  0.52218421496E+03  0.10100000352E+00 0. -1.
       -3    1    3    3    0  502  0.58602131060E+02  0.35496920072E+03  0.97767603802E+01  0.35990684693E+03  0.10100000352E+00 0.  1.
</event>
<event>
 5   0  0.2910501E-03  0.7998158E+03  0.7818609E-02  0.9560284E-01
        2   -1    0    0  501    0  0.00000000000E+00  0.00000000000E+00  0.55766090190E+03  0.55766090190E+03  0.25500000920E-02 0.  1.
       -2   -1    0    0    0  501  0.00000000000E+00  0.00000000000E+00 -0.28678061191E+03  0.28678061192E+03  0.25500000920E-02 0. -1.
    10030    2    1    2    0    0  0.00000000000E+00  0.00000000000E+00  0.27088028999E+03  0.84444151383E+03  0.79981581553E+03 0.  0.
        1    1    3    3  502    0  0.29899857359E+02 -0.27277122794E+03 -0.17170037506E+03  0.32369609680E+03  0.50400001928E-02 0. -1.
       -1    1    3    3    0  502 -0.29899857359E+02  0.27277122794E+03  0.44258066505E+03  0.52074541703E+03  0.50400001928E-02 0.  1.
</event>
<event>
 5   0  0.1640035E-03  0.7993092E+03  0.7818609E-02  0.9561017E-01
        1   -1    0    0  501    0  0.00000000000E+00  0.00000000000E+00  0.59120290147E+03  0.59120290149E+03  0.50400001928E-02 0. -1.
       -1   -1    0    0    0  501  0.00000000000E+00  0.00000000000E+00 -0.27016751315E+03  0.27016751320E+03  0.50400001928E-02 0.  1.
    10030    2    1    2    0    0  0.00000000000E+00  0.00000000000E+00  0.32103538832E+03  0.86137041469E+03  0.79930924600E+03 0.  0.
        5    1    3    3  502    0 -0.85169939709E+01  0.25659179754E+03  0.49054738083E+03  0.55368828106E+03  0.46999998093E+01 0. -1.
       -5    1    3    3    0  502  0.85169939709E+01 -0.25659179754E+03 -0.16951199251E+03  0.30768213362E+03  0.46999998093E+01 0.  1.
</event>
<event>
 5   0  0.2873212E-03  0.7997609E+03  0.7818609E-02  0.9560363E-01
        2   -1    0    0  501    0  0.00000000000E+00  0.00000000000E+00  0.26452462229E+03  0.26452462230E+03  0.25500000920E-02 0. -1.
       -2   -1    0    0    0  501  0.00000000000E+00  0.00000000000E+00 -0.60449707788E+03  0.60449707788E+03  0.25500000920E-02 0.  1.
    10030    2    1    2    0    0  0.00000000000E+00  0.00000000000E+00 -0.33997245559E+03  0.86902170018E+03  0.79976086728E+03 0.  0.
        2    1    3    3  502    0  0.53843973355E+01 -0.75016527807E+02 -0.59674267134E+03  0.60146345441E+03  0.25500000920E-02 0.  1.
       -2    1    3    3    0  502 -0.53843973355E+01  0.75016527807E+02  0.25677021575E+03  0.26755824578E+03  0.25500000920E-02 0. -1.
</event>
<event>
 5   0  0.1637228E-03  0.8007439E+03  0.7818609E-02  0.9558941E-01
       -1   -1    0    0    0  501  0.00000000000E+00  0.00000000000E+00  0.29508488263E+03  0.29508488267E+03  0.50400001928E-02 0.  1.
        1   -1    0    0  501    0  0.00000000000E+00  0.00000000000E+00 -0.54322574039E+03  0.54322574042E+03  0.50400001928E-02 0. -1.
    10030    2    1    2    0    0  0.00000000000E+00  0.00000000000E+00 -0.24814085776E+03  0.83831062309E+03  0.80074391380E+03 0.  0.
        2    1    3    3  502    0 -0.30562633478E+03 -0.15733967967E+03  0.90826448073E+02  0.35554560184E+03  0.25500000920E-02 0.  1.
       -2    1    3    3    0  502  0.30562633478E+03  0.15733967967E+03 -0.33896730584E+03  0.48276502125E+03  0.25500000920E-02 0. -1.
</event>
<event>
 5   0  0.2763587E-03  0.8007442E+03  0.7818609E-02  0.9558941E-01
       -2   -1    0    0    0  501  0.00000000000E+00  0.00000000000E+00  0.50601561934E+03  0.50601561935E+03  0.25500000920E-02 0.  1.
        2   -1    0    0  501    0  0.00000000000E+00  0.00000000000E+00 -0.31678430558E+03  0.31678430559E+03  0.25500000920E-02 0. -1.
    10030    2    1    2    0    0  0.00000000000E+00  0.00000000000E+00  0.18923131376E+03  0.82279992494E+03  0.80074417037E+03 0.  0.
        3    1    3    3  502    0 -0.36909658316E+03 -0.72023957562E+02  0.23579758818E+03  0.44386963283E+03  0.10100000352E+00 0.  1.
       -3    1    3    3    0  502  0.36909658316E+03  0.72023957562E+02 -0.46566274417E+02  0.37893029211E+03  0.10100000352E+00 0. -1.
</event>
<event>
 5   0  0.1617491E-03  0.7990910E+03  0.7818609E-02  0.9561334E-01
        1   -1    0    0  501    0  0.00000000000E+00  0.00000000000E+00  0.28793487975E+03  0.28793487980E+03  0.50400001928E-02 0.  1.
       -1   -1    0    0    0  501  0.00000000000E+00  0.00000000000E+00 -0.55441916512E+03  0.55441916514E+03  0.50400001928E-02 0. -1.
    10030    2    1    2    0    0  0.00000000000E+00  0.00000000000E+00 -0.26648428537E+03  0.84235404494E+03  0.79909102278E+03 0.  0.
        1    1    3    3  502    0 -0.99446019259E+02 -0.28139890670E+03 -0.41325831645E+03  0.50976199503E+03  0.50400001928E-02 0. -1.
       -1    1    3    3    0  502  0.99446019259E+02  0.28139890670E+03  0.14677403109E+03  0.33259204991E+03  0.50400001928E-02 0.  1.
</event>
<event>
 5   0  0.2763587E-03  0.7999256E+03  0.7818609E-02  0.9560125E-01
        2   -1    0    0  501    0  0.00000000000E+00  0.00000000000E+00  0.94481607926E+03  0.94481607926E+03  0.25500000920E-02 0.  1.
       -2   -1    0    0    0  501  0.00000000000E+00  0.00000000000E+00 -0.16931361931E+03  0.16931361933E+03  0.25500000920E-02 0. -1.
    10030    2    1    2    0    0  0.00000000000E+00  0.00000000000E+00  0.77550245994E+03  0.11141296986E+04  0.79992557148E+03 0.  0.
        3    1    3    3  502    0  0.20797949227E+03  0.82159583259E+02  0.84961354525E+03  0.87854928877E+03  0.10100000352E+00 0.  1.
       -3    1    3    3    0  502 -0.20797949227E+03 -0.82159583259E+02 -0.74111085304E+02  0.23558040982E+03  0.10100000352E+00 0. -1.
</event>
<event>
 5   0  0.1656051E-03  0.7989264E+03  0.7818609E-02  0.9561572E-01
        1   -1    0    0  501    0  0.00000000000E+00  0.00000000000E+00  0.71359585184E+03  0.71359585186E+03  0.50400001928E-02 0. -1.
       -1   -1    0    0    0  501  0.00000000000E+00  0.00000000000E+00 -0.22361515109E+03  0.22361515115E+03  0.50400001928E-02 0.  1.
    10030    2    1    2    0    0  0.00000000000E+00  0.00000000000E+00  0.48998070075E+03  0.93721100300E+03  0.79892639025E+03 0.  0.
        3    1    3    3  502    0  0.33448898509E+03 -0.19311966430E+03  0.36458061133E+03  0.53112815614E+03  0.10100000352E+00 0. -1.
       -3    1    3    3    0  502 -0.33448898509E+03  0.19311966430E+03  0.12540008942E+03  0.40608284686E+03  0.10100000352E+00 0.  1.
</event>
<event>
 5   0  0.1640035E-03  0.7993275E+03  0.7818609E-02  0.9560991E-01
       -1   -1    0    0    0  501  0.00000000000E+00  0.00000000000E+00  0.13511060976E+03  0.13511060985E+03  0.50400001928E-02 0. -1.
        1   -1    0    0  501    0  0.00000000000E+00  0.00000000000E+00 -0.11822248308E+04  0.11822248308E+04  0.50400001928E-02 0.  1.
    10030    2    1    2    0    0  0.00000000000E+00  0.00000000000E+00 -0.10471142210E+04  0.13173354407E+04  0.79932751192E+03 0.  0.
        5    1    3    3  502    0  0.22388375456E+02 -0.28635892490E+03 -0.98148610073E+03  0.10226630575E+04  0.46999998093E+01 0.  1.
       -5    1    3    3    0  502 -0.22388375456E+02  0.28635892490E+03 -0.65628120301E+02  0.29467238316E+03  0.46999998093E+01 0. -1.
</event>
<event>
 5   0  0.1656051E-03  0.7993907E+03  0.7818609E-02  0.9560899E-01
       -1   -1    0    0    0  501  0.00000000000E+00  0.00000000000E+00  0.37277089791E+03  0.37277089795E+03  0.50400001928E-02 0. -1.
        1   -1    0    0  501    0  0.00000000000E+00  0.00000000000E+00 -0.42856448356E+03  0.42856448359E+03  0.50400001928E-02 0.  1.
    10030    2    1    2    0    0  0.00000000000E+00  0.00000000000E+00 -0.55793585651E+02  0.80133538154E+03  0.79939068640E+03 0.  0.
        3    1    3    3  502    0  0.32217006155E+03  0.18576461014E+03 -0.17472604733E+03  0.41089078933E+03  0.10100000352E+00 0.  1.
       -3    1    3    3    0  502 -0.32217006155E+03 -0.18576461014E+03  0.11893246168E+03  0.39044459221E+03  0.10100000352E+00 0. -1.
</event>
<event>
 5   0  0.2690809E-03  0.8007126E+03  0.7818609E-02  0.9558986E-01
       -2   -1    0    0    0  501  0.00000000000E+00  0.00000000000E+00  0.33533837701E+03  0.33533837702E+03  0.25500000920E-02 0.  1.
        2   -1    0    0  501    0  0.00000000000E+00  0.00000000000E+00 -0.47798035948E+03  0.47798035948E+03  0.25500000920E-02 0. -1.
    10030    2    1    2    0    0  0.00000000000E+00  0.00000000000E+00 -0.14264198246E+03  0.81331873651E+03  0.80071257764E+03 0.  0.
        5    1    3    3  502    0  0.82126833683E+02  0.37612011955E+03  0.40188545150E+02  0.38710253202E+03  0.46999998093E+01 0.  1.
       -5    1    3    3    0  502 -0.82126833683E+02 -0.37612011955E+03 -0.18283052761E+03  0.42621620448E+03  0.46999998093E+01 0. -1.
</event>
<event>
 5   0  0.2910501E-03  0.8008567E+03  0.7818609E-02  0.9558778E-01
       -2   -1    0    0    0  501  0.00000000000E+00  0.00000000000E+00  0.84160668846E+02  0.84160668885E+02  0.25500000920E-02 0.  1.
        2   -1    0    0  501    0  0.00000000000E+00  0.00000000000E+00 -0.19051994947E+04  0.19051994947E+04  0.25500000920E-02 0. -1.
    10030    2    1    2    0    0  0.00000000000E+00  0.00000000000E+00 -0.18210388258E+04  0.19893601635E+04  0.80085670078E+03 0.  0.
        1    1    3    3  502    0 -0.23222380094E+03 -0.32005384373E+03 -0.10672406345E+04  0.11381409968E+04  0.50400001928E-02 0. -1.
       -1    1    3    3    0  502  0.23222380094E+03  0.32005384373E+03 -0.75379819134E+03  0.85121916679E+03  0.50400001928E-02 0.  1.
</event>
<event>
 5   0  0.2910501E-03  0.8007324E+03  0.7818609E-02  0.9558958E-01
        2   -1    0    0  501    0  0.00000000000E+00  0.00000000000E+00  0.13654049956E+04  0.13654049956E+04  0.25500000920E-02 0. -1.
       -2   -1    0    0    0  501  0.00000000000E+00  0.00000000000E+00 -0.11739601091E+03  0.11739601094E+03  0.25500000920E-02 0.  1.
    10030    2    1    2    0    0  0.00000000000E+00  0.00000000000E+00  0.12480089847E+04  0.14828010065E+04  0.80073241418E+03 0.  0.
        1    1    3    3  502    0 -0.22931016265E+03  0.41567713308E+02  0.12268578309E+04  0.12487958852E+04  0.50400001928E-02 0. -1.
       -1    1    3    3    0  502  0.22931016265E+03 -0.41567713308E+02  0.21151153733E+02  0.23400512134E+03  0.50400001928E-02 0.  1.
</event>
<event>
 5   0  0.1637228E-03  0.8121360E+03  0.7818609E-02  0.9542615E-01
       -1   -1    0    0    0  501  0.00000000000E+00  0.00000000000E+00  0.21034864464E+03  0.21034864470E+03  0.50400001928E-02 0.  1.
        1   -1    0    0  501    0  0.00000000000E+00  0.00000000000E+00 -0.78389479551E+03  0.78389479553E+03  0.50400001928E-02 0. -1.
    10030    2    1    2    0    0  0.00000000000E+00  0.00000000000E+00 -0.57354615087E+03  0.99424344023E+03  0.81213596845E+03 0.  0.
        2    1    3    3  502    0 -0.28867575843E+03 -0.28514136367E+03 -0.30620396814E+03  0.50833075934E+03  0.25500000920E-02 0. -1.
       -2    1    3    3    0  502  0.28867575843E+03  0.28514136367E+03 -0.26734218273E+03  0.48591268089E+03  0.25500000920E-02 0.  1.
</event>
<event>
 5   0  0.1095350E-03  0.7999145E+03  0.7818609E-02  0.9560141E-01
        4   -1    0    0  501    0  0.00000000000E+00  0.00000000000E+00  0.23936787907E+03  0.23937124813E+03  0.12699999809E+01 0. -1.
       -4   -1    0    0    0  501  0.00000000000E+00  0.00000000000E+00 -0.66827565479E+03  0.66827686156E+03  0.12699999809E+01 0.  1.
    10030    2    1    2    0    0  0.00000000000E+00  0.00000000000E+00 -0.42890777572E+03  0.90764810969E+03  0.79991450227E+03 0.  0.
        4    1    3    3  502    0  0.25525652322E+03  0.67466216604E+01 -0.56374926196E+03  0.61888306877E+03  0.12699999809E+01 0.  1.
       -4    1    3    3    0  502 -0.25525652322E+03 -0.67466216604E+01  0.13484148623E+03  0.28876504092E+03  0.12699999809E+01 0. -1.
</event>
<event>
 5   0  0.2873212E-03  0.7997832E+03  0.7818609E-02  0.9560331E-01
       -2   -1    0    0    0  501  0.00000000000E+00  0.00000000000E+00  0.14915187921E+03  0.14915187923E+03  0.25500000920E-02 0. -1.
        2   -1    0    0  501    0  0.00000000000E+00  0.00000000000E+00 -0.10721507609E+04  0.10721507609E+04  0.25500000920E-02 0.  1.
    10030    2    1    2    0    0  0.00000000000E+00  0.00000000000E+00 -0.92299888174E+03  0.12213026402E+04  0.79978322263E+03 0.  0.
        2    1    3    3  502    0 -0.27533928989E+03 -0.84508300043E+02 -0.37872745431E+02  0.29049564917E+03  0.25500000920E-02 0. -1.
       -2    1    3    3    0  502  0.27533928989E+03  0.84508300043E+02 -0.88512613630E+03  0.93080699101E+03  0.25500000920E-02 0.  1.
</event>
<event>
 5   0  0.1640035E-03  0.8007761E+03  0.7818609E-02  0.9558894E-01
       -1   -1    0    0    0  501  0.00000000000E+00  0.00000000000E+00  0.17096752649E+03  0.17096752656E+03  0.50400001928E-02 0.  1.
        1   -1    0    0  501    0  0.00000000000E+00  0.00000000000E+00 -0.93766680304E+03  0.93766680305E+03  0.50400001928E-02 0. -1.
    10030    2    1    2    0    0  0.00000000000E+00  0.00000000000E+00 -0.76669927655E+03  0.11086343296E+04  0.80077605867E+03 0.  0.
        5    1    3    3  502    0  0.31834128422E+03 -0.90696033911E+02 -0.71551542209E+02  0.33868666493E+03  0.46999998093E+01 0.  1.
       -5    1    3    3    0  502 -0.31834128422E+03  0.90696033911E+02 -0.69514773434E+03  0.76994766469E+03  0.46999998093E+01 0. -1.
</event>
<event>
 5   0  0.1712793E-03  0.8005888E+03  0.7818609E-02  0.9559165E-01
        1   -1    0    0  501    0  0.00000000000E+00  0.00000000000E+00  0.45752814048E+03  0.45752814051E+03  0.50400001928E-02 0.  1.
       -1   -1    0    0    0  501  0.00000000000E+00  0.00000000000E+00 -0.35022020297E+03  0.35022020300E+03  0.50400001928E-02 0. -1.
    10030    2    1    2    0    0  0.00000000000E+00  0.00000000000E+00  0.10730793751E+03  0.80774834351E+03  0.80058877896E+03 0.  0.
        4    1    3    3  502    0  0.30326948546E+03  0.18822505644E+03  0.23647300506E+03  0.42816135709E+03  0.12699999809E+01 0.  1.
       -4    1    3    3    0  502 -0.30326948546E+03 -0.18822505644E+03 -0.12916506755E+03  0.37958698642E+03  0.12699999809E+01 0. -1.
</event>
<event>
 5   0  0.1656051E-03  0.8089412E+03  0.7818609E-02  0.9547164E-01
       -1   -1    0    0    0  501  0.00000000000E+00  0.00000000000E+00  0.81404477789E+02  0.81404477945E+02  0.50400001928E-02 0.  1.
        1   -1    0    0  501    0  0.00000000000E+00  0.00000000000E+00 -0.20096742063E+04  0.20096742063E+04  0.50400001928E-02 0. -1.
    10030    2    1    2    0    0  0.00000000000E+00  0.00000000000E+00 -0.19282697285E+04  0.20910786843E+04  0.80894123263E+03 0.  0.
        3    1    3    3  502    0 -0.39579950733E+03 -0.54259865636E+02 -0.11275214817E+04  0.11962048674E+04  0.10100000352E+00 0.  1.
       -3    1    3    3    0  502  0.39579950733E+03  0.54259865636E+02 -0.80074824685E+03  0.89487381683E+03  0.10100000352E+00 0. -1.
</event>
<event>
 5   0  0.1656051E-03  0.8003449E+03  0.7818609E-02  0.9559518E-01
        1   -1    0    0  501    0  0.00000000000E+00  0.00000000000E+00  0.10780947114E+04  0.10780947114E+04  0.50400001928E-02 0.  1.
       -1   -1    0    0    0  501  0.00000000000E+00  0.00000000000E+00 -0.14853794296E+03  0.14853794304E+03  0.50400001928E-02 0. -1.
    10030    2    1    2    0    0  0.00000000000E+00  0.00000000000E+00  0.92955676846E+03  0.12266326545E+04  0.80034485269E+03 0.  0.
        3    1    3    3  502    0  0.14128032484E+02 -0.11594474962E+03 -0.12183102562E+03  0.16877676164E+03  0.10100000352E+00 0. -1.
       -3    1    3    3    0  502 -0.14128032484E+02  0.11594474962E+03  0.10513877941E+04  0.10578558928E+04  0.10100000352E+00 0.  1.
</event>
<event>
 5   0  0.2873212E-03  0.8026919E+03  0.7818609E-02  0.9556129E-01
        2   -1    0    0  501    0  0.00000000000E+00  0.00000000000E+00  0.23663451184E+04  0.23663451184E+04  0.25500000920E-02 0. -1.
       -2   -1    0    0    0  501  0.00000000000E+00  0.00000000000E+00 -0.68070618812E+02  0.68070618859E+02  0.25500000920E-02 0.  1.
    10030    2    1    2    0    0  0.00000000000E+00  0.00000000000E+00  0.22982744996E+04  0.24344157373E+04  0.80269191248E+03 0.  0.
        2    1    3    3  502    0 -0.88935274035E+02  0.93793441319E+02  0.23014945874E+04  0.23051212611E+04  0.25500000920E-02 0. -1.
       -2    1    3    3    0  502  0.88935274035E+02 -0.93793441319E+02 -0.32200877655E+01  0.12929447619E+03  0.25500000920E-02 0.  1.
</event>
<event>
 5   0  0.2873212E-03  0.8006146E+03  0.7818609E-02  0.9559128E-01
        2   -1    0    0  501    0  0.00000000000E+00  0.00000000000E+00  0.10108583714E+04  0.10108583714E+04  0.25500000920E-02 0. -1.
       -2   -1    0    0    0  501  0.00000000000E+00  0.00000000000E+00 -0.15852462612E+03  0.15852462614E+03  0.25500000920E-02 0.  1.
    10030    2    1    2    0    0  0.00000000000E+00  0.00000000000E+00  0.85233374529E+03  0.11693829976E+04  0.80061462740E+03 0.  0.
        2    1    3    3  502    0  0.64559987362E+02  0.33694127978E+03  0.12488325221E+03  0.36509347389E+03  0.25500000920E-02 0.  1.
       -2    1    3    3    0  502 -0.64559987362E+02 -0.33694127978E+03  0.72745049308E+03  0.80428952366E+03  0.25500000920E-02 0. -1.
</event>
<event>
 5   0  0.1712793E-03  0.7957700E+03  0.7818609E-02  0.9566160E-01
        1   -1    0    0  501    0  0.00000000000E+00  0.00000000000E+00  0.45009285033E+03  0.45009285036E+03  0.50400001928E-02 0.  1.
       -1   -1    0    0    0  501  0.00000000000E+00  0.00000000000E+00 -0.35173291314E+03  0.35173291318E+03  0.50400001928E-02 0. -1.
    10030    2    1    2    0    0  0.00000000000E+00  0.00000000000E+00  0.98359937192E+02  0.80182576354E+03  0.79576999053E+03 0.  0.
        4    1    3    3  502    0 -0.56897142263E+02  0.93987992255E+02 -0.33614334339E+03  0.35364528513E+03  0.12699999809E+01 0. -1.
       -4    1    3    3    0  502  0.56897142263E+02 -0.93987992255E+02  0.43450328059E+03  0.44818047841E+03  0.12699999809E+01 0.  1.
</event>
<event>
 5   0  0.1617491E-03  0.8002575E+03  0.7818609E-02  0.9559644E-01
        1   -1    0    0  501    0  0.00000000000E+00  0.00000000000E+00  0.21258253500E+03  0.21258253506E+03  0.50400001928E-02 0. -1.
       -1   -1    0    0    0  501  0.00000000000E+00  0.00000000000E+00 -0.75313342555E+03  0.75313342556E+03  0.50400001928E-02 0.  1.
    10030    2    1    2    0    0  0.00000000000E+00  0.00000000000E+00 -0.54055089055E+03  0.96571596062E+03  0.80025749064E+03 0.  0.
        1    1    3    3  502    0 -0.15124031479E+03  0.37032807211E+03 -0.25905202603E+03  0.47657577155E+03  0.50400001928E-02 0. -1.
       -1    1    3    3    0  502  0.15124031479E+03 -0.37032807211E+03 -0.28149886452E+03  0.48914018907E+03  0.50400001928E-02 0.  1.
</event>
<event>
 5   0  0.1617491E-03  0.8008461E+03  0.7818609E-02  0.9558793E-01
        1   -1    0    0  501    0  0.00000000000E+00  0.00000000000E+00  0.63344683487E+03  0.63344683489E+03  0.50400001928E-02 0. -1.
       -1   -1    0    0    0  501  0.00000000000E+00  0.00000000000E+00 -0.25312088057E+03  0.25312088062E+03  0.50400001928E-02 0.  1.
    10030    2    1    2    0    0  0.00000000000E+00  0.00000000000E+00  0.38032595430E+03  0.88656771552E+03  0.80084610424E+03 0.  0.
        1    1    3    3  502    0  0.16006467626E+03 -0.11112461498E+03 -0.19709375511E+03  0.27715578466E+03  0.50400001928E-02 0.  1.
       -1    1    3    3    0  502 -0.16006467626E+03  0.11112461498E+03  0.57741970940E+03  0.60941193086E+03  0.50400001928E-02 0. -1.
</event>
<event>
 5   0  0.1095350E-03  0.8001083E+03  0.7818609E-02  0.9559860E-01
       -3   -1    0    0    0  501  0.00000000000E+00  0.00000000000E+00  0.55404480583E+03  0.55404481504E+03  0.10100000352E+00 0. -1.
        3   -1    0    0  501    0  0.00000000000E+00  0.00000000000E+00 -0.28886346825E+03  0.28886348591E+03  0.10100000352E+00 0.  1.
    10030    2    1    2    0    0  0.00000000000E+00  0.00000000000E+00  0.26518133758E+03  0.84290830094E+03  0.80010828142E+03 0.  0.
        1    1    3    3  502    0 -0.17052383382E+03 -0.19251734283E+03 -0.19023570673E+03  0.31989205888E+03  0.50400001928E-02 0.  1.
       -1    1    3    3    0  502  0.17052383382E+03  0.19251734283E+03  0.45541704431E+03  0.52301624207E+03  0.50400001928E-02 0. -1.
</event>
<event>
 5   0  0.1640035E-03  0.8005919E+03  0.7818609E-02  0.9559161E-01
       -1   -1    0    0    0  501  0.00000000000E+00  0.00000000000E+00  0.25430440308E+03  0.25430440313E+03  0.50400001928E-02 0. -1.
        1   -1    0    0  501    0  0.00000000000E+00  0.00000000000E+00 -0.63009852179E+03  0.63009852181E+03  0.50400001928E-02 0.  1.
    10030    2    1    2    0    0  0.00000000000E+00  0.00000000000E+00 -0.37579411871E+03  0.88440292495E+03  0.80059185232E+03 0.  0.
        5    1    3    3  502    0  0.81619460184E+02 -0.18339695070E+03 -0.57044177571E+03  0.60474960710E+03  0.46999998093E+01 0.  1.
       -5    1    3    3    0  502 -0.81619460184E+02  0.18339695070E+03  0.19464765701E+03  0.27965331785E+03  0.46999998093E+01 0. -1.
</event>
<event>
 5   0  0.2910501E-03  0.7987631E+03  0.7818609E-02  0.9561809E-01
       -2   -1    0    0    0  501  0.00000000000E+00  0.00000000000E+00  0.21630450646E+03  0.21630450647E+03  0.25500000920E-02 0. -1.
        2   -1    0    0  501    0  0.00000000000E+00  0.00000000000E+00 -0.73741236725E+03  0.73741236725E+03  0.25500000920E-02 0.  1.
    10030    2    1    2    0    0  0.00000000000E+00  0.00000000000E+00 -0.52110786079E+03  0.95371687372E+03  0.79876308919E+03 0.  0.
        1    1    3    3  502    0  0.17547072172E+03 -0.97398692213E+01  0.16765630726E+03  0.24288572750E+03  0.50400001928E-02 0. -1.
       -1    1    3    3    0  502 -0.17547072172E+03  0.97398692213E+01 -0.68876416805E+03  0.71083114622E+03  0.50400001928E-02 0.  1.
</event>
<event>
 5   0  0.2763587E-03  0.7981569E+03  0.7818609E-02  0.9562689E-01
        2   -1    0    0  501    0  0.00000000000E+00  0.00000000000E+00  0.56541376923E+03  0.56541376924E+03  0.25500000920E-02 0.  1.
       -2   -1    0    0    0  501  0.00000000000E+00  0.00000000000E+00 -0.28167620715E+03  0.28167620716E+03  0.25500000920E-02 0. -1.
    10030    2    1    2    0    0  0.00000000000E+00  0.00000000000E+00  0.28373756208E+03  0.84708997639E+03  0.79815689183E+03 0.  0.
        3    1    3    3  502    0 -0.36511047873E+03  0.31307847946E+01  0.31282870915E+03  0.48080897971E+03  0.10100000352E+00 0.  1.
       -3    1    3    3    0  502  0.36511047873E+03 -0.31307847946E+01 -0.29091147072E+02  0.36628099669E+03  0.10100000352E+00 0. -1.
</event>
<event>
 5   0  0.2910501E-03  0.7995816E+03  0.7818609E-02  0.9560623E-01
       -2   -1    0    0    0  501  0.00000000000E+00  0.00000000000E+00  0.98117068251E+02  0.98117068284E+02  0.25500000920E-02 0. -1.
        2   -1    0    0  501    0  0.00000000000E+00  0.00000000000E+00 -0.16289997329E+04  0.16289997329E+04  0.25500000920E-02 0.  1.
    10030    2    1    2    0    0  0.00000000000E+00  0.00000000000E+00 -0.15308826647E+04  0.17271168012E+04  0.79958158560E+03 0.  0.
        1    1    3    3  502    0 -0.34281781585E+03  0.20544804000E+03 -0.78701197486E+03  0.88267819765E+03  0.50400001928E-02 0.  1.
       -1    1    3    3    0  502  0.34281781585E+03 -0.20544804000E+03 -0.74387068982E+03  0.84443860357E+03  0.50400001928E-02 0. -1.
</event>
<event>
 5   0  0.1095350E-03  0.7987227E+03  0.7818609E-02  0.9561868E-01
        3   -1    0    0  501    0  0.00000000000E+00  0.00000000000E+00  0.28396979207E+03  0.28396981003E+03  0.10100000352E+00 0. -1.
       -3   -1    0    0    0  501  0.00000000000E+00  0.00000000000E+00 -0.56164238475E+03  0.56164239383E+03  0.10100000352E+00 0.  1.
    10030    2    1    2    0    0  0.00000000000E+00  0.00000000000E+00 -0.27767259269E+03  0.84561220386E+03  0.79872268691E+03 0.  0.
        5    1    3    3  502    0  0.23173631034E+03  0.31265845767E+03 -0.44081468571E+02  0.39169158090E+03  0.46999998093E+01 0. -1.
       -5    1    3    3    0  502 -0.23173631034E+03 -0.31265845767E+03 -0.23359112412E+03  0.45392062296E+03  0.46999998093E+01 0.  1.
</event>
<event>
 5   0  0.2763587E-03  0.8001096E+03  0.7818609E-02  0.9559859E-01
       -2   -1    0    0    0  501  0.00000000000E+00  0.00000000000E+00  0.17378724379E+03  0.17378724381E+03  0.25500000920E-02 0. -1.
        2   -1    0    0  501    0  0.00000000000E+00  0.00000000000E+00 -0.92091819361E+03  0.92091819361E+03  0.25500000920E-02 0.  1.
    10030    2    1    2    0    0  0.00000000000E+00  0.00000000000E+00 -0.74713094982E+03  0.10947054374E+04  0.80010957908E+03 0.  0.
        3    1    3    3  502    0 -0.38726253940E+03 -0.99656392818E+02 -0.38976303482E+03  0.55840747180E+03  0.10100000352E+00 0.  1.
       -3    1    3    3    0  502  0.38726253940E+03  0.99656392818E+02 -0.35736791500E+03  0.53629796562E+03  0.10100000352E+00 0. -1.
</event>
<event>
 5   0  0.2690809E-03  0.7994691E+03  0.7818609E-02  0.9560786E-01
       -2   -1    0    0    0  501  0.00000000000E+00  0.00000000000E+00  0.27902846961E+03  0.27902846963E+03  0.25500000920E-02 0.  1.
        2   -1    0    0  501    0  0.00000000000E+00  0.00000000000E+00 -0.57265735501E+03  0.57265735502E+03  0.25500000920E-02 0. -1.
    10030    2    1    2    0    0  0.00000000000E+00  0.00000000000E+00 -0.29362888540E+03  0.85168582465E+03  0.79946908731E+03 0.  0.
        5    1    3    3  502    0 -0.26148593808E+03  0.29833325423E+03 -0.94755672488E+02  0.40789502799E+03  0.46999998093E+01 0. -1.
       -5    1    3    3    0  502  0.26148593808E+03 -0.29833325423E+03 -0.19887321291E+03  0.44379079666E+03  0.46999998093E+01 0.  1.
</event>
<event>
 5   0  0.1095350E-03  0.8005484E+03  0.7818609E-02  0.9559224E-01
        4   -1    0    0  501    0  0.00000000000E+00  0.00000000000E+00  0.70807984384E+03  0.70808098277E+03  0.12699999809E+01 0.  1.
       -4   -1    0    0    0  501  0.00000000000E+00  0.00000000000E+00 -0.22627000918E+03  0.22627357325E+03  0.12699999809E+01 0. -1.
    10030    2    1    2    0    0  0.00000000000E+00  0.00000000000E+00  0.48180983467E+03  0.93435455602E+03  0.80054838678E+03 0.  0.
        4    1    3    3  502    0  0.21920536447E+03  0.20169068976E+03  0.55296610382E+03  0.62809493790E+03  0.12699999809E+01 0.  1.
       -4    1    3    3    0  502 -0.21920536447E+03 -0.20169068976E+03 -0.71156269151E+02  0.30625961812E+03  0.12699999809E+01 0. -1.
</event>
<event>
 5   0  0.1617491E-03  0.7975497E+03  0.7818609E-02  0.9563571E-01
        1   -1    0    0  501    0  0.00000000000E+00  0.00000000000E+00  0.15659236740E+04  0.15659236740E+04  0.50400001928E-02 0.  1.
       -1   -1    0    0    0  501  0.00000000000E+00  0.00000000000E+00 -0.10155118111E+03  0.10155118123E+03  0.50400001928E-02 0. -1.
    10030    2    1    2    0    0  0.00000000000E+00  0.00000000000E+00  0.14643724928E+04  0.16674748552E+04  0.79754974446E+03 0.  0.
        1    1    3    3  502    0 -0.24293869848E+03 -0.71056941815E+02  0.87933788660E+02  0.26795643566E+03  0.50400001928E-02 0. -1.
       -1    1    3    3    0  502  0.24293869848E+03  0.71056941815E+02  0.13764387042E+04  0.13995184195E+04  0.50400001928E-02 0.  1.
</event>
<event>
 5   0  0.2910501E-03  0.7995936E+03  0.7818609E-02  0.9560606E-01
       -2   -1    0    0    0  501  0.00000000000E+00  0.00000000000E+00  0.28455629146E+03  0.28455629148E+03  0.25500000920E-02 0.  1.
        2   -1    0    0  501    0  0.00000000000E+00  0.00000000000E+00 -0.56170773942E+03  0.56170773943E+03  0.25500000920E-02 0. -1.
    10030    2    1    2    0    0  0.00000000000E+00  0.00000000000E+00 -0.27715144796E+03  0.84626403091E+03  0.79959357482E+03 0.  0.
        1    1    3    3  502    0  0.11125446689E+03 -0.34746728492E+03 -0.31159991379E+03  0.47979743309E+03  0.50400001928E-02 0. -1.
       -1    1    3    3    0  502 -0.11125446689E+03  0.34746728492E+03  0.34448465833E+02  0.36646659782E+03  0.50400001928E-02 0.  1.
</event>
<event>
 5   0  0.1656051E-03  0.7977424E+03  0.7818609E-02  0.9563291E-01
       -1   -1    0    0    0  501  0.00000000000E+00  0.00000000000E+00  0.29263076150E+03  0.29263076154E+03  0.50400001928E-02 0. -1.
        1   -1    0    0  501    0  0.00000000000E+00  0.00000000000E+00 -0.54368255147E+03  0.54368255149E+03  0.50400001928E-02 0.  1.
    10030    2    1    2    0    0  0.00000000000E+00  0.00000000000E+00 -0.25105178997E+03  0.83631331304E+03  0.79774241226E+03 0.  0.
        3    1    3    3  502    0 -0.22722401087E+03 -0.16452327324E+03 -0.42278364898E+03  0.50739006948E+03  0.10100000352E+00 0.  1.
       -3    1    3    3    0  502  0.22722401087E+03  0.16452327324E+03  0.17173185901E+03  0.32892324356E+03  0.10100000352E+00 0. -1.
</event>
<event>
 5   0  0.1637228E-03  0.7993421E+03  0.7818609E-02  0.9560970E-01
        1   -1    0    0  501    0  0.00000000000E+00  0.00000000000E+00  0.85180794102E+03  0.85180794103E+03  0.50400001928E-02 0. -1.
       -1   -1    0    0    0  501  0.00000000000E+00  0.00000000000E+00 -0.18752693233E+03  0.18752693240E+03  0.50400001928E-02 0.  1.
    10030    2    1    2    0    0  0.00000000000E+00  0.00000000000E+00  0.66428100869E+03  0.10393348734E+04  0.79934205484E+03 0.  0.
        2    1    3    3  502    0  0.78190982994E+02 -0.38603487806E+03  0.24395241542E+03  0.46330285763E+03  0.25500000920E-02 0.  1.
       -2    1    3    3    0  502 -0.78190982994E+02  0.38603487806E+03  0.42032859327E+03  0.57603201580E+03  0.25500000920E-02 0. -1.
</event>
<event>
 5   0  0.1712793E-03  0.8219160E+03  0.7818609E-02  0.9528825E-01
        1   -1    0    0  501    0  0.00000000000E+00  0.00000000000E+00  0.46853175341E+03  0.46853175343E+03  0.50400001928E-02 0. -1.
       -1   -1    0    0    0  501  0.00000000000E+00  0.00000000000E+00 -0.36045899416E+03  0.36045899419E+03  0.50400001928E-02 0.  1.
    10030    2    1    2    0    0  0.00000000000E+00  0.00000000000E+00  0.10807275925E+03  0.82899074763E+03  0.82191601661E+03 0.  0.
        4    1    3    3  502    0 -0.10084477055E+03  0.38411993573E+03  0.16062038393E+03  0.42839037502E+03  0.12699999809E+01 0. -1.
       -4    1    3    3    0  502  0.10084477055E+03 -0.38411993573E+03 -0.52547624677E+02  0.40060037261E+03  0.12699999809E+01 0.  1.
</event>
<event>
 5   0  0.2768834E-03  0.8061856E+03  0.7818609E-02  0.9551107E-01
       -2   -1    0    0    0  501  0.00000000000E+00  0.00000000000E+00  0.26374810520E+03  0.26374810521E+03  0.25500000920E-02 0.  1.
        2   -1    0    0  501    0  0.00000000000E+00  0.00000000000E+00 -0.61605678405E+03  0.61605678406E+03  0.25500000920E-02 0. -1.
    10030    2    1    2    0    0  0.00000000000E+00  0.00000000000E+00 -0.35230867886E+03  0.87980488927E+03  0.80618561013E+03 0.  0.
        4    1    3    3  502    0  0.38345610698E+03  0.83204401350E+02 -0.27689096333E+03  0.48024137354E+03  0.12699999809E+01 0. -1.
       -4    1    3    3    0  502 -0.38345610698E+03 -0.83204401350E+02 -0.75417715525E+02  0.39956351573E+03  0.12699999809E+01 0.  1.
</event>
<event>
 5   0  0.1640035E-03  0.7974536E+03  0.7818609E-02  0.9563710E-01
       -1   -1    0    0    0  501  0.00000000000E+00  0.00000000000E+00  0.51876205175E+03  0.51876205177E+03  0.50400001928E-02 0. -1.
        1   -1    0    0  501    0  0.00000000000E+00  0.00000000000E+00 -0.30646625395E+03  0.30646625399E+03  0.50400001928E-02 0.  1.
    10030    2    1    2    0    0  0.00000000000E+00  0.00000000000E+00  0.21229579780E+03  0.82522830576E+03  0.79745360421E+03 0.  0.
        5    1    3    3  502    0 -0.22268257782E+03  0.31345150337E+03 -0.29841410895E+01  0.38453916644E+03  0.46999998093E+01 0.  1.
       -5    1    3    3    0  502  0.22268257782E+03 -0.31345150337E+03  0.21527993889E+03  0.44068913932E+03  0.46999998093E+01 0. -1.
</event>
<event>
 5   0  0.1656051E-03  0.8022062E+03  0.7818609E-02  0.9556829E-01
        1   -1    0    0  501    0  0.00000000000E+00  0.00000000000E+00  0.11567810689E+04  0.11567810689E+04  0.50400001928E-02 0.  1.
       -1   -1    0    0    0  501  0.00000000000E+00  0.00000000000E+00 -0.13907876080E+03  0.13907876090E+03  0.50400001928E-02 0. -1.
    10030    2    1    2    0    0  0.00000000000E+00  0.00000000000E+00  0.10177023081E+04  0.12958598298E+04  0.80220615217E+03 0.  0.
        3    1    3    3  502    0  0.28968586050E+03  0.13945541255E+03  0.89626377709E+03  0.95218405688E+03  0.10100000352E+00 0.  1.
       -3    1    3    3    0  502 -0.28968586050E+03 -0.13945541255E+03  0.12143853097E+03  0.34367577288E+03  0.10100000352E+00 0. -1.
</event>
<event>
 5   0  0.1640035E-03  0.8001334E+03  0.7818609E-02  0.9559824E-01
        1   -1    0    0  501    0  0.00000000000E+00  0.00000000000E+00  0.16362964963E+04  0.16362964963E+04  0.50400001928E-02 0.  1.
       -1   -1    0    0    0  501  0.00000000000E+00  0.00000000000E+00 -0.97814399697E+02  0.97814399827E+02  0.50400001928E-02 0. -1.
    10030    2    1    2    0    0  0.00000000000E+00  0.00000000000E+00  0.15384820966E+04  0.17341108961E+04  0.80013338796E+03 0.  0.
        5    1    3    3  502    0 -0.44582924410E+02  0.82233463795E+02  0.16122012744E+04  0.16149195085E+04  0.46999998093E+01 0.  1.
       -5    1    3    3    0  502  0.44582924410E+02 -0.82233463795E+02 -0.73719177796E+02  0.11919138765E+03  0.46999998093E+01 0. -1.
</event>
<event>
 5   0  0.2690809E-03  0.7994546E+03  0.7818609E-02  0.9560807E-01
        2   -1    0    0  501    0  0.00000000000E+00  0.00000000000E+00  0.71744947637E+03  0.71744947637E+03  0.25500000920E-02 0. -1.
       -2   -1    0    0    0  501  0.00000000000E+00  0.00000000000E+00 -0.22270824244E+03  0.22270824246E+03  0.25500000920E-02 0.  1.
    10030    2    1    2    0    0  0.00000000000E+00  0.00000000000E+00  0.49474123392E+03  0.94015771883E+03  0.79945459391E+03 0.  0.
        5    1    3    3  502    0  0.24898679957E+03  0.28885759322E+03  0.38813078968E+03  0.54415139017E+03  0.46999998093E+01 0. -1.
       -5    1    3    3    0  502 -0.24898679957E+03 -0.28885759322E+03  0.10661044424E+03  0.39600632866E+03  0.46999998093E+01 0.  1.
</event>
<event>
 5   0  0.2763587E-03  0.7991183E+03  0.7818609E-02  0.9561294E-01
        2   -1    0    0  501    0  0.00000000000E+00  0.00000000000E+00  0.12057840012E+04  0.12057840012E+04  0.25500000920E-02 0. -1.
       -2   -1    0    0    0  501  0.00000000000E+00  0.00000000000E+00 -0.13240141189E+03  0.13240141192E+03  0.25500000920E-02 0.  1.
    10030    2    1    2    0    0  0.00000000000E+00  0.00000000000E+00  0.10733825893E+04  0.13381854131E+04  0.79911827463E+03 0.  0.
        3    1    3    3  502    0 -0.35137225307E+03 -0.18823703144E+03  0.49077446197E+03  0.63226198917E+03  0.10100000352E+00 0. -1.
       -3    1    3    3    0  502  0.35137225307E+03  0.18823703144E+03  0.58260812730E+03  0.70592342391E+03  0.10100000352E+00 0.  1.
</event>
<event>
 5   0  0.1637228E-03  0.8002105E+03  0.7818609E-02  0.9559712E-01
       -1   -1    0    0    0  501  0.00000000000E+00  0.00000000000E+00  0.26477692056E+03  0.26477692060E+03  0.50400001928E-02 0. -1.
        1   -1    0    0  501    0  0.00000000000E+00  0.00000000000E+00 -0.60460037739E+03  0.60460037741E+03  0.50400001928E-02 0.  1.
    10030    2    1    2    0    0  0.00000000000E+00  0.00000000000E+00 -0.33982345683E+03  0.86937729801E+03  0.80021053760E+03 0.  0.
        2    1    3    3  502    0 -0.22074127807E+03  0.64612276685E+02 -0.52559751708E+03  0.57371962500E+03  0.25500000920E-02 0.  1.
       -2    1    3    3    0  502  0.22074127807E+03 -0.64612276685E+02  0.18577406025E+03  0.29565767301E+03  0.25500000920E-02 0. -1.
</event>
<event>
 5   0  0.1095350E-03  0.7990967E+03  0.7818609E-02  0.9561326E-01
        4   -1    0    0  501    0  0.00000000000E+00  0.00000000000E+00  0.24757321154E+03  0.24757646894E+03  0.12699999809E+01 0. -1.
       -4   -1    0    0    0  501  0.00000000000E+00  0.00000000000E+00 -0.64480671739E+03  0.64480796808E+03  0.12699999809E+01 0.  1.
    10030    2    1    2    0    0  0.00000000000E+00  0.00000000000E+00 -0.39723350585E+03  0.89238443702E+03  0.79909669331E+03 0.  0.
        2    1    3    3  502    0 -0.78742993782E+01 -0.90799372636E+02  0.23581198157E+03  0.25281182987E+03  0.25500000920E-02 0. -1.
       -2    1    3    3    0  502  0.78742993782E+01  0.90799372636E+02 -0.63304548742E+03  0.63957260715E+03  0.25500000920E-02 0.  1.
</event>
<event>
 5   0  0.2910501E-03  0.8007607E+03  0.7818609E-02  0.9558917E-01
       -2   -1    0    0    0  501  0.00000000000E+00  0.00000000000E+00  0.48589915973E+03  0.48589915974E+03  0.25500000920E-02 0. -1.
        2   -1    0    0  501    0  0.00000000000E+00  0.00000000000E+00 -0.32991295229E+03  0.32991295230E+03  0.25500000920E-02 0.  1.
    10030    2    1    2    0    0  0.00000000000E+00  0.00000000000E+00  0.15598620744E+03  0.81581211204E+03  0.80076070410E+03 0.  0.
        1    1    3    3  502    0 -0.17561509710E+03  0.25250449440E+03  0.33914153004E+03  0.45783857357E+03  0.50400001928E-02 0. -1.
       -1    1    3    3    0  502  0.17561509710E+03 -0.25250449440E+03 -0.18315532260E+03  0.35797353847E+03  0.50400001928E-02 0.  1.
</event>
<event>
 5   0  0.1095350E-03  0.7988126E+03  0.7818609E-02  0.9561737E-01
       -3   -1    0    0    0  501  0.00000000000E+00  0.00000000000E+00  0.65180495685E+03  0.65180496468E+03  0.10100000352E+00 0.  1.
        3   -1    0    0  501    0  0.00000000000E+00  0.00000000000E+00 -0.24474405555E+03  0.24474407639E+03  0.10100000352E+00 0. -1.
    10030    2    1    2    0    0  0.00000000000E+00  0.00000000000E+00  0.40706090130E+03  0.89654904106E+03  0.79881262237E+03 0.  0.
        4    1    3    3  502    0 -0.19737769552E+03  0.34722175883E+03  0.20543647619E+03  0.44913991488E+03  0.12699999809E+01 0. -1.
       -4    1    3    3    0  502  0.19737769552E+03 -0.34722175883E+03  0.20162442511E+03  0.44740912618E+03  0.12699999809E+01 0.  1.
</event>
<event>
 5   0  0.2910501E-03  0.8028402E+03  0.7818609E-02  0.9555915E-01
        2   -1    0    0  501    0  0.00000000000E+00  0.00000000000E+00  0.63855621805E+03  0.63855621806E+03  0.25500000920E-02 0. -1.
       -2   -1    0    0    0  501  0.00000000000E+00  0.00000000000E+00 -0.25234755569E+03  0.25234755571E+03  0.25500000920E-02 0.  1.
    10030    2    1    2    0    0  0.00000000000E+00  0.00000000000E+00  0.38620866236E+03  0.89090377376E+03  0.80284021027E+03 0.  0.
        1    1    3    3  502    0 -0.43538041236E+02 -0.33061099738E+03 -0.54878265917E+02  0.33795090874E+03  0.50400001928E-02 0.  1.
       -1    1    3    3    0  502  0.43538041236E+02  0.33061099738E+03  0.44108692828E+03  0.55295286503E+03  0.50400001928E-02 0. -1.
</event>
<event>
 5   0  0.2763587E-03  0.8003254E+03  0.7818609E-02  0.9559546E-01
       -2   -1    0    0    0  501  0.00000000000E+00  0.00000000000E+00  0.28603012388E+03  0.28603012389E+03  0.25500000920E-02 0. -1.
        2   -1    0    0  501    0  0.00000000000E+00  0.00000000000E+00 -0.55983677299E+03  0.55983677300E+03  0.25500000920E-02 0.  1.
    10030    2    1    2    0    0  0.00000000000E+00  0.00000000000E+00 -0.27380664911E+03  0.84586689689E+03  0.80032538768E+03 0.  0.
        3    1    3    3  502    0  0.10212235491E+03 -0.34813758161E+03  0.41527008551E+02  0.36517564779E+03  0.10100000352E+00 0. -1.
       -3    1    3    3    0  502 -0.10212235491E+03  0.34813758161E+03 -0.31533365766E+03  0.48069124910E+03  0.10100000352E+00 0.  1.
</event>
<event>
 5   0  0.1712793E-03  0.8007656E+03  0.7818609E-02  0.9558910E-01
        1   -1    0    0  501    0  0.00000000000E+00  0.00000000000E+00  0.45595719111E+03  0.45595719114E+03  0.50400001928E-02 0.  1.
       -1   -1    0    0    0  501  0.00000000000E+00  0.00000000000E+00 -0.35158212197E+03  0.35158212200E+03  0.50400001928E-02 0. -1.
    10030    2    1    2    0    0  0.00000000000E+00  0.00000000000E+00  0.10437506914E+03  0.80753931314E+03  0.80076562564E+03 0.  0.
        4    1    3    3  502    0  0.29556575241E+03  0.17732430129E+03  0.25763061596E+03  0.43032333077E+03  0.12699999809E+01 0.  1.
       -4    1    3    3    0  502 -0.29556575241E+03 -0.17732430129E+03 -0.15325554682E+03  0.37721598237E+03  0.12699999809E+01 0. -1.
</event>
<event>
 5   0  0.1712793E-03  0.8003375E+03  0.7818609E-02  0.9559529E-01
        1   -1    0    0  501    0  0.00000000000E+00  0.00000000000E+00  0.37026852527E+03  0.37026852530E+03  0.50400001928E-02 0.  1.
       -1   -1    0    0    0  501  0.00000000000E+00  0.00000000000E+00 -0.43248346848E+03  0.43248346851E+03  0.50400001928E-02 0. -1.
    10030    2    1    2    0    0  0.00000000000E+00  0.00000000000E+00 -0.62214943217E+02  0.80275199382E+03  0.80033746908E+03 0.  0.
        4    1    3    3  502    0 -0.16536836100E+03 -0.18191548587E+03 -0.34780274920E+03  0.42592053727E+03  0.12699999809E+01 0. -1.
       -4    1    3    3    0  502  0.16536836100E+03  0.18191548587E+03  0.28558780598E+03  0.37683145655E+03  0.12699999809E+01 0.  1.
</event>
<event>
 5   0  0.1617491E-03  0.7997616E+03  0.7818609E-02  0.9560362E-01
       -1   -1    0    0    0  501  0.00000000000E+00  0.00000000000E+00  0.52200029945E+03  0.52200029948E+03  0.50400001928E-02 0. -1.
        1   -1    0    0  501    0  0.00000000000E+00  0.00000000000E+00 -0.30633058313E+03  0.30633058317E+03  0.50400001928E-02 0.  1.
    10030    2    1    2    0    0  0.00000000000E+00  0.00000000000E+00  0.21566971632E+03  0.82833088265E+03  0.79976160486E+03 0.  0.
        1    1    3    3  502    0 -0.36239029175E+03 -0.52174652477E+02 -0.58706374132E+02  0.37080366274E+03  0.50400001928E-02 0.  1.
       -1    1    3    3    0  502  0.36239029175E+03  0.52174652477E+02  0.27437609045E+03  0.45752721990E+03  0.50400001928E-02 0. -1.
</event>
<event>
 5   0  0.2690809E-03  0.8006888E+03  0.7818609E-02  0.9559021E-01
       -2   -1    0    0    0  501  0.00000000000E+00  0.00000000000E+00  0.26537887177E+03  0.26537887178E+03  0.25500000920E-02 0.  1.
        2   -1    0    0  501    0  0.00000000000E+00  0.00000000000E+00 -0.60395030841E+03  0.60395030841E+03  0.25500000920E-02 0. -1.
    10030    2    1    2    0    0  0.00000000000E+00  0.00000000000E+00 -0.33857143664E+03  0.86932918019E+03  0.80068883208E+03 0.  0.
        5    1    3    3  502    0 -0.12683067232E+03 -0.96418472706E+02 -0.56801654000E+03  0.58995543987E+03  0.46999998093E+01 0. -1.
       -5    1    3    3    0  502  0.12683067232E+03  0.96418472706E+02  0.22944510337E+03  0.27937374032E+03  0.46999998093E+01 0.  1.
</event>
<event>
 5   0  0.1617491E-03  0.7978967E+03  0.7818609E-02  0.9563067E-01
        1   -1    0    0  501    0  0.00000000000E+00  0.00000000000E+00  0.12088681975E+04  0.12088681975E+04  0.50400001928E-02 0. -1.
       -1   -1    0    0    0  501  0.00000000000E+00  0.00000000000E+00 -0.13166016836E+03  0.13166016846E+03  0.50400001928E-02 0.  1.
    10030    2    1    2    0    0  0.00000000000E+00  0.00000000000E+00  0.10772080291E+04  0.13405283660E+04  0.79789671130E+03 0.  0.
        1    1    3    3  502    0  0.65176020130E+02 -0.31311157412E+03  0.13793802918E+03  0.34830112169E+03  0.50400001928E-02 0. -1.
       -1    1    3    3    0  502 -0.65176020130E+02  0.31311157412E+03  0.93926999995E+03  0.99222724427E+03  0.50400001928E-02 0.  1.
</event>
<event>
 5   0  0.1095350E-03  0.8002200E+03  0.7818609E-02  0.9559699E-01
        3   -1    0    0  501    0  0.00000000000E+00  0.00000000000E+00  0.28561510551E+03  0.28561512337E+03  0.10100000352E+00 0.  1.
       -3   -1    0    0    0  501  0.00000000000E+00  0.00000000000E+00 -0.56050251695E+03  0.56050252605E+03  0.10100000352E+00 0. -1.
    10030    2    1    2    0    0  0.00000000000E+00  0.00000000000E+00 -0.27488741144E+03  0.84611764942E+03  0.80021996207E+03 0.  0.
        4    1    3    3  502    0 -0.36126810049E+03  0.13430166307E+03 -0.25100400733E+03  0.45995239072E+03  0.12699999809E+01 0. -1.
       -4    1    3    3    0  502  0.36126810049E+03 -0.13430166307E+03 -0.23883404103E+02  0.38616525870E+03  0.12699999809E+01 0.  1.
</event>
<event>
 5   0  0.2690809E-03  0.8005245E+03  0.7818609E-02  0.9559258E-01
        2   -1    0    0  501    0  0.00000000000E+00  0.00000000000E+00  0.61379590260E+03  0.61379590261E+03  0.25500000920E-02 0. -1.
       -2   -1    0    0    0  501  0.00000000000E+00  0.00000000000E+00 -0.26101490932E+03  0.26101490933E+03  0.25500000920E-02 0.  1.
    10030    2    1    2    0    0  0.00000000000E+00  0.00000000000E+00  0.35278099328E+03  0.87481081194E+03  0.80052453271E+03 0.  0.
        5    1    3    3  502    0 -0.37816108196E+03  0.90550044387E+02  0.72818488183E+02  0.39563839129E+03  0.46999998093E+01 0.  1.
       -5    1    3    3    0  502  0.37816108196E+03 -0.90550044387E+02  0.27996250510E+03  0.47917242065E+03  0.46999998093E+01 0. -1.
</event>
<event>
 5   0  0.2910501E-03  0.8001715E+03  0.7818609E-02  0.9559769E-01
       -2   -1    0    0    0  501  0.00000000000E+00  0.00000000000E+00  0.26901068499E+03  0.26901068500E+03  0.25500000920E-02 0. -1.
        2   -1    0    0  501    0  0.00000000000E+00  0.00000000000E+00 -0.59502699815E+03  0.59502699816E+03  0.25500000920E-02 0.  1.
    10030    2    1    2    0    0  0.00000000000E+00  0.00000000000E+00 -0.32601631316E+03  0.86403768316E+03  0.80017153253E+03 0.  0.
        1    1    3    3  502    0  0.68603977076E+02 -0.10924708667E+03 -0.57195355919E+03  0.58632099187E+03  0.50400001928E-02 0.  1.
       -1    1    3    3    0  502 -0.68603977076E+02  0.10924708667E+03  0.24593724602E+03  0.27771669129E+03  0.50400001928E-02 0. -1.
</event>
<event>
 5   0  0.2768834E-03  0.7986080E+03  0.7818609E-02  0.9562034E-01
        2   -1    0    0  501    0  0.00000000000E+00  0.00000000000E+00  0.52192313901E+03  0.52192313902E+03  0.25500000920E-02 0. -1.
       -2   -1    0    0    0  501  0.00000000000E+00  0.00000000000E+00 -0.30549266731E+03  0.30549266732E+03  0.25500000920E-02 0.  1.
    10030    2    1    2    0    0  0.00000000000E+00  0.00000000000E+00  0.21643047171E+03  0.82741580633E+03  0.79860801867E+03 0.  0.
        4    1    3    3  502    0  0.11900209520E+03  0.37870602639E+03  0.15292660680E+03  0.42540323583E+03  0.12699999809E+01 0. -1.
       -4    1    3    3    0  502 -0.11900209520E+03 -0.37870602639E+03  0.63503864909E+02  0.40201257051E+03  0.12699999809E+01 0.  1.
</event>
<event>
 5   0  0.2690809E-03  0.7996508E+03  0.7818609E-02  0.9560523E-01
        2   -1    0    0  501    0  0.00000000000E+00  0.00000000000E+00  0.46103087458E+03  0.46103087459E+03  0.25500000920E-02 0.  1.
       -2   -1    0    0    0  501  0.00000000000E+00  0.00000000000E+00 -0.34674541694E+03  0.34674541695E+03  0.25500000920E-02 0. -1.
    10030    2    1    2    0    0  0.00000000000E+00  0.00000000000E+00  0.11428545764E+03  0.80777629154E+03  0.79965078087E+03 0.  0.
        5    1    3    3  502    0  0.93515303297E+02  0.38809705066E+03  0.79131324952E+02  0.40699912686E+03  0.46999998093E+01 0.  1.
       -5    1    3    3    0  502 -0.93515303297E+02 -0.38809705066E+03  0.35154132684E+02  0.40077716467E+03  0.46999998093E+01 0. -1.
</event>
<event>
 5   0  0.1712793E-03  0.7997400E+03  0.7818609E-02  0.9560394E-01
        1   -1    0    0  501    0  0.00000000000E+00  0.00000000000E+00  0.16262537968E+03  0.16262537976E+03  0.50400001928E-02 0. -1.
       -1   -1    0    0    0  501  0.00000000000E+00  0.00000000000E+00 -0.98321686501E+03  0.98321686503E+03  0.50400001928E-02 0.  1.
    10030    2    1    2    0    0  0.00000000000E+00  0.00000000000E+00 -0.82059148533E+03  0.11458422448E+04  0.79973999783E+03 0.  0.
        4    1    3    3  502    0  0.70196055259E+02 -0.43198619390E+01  0.15369160135E+03  0.16902327830E+03  0.12699999809E+01 0. -1.
       -4    1    3    3    0  502 -0.70196055259E+02  0.43198619390E+01 -0.97428308669E+03  0.97681896648E+03  0.12699999809E+01 0.  1.
</event>
<event>
 5   0  0.2910501E-03  0.7954966E+03  0.7818609E-02  0.9566559E-01
       -2   -1    0    0    0  501  0.00000000000E+00  0.00000000000E+00  0.97964066772E+02  0.97964066805E+02  0.25500000920E-02 0.  1.
        2   -1    0    0  501    0  0.00000000000E+00  0.00000000000E+00 -0.16149157019E+04  0.16149157019E+04  0.25500000920E-02 0. -1.
    10030    2    1    2    0    0  0.00000000000E+00  0.00000000000E+00 -0.15169516351E+04  0.17128797687E+04  0.79549659881E+03 0.  0.
        1    1    3    3  502    0 -0.37736685130E+03 -0.57464867888E+02 -0.51777927153E+03  0.64327546631E+03  0.50400001928E-02 0.  1.
       -1    1    3    3    0  502  0.37736685130E+03  0.57464867888E+02 -0.99917236357E+03  0.10696043024E+04  0.50400001928E-02 0. -1.
</event>
<event>
 5   0  0.1712793E-03  0.7977430E+03  0.7818609E-02  0.9563290E-01
       -1   -1    0    0    0  501  0.00000000000E+00  0.00000000000E+00  0.28104491721E+03  0.28104491725E+03  0.50400001928E-02 0.  1.
        1   -1    0    0  501    0  0.00000000000E+00  0.00000000000E+00 -0.56609623300E+03  0.56609623302E+03  0.50400001928E-02 0. -1.
    10030    2    1    2    0    0  0.00000000000E+00  0.00000000000E+00 -0.28505131579E+03  0.84714115028E+03  0.79774298860E+03 0.  0.
        4    1    3    3  502    0  0.31645799067E+03  0.20884243744E+03 -0.27403278580E+03  0.46782091032E+03  0.12699999809E+01 0.  1.
       -4    1    3    3    0  502 -0.31645799067E+03 -0.20884243744E+03 -0.11018529992E+02  0.37932023996E+03  0.12699999809E+01 0. -1.
</event>
<event>
 5   0  0.1637228E-03  0.7999805E+03  0.7818609E-02  0.9560045E-01
       -1   -1    0    0    0  501  0.00000000000E+00  0.00000000000E+00  0.55691086552E+03  0.55691086554E+03  0.50400001928E-02 0.  1.
        1   -1    0    0  501    0  0.00000000000E+00  0.00000000000E+00 -0.28728514566E+03  0.28728514571E+03  0.50400001928E-02 0. -1.
    10030    2    1    2    0    0  0.00000000000E+00  0.00000000000E+00  0.26962571986E+03  0.84419601125E+03  0.79998054764E+03 0.  0.
        2    1    3    3  502    0  0.73925135078E+02 -0.21763154234E+03  0.48026503574E+03  0.53243113956E+03  0.25500000920E-02 0.  1.
       -2    1    3    3    0  502 -0.73925135078E+02  0.21763154234E+03 -0.21063931588E+03  0.31176487169E+03  0.25500000920E-02 0. -1.
</event>
<event>
 5   0  0.1095350E-03  0.7985003E+03  0.7818609E-02  0.9562190E-01
        4   -1    0    0  501    0  0.00000000000E+00  0.00000000000E+00  0.12712471684E+04  0.12712478028E+04  0.12699999809E+01 0. -1.
       -4   -1    0    0    0  501  0.00000000000E+00  0.00000000000E+00 -0.12538532437E+03  0.12539175598E+03  0.12699999809E+01 0.  1.
    10030    2    1    2    0    0  0.00000000000E+00  0.00000000000E+00  0.11458618440E+04  0.13966395588E+04  0.79850027643E+03 0.  0.
        1    1    3    3  502    0 -0.48067773282E+02  0.26750886994E+03  0.10844553614E+04  0.11179959468E+04  0.50400001928E-02 0. -1.
       -1    1    3    3    0  502  0.48067773282E+02 -0.26750886994E+03  0.61406482676E+02  0.27864361192E+03  0.50400001928E-02 0.  1.
</event>
<event>
 5   0  0.1617491E-03  0.7993946E+03  0.7818609E-02  0.9560894E-01
        1   -1    0    0  501    0  0.00000000000E+00  0.00000000000E+00  0.54226019703E+03  0.54226019705E+03  0.50400001928E-02 0.  1.
       -1   -1    0    0    0  501  0.00000000000E+00  0.00000000000E+00 -0.29461488742E+03  0.29461488747E+03  0.50400001928E-02 0. -1.
    10030    2    1    2    0    0  0.00000000000E+00  0.00000000000E+00  0.24764530961E+03  0.83687508452E+03  0.79939458825E+03 0.  0.
        1    1    3    3  502    0  0.19321563975E+03 -0.72931012726E+02 -0.23443074950E+03  0.31242437869E+03  0.50400001928E-02 0. -1.
       -1    1    3    3    0  502 -0.19321563975E+03  0.72931012726E+02  0.48207605911E+03  0.52445070583E+03  0.50400001928E-02 0.  1.
</event>
<event>
 5   0  0.1712793E-03  0.7998966E+03  0.7818609E-02  0.9560167E-01
       -1   -1    0    0    0  501  0.00000000000E+00  0.00000000000E+00  0.51437970988E+03  0.51437970990E+03  0.50400001928E-02 0. -1.
        1   -1    0    0  501    0  0.00000000000E+00  0.00000000000E+00 -0.31097383356E+03  0.31097383360E+03  0.50400001928E-02 0.  1.
    10030    2    1    2    0    0  0.00000000000E+00  0.00000000000E+00  0.20340587632E+03  0.82535354350E+03  0.79989656909E+03 0.  0.
        4    1    3    3  502    0 -0.23442117649E+03 -0.80325385593E+02  0.42562307100E+03  0.49250590558E+03  0.12699999809E+01 0. -1.
       -4    1    3    3    0  502  0.23442117649E+03  0.80325385593E+02 -0.22221719468E+03  0.33284763792E+03  0.12699999809E+01 0.  1.
</event>
<event>
 5   0  0.2768834E-03  0.8012663E+03  0.7818609E-02  0.9558186E-01
       -2   -1    0    0    0  501  0.00000000000E+00  0.00000000000E+00  0.18149941235E+03  0.18149941236E+03  0.25500000920E-02 0. -1.
        2   -1    0    0  501    0  0.00000000000E+00  0.00000000000E+00 -0.88433847879E+03  0.88433847880E+03  0.25500000920E-02 0.  1.
    10030    2    1    2    0    0  0.00000000000E+00  0.00000000000E+00 -0.70283906645E+03  0.10658378912E+04  0.80126628340E+03 0.  0.
        4    1    3    3  502    0  0.21629111610E+03 -0.30441460961E+03 -0.54443582669E+03  0.66019851842E+03  0.12699999809E+01 0.  1.
       -4    1    3    3    0  502 -0.21629111610E+03  0.30441460961E+03 -0.15840323976E+03  0.40563937274E+03  0.12699999809E+01 0. -1.
</event>
<event>
 5   0  0.2768834E-03  0.8050325E+03  0.7818609E-02  0.9552761E-01
        2   -1    0    0  501    0  0.00000000000E+00  0.00000000000E+00  0.69440519404E+03  0.69440519405E+03  0.25500000920E-02 0. -1.
       -2   -1    0    0    0  501  0.00000000000E+00  0.00000000000E+00 -0.23332100263E+03  0.23332100265E+03  0.25500000920E-02 0.  1.
    10030    2    1    2    0    0  0.00000000000E+00  0.00000000000E+00  0.46108419141E+03  0.92772619670E+03  0.80503246175E+03 0.  0.
        4    1    3    3  502    0 -0.16595443007E+03 -0.36665291147E+03  0.22303171038E+03  0.46013040226E+03  0.12699999809E+01 0.  1.
       -4    1    3    3    0  502  0.16595443007E+03  0.36665291147E+03  0.23805248103E+03  0.46759579444E+03  0.12699999809E+01 0. -1.
</event>
<event>
 5   0  0.1656051E-03  0.8037145E+03  0.7818609E-02  0.9554656E-01
       -1   -1    0    0    0  501  0.00000000000E+00  0.00000000000E+00  0.15355367824E+03  0.15355367833E+03  0.50400001928E-02 0. -1.
        1   -1    0    0  501    0  0.00000000000E+00  0.00000000000E+00 -0.10516795255E+04  0.10516795255E+04  0.50400001928E-02 0.  1.
    10030    2    1    2    0    0  0.00000000000E+00  0.00000000000E+00 -0.89812584729E+03  0.12052332039E+04  0.80371452528E+03 0.  0.
        3    1    3    3  502    0 -0.26149969260E+02 -0.37945460577E+03 -0.64354406623E+03  0.74754170058E+03  0.10100000352E+00 0. -1.
       -3    1    3    3    0  502  0.26149969260E+02  0.37945460577E+03 -0.25458178106E+03  0.45769150329E+03  0.10100000352E+00 0.  1.
</event>
<event>
 5   0  0.2873212E-03  0.8046747E+03  0.7818609E-02  0.9553275E-01
       -2   -1    0    0    0  501  0.00000000000E+00  0.00000000000E+00  0.94410147506E+02  0.94410147541E+02  0.25500000920E-02 0.  1.
        2   -1    0    0  501    0  0.00000000000E+00  0.00000000000E+00 -0.17145970180E+04  0.17145970180E+04  0.25500000920E-02 0. -1.
    10030    2    1    2    0    0  0.00000000000E+00  0.00000000000E+00 -0.16201868705E+04  0.18090071656E+04  0.80467473533E+03 0.  0.
        2    1    3    3  502    0 -0.11092731320E+03 -0.15816233993E+03 -0.16677738532E+02  0.19390291786E+03  0.25500000920E-02 0.  1.
       -2    1    3    3    0  502  0.11092731320E+03  0.15816233993E+03 -0.16035091320E+04  0.16151042477E+04  0.25500000920E-02 0. -1.
</event>
<event>
 5   0  0.1640035E-03  0.8014367E+03  0.7818609E-02  0.9557940E-01
       -1   -1    0    0    0  501  0.00000000000E+00  0.00000000000E+00  0.36536745514E+03  0.36536745517E+03  0.50400001928E-02 0. -1.
        1   -1    0    0  501    0  0.00000000000E+00  0.00000000000E+00 -0.43948963874E+03  0.43948963877E+03  0.50400001928E-02 0.  1.
    10030    2    1    2    0    0  0.00000000000E+00  0.00000000000E+00 -0.74122183597E+02  0.80485709394E+03  0.80143673709E+03 0.  0.
        5    1    3    3  502    0  0.20591095713E+02 -0.13475204012E+03 -0.41545956397E+03  0.43727662278E+03  0.46999998093E+01 0.  1.
       -5    1    3    3    0  502 -0.20591095713E+02  0.13475204012E+03  0.34133738037E+03  0.36758047116E+03  0.46999998093E+01 0. -1.
</event>
<event>
 5   0  0.2910501E-03  0.8001993E+03  0.7818609E-02  0.9559729E-01
       -2   -1    0    0    0  501  0.00000000000E+00  0.00000000000E+00  0.11838558887E+03  0.11838558889E+03  0.25500000920E-02 0. -1.
        2   -1    0    0  501    0  0.00000000000E+00  0.00000000000E+00 -0.13521891617E+04  0.13521891617E+04  0.25500000920E-02 0.  1.
    10030    2    1    2    0    0  0.00000000000E+00  0.00000000000E+00 -0.12338035728E+04  0.14705747506E+04  0.80019925065E+03 0.  0.
        1    1    3    3  502    0  0.49557745966E+01 -0.16456790749E+03  0.53245047691E+02  0.17303812009E+03  0.50400001928E-02 0. -1.
       -1    1    3    3    0  502 -0.49557745966E+01  0.16456790749E+03 -0.12870486205E+04  0.12975366305E+04  0.50400001928E-02 0.  1.
</event>
<event>
 5   0  0.2768834E-03  0.8000922E+03  0.7818609E-02  0.9559884E-01
        2   -1    0    0  501    0  0.00000000000E+00  0.00000000000E+00  0.33591084508E+03  0.33591084509E+03  0.25500000920E-02 0.  1.
       -2   -1    0    0    0  501  0.00000000000E+00  0.00000000000E+00 -0.47642664879E+03  0.47642664879E+03  0.25500000920E-02 0. -1.
    10030    2    1    2    0    0  0.00000000000E+00  0.00000000000E+00 -0.14051580371E+03  0.81233749388E+03  0.80009219024E+03 0.  0.
        4    1    3    3  502    0 -0.61722744910E+02 -0.63893925125E+02 -0.46628294246E+03  0.47467201964E+03  0.12699999809E+01 0. -1.
       -4    1    3    3    0  502  0.61722744910E+02  0.63893925125E+02  0.32576713875E+03  0.33766547424E+03  0.12699999809E+01 0.  1.
</event>
<event>
 5   0  0.1656051E-03  0.8006009E+03  0.7818609E-02  0.9559148E-01
        1   -1    0    0  501    0  0.00000000000E+00  0.00000000000E+00  0.56184996326E+03  0.56184996328E+03  0.50400001928E-02 0.  1.
       -1   -1    0    0    0  501  0.00000000000E+00  0.00000000000E+00 -0.28520152890E+03  0.28520152894E+03  0.50400001928E-02 0. -1.
    10030    2    1    2    0    0  0.00000000000E+00  0.00000000000E+00  0.27664843436E+03  0.84705149222E+03  0.80060094569E+03 0.  0.
        3    1    3    3  502    0  0.14140159251E+03 -0.81902481453E+02 -0.24830636030E+03  0.29725155273E+03  0.10100000352E+00 0. -1.
       -3    1    3    3    0  502 -0.14140159251E+03  0.81902481453E+02  0.52495479466E+03  0.54979993949E+03  0.10100000352E+00 0.  1.
</event>
<event>
 5   0  0.2768834E-03  0.7989733E+03  0.7818609E-02  0.9561504E-01
        2   -1    0    0  501    0  0.00000000000E+00  0.00000000000E+00  0.88318757894E+03  0.88318757895E+03  0.25500000920E-02 0.  1.
       -2   -1    0    0    0  501  0.00000000000E+00  0.00000000000E+00 -0.18069727162E+03  0.18069727164E+03  0.25500000920E-02 0. -1.
    10030    2    1    2    0    0  0.00000000000E+00  0.00000000000E+00  0.70249030732E+03  0.10638848506E+04  0.79897330582E+03 0.  0.
        4    1    3    3  502    0 -0.21718761221E+03 -0.19349445251E+03  0.71585431346E+03  0.77269630065E+03  0.12699999809E+01 0.  1.
       -4    1    3    3    0  502  0.21718761221E+03  0.19349445251E+03 -0.13364006134E+02  0.29118854993E+03  0.12699999809E+01 0. -1.
</event>
<event>
 5   0  0.2690809E-03  0.8004830E+03  0.7818609E-02  0.9559318E-01
        2   -1    0    0  501    0  0.00000000000E+00  0.00000000000E+00  0.21564472858E+04  0.21564472858E+04  0.25500000920E-02 0. -1.
       -2   -1    0    0    0  501  0.00000000000E+00  0.00000000000E+00 -0.74285730381E+02  0.74285730425E+02  0.25500000920E-02 0.  1.
    10030    2    1    2    0    0  0.00000000000E+00  0.00000000000E+00  0.20821615554E+04  0.22307330162E+04  0.80048300844E+03 0.  0.
        5    1    3    3  502    0  0.13579765719E+03  0.28626167187E+03  0.35970059360E+03  0.47936766215E+03  0.46999998093E+01 0.  1.
       -5    1    3    3    0  502 -0.13579765719E+03 -0.28626167187E+03  0.17224609618E+04  0.17513653540E+04  0.46999998093E+01 0. -1.
</event>
<event>
 5   0  0.2910501E-03  0.8032312E+03  0.7818609E-02  0.9555352E-01
       -2   -1    0    0    0  501  0.00000000000E+00  0.00000000000E+00  0.93306873927E+03  0.93306873928E+03  0.25500000920E-02 0.  1.
        2   -1    0    0  501    0  0.00000000000E+00  0.00000000000E+00 -0.17286517449E+03  0.17286517451E+03  0.25500000920E-02 0. -1.
    10030    2    1    2    0    0  0.00000000000E+00  0.00000000000E+00  0.76020356478E+03  0.11059339138E+04  0.80323120068E+03 0.  0.
        1    1    3    3  502    0  0.28937178948E+03  0.14589396898E+03  0.70672159775E+03  0.77748086759E+03  0.50400001928E-02 0.  1.
       -1    1    3    3    0  502 -0.28937178948E+03 -0.14589396898E+03  0.53481967038E+02  0.32845304619E+03  0.50400001928E-02 0. -1.
</event>
<event>
 5   0  0.1712793E-03  0.7998452E+03  0.7818609E-02  0.9560241E-01
        1   -1    0    0  501    0  0.00000000000E+00  0.00000000000E+00  0.16794961367E+04  0.16794961367E+04  0.50400001928E-02 0. -1.
       -1   -1    0    0    0  501  0.00000000000E+00  0.00000000000E+00 -0.95229804054E+02  0.95229804187E+02  0.50400001928E-02 0.  1.
    10030    2    1    2    0    0  0.00000000000E+00  0.00000000000E+00  0.15842663326E+04  0.17747259409E+04  0.79984520535E+03 0.  0.
        4    1    3    3  502    0  0.45610993828E+02 -0.37115615558E+03  0.47756486255E+03  0.60655343164E+03  0.12699999809E+01 0.  1.
       -4    1    3    3    0  502 -0.45610993828E+02  0.37115615558E+03  0.11067014701E+04  0.11681725093E+04  0.12699999809E+01 0. -1.
</event>
<event>
 5   0  0.2910501E-03  0.8001500E+03  0.7818609E-02  0.9559800E-01
       -2   -1    0    0    0  501  0.00000000000E+00  0.00000000000E+00  0.35326334469E+03  0.35326334470E+03  0.25500000920E-02 0. -1.
        2   -1    0    0  501    0  0.00000000000E+00  0.00000000000E+00 -0.45308976905E+03  0.45308976906E+03  0.25500000920E-02 0.  1.
    10030    2    1    2    0    0  0.00000000000E+00  0.00000000000E+00 -0.99826424361E+02  0.80635311375E+03  0.80015000410E+03 0.  0.
        1    1    3    3  502    0  0.16159010696E+02  0.18539598988E+02  0.35250086743E+03  0.35335773930E+03  0.50400001928E-02 0. -1.
       -1    1    3    3    0  502 -0.16159010696E+02 -0.18539598988E+02 -0.45232729179E+03  0.45299537446E+03  0.50400001928E-02 0.  1.
</event>
<event>
 5   0  0.1637228E-03  0.7998076E+03  0.7818609E-02  0.9560296E-01
        1   -1    0    0  501    0  0.00000000000E+00  0.00000000000E+00  0.75719290504E+03  0.75719290506E+03  0.50400001928E-02 0.  1.
       -1   -1    0    0    0  501  0.00000000000E+00  0.00000000000E+00 -0.21120516671E+03  0.21120516677E+03  0.50400001928E-02 0. -1.
    10030    2    1    2    0    0  0.00000000000E+00  0.00000000000E+00  0.54598773833E+03  0.96839807183E+03  0.79980761132E+03 0.  0.
        2    1    3    3  502    0  0.38080965302E+03 -0.12176440015E+03  0.26213094131E+03  0.47807446217E+03  0.25500000920E-02 0. -1.
       -2    1    3    3    0  502 -0.38080965302E+03  0.12176440015E+03  0.28385679702E+03  0.49032360967E+03  0.25500000920E-02 0.  1.
</event>
<event>
 5   0  0.2763587E-03  0.8036654E+03  0.7818609E-02  0.9554727E-01
       -2   -1    0    0    0  501  0.00000000000E+00  0.00000000000E+00  0.63522105372E+03  0.63522105373E+03  0.25500000920E-02 0.  1.
        2   -1    0    0  501    0  0.00000000000E+00  0.00000000000E+00 -0.25419419283E+03  0.25419419284E+03  0.25500000920E-02 0. -1.
    10030    2    1    2    0    0  0.00000000000E+00  0.00000000000E+00  0.38102686090E+03  0.88941524657E+03  0.80366536077E+03 0.  0.
        3    1    3    3  502    0  0.73700790284E+02 -0.32396178347E+03 -0.59626012784E+02  0.33754750071E+03  0.10100000352E+00 0. -1.
       -3    1    3    3    0  502 -0.73700790284E+02  0.32396178347E+03  0.44065287368E+03  0.55186774586E+03  0.10100000352E+00 0.  1.
</event>
<event>
 5   0  0.1712793E-03  0.8000487E+03  0.7818609E-02  0.9559947E-01
        1   -1    0    0  501    0  0.00000000000E+00  0.00000000000E+00  0.28921209781E+03  0.28921209785E+03  0.50400001928E-02 0. -1.
       -1   -1    0    0    0  501  0.00000000000E+00  0.00000000000E+00 -0.55329457521E+03  0.55329457523E+03  0.50400001928E-02 0.  1.
    10030    2    1    2    0    0  0.00000000000E+00  0.00000000000E+00 -0.26408247740E+03  0.84250667309E+03  0.80004871060E+03 0.  0.
        4    1    3    3  502    0  0.17578804904E+03 -0.10081512236E+03  0.23115735120E+03  0.30740927279E+03  0.12699999809E+01 0. -1.
       -4    1    3    3    0  502 -0.17578804904E+03  0.10081512236E+03 -0.49523982860E+03  0.53509740030E+03  0.12699999809E+01 0.  1.
</event>
<event>
 5   0  0.1712793E-03  0.7949946E+03  0.7818609E-02  0.9567291E-01
        1   -1    0    0  501    0  0.00000000000E+00  0.00000000000E+00  0.39085724444E+03  0.39085724447E+03  0.50400001928E-02 0. -1.
       -1   -1    0    0    0  501  0.00000000000E+00  0.00000000000E+00 -0.40425013983E+03  0.40425013986E+03  0.50400001928E-02 0.  1.
    10030    2    1    2    0    0  0.00000000000E+00  0.00000000000E+00 -0.13392895396E+02  0.79510738433E+03  0.79499458047E+03 0.  0.
        4    1    3    3  502    0  0.32590100371E+03  0.13512067945E+03  0.17645086343E+03  0.39446873430E+03  0.12699999809E+01 0.  1.
       -4    1    3    3    0  502 -0.32590100371E+03 -0.13512067945E+03 -0.18984375883E+03  0.40063865003E+03  0.12699999809E+01 0. -1.
</event>
<event>
 5   0  0.2763587E-03  0.8002295E+03  0.7818609E-02  0.9559685E-01
       -2   -1    0    0    0  501  0.00000000000E+00  0.00000000000E+00  0.97303993940E+02  0.97303993974E+02  0.25500000920E-02 0.  1.
        2   -1    0    0  501    0  0.00000000000E+00  0.00000000000E+00 -0.16452747574E+04  0.16452747574E+04  0.25500000920E-02 0. -1.
    10030    2    1    2    0    0  0.00000000000E+00  0.00000000000E+00 -0.15479707635E+04  0.17425787514E+04  0.80022947973E+03 0.  0.
        3    1    3    3  502    0  0.22719997077E+03 -0.25765938732E+03 -0.32726645589E+03  0.47445919735E+03  0.10100000352E+00 0.  1.
       -3    1    3    3    0  502 -0.22719997077E+03  0.25765938732E+03 -0.12207043076E+04  0.12681195540E+04  0.10100000352E+00 0. -1.
</event>
<event>
 5   0  0.2768834E-03  0.7996896E+03  0.7818609E-02  0.9560466E-01
        2   -1    0    0  501    0  0.00000000000E+00  0.00000000000E+00  0.44914766459E+03  0.44914766460E+03  0.25500000920E-02 0. -1.
       -2   -1    0    0    0  501  0.00000000000E+00  0.00000000000E+00 -0.35595393163E+03  0.35595393164E+03  0.25500000920E-02 0.  1.
    10030    2    1    2    0    0  0.00000000000E+00  0.00000000000E+00  0.93193732966E+02  0.80510159624E+03  0.79968963255E+03 0.  0.
        4    1    3    3  502    0  0.25742461796E+03 -0.25012441529E+03  0.22398407776E+03  0.42308407799E+03  0.12699999809E+01 0. -1.
       -4    1    3    3    0  502 -0.25742461796E+03  0.25012441529E+03 -0.13079034480E+03  0.38201751825E+03  0.12699999809E+01 0.  1.
</event>
<event>
 5   0  0.1640035E-03  0.7988534E+03  0.7818609E-02  0.9561678E-01
        1   -1    0    0  501    0  0.00000000000E+00  0.00000000000E+00  0.44221055370E+03  0.44221055373E+03  0.50400001928E-02 0.  1.
       -1   -1    0    0    0  501  0.00000000000E+00  0.00000000000E+00 -0.36078215047E+03  0.36078215051E+03  0.50400001928E-02 0. -1.
    10030    2    1    2    0    0  0.00000000000E+00  0.00000000000E+00  0.81428403233E+02  0.80299270424E+03  0.79885336465E+03 0.  0.
        5    1    3    3  502    0  0.14811521763E+03 -0.20248927479E+03 -0.27166861971E+03  0.36981881109E+03  0.46999998093E+01 0. -1.
       -5    1    3    3    0  502 -0.14811521763E+03  0.20248927479E+03  0.35309702295E+03  0.43317389315E+03  0.46999998093E+01 0.  1.
</event>
<event>
 5   0  0.2910501E-03  0.7958802E+03  0.7818609E-02  0.9566000E-01
        2   -1    0    0  501    0  0.00000000000E+00  0.00000000000E+00  0.63178443603E+03  0.63178443604E+03  0.25500000920E-02 0. -1.
       -2   -1    0    0    0  501  0.00000000000E+00  0.00000000000E+00 -0.25064928729E+03  0.25064928731E+03  0.25500000920E-02 0.  1.
    10030    2    1    2    0    0  0.00000000000E+00  0.00000000000E+00  0.38113514874E+03  0.88243372334E+03  0.79588018853E+03 0.  0.
        1    1    3    3  502    0  0.20116172302E+03 -0.32621994203E+03  0.30931707980E+03  0.49250639109E+03  0.50400001928E-02 0.  1.
       -1    1    3    3    0  502 -0.20116172302E+03  0.32621994203E+03  0.71818068939E+02  0.38992733225E+03  0.50400001928E-02 0. -1.
</event>
<event>
 5   0  0.2763587E-03  0.7989378E+03  0.7818609E-02  0.9561556E-01
       -2   -1    0    0    0  501  0.00000000000E+00  0.00000000000E+00  0.20579499510E+03  0.20579499511E+03  0.25500000920E-02 0. -1.
        2   -1    0    0  501    0  0.00000000000E+00  0.00000000000E+00 -0.77540953782E+03  0.77540953783E+03  0.25500000920E-02 0.  1.
    10030    2    1    2    0    0  0.00000000000E+00  0.00000000000E+00 -0.56961454272E+03  0.98120453294E+03  0.79893779994E+03 0.  0.
        3    1    3    3  502    0  0.25222471634E+03  0.30880726278E+03 -0.31479389324E+03  0.50801027401E+03  0.10100000352E+00 0. -1.
       -3    1    3    3    0  502 -0.25222471634E+03 -0.30880726278E+03 -0.25482064948E+03  0.47319425893E+03  0.10100000352E+00 0.  1.
</event>
<event>
 5   0  0.1617491E-03  0.8012219E+03  0.7818609E-02  0.9558250E-01
       -1   -1    0    0    0  501  0.00000000000E+00  0.00000000000E+00  0.10836444443E+03  0.10836444455E+03  0.50400001928E-02 0. -1.
        1   -1    0    0  501    0  0.00000000000E+00  0.00000000000E+00 -0.14810129148E+04  0.14810129148E+04  0.50400001928E-02 0.  1.
    10030    2    1    2    0    0  0.00000000000E+00  0.00000000000E+00 -0.13726484704E+04  0.15893773593E+04  0.80122192132E+03 0.  0.
        1    1    3    3  502    0  0.87126443313E+02  0.18348366400E+03 -0.13712923826E+04  0.13862539705E+04  0.50400001928E-02 0.  1.
       -1    1    3    3    0  502 -0.87126443313E+02 -0.18348366400E+03 -0.13560877044E+01  0.20312338880E+03  0.50400001928E-02 0. -1.
</event>
<event>
 5   0  0.1712793E-03  0.8015104E+03  0.7818609E-02  0.9557833E-01
       -1   -1    0    0    0  501  0.00000000000E+00  0.00000000000E+00  0.14306801364E+03  0.14306801373E+03  0.50400001928E-02 0.  1.
        1   -1    0    0  501    0  0.00000000000E+00  0.00000000000E+00 -0.11225759975E+04  0.11225759975E+04  0.50400001928E-02 0. -1.
    10030    2    1    2    0    0  0.00000000000E+00  0.00000000000E+00 -0.97950798389E+03  0.12656440113E+04  0.80151036971E+03 0.  0.
        4    1    3    3  502    0 -0.10853134637E+03  0.24421833042E+03 -0.96131697908E+03  0.99777431979E+03  0.12699999809E+01 0. -1.
       -4    1    3    3    0  502  0.10853134637E+03 -0.24421833042E+03 -0.18191004806E+02  0.26786969148E+03  0.12699999809E+01 0.  1.
</event>
<event>
 5   0  0.1656051E-03  0.8009699E+03  0.7818609E-02  0.9558614E-01
        1   -1    0    0  501    0  0.00000000000E+00  0.00000000000E+00  0.73907949281E+03  0.73907949283E+03  0.50400001928E-02 0.  1.
       -1   -1    0    0    0  501  0.00000000000E+00  0.00000000000E+00 -0.21701075513E+03  0.21701075519E+03  0.50400001928E-02 0. -1.
    10030    2    1    2    0    0  0.00000000000E+00  0.00000000000E+00  0.52206873767E+03  0.95609024802E+03  0.80096990924E+03 0.  0.
        3    1    3    3  502    0 -0.34596849427E+03 -0.85033489225E+02  0.47939132963E+03  0.59727795074E+03  0.10100000352E+00 0.  1.
       -3    1    3    3    0  502  0.34596849427E+03  0.85033489225E+02  0.42677408048E+02  0.35881229728E+03  0.10100000352E+00 0. -1.
</event>
<event>
 5   0  0.1640035E-03  0.7986733E+03  0.7818609E-02  0.9561939E-01
        1   -1    0    0  501    0  0.00000000000E+00  0.00000000000E+00  0.48406676522E+03  0.48406676525E+03  0.50400001928E-02 0.  1.
       -1   -1    0    0    0  501  0.00000000000E+00  0.00000000000E+00 -0.32943754040E+03  0.32943754044E+03  0.50400001928E-02 0. -1.
    10030    2    1    2    0    0  0.00000000000E+00  0.00000000000E+00  0.15462922482E+03  0.81350430569E+03  0.79867331132E+03 0.  0.
        5    1    3    3  502    0 -0.26265227810E+03  0.29823340005E+03  0.37625746712E+02  0.39920817490E+03  0.46999998093E+01 0. -1.
       -5    1    3    3    0  502  0.26265227810E+03 -0.29823340005E+03  0.11700347811E+03  0.41429613079E+03  0.46999998093E+01 0.  1.
</event>
<event>
 5   0  0.1095350E-03  0.7941574E+03  0.7818609E-02  0.9568513E-01
       -3   -1    0    0    0  501  0.00000000000E+00  0.00000000000E+00  0.21600751348E+03  0.21600753709E+03  0.10100000352E+00 0.  1.
        3   -1    0    0  501    0  0.00000000000E+00  0.00000000000E+00 -0.72993518355E+03  0.72993519053E+03  0.10100000352E+00 0. -1.
    10030    2    1    2    0    0  0.00000000000E+00  0.00000000000E+00 -0.51392767007E+03  0.94594272763E+03  0.79415741128E+03 0.  0.
        1    1    3    3  502    0 -0.32097524476E+03 -0.10625638391E+03 -0.50498155515E+03  0.60771860095E+03  0.50400001928E-02 0. -1.
       -1    1    3    3    0  502  0.32097524476E+03  0.10625638391E+03 -0.89461149200E+01  0.33822412668E+03  0.50400001928E-02 0.  1.
</event>
<event>
 5   0  0.1656051E-03  0.7987544E+03  0.7818609E-02  0.9561822E-01
        1   -1    0    0  501    0  0.00000000000E+00  0.00000000000E+00  0.53073956680E+03  0.53073956682E+03  0.50400001928E-02 0. -1.
       -1   -1    0    0    0  501  0.00000000000E+00  0.00000000000E+00 -0.30052810812E+03  0.30052810817E+03  0.50400001928E-02 0.  1.
    10030    2    1    2    0    0  0.00000000000E+00  0.00000000000E+00  0.23021145867E+03  0.83126767499E+03  0.79875442520E+03 0.  0.
        3    1    3    3  502    0 -0.80345701774E+02 -0.28570206213E+03 -0.16301971596E+03  0.33860971352E+03  0.10100000352E+00 0.  1.
       -3    1    3    3    0  502  0.80345701774E+02  0.28570206213E+03  0.39323117463E+03  0.49265796147E+03  0.10100000352E+00 0. -1.
</event>
<event>
 5   0  0.2768834E-03  0.8002413E+03  0.7818609E-02  0.9559668E-01
       -2   -1    0    0    0  501  0.00000000000E+00  0.00000000000E+00  0.23468737543E+03  0.23468737544E+03  0.25500000920E-02 0. -1.
        2   -1    0    0  501    0  0.00000000000E+00  0.00000000000E+00 -0.68216931279E+03  0.68216931279E+03  0.25500000920E-02 0.  1.
    10030    2    1    2    0    0  0.00000000000E+00  0.00000000000E+00 -0.44748193736E+03  0.91685668823E+03  0.80024127767E+03 0.  0.
        4    1    3    3  502    0 -0.11462784709E+03  0.25453948976E+03 -0.55215672453E+03  0.61871524672E+03  0.12699999809E+01 0.  1.
       -4    1    3    3    0  502  0.11462784709E+03 -0.25453948976E+03  0.10467478717E+03  0.29814144151E+03  0.12699999809E+01 0. -1.
</event>
<event>
 5   0  0.2910501E-03  0.7976623E+03  0.7818609E-02  0.9563407E-01
       -2   -1    0    0    0  501  0.00000000000E+00  0.00000000000E+00  0.13595201844E+03  0.13595201847E+03  0.25500000920E-02 0. -1.
        2   -1    0    0  501    0  0.00000000000E+00  0.00000000000E+00 -0.11700178816E+04  0.11700178816E+04  0.25500000920E-02 0.  1.
    10030    2    1    2    0    0  0.00000000000E+00  0.00000000000E+00 -0.10340658631E+04  0.13059699000E+04  0.79766231610E+03 0.  0.
        1    1    3    3  502    0 -0.14346367392E+03 -0.26776707267E+03 -0.94014402114E+03  0.98800395316E+03  0.50400001928E-02 0.  1.
       -1    1    3    3    0  502  0.14346367392E+03  0.26776707267E+03 -0.93921841964E+02  0.31796594686E+03  0.50400001928E-02 0. -1.
</event>
<event>
 5   0  0.1637228E-03  0.7990942E+03  0.7818609E-02  0.9561329E-01
        1   -1    0    0  501    0  0.00000000000E+00  0.00000000000E+00  0.96695081179E+02  0.96695081310E+02  0.50400001928E-02 0. -1.
       -1   -1    0    0    0  501  0.00000000000E+00  0.00000000000E+00 -0.16509411313E+04  0.16509411313E+04  0.50400001928E-02 0.  1.
    10030    2    1    2    0    0  0.00000000000E+00  0.00000000000E+00 -0.15542460501E+04  0.17476362126E+04  0.79909420430E+03 0.  0.
        2    1    3    3  502    0  0.24942310871E+03  0.22175760144E+03 -0.29672660832E+03  0.44658146070E+03  0.25500000920E-02 0.  1.
       -2    1    3    3    0  502 -0.24942310871E+03 -0.22175760144E+03 -0.12575194418E+04  0.13010547519E+04  0.25500000920E-02 0. -1.
</event>
<event>
 5   0  0.2690809E-03  0.7992711E+03  0.7818609E-02  0.9561073E-01
       -2   -1    0    0    0  501  0.00000000000E+00  0.00000000000E+00  0.18740302533E+03  0.18740302535E+03  0.25500000920E-02 0.  1.
        2   -1    0    0  501    0  0.00000000000E+00  0.00000000000E+00 -0.85221974147E+03  0.85221974147E+03  0.25500000920E-02 0. -1.
    10030    2    1    2    0    0  0.00000000000E+00  0.00000000000E+00 -0.66481671614E+03  0.10396227668E+04  0.79927106242E+03 0.  0.
        5    1    3    3  502    0  0.44727672101E+02 -0.18778237707E+03 -0.78751629609E+03  0.81084326007E+03  0.46999998093E+01 0. -1.
       -5    1    3    3    0  502 -0.44727672101E+02  0.18778237707E+03  0.12269957995E+03  0.22877950675E+03  0.46999998093E+01 0.  1.
</event>
<event>
 5   0  0.1637228E-03  0.7988474E+03  0.7818609E-02  0.9561687E-01
       -1   -1    0    0    0  501  0.00000000000E+00  0.00000000000E+00  0.57017542795E+03  0.57017542797E+03  0.50400001928E-02 0.  1.
        1   -1    0    0  501    0  0.00000000000E+00  0.00000000000E+00 -0.27980739481E+03  0.27980739485E+03  0.50400001928E-02 0. -1.
    10030    2    1    2    0    0  0.00000000000E+00  0.00000000000E+00  0.29036803314E+03  0.84998282283E+03  0.79884742250E+03 0.  0.
        2    1    3    3  502    0 -0.27131205891E+03  0.10085695061E+03 -0.14767428038E+03  0.32494622769E+03  0.25500000920E-02 0. -1.
       -2    1    3    3    0  502  0.27131205891E+03 -0.10085695061E+03  0.43804231352E+03  0.52503659514E+03  0.25500000920E-02 0.  1.
</event>
<event>
 5   0  0.2873212E-03  0.7983830E+03  0.7818609E-02  0.9562361E-01
        2   -1    0    0  501    0  0.00000000000E+00  0.00000000000E+00  0.30814404776E+03  0.30814404777E+03  0.25500000920E-02 0. -1.
       -2   -1    0    0    0  501  0.00000000000E+00  0.00000000000E+00 -0.51714084047E+03  0.51714084048E+03  0.25500000920E-02 0.  1.
    10030    2    1    2    0    0  0.00000000000E+00  0.00000000000E+00 -0.20899679271E+03  0.82528488825E+03  0.79838304554E+03 0.  0.
        2    1    3    3  502    0  0.31981200357E+03  0.12787787678E+02  0.14209944535E+03  0.35019351438E+03  0.25500000920E-02 0. -1.
       -2    1    3    3    0  502 -0.31981200357E+03 -0.12787787678E+02 -0.35109623806E+03  0.47509137387E+03  0.25500000920E-02 0.  1.
</event>
<event>
 5   0  0.2763587E-03  0.8001806E+03  0.7818609E-02  0.9559756E-01
       -2   -1    0    0    0  501  0.00000000000E+00  0.00000000000E+00  0.17415120513E+03  0.17415120515E+03  0.25500000920E-02 0.  1.
        2   -1    0    0  501    0  0.00000000000E+00  0.00000000000E+00 -0.91915674190E+03  0.91915674191E+03  0.25500000920E-02 0. -1.
    10030    2    1    2    0    0  0.00000000000E+00  0.00000000000E+00 -0.74500553677E+03  0.10933079471E+04  0.80018061541E+03 0.  0.
        3    1    3    3  502    0  0.21887416917E+03  0.14976292111E+02  0.84639219148E+02  0.23514676029E+03  0.10100000352E+00 0.  1.
       -3    1    3    3    0  502 -0.21887416917E+03 -0.14976292111E+02 -0.82964475592E+03  0.85816118677E+03  0.10100000352E+00 0. -1.
</event>
<event>
 5   0  0.1095350E-03  0.8013758E+03  0.7818609E-02  0.9558028E-01
        3   -1    0    0  501    0  0.00000000000E+00  0.00000000000E+00  0.39703645744E+03  0.39703647028E+03  0.10100000352E+00 0. -1.
       -3   -1    0    0    0  501  0.00000000000E+00  0.00000000000E+00 -0.40437293359E+03  0.40437294620E+03  0.10100000352E+00 0.  1.
    10030    2    1    2    0    0  0.00000000000E+00  0.00000000000E+00 -0.73364761472E+01  0.80140941648E+03  0.80137583501E+03 0.  0.
        4    1    3    3  502    0  0.28481179714E+03  0.78851563393E+02 -0.27426018482E+03  0.40318183332E+03  0.12699999809E+01 0.  1.
       -4    1    3    3    0  502 -0.28481179714E+03 -0.78851563393E+02  0.26692370867E+03  0.39822758316E+03  0.12699999809E+01 0. -1.
</event>
<event>
 5   0  0.2910501E-03  0.8006983E+03  0.7818609E-02  0.9559007E-01
        2   -1    0    0  501    0  0.00000000000E+00  0.00000000000E+00  0.64594582033E+03  0.64594582033E+03  0.25500000920E-02 0. -1.
       -2   -1    0    0    0  501  0.00000000000E+00  0.00000000000E+00 -0.24813142823E+03  0.24813142824E+03  0.25500000920E-02 0.  1.
    10030    2    1    2    0    0  0.00000000000E+00  0.00000000000E+00  0.39781439210E+03  0.89407724858E+03  0.80069834261E+03 0.  0.
        1    1    3    3  502    0 -0.17259281778E+02 -0.27428533818E+03 -0.12616044285E+03  0.30240169793E+03  0.50400001928E-02 0.  1.
       -1    1    3    3    0  502  0.17259281778E+02  0.27428533818E+03  0.52397483494E+03  0.59167555064E+03  0.50400001928E-02 0. -1.
</event>
<event>
 5   0  0.2768834E-03  0.7995363E+03  0.7818609E-02  0.9560689E-01
        2   -1    0    0  501    0  0.00000000000E+00  0.00000000000E+00  0.39340833649E+03  0.39340833650E+03  0.25500000920E-02 0. -1.
       -2   -1    0    0    0  501  0.00000000000E+00  0.00000000000E+00 -0.40623079500E+03  0.40623079501E+03  0.25500000920E-02 0.  1.
    10030    2    1    2    0    0  0.00000000000E+00  0.00000000000E+00 -0.12822458509E+02  0.79963913151E+03  0.79953631887E+03 0.  0.
        4    1    3    3  502    0 -0.75655596465E+02 -0.38815478641E+03 -0.64942774812E+02  0.40075813702E+03  0.12699999809E+01 0.  1.
       -4    1    3    3    0  502  0.75655596465E+02  0.38815478641E+03  0.52120316303E+02  0.39888099449E+03  0.12699999809E+01 0. -1.
</event>
<event>
 5   0  0.1640035E-03  0.8006055E+03  0.7818609E-02  0.9559141E-01
       -1   -1    0    0    0  501  0.00000000000E+00  0.00000000000E+00  0.17467235003E+03  0.17467235011E+03  0.50400001928E-02 0. -1.
        1   -1    0    0  501    0  0.00000000000E+00  0.00000000000E+00 -0.91738781372E+03  0.91738781373E+03  0.50400001928E-02 0.  1.
    10030    2    1    2    0    0  0.00000000000E+00  0.00000000000E+00 -0.74271546369E+03  0.10920601638E+04  0.80060548428E+03 0.  0.
        5    1    3    3  502    0  0.30584052148E+03 -0.25822812033E+03 -0.37148463750E+03  0.54611639108E+03  0.46999998093E+01 0. -1.
       -5    1    3    3    0  502 -0.30584052148E+03  0.25822812033E+03 -0.37123082618E+03  0.54594377276E+03  0.46999998093E+01 0.  1.
</event>
<event>
 5   0  0.1637228E-03  0.7990909E+03  0.7818609E-02  0.9561334E-01
        1   -1    0    0  501    0  0.00000000000E+00  0.00000000000E+00  0.37823762540E+03  0.37823762544E+03  0.50400001928E-02 0. -1.
       -1   -1    0    0    0  501  0.00000000000E+00  0.00000000000E+00 -0.42205368177E+03  0.42205368180E+03  0.50400001928E-02 0.  1.
    10030    2    1    2    0    0  0.00000000000E+00  0.00000000000E+00 -0.43816056371E+02  0.80029130724E+03  0.79909093954E+03 0.  0.
        2    1    3    3  502    0 -0.27897634377E+03 -0.81215122543E+02  0.25275361853E+03  0.38510789164E+03  0.25500000920E-02 0. -1.
       -2    1    3    3    0  502  0.27897634377E+03  0.81215122543E+02 -0.29656967490E+03  0.41518341560E+03  0.25500000920E-02 0.  1.
</event>
<event>
 5   0  0.1640035E-03  0.7911446E+03  0.7818609E-02  0.9572924E-01
       -1   -1    0    0    0  501  0.00000000000E+00  0.00000000000E+00  0.18046039805E+03  0.18046039812E+03  0.50400001928E-02 0. -1.
        1   -1    0    0  501    0  0.00000000000E+00  0.00000000000E+00 -0.86710132372E+03  0.86710132374E+03  0.50400001928E-02 0.  1.
    10030    2    1    2    0    0  0.00000000000E+00  0.00000000000E+00 -0.68664092567E+03  0.10475617219E+04  0.79114461401E+03 0.  0.
        5    1    3    3  502    0 -0.18145660532E+02 -0.36806897011E+03 -0.53360247734E+03  0.64850422171E+03  0.46999998093E+01 0.  1.
       -5    1    3    3    0  502  0.18145660532E+02  0.36806897011E+03 -0.15303844834E+03  0.39905750015E+03  0.46999998093E+01 0. -1.
</event>
<event>
 5   0  0.2763587E-03  0.8027195E+03  0.7818609E-02  0.9556089E-01
        2   -1    0    0  501    0  0.00000000000E+00  0.00000000000E+00  0.60543159184E+03  0.60543159185E+03  0.25500000920E-02 0.  1.
       -2   -1    0    0    0  501  0.00000000000E+00  0.00000000000E+00 -0.26607409616E+03  0.26607409617E+03  0.25500000920E-02 0. -1.
    10030    2    1    2    0    0  0.00000000000E+00  0.00000000000E+00  0.33935749568E+03  0.87150568802E+03  0.80271953656E+03 0.  0.
        3    1    3    3  502    0 -0.14486491672E+03 -0.14770668952E+03  0.54307853239E+03  0.58115179839E+03  0.10100000352E+00 0.  1.
       -3    1    3    3    0  502  0.14486491672E+03  0.14770668952E+03 -0.20372103671E+03  0.29035388963E+03  0.10100000352E+00 0. -1.
</event>
<event>
 5   0  0.2873212E-03  0.7900350E+03  0.7818609E-02  0.9574554E-01
        2   -1    0    0  501    0  0.00000000000E+00  0.00000000000E+00  0.36312483132E+03  0.36312483133E+03  0.25500000920E-02 0. -1.
       -2   -1    0    0    0  501  0.00000000000E+00  0.00000000000E+00 -0.42971120410E+03  0.42971120411E+03  0.25500000920E-02 0.  1.
    10030    2    1    2    0    0  0.00000000000E+00  0.00000000000E+00 -0.66586372781E+02  0.79283603544E+03  0.79003495749E+03 0.  0.
        2    1    3    3  502    0  0.84694537553E+02  0.17067898336E+03  0.31396013965E+03  0.36725393034E+03  0.25500000920E-02 0. -1.
       -2    1    3    3    0  502 -0.84694537553E+02 -0.17067898336E+03 -0.38054651243E+03  0.42558210510E+03  0.25500000920E-02 0.  1.
</event>
<event>
 5   0  0.2690809E-03  0.7950880E+03  0.7818609E-02  0.9567154E-01
       -2   -1    0    0    0  501  0.00000000000E+00  0.00000000000E+00  0.34887604397E+03  0.34887604398E+03  0.25500000920E-02 0. -1.
        2   -1    0    0  501    0  0.00000000000E+00  0.00000000000E+00 -0.45300109136E+03  0.45300109137E+03  0.25500000920E-02 0.  1.
    10030    2    1    2    0    0  0.00000000000E+00  0.00000000000E+00 -0.10412504739E+03  0.80187713535E+03  0.79508799179E+03 0.  0.
        5    1    3    3  502    0 -0.19426647572E+03  0.48553102362E+02  0.29426782783E+03  0.35596700947E+03  0.46999998093E+01 0. -1.
       -5    1    3    3    0  502  0.19426647572E+03 -0.48553102362E+02 -0.39839287522E+03  0.44591012588E+03  0.46999998093E+01 0.  1.
</event>
<event>
 5   0  0.1712793E-03  0.8166775E+03  0.7818609E-02  0.9536186E-01
        1   -1    0    0  501    0  0.00000000000E+00  0.00000000000E+00  0.25599681957E+03  0.25599681962E+03  0.50400001928E-02 0. -1.
       -1   -1    0    0    0  501  0.00000000000E+00  0.00000000000E+00 -0.65133830766E+03  0.65133830768E+03  0.50400001928E-02 0.  1.
    10030    2    1    2    0    0  0.00000000000E+00  0.00000000000E+00 -0.39534148809E+03  0.90733512730E+03  0.81667750124E+03 0.  0.
        4    1    3    3  502    0  0.39787517884E+03 -0.57913574990E+02 -0.27685905038E+03  0.48817126788E+03  0.12699999809E+01 0.  1.
       -4    1    3    3    0  502 -0.39787517884E+03  0.57913574990E+02 -0.11848243771E+03  0.41916385943E+03  0.12699999809E+01 0. -1.
</event>
<event>
 5   0  0.1617491E-03  0.7995982E+03  0.7818609E-02  0.9560599E-01
       -1   -1    0    0    0  501  0.00000000000E+00  0.00000000000E+00  0.15734482078E+03  0.15734482086E+03  0.50400001928E-02 0.  1.
        1   -1    0    0  501    0  0.00000000000E+00  0.00000000000E+00 -0.10158538185E+04  0.10158538185E+04  0.50400001928E-02 0. -1.
    10030    2    1    2    0    0  0.00000000000E+00  0.00000000000E+00 -0.85850899771E+03  0.11731986394E+04  0.79959824178E+03 0.  0.
        1    1    3    3  502    0  0.65590813409E+01 -0.15343101337E+03 -0.97085159365E+03  0.98292263904E+03  0.50400001928E-02 0. -1.
       -1    1    3    3    0  502 -0.65590813409E+01  0.15343101337E+03  0.11234259594E+03  0.19027600033E+03  0.50400001928E-02 0.  1.
</event>
<event>
 5   0  0.2873212E-03  0.8018603E+03  0.7818609E-02  0.9557328E-01
       -2   -1    0    0    0  501  0.00000000000E+00  0.00000000000E+00  0.57035248969E+03  0.57035248969E+03  0.25500000920E-02 0.  1.
        2   -1    0    0  501    0  0.00000000000E+00  0.00000000000E+00 -0.28183444810E+03  0.28183444811E+03  0.25500000920E-02 0. -1.
    10030    2    1    2    0    0  0.00000000000E+00  0.00000000000E+00  0.28851804159E+03  0.85218693780E+03  0.80186028499E+03 0.  0.
        2    1    3    3  502    0  0.29010689919E+03 -0.91571384682E+02 -0.13327796458E+03  0.33213001566E+03  0.25500000920E-02 0. -1.
       -2    1    3    3    0  502 -0.29010689919E+03  0.91571384682E+02  0.42179600617E+03  0.52005692215E+03  0.25500000920E-02 0.  1.
</event>
<event>
 5   0  0.1095350E-03  0.8015627E+03  0.7818609E-02  0.9557758E-01
       -3   -1    0    0    0  501  0.00000000000E+00  0.00000000000E+00  0.49561931072E+03  0.49561932101E+03  0.10100000352E+00 0. -1.
        3   -1    0    0  501    0  0.00000000000E+00  0.00000000000E+00 -0.32409080927E+03  0.32409082500E+03  0.10100000352E+00 0.  1.
    10030    2    1    2    0    0  0.00000000000E+00  0.00000000000E+00  0.17152850146E+03  0.81971014602E+03  0.80156265923E+03 0.  0.
        2    1    3    3  502    0 -0.96800578614E+02 -0.10048209510E+03 -0.29845278159E+03  0.32945571220E+03  0.25500000920E-02 0.  1.
       -2    1    3    3    0  502  0.96800578614E+02  0.10048209510E+03  0.46998128305E+03  0.49025443382E+03  0.25500000920E-02 0. -1.
</event>
<event>
 5   0  0.1712793E-03  0.7993540E+03  0.7818609E-02  0.9560953E-01
       -1   -1    0    0    0  501  0.00000000000E+00  0.00000000000E+00  0.40615647093E+03  0.40615647096E+03  0.50400001928E-02 0.  1.
        1   -1    0    0  501    0  0.00000000000E+00  0.00000000000E+00 -0.39330090758E+03  0.39330090761E+03  0.50400001928E-02 0. -1.
    10030    2    1    2    0    0  0.00000000000E+00  0.00000000000E+00  0.12855563351E+02  0.79945737857E+03  0.79935401083E+03 0.  0.
        4    1    3    3  502    0 -0.37211670966E+03  0.18408258133E+02  0.15111986756E+03  0.40205539028E+03  0.12699999809E+01 0.  1.
       -4    1    3    3    0  502  0.37211670966E+03 -0.18408258133E+02 -0.13826430421E+03  0.39740198829E+03  0.12699999809E+01 0. -1.
</event>
<event>
 5   0  0.2768834E-03  0.7937979E+03  0.7818609E-02  0.9569038E-01
        2   -1    0    0  501    0  0.00000000000E+00  0.00000000000E+00  0.58112914801E+03  0.58112914801E+03  0.25500000920E-02 0. -1.
       -2   -1    0    0    0  501  0.00000000000E+00  0.00000000000E+00 -0.27107363418E+03  0.27107363419E+03  0.25500000920E-02 0.  1.
    10030    2    1    2    0    0  0.00000000000E+00  0.00000000000E+00  0.31005551383E+03  0.85220278221E+03  0.79379793421E+03 0.  0.
        4    1    3    3  502    0  0.11624335722E+03  0.34352766515E+03 -0.18092573149E+02  0.36311531078E+03  0.12699999809E+01 0.  1.
       -4    1    3    3    0  502 -0.11624335722E+03 -0.34352766515E+03  0.32814808698E+03  0.48908747143E+03  0.12699999809E+01 0. -1.
</event>
<event>
 5   0  0.1640035E-03  0.8009493E+03  0.7818609E-02  0.9558644E-01
        1   -1    0    0  501    0  0.00000000000E+00  0.00000000000E+00  0.24644691833E+03  0.24644691838E+03  0.50400001928E-02 0. -1.
       -1   -1    0    0    0  501  0.00000000000E+00  0.00000000000E+00 -0.65076866405E+03  0.65076866407E+03  0.50400001928E-02 0.  1.
    10030    2    1    2    0    0  0.00000000000E+00  0.00000000000E+00 -0.40432174572E+03  0.89721558245E+03  0.80094926639E+03 0.  0.
        5    1    3    3  502    0 -0.79918484976E+02  0.35357492248E+03 -0.11545258880E+02  0.36270866139E+03  0.46999998093E+01 0. -1.
       -5    1    3    3    0  502  0.79918484976E+02 -0.35357492248E+03 -0.39277648684E+03  0.53450692106E+03  0.46999998093E+01 0.  1.
</event>
<event>
 5   0  0.2690809E-03  0.8001873E+03  0.7818609E-02  0.9559746E-01
       -2   -1    0    0    0  501  0.00000000000E+00  0.00000000000E+00  0.48324113011E+03  0.48324113012E+03  0.25500000920E-02 0. -1.
        2   -1    0    0  501    0  0.00000000000E+00  0.00000000000E+00 -0.33125267977E+03  0.33125267978E+03  0.25500000920E-02 0.  1.
    10030    2    1    2    0    0  0.00000000000E+00  0.00000000000E+00  0.15198845034E+03  0.81449380990E+03  0.80018727641E+03 0.  0.
        5    1    3    3  502    0  0.35566128517E+03  0.21861201969E+02  0.26112502741E+03  0.44179320033E+03  0.46999998093E+01 0. -1.
       -5    1    3    3    0  502 -0.35566128517E+03 -0.21861201969E+02 -0.10913657707E+03  0.37270060957E+03  0.46999998093E+01 0.  1.
</event>
<event>
 5   0  0.2910501E-03  0.8000855E+03  0.7818609E-02  0.9559893E-01
       -2   -1    0    0    0  501  0.00000000000E+00  0.00000000000E+00  0.10602092338E+03  0.10602092341E+03  0.25500000920E-02 0.  1.
        2   -1    0    0  501    0  0.00000000000E+00  0.00000000000E+00 -0.15094586193E+04  0.15094586193E+04  0.25500000920E-02 0. -1.
    10030    2    1    2    0    0  0.00000000000E+00  0.00000000000E+00 -0.14034376959E+04  0.16154795427E+04  0.80008548706E+03 0.  0.
        1    1    3    3  502    0 -0.23756324554E+03 -0.24373275073E+03 -0.11261801611E+04  0.11764878685E+04  0.50400001928E-02 0. -1.
       -1    1    3    3    0  502  0.23756324554E+03  0.24373275073E+03 -0.27725753482E+03  0.43899167424E+03  0.50400001928E-02 0.  1.
</event>
<event>
 5   0  0.1617491E-03  0.8054411E+03  0.7818609E-02  0.9552175E-01
        1   -1    0    0  501    0  0.00000000000E+00  0.00000000000E+00  0.55144497145E+03  0.55144497148E+03  0.50400001928E-02 0.  1.
       -1   -1    0    0    0  501  0.00000000000E+00  0.00000000000E+00 -0.29410701091E+03  0.29410701095E+03  0.50400001928E-02 0. -1.
    10030    2    1    2    0    0  0.00000000000E+00  0.00000000000E+00  0.25733796055E+03  0.84555198243E+03  0.80544107733E+03 0.  0.
        1    1    3    3  502    0 -0.26832531169E+03 -0.42499524353E+02 -0.18342216502E+03  0.32779318649E+03  0.50400001928E-02 0. -1.
       -1    1    3    3    0  502  0.26832531169E+03  0.42499524353E+02  0.44076012556E+03  0.51775879594E+03  0.50400001928E-02 0.  1.
</event>
<event>
 5   0  0.1095350E-03  0.7923719E+03  0.7818609E-02  0.9571125E-01
       -3   -1    0    0    0  501  0.00000000000E+00  0.00000000000E+00  0.18558522282E+03  0.18558525031E+03  0.10100000352E+00 0.  1.
        3   -1    0    0  501    0  0.00000000000E+00  0.00000000000E+00 -0.84577469990E+03  0.84577470593E+03  0.10100000352E+00 0. -1.
    10030    2    1    2    0    0  0.00000000000E+00  0.00000000000E+00 -0.66018947708E+03  0.10313599562E+04  0.79237189103E+03 0.  0.
        1    1    3    3  502    0 -0.15468223689E+03  0.33185170894E+03 -0.13307729911E+03  0.38956606462E+03  0.50400001928E-02 0.  1.
       -1    1    3    3    0  502  0.15468223689E+03 -0.33185170894E+03 -0.52711217797E+03  0.64179389162E+03  0.50400001928E-02 0. -1.
</event>
<event>
 5   0  0.1637228E-03  0.8002053E+03  0.7818609E-02  0.9559720E-01
        1   -1    0    0  501    0  0.00000000000E+00  0.00000000000E+00  0.89397637689E+03  0.89397637691E+03  0.50400001928E-02 0.  1.
       -1   -1    0    0    0  501  0.00000000000E+00  0.00000000000E+00 -0.17906751681E+03  0.17906751689E+03  0.50400001928E-02 0. -1.
    10030    2    1    2    0    0  0.00000000000E+00  0.00000000000E+00  0.71490886008E+03  0.10730438938E+04  0.80020529852E+03 0.  0.
        2    1    3    3  502    0 -0.39386672825E+03  0.52913590779E+02  0.29525809997E+03  0.49508402652E+03  0.25500000920E-02 0.  1.
       -2    1    3    3    0  502  0.39386672825E+03 -0.52913590779E+02  0.41965076011E+03  0.57795986727E+03  0.25500000920E-02 0. -1.
</event>
<event>
 5   0  0.1712793E-03  0.8022601E+03  0.7818609E-02  0.9556751E-01
       -1   -1    0    0    0  501  0.00000000000E+00  0.00000000000E+00  0.27539188210E+03  0.27539188214E+03  0.50400001928E-02 0.  1.
        1   -1    0    0  501    0  0.00000000000E+00  0.00000000000E+00 -0.58427763577E+03  0.58427763579E+03  0.50400001928E-02 0. -1.
    10030    2    1    2    0    0  0.00000000000E+00  0.00000000000E+00 -0.30888575367E+03  0.85966951794E+03  0.80226010199E+03 0.  0.
        4    1    3    3  502    0  0.34738720529E+03  0.48256277973E+02 -0.36304546925E+03  0.50478724668E+03  0.12699999809E+01 0. -1.
       -4    1    3    3    0  502 -0.34738720529E+03 -0.48256277973E+02  0.54159715577E+02  0.35488227126E+03  0.12699999809E+01 0.  1.
</event>
<event>
 5   0  0.1712793E-03  0.8000914E+03  0.7818609E-02  0.9559885E-01
        1   -1    0    0  501    0  0.00000000000E+00  0.00000000000E+00  0.33103194107E+03  0.33103194111E+03  0.50400001928E-02 0.  1.
       -1   -1    0    0    0  501  0.00000000000E+00  0.00000000000E+00 -0.48344751635E+03  0.48344751637E+03  0.50400001928E-02 0. -1.
    10030    2    1    2    0    0  0.00000000000E+00  0.00000000000E+00 -0.15241557527E+03  0.81447945748E+03  0.80009141920E+03 0.  0.
        4    1    3    3  502    0  0.28836229713E+02  0.38864747168E+03  0.15730062865E+02  0.39003516914E+03  0.12699999809E+01 0.  1.
       -4    1    3    3    0  502 -0.28836229713E+02 -0.38864747168E+03 -0.16814563814E+03  0.42444428835E+03  0.12699999809E+01 0. -1.
</event>
<event>
 5   0  0.1617491E-03  0.7984979E+03  0.7818609E-02  0.9562194E-01
        1   -1    0    0  501    0  0.00000000000E+00  0.00000000000E+00  0.28500011808E+03  0.28500011813E+03  0.50400001928E-02 0.  1.
       -1   -1    0    0    0  501  0.00000000000E+00  0.00000000000E+00 -0.55929701942E+03  0.55929701944E+03  0.50400001928E-02 0. -1.
    10030    2    1    2    0    0  0.00000000000E+00  0.00000000000E+00 -0.27429690133E+03  0.84429713757E+03  0.79849788129E+03 0.  0.
        1    1    3    3  502    0  0.84211267472E+02 -0.37403286911E+03 -0.25492675512E+03  0.46041261413E+03  0.50400001928E-02 0.  1.
       -1    1    3    3    0  502 -0.84211267472E+02  0.37403286911E+03 -0.19370146214E+02  0.38388452344E+03  0.50400001928E-02 0. -1.
</event>
<event>
 5   0  0.2690809E-03  0.7864846E+03  0.7818609E-02  0.9579789E-01
        2   -1    0    0  501    0  0.00000000000E+00  0.00000000000E+00  0.72993951872E+03  0.72993951872E+03  0.25500000920E-02 0.  1.
       -2   -1    0    0    0  501  0.00000000000E+00  0.00000000000E+00 -0.21185251847E+03  0.21185251849E+03  0.25500000920E-02 0. -1.
    10030    2    1    2    0    0  0.00000000000E+00  0.00000000000E+00  0.51808700025E+03  0.94179203721E+03  0.78648464799E+03 0.  0.
        5    1    3    3  502    0  0.26300710041E+03 -0.20053645614E+03  0.43738195846E+01  0.33080028023E+03  0.46999998093E+01 0. -1.
       -5    1    3    3    0  502 -0.26300710041E+03  0.20053645614E+03  0.51371318066E+03  0.61099175697E+03  0.46999998093E+01 0.  1.
</event>
<event>
 5   0  0.2873212E-03  0.8001961E+03  0.7818609E-02  0.9559733E-01
        2   -1    0    0  501    0  0.00000000000E+00  0.00000000000E+00  0.20552162356E+04  0.20552162356E+04  0.25500000920E-02 0.  1.
       -2   -1    0    0    0  501  0.00000000000E+00  0.00000000000E+00 -0.77888861788E+02  0.77888861830E+02  0.25500000920E-02 0. -1.
    10030    2    1    2    0    0  0.00000000000E+00  0.00000000000E+00  0.19773273738E+04  0.21331050974E+04  0.80019610938E+03 0.  0.
        2    1    3    3  502    0 -0.14747971798E+03  0.17660278816E+03  0.11611250284E+03  0.25772257434E+03  0.25500000920E-02 0. -1.
       -2    1    3    3    0  502  0.14747971798E+03 -0.17660278816E+03  0.18612148710E+04  0.18753825231E+04  0.25500000920E-02 0.  1.
</event>
<event>
 5   0  0.1637228E-03  0.8002360E+03  0.7818609E-02  0.9559676E-01
       -1   -1    0    0    0  501  0.00000000000E+00  0.00000000000E+00  0.50431323312E+03  0.50431323315E+03  0.50400001928E-02 0. -1.
        1   -1    0    0  501    0  0.00000000000E+00  0.00000000000E+00 -0.31745032097E+03  0.31745032101E+03  0.50400001928E-02 0.  1.
    10030    2    1    2    0    0  0.00000000000E+00  0.00000000000E+00  0.18686291215E+03  0.82176355415E+03  0.80023595957E+03 0.  0.
        2    1    3    3  502    0 -0.13977947679E+03 -0.32384221195E+03  0.28741073421E+03  0.45499122027E+03  0.25500000920E-02 0. -1.
       -2    1    3    3    0  502  0.13977947679E+03  0.32384221195E+03 -0.10054782206E+03  0.36677233388E+03  0.25500000920E-02 0.  1.
</event>
<event>
 5   0  0.1617491E-03  0.7965675E+03  0.7818609E-02  0.9564999E-01
        1   -1    0    0  501    0  0.00000000000E+00  0.00000000000E+00  0.13425420371E+04  0.13425420371E+04  0.50400001928E-02 0. -1.
       -1   -1    0    0    0  501  0.00000000000E+00  0.00000000000E+00 -0.11815641956E+03  0.11815641967E+03  0.50400001928E-02 0.  1.
    10030    2    1    2    0    0  0.00000000000E+00  0.00000000000E+00  0.12243856176E+04  0.14606984568E+04  0.79656753713E+03 0.  0.
        1    1    3    3  502    0  0.98643452373E+02  0.36012297306E+03  0.86635534010E+03  0.94339316393E+03  0.50400001928E-02 0. -1.
       -1    1    3    3    0  502 -0.98643452373E+02 -0.36012297306E+03  0.35803027746E+03  0.51730529286E+03  0.50400001928E-02 0.  1.
</event>
<event>
 5   0  0.1656051E-03  0.8042401E+03  0.7818609E-02  0.9553900E-01
        1   -1    0    0  501    0  0.00000000000E+00  0.00000000000E+00  0.68371931020E+03  0.68371931022E+03  0.50400001928E-02 0. -1.
       -1   -1    0    0    0  501  0.00000000000E+00  0.00000000000E+00 -0.23650136459E+03  0.23650136465E+03  0.50400001928E-02 0.  1.
    10030    2    1    2    0    0  0.00000000000E+00  0.00000000000E+00  0.44721794561E+03  0.92022067486E+03  0.80424013800E+03 0.  0.
        3    1    3    3  502    0  0.26622043514E+03  0.78830164740E+01  0.56832830058E+03  0.62764044601E+03  0.10100000352E+00 0. -1.
       -3    1    3    3    0  502 -0.26622043514E+03 -0.78830164740E+01 -0.12111035497E+03  0.29258022885E+03  0.10100000352E+00 0.  1.
</event>
<event>
 5   0  0.1617491E-03  0.7998178E+03  0.7818609E-02  0.9560281E-01
        1   -1    0    0  501    0  0.00000000000E+00  0.00000000000E+00  0.87029592955E+03  0.87029592956E+03  0.50400001928E-02 0.  1.
       -1   -1    0    0    0  501  0.00000000000E+00  0.00000000000E+00 -0.18376180047E+03  0.18376180054E+03  0.50400001928E-02 0. -1.
    10030    2    1    2    0    0  0.00000000000E+00  0.00000000000E+00  0.68653412907E+03  0.10540577301E+04  0.79981784677E+03 0.  0.
        1    1    3    3  502    0  0.25110451825E+03  0.38881623452E+02  0.75023549917E+03  0.79209757225E+03  0.50400001928E-02 0.  1.
       -1    1    3    3    0  502 -0.25110451825E+03 -0.38881623452E+02 -0.63701370094E+02  0.26196015786E+03  0.50400001928E-02 0. -1.
</event>
<event>
 5   0  0.1712793E-03  0.7994809E+03  0.7818609E-02  0.9560769E-01
        1   -1    0    0  501    0  0.00000000000E+00  0.00000000000E+00  0.13359437373E+04  0.13359437374E+04  0.50400001928E-02 0. -1.
       -1   -1    0    0    0  501  0.00000000000E+00  0.00000000000E+00 -0.11961013579E+03  0.11961013589E+03  0.50400001928E-02 0.  1.
    10030    2    1    2    0    0  0.00000000000E+00  0.00000000000E+00  0.12163336016E+04  0.14555538732E+04  0.79948086134E+03 0.  0.
        4    1    3    3  502    0 -0.29875822930E+03 -0.11329706958E+03  0.10454884165E+04  0.10932247470E+04  0.12699999809E+01 0. -1.
       -4    1    3    3    0  502  0.29875822930E+03  0.11329706958E+03  0.17084518503E+03  0.36232912621E+03  0.12699999809E+01 0.  1.
</event>
<event>
 5   0  0.1712793E-03  0.7984128E+03  0.7818609E-02  0.9562317E-01
        1   -1    0    0  501    0  0.00000000000E+00  0.00000000000E+00  0.53137790526E+03  0.53137790529E+03  0.50400001928E-02 0. -1.
       -1   -1    0    0    0  501  0.00000000000E+00  0.00000000000E+00 -0.29991039984E+03  0.29991039988E+03  0.50400001928E-02 0.  1.
    10030    2    1    2    0    0  0.00000000000E+00  0.00000000000E+00  0.23146750543E+03  0.83128830516E+03  0.79841282569E+03 0.  0.
        4    1    3    3  502    0  0.10557321500E+03  0.19695274025E+03  0.46015387683E+03  0.51154597924E+03  0.12699999809E+01 0. -1.
       -4    1    3    3    0  502 -0.10557321500E+03 -0.19695274025E+03 -0.22868637141E+03  0.31974232592E+03  0.12699999809E+01 0.  1.
</event>
<event>
 5   0  0.1656051E-03  0.8210652E+03  0.7818609E-02  0.9530017E-01
       -1   -1    0    0    0  501  0.00000000000E+00  0.00000000000E+00  0.63466893560E+03  0.63466893562E+03  0.50400001928E-02 0.  1.
        1   -1    0    0  501    0  0.00000000000E+00  0.00000000000E+00 -0.26555104936E+03  0.26555104941E+03  0.50400001928E-02 0. -1.
    10030    2    1    2    0    0  0.00000000000E+00  0.00000000000E+00  0.36911788624E+03  0.90021998503E+03  0.82106516642E+03 0.  0.
        3    1    3    3  502    0  0.27944774672E+03  0.31574485028E+02  0.51247204422E+03  0.58456445116E+03  0.10100000352E+00 0.  1.
       -3    1    3    3    0  502 -0.27944774672E+03 -0.31574485028E+02 -0.14335415798E+03  0.31565553387E+03  0.10100000352E+00 0. -1.
</event>
<event>
 5   0  0.2873212E-03  0.7996532E+03  0.7818609E-02  0.9560519E-01
        2   -1    0    0  501    0  0.00000000000E+00  0.00000000000E+00  0.32593297240E+03  0.32593297241E+03  0.25500000920E-02 0.  1.
       -2   -1    0    0    0  501  0.00000000000E+00  0.00000000000E+00 -0.49047300095E+03  0.49047300096E+03  0.25500000920E-02 0. -1.
    10030    2    1    2    0    0  0.00000000000E+00  0.00000000000E+00 -0.16454002855E+03  0.81640597337E+03  0.79965323257E+03 0.  0.
        2    1    3    3  502    0  0.19974300246E+03 -0.24632289465E+03  0.16632468272E+03  0.35810073380E+03  0.25500000920E-02 0. -1.
       -2    1    3    3    0  502 -0.19974300246E+03  0.24632289465E+03 -0.33086471126E+03  0.45830523958E+03  0.25500000920E-02 0.  1.
</event>
<event>
 5   0  0.1640035E-03  0.7998093E+03  0.7818609E-02  0.9560293E-01
        1   -1    0    0  501    0  0.00000000000E+00  0.00000000000E+00  0.47309753294E+03  0.47309753297E+03  0.50400001928E-02 0. -1.
       -1   -1    0    0    0  501  0.00000000000E+00  0.00000000000E+00 -0.33803541044E+03  0.33803541048E+03  0.50400001928E-02 0.  1.
    10030    2    1    2    0    0  0.00000000000E+00  0.00000000000E+00  0.13506212250E+03  0.81113294344E+03  0.79980927414E+03 0.  0.
        5    1    3    3  502    0 -0.75998471649E+02  0.37697634321E+03  0.17869451436E+03  0.42407634984E+03  0.46999998093E+01 0.  1.
       -5    1    3    3    0  502  0.75998471649E+02 -0.37697634321E+03 -0.43632391858E+02  0.38705659360E+03  0.46999998093E+01 0. -1.
</event>
<event>
 5   0  0.2910501E-03  0.8017362E+03  0.7818609E-02  0.9557507E-01
       -2   -1    0    0    0  501  0.00000000000E+00  0.00000000000E+00  0.17429347313E+03  0.17429347315E+03  0.25500000920E-02 0.  1.
        2   -1    0    0  501    0  0.00000000000E+00  0.00000000000E+00 -0.92198077087E+03  0.92198077088E+03  0.25500000920E-02 0. -1.
    10030    2    1    2    0    0  0.00000000000E+00  0.00000000000E+00 -0.74768729774E+03  0.10962742440E+04  0.80173619284E+03 0.  0.
        1    1    3    3  502    0  0.60956273479E+02  0.32279129023E+03 -0.59688335581E+02  0.33387509903E+03  0.50400001928E-02 0.  1.
       -1    1    3    3    0  502 -0.60956273479E+02 -0.32279129023E+03 -0.68799896216E+03  0.76239914499E+03  0.50400001928E-02 0. -1.
</event>
<event>
 5   0  0.1656051E-03  0.7997984E+03  0.7818609E-02  0.9560309E-01
        1   -1    0    0  501    0  0.00000000000E+00  0.00000000000E+00  0.17687235798E+03  0.17687235805E+03  0.50400001928E-02 0. -1.
       -1   -1    0    0    0  501  0.00000000000E+00  0.00000000000E+00 -0.90415117488E+03  0.90415117489E+03  0.50400001928E-02 0.  1.
    10030    2    1    2    0    0  0.00000000000E+00  0.00000000000E+00 -0.72727881690E+03  0.10810235329E+04  0.79979835037E+03 0.  0.
        3    1    3    3  502    0  0.36708444119E+03  0.94639814135E+02 -0.53573445520E+03  0.65629193053E+03  0.10100000352E+00 0. -1.
       -3    1    3    3    0  502 -0.36708444119E+03 -0.94639814135E+02 -0.19154436170E+03  0.42473160241E+03  0.10100000352E+00 0.  1.
</event>
<event>
 5   0  0.2910501E-03  0.8004711E+03  0.7818609E-02  0.9559335E-01
        2   -1    0    0  501    0  0.00000000000E+00  0.00000000000E+00  0.68915670946E+03  0.68915670946E+03  0.25500000920E-02 0. -1.
       -2   -1    0    0    0  501  0.00000000000E+00  0.00000000000E+00 -0.23244133690E+03  0.23244133692E+03  0.25500000920E-02 0.  1.
    10030    2    1    2    0    0  0.00000000000E+00  0.00000000000E+00  0.45671537255E+03  0.92159804638E+03  0.80047112850E+03 0.  0.
        1    1    3    3  502    0  0.11570679493E+03  0.27388668495E+03 -0.80115449575E+02  0.30792931636E+03  0.50400001928E-02 0.  1.
       -1    1    3    3    0  502 -0.11570679493E+03 -0.27388668495E+03  0.53683082213E+03  0.61366873002E+03  0.50400001928E-02 0. -1.
</event>
<event>
 5   0  0.1617491E-03  0.7997998E+03  0.7818609E-02  0.9560307E-01
        1   -1    0    0  501    0  0.00000000000E+00  0.00000000000E+00  0.88673534215E+03  0.88673534217E+03  0.50400001928E-02 0.  1.
       -1   -1    0    0    0  501  0.00000000000E+00  0.00000000000E+00 -0.18034685463E+03  0.18034685470E+03  0.50400001928E-02 0. -1.
    10030    2    1    2    0    0  0.00000000000E+00  0.00000000000E+00  0.70638848752E+03  0.10670821969E+04  0.79979979967E+03 0.  0.
        1    1    3    3  502    0  0.13239775674E+03  0.20545672816E+03 -0.69088568236E+02  0.25399776264E+03  0.50400001928E-02 0. -1.
       -1    1    3    3    0  502 -0.13239775674E+03 -0.20545672816E+03  0.77547705576E+03  0.81308443422E+03  0.50400001928E-02 0.  1.
</event>
<event>
 5   0  0.2690809E-03  0.8004776E+03  0.7818609E-02  0.9559326E-01
        2   -1    0    0  501    0  0.00000000000E+00  0.00000000000E+00  0.28116366276E+03  0.28116366277E+03  0.25500000920E-02 0. -1.
       -2   -1    0    0    0  501  0.00000000000E+00  0.00000000000E+00 -0.56974327779E+03  0.56974327780E+03  0.25500000920E-02 0.  1.
    10030    2    1    2    0    0  0.00000000000E+00  0.00000000000E+00 -0.28857961503E+03  0.85090694056E+03  0.80047762448E+03 0.  0.
        5    1    3    3  502    0  0.35310148645E+03 -0.12238843768E+03  0.79434838715E+01  0.37382452882E+03  0.46999998093E+01 0. -1.
       -5    1    3    3    0  502 -0.35310148645E+03  0.12238843768E+03 -0.29652309890E+03  0.47708241174E+03  0.46999998093E+01 0.  1.
</event>
<event>
 5   0  0.1637228E-03  0.7995508E+03  0.7818609E-02  0.9560668E-01
       -1   -1    0    0    0  501  0.00000000000E+00  0.00000000000E+00  0.88925498509E+03  0.88925498511E+03  0.50400001928E-02 0. -1.
        1   -1    0    0  501    0  0.00000000000E+00  0.00000000000E+00 -0.17972387617E+03  0.17972387624E+03  0.50400001928E-02 0.  1.
    10030    2    1    2    0    0  0.00000000000E+00  0.00000000000E+00  0.70953110893E+03  0.10689788613E+04  0.79955075603E+03 0.  0.
        2    1    3    3  502    0  0.24633646733E+03  0.28954359905E+03  0.52015745359E+03  0.64426774513E+03  0.25500000920E-02 0. -1.
       -2    1    3    3    0  502 -0.24633646733E+03 -0.28954359905E+03  0.18937365534E+03  0.42471111621E+03  0.25500000920E-02 0.  1.
</event>
<event>
 5   0  0.2763587E-03  0.8009393E+03  0.7818609E-02  0.9558659E-01
        2   -1    0    0  501    0  0.00000000000E+00  0.00000000000E+00  0.14932928422E+04  0.14932928422E+04  0.25500000920E-02 0. -1.
       -2   -1    0    0    0  501  0.00000000000E+00  0.00000000000E+00 -0.10739751186E+03  0.10739751189E+03  0.25500000920E-02 0.  1.
    10030    2    1    2    0    0  0.00000000000E+00  0.00000000000E+00  0.13858953303E+04  0.16006903541E+04  0.80093928797E+03 0.  0.
        3    1    3    3  502    0 -0.33677446262E+03 -0.20479664396E+03  0.83450727864E+03  0.92290904879E+03  0.10100000352E+00 0. -1.
       -3    1    3    3    0  502  0.33677446262E+03  0.20479664396E+03  0.55138805169E+03  0.67778130528E+03  0.10100000352E+00 0.  1.
</event>
<event>
 5   0  0.2873212E-03  0.7998083E+03  0.7818609E-02  0.9560295E-01
       -2   -1    0    0    0  501  0.00000000000E+00  0.00000000000E+00  0.85323343584E+02  0.85323343622E+02  0.25500000920E-02 0. -1.
        2   -1    0    0  501    0  0.00000000000E+00  0.00000000000E+00 -0.18743207853E+04  0.18743207853E+04  0.25500000920E-02 0.  1.
    10030    2    1    2    0    0  0.00000000000E+00  0.00000000000E+00 -0.17889974417E+04  0.19596441289E+04  0.79980826799E+03 0.  0.
        2    1    3    3  502    0 -0.25846531441E+03 -0.28685349857E+03 -0.63947117031E+03  0.74700242708E+03  0.25500000920E-02 0.  1.
       -2    1    3    3    0  502  0.25846531441E+03  0.28685349857E+03 -0.11495262714E+04  0.12126417018E+04  0.25500000920E-02 0. -1.
</event>
<event>
 5   0  0.1095350E-03  0.7995056E+03  0.7818609E-02  0.9560733E-01
        4   -1    0    0  501    0  0.00000000000E+00  0.00000000000E+00  0.94228934555E+03  0.94229020139E+03  0.12699999809E+01 0.  1.
       -4   -1    0    0    0  501  0.00000000000E+00  0.00000000000E+00 -0.16958612036E+03  0.16959087569E+03  0.12699999809E+01 0. -1.
    10030    2    1    2    0    0  0.00000000000E+00  0.00000000000E+00  0.77270322520E+03  0.11118810771E+04  0.79950563184E+03 0.  0.
        3    1    3    3  502    0 -0.49935589682E+02 -0.39368584326E+02  0.93521363924E+03  0.93737292993E+03  0.10100000352E+00 0.  1.
       -3    1    3    3    0  502  0.49935589682E+02  0.39368584326E+02 -0.16251041404E+03  0.17450814715E+03  0.10100000352E+00 0. -1.
</event>
<event>
 5   0  0.2690809E-03  0.8006137E+03  0.7818609E-02  0.9559129E-01
       -2   -1    0    0    0  501  0.00000000000E+00  0.00000000000E+00  0.14013527908E+03  0.14013527910E+03  0.25500000920E-02 0. -1.
        2   -1    0    0  501    0  0.00000000000E+00  0.00000000000E+00 -0.11435062370E+04  0.11435062371E+04  0.25500000920E-02 0.  1.
    10030    2    1    2    0    0  0.00000000000E+00  0.00000000000E+00 -0.10033709580E+04  0.12836415162E+04  0.80061367881E+03 0.  0.
        5    1    3    3  502    0  0.22542324786E+03 -0.54856378899E+02  0.21298917373E+02  0.23302488464E+03  0.46999998093E+01 0. -1.
       -5    1    3    3    0  502 -0.22542324786E+03  0.54856378899E+02 -0.10246698753E+04  0.10506166315E+04  0.46999998093E+01 0.  1.
</event>
<event>
 5   0  0.2690809E-03  0.8014156E+03  0.7818609E-02  0.9557970E-01
       -2   -1    0    0    0  501  0.00000000000E+00  0.00000000000E+00  0.11619302690E+03  0.11619302693E+03  0.25500000920E-02 0. -1.
        2   -1    0    0  501    0  0.00000000000E+00  0.00000000000E+00 -0.13818965931E+04  0.13818965931E+04  0.25500000920E-02 0.  1.
    10030    2    1    2    0    0  0.00000000000E+00  0.00000000000E+00 -0.12657035662E+04  0.14980896200E+04  0.80141561759E+03 0.  0.
        5    1    3    3  502    0  0.20473797545E+03 -0.33687871339E+03 -0.76686606122E+03  0.86227057933E+03  0.46999998093E+01 0.  1.
       -5    1    3    3    0  502 -0.20473797545E+03  0.33687871339E+03 -0.49883750493E+03  0.63581904065E+03  0.46999998093E+01 0. -1.
</event>
<event>
 5   0  0.2763587E-03  0.8004214E+03  0.7818609E-02  0.9559407E-01
       -2   -1    0    0    0  501  0.00000000000E+00  0.00000000000E+00  0.22469805828E+03  0.22469805829E+03  0.25500000920E-02 0.  1.
        2   -1    0    0  501    0  0.00000000000E+00  0.00000000000E+00 -0.71281696243E+03  0.71281696243E+03  0.25500000920E-02 0. -1.
    10030    2    1    2    0    0  0.00000000000E+00  0.00000000000E+00 -0.48811890415E+03  0.93751502072E+03  0.80042135747E+03 0.  0.
        3    1    3    3  502    0  0.29336921077E+03 -0.21874275006E+03 -0.54273948933E+02  0.36994534227E+03  0.10100000352E+00 0.  1.
       -3    1    3    3    0  502 -0.29336921077E+03  0.21874275006E+03 -0.43384495521E+03  0.56756967845E+03  0.10100000352E+00 0. -1.
</event>
<event>
 5   0  0.2910501E-03  0.8005433E+03  0.7818609E-02  0.9559231E-01
       -2   -1    0    0    0  501  0.00000000000E+00  0.00000000000E+00  0.11194559817E+03  0.11194559820E+03  0.25500000920E-02 0.  1.
        2   -1    0    0  501    0  0.00000000000E+00  0.00000000000E+00 -0.14312076962E+04  0.14312076962E+04  0.25500000920E-02 0. -1.
    10030    2    1    2    0    0  0.00000000000E+00  0.00000000000E+00 -0.13192620980E+04  0.15431532944E+04  0.80054331970E+03 0.  0.
        1    1    3    3  502    0 -0.86857182973E+02 -0.11817234304E+03 -0.13775506572E+04  0.13853355861E+04  0.50400001928E-02 0. -1.
       -1    1    3    3    0  502  0.86857182973E+02  0.11817234304E+03  0.58288559187E+02  0.15781770830E+03  0.50400001928E-02 0.  1.
</event>
<event>
 5   0  0.1640035E-03  0.8058641E+03  0.7818609E-02  0.9551568E-01
        1   -1    0    0  501    0  0.00000000000E+00  0.00000000000E+00  0.28882837934E+03  0.28882837939E+03  0.50400001928E-02 0. -1.
       -1   -1    0    0    0  501  0.00000000000E+00  0.00000000000E+00 -0.56211312036E+03  0.56211312038E+03  0.50400001928E-02 0.  1.
    10030    2    1    2    0    0  0.00000000000E+00  0.00000000000E+00 -0.27328474101E+03  0.85094149976E+03  0.80586406195E+03 0.  0.
        5    1    3    3  502    0 -0.27045147480E+02 -0.38335905794E+03 -0.88935513016E+01  0.38444348422E+03  0.46999998093E+01 0.  1.
       -5    1    3    3    0  502  0.27045147480E+02  0.38335905794E+03 -0.26439118971E+03  0.46649801554E+03  0.46999998093E+01 0. -1.
</event>
<event>
 5   0  0.1617491E-03  0.7929168E+03  0.7818609E-02  0.9570327E-01
       -1   -1    0    0    0  501  0.00000000000E+00  0.00000000000E+00  0.24591859930E+03  0.24591859935E+03  0.50400001928E-02 0. -1.
        1   -1    0    0  501    0  0.00000000000E+00  0.00000000000E+00 -0.63915150858E+03  0.63915150860E+03  0.50400001928E-02 0.  1.
    10030    2    1    2    0    0  0.00000000000E+00  0.00000000000E+00 -0.39323290928E+03  0.88507010795E+03  0.79291675165E+03 0.  0.
        1    1    3    3  502    0  0.28517373474E+03 -0.16817817726E+03 -0.44007359897E+03  0.55070203453E+03  0.50400001928E-02 0.  1.
       -1    1    3    3    0  502 -0.28517373474E+03  0.16817817726E+03  0.46840689692E+02  0.33436807343E+03  0.50400001928E-02 0. -1.
</event>
<event>
 5   0  0.1095350E-03  0.7999629E+03  0.7818609E-02  0.9560071E-01
        3   -1    0    0  501    0  0.00000000000E+00  0.00000000000E+00  0.55887242802E+03  0.55887243715E+03  0.10100000352E+00 0.  1.
       -3   -1    0    0    0  501  0.00000000000E+00  0.00000000000E+00 -0.28626416309E+03  0.28626418091E+03  0.10100000352E+00 0. -1.
    10030    2    1    2    0    0  0.00000000000E+00  0.00000000000E+00  0.27260826493E+03  0.84513661806E+03  0.79996289731E+03 0.  0.
        1    1    3    3  502    0  0.29499562252E+03  0.61562853455E+02 -0.14155496287E+03  0.33294175131E+03  0.50400001928E-02 0. -1.
       -1    1    3    3    0  502 -0.29499562252E+03 -0.61562853455E+02  0.41416322780E+03  0.51219486674E+03  0.50400001928E-02 0.  1.
</event>
<event>
 5   0  0.2873212E-03  0.8029499E+03  0.7818609E-02  0.9555757E-01
       -2   -1    0    0    0  501  0.00000000000E+00  0.00000000000E+00  0.10468916609E+03  0.10468916612E+03  0.25500000920E-02 0.  1.
        2   -1    0    0  501    0  0.00000000000E+00  0.00000000000E+00 -0.15396259096E+04  0.15396259096E+04  0.25500000920E-02 0. -1.
    10030    2    1    2    0    0  0.00000000000E+00  0.00000000000E+00 -0.14349367435E+04  0.16443150757E+04  0.80294994263E+03 0.  0.
        2    1    3    3  502    0 -0.52799701653E+02 -0.39097608349E+03 -0.86978224687E+03  0.95507657460E+03  0.25500000920E-02 0. -1.
       -2    1    3    3    0  502  0.52799701653E+02  0.39097608349E+03 -0.56515449665E+03  0.68923850114E+03  0.25500000920E-02 0.  1.
</event>
<event>
 5   0  0.1637228E-03  0.7992642E+03  0.7818609E-02  0.9561083E-01
        1   -1    0    0  501    0  0.00000000000E+00  0.00000000000E+00  0.74444884092E+03  0.74444884094E+03  0.50400001928E-02 0. -1.
       -1   -1    0    0    0  501  0.00000000000E+00  0.00000000000E+00 -0.21452895899E+03  0.21452895905E+03  0.50400001928E-02 0.  1.
    10030    2    1    2    0    0  0.00000000000E+00  0.00000000000E+00  0.52991988194E+03  0.95897779999E+03  0.79926424892E+03 0.  0.
        2    1    3    3  502    0  0.29342780885E+03  0.90871407210E+02 -0.41755370496E+02  0.31000161714E+03  0.25500000920E-02 0.  1.
       -2    1    3    3    0  502 -0.29342780885E+03 -0.90871407210E+02  0.57167525243E+03  0.64897618285E+03  0.25500000920E-02 0. -1.
</event>
<event>
 5   0  0.2763587E-03  0.8008400E+03  0.7818609E-02  0.9558802E-01
        2   -1    0    0  501    0  0.00000000000E+00  0.00000000000E+00  0.16965446746E+04  0.16965446746E+04  0.25500000920E-02 0.  1.
       -2   -1    0    0    0  501  0.00000000000E+00  0.00000000000E+00 -0.94507492913E+02  0.94507492948E+02  0.25500000920E-02 0. -1.
    10030    2    1    2    0    0  0.00000000000E+00  0.00000000000E+00  0.16020371817E+04  0.17910521675E+04  0.80084001859E+03 0.  0.
        3    1    3    3  502    0 -0.27315367194E+03 -0.56360696075E+02  0.14435766448E+04  0.14702731026E+04  0.10100000352E+00 0.  1.
       -3    1    3    3    0  502  0.27315367194E+03  0.56360696075E+02  0.15846053685E+03  0.32077906493E+03  0.10100000352E+00 0. -1.
</event>
<event>
 5   0  0.2690809E-03  0.8026318E+03  0.7818609E-02  0.9556216E-01
       -2   -1    0    0    0  501  0.00000000000E+00  0.00000000000E+00  0.10793674771E+04  0.10793674771E+04  0.25500000920E-02 0.  1.
        2   -1    0    0  501    0  0.00000000000E+00  0.00000000000E+00 -0.14921186820E+03  0.14921186822E+03  0.25500000920E-02 0. -1.
    10030    2    1    2    0    0  0.00000000000E+00  0.00000000000E+00  0.93015560893E+03  0.12285793454E+04  0.80263176551E+03 0.  0.
        5    1    3    3  502    0  0.39772254983E+03 -0.17748755199E+02  0.38802313167E+03  0.55595169364E+03  0.46999998093E+01 0. -1.
       -5    1    3    3    0  502 -0.39772254983E+03  0.17748755199E+02  0.54213247726E+03  0.67262765171E+03  0.46999998093E+01 0.  1.
</event>
<event>
 5   0  0.1095350E-03  0.8016861E+03  0.7818609E-02  0.9557580E-01
        3   -1    0    0  501    0  0.00000000000E+00  0.00000000000E+00  0.13058231183E+04  0.13058231222E+04  0.10100000352E+00 0.  1.
       -3   -1    0    0    0  501  0.00000000000E+00  0.00000000000E+00 -0.12304507259E+03  0.12304511404E+03  0.10100000352E+00 0. -1.
    10030    2    1    2    0    0  0.00000000000E+00  0.00000000000E+00  0.11827780457E+04  0.14288682363E+04  0.80168605523E+03 0.  0.
        1    1    3    3  502    0 -0.58389688436E+02 -0.38539896284E+03  0.42482548437E+03  0.57655737656E+03  0.50400001928E-02 0. -1.
       -1    1    3    3    0  502  0.58389688436E+02  0.38539896284E+03  0.75795256138E+03  0.85231085972E+03  0.50400001928E-02 0.  1.
</event>
<event>
 5   0  0.1656051E-03  0.7999002E+03  0.7818609E-02  0.9560162E-01
       -1   -1    0    0    0  501  0.00000000000E+00  0.00000000000E+00  0.32857717161E+03  0.32857717165E+03  0.50400001928E-02 0. -1.
        1   -1    0    0  501    0  0.00000000000E+00  0.00000000000E+00 -0.48682647911E+03  0.48682647913E+03  0.50400001928E-02 0.  1.
    10030    2    1    2    0    0  0.00000000000E+00  0.00000000000E+00 -0.15824930750E+03  0.81540365078E+03  0.79990016276E+03 0.  0.
        3    1    3    3  502    0 -0.24043986156E+03 -0.22770694733E+03 -0.30774423156E+03  0.45207112621E+03  0.10100000352E+00 0.  1.
       -3    1    3    3    0  502  0.24043986156E+03  0.22770694733E+03  0.14949492406E+03  0.36333252457E+03  0.10100000352E+00 0. -1.
</event>
<event>
 5   0  0.1640035E-03  0.8016693E+03  0.7818609E-02  0.9557604E-01
       -1   -1    0    0    0  501  0.00000000000E+00  0.00000000000E+00  0.10006352146E+03  0.10006352158E+03  0.50400001928E-02 0.  1.
        1   -1    0    0  501    0  0.00000000000E+00  0.00000000000E+00 -0.16056641115E+04  0.16056641115E+04  0.50400001928E-02 0. -1.
    10030    2    1    2    0    0  0.00000000000E+00  0.00000000000E+00 -0.15056005900E+04  0.17057276331E+04  0.80166927193E+03 0.  0.
        5    1    3    3  502    0  0.77969271261E+02 -0.15903511792E+03  0.12217644209E+02  0.17760275003E+03  0.46999998093E+01 0.  1.
       -5    1    3    3    0  502 -0.77969271261E+02  0.15903511792E+03 -0.15178182343E+04  0.15281248831E+04  0.46999998093E+01 0. -1.
</event>
<event>
 5   0  0.2910501E-03  0.7995835E+03  0.7818609E-02  0.9560620E-01
        2   -1    0    0  501    0  0.00000000000E+00  0.00000000000E+00  0.37220331580E+03  0.37220331581E+03  0.25500000920E-02 0. -1.
       -2   -1    0    0    0  501  0.00000000000E+00  0.00000000000E+00 -0.42942504976E+03  0.42942504977E+03  0.25500000920E-02 0.  1.
    10030    2    1    2    0    0  0.00000000000E+00  0.00000000000E+00 -0.57221733967E+02  0.80162836558E+03  0.79958346010E+03 0.  0.
        1    1    3    3  502    0 -0.38591675606E+03  0.10304812845E+03 -0.11752154335E+02  0.39961077631E+03  0.50400001928E-02 0. -1.
       -1    1    3    3    0  502  0.38591675606E+03 -0.10304812845E+03 -0.45469579632E+02  0.40201758927E+03  0.50400001928E-02 0.  1.
</event>
<event>
 5   0  0.2768834E-03  0.7995013E+03  0.7818609E-02  0.9560739E-01
       -2   -1    0    0    0  501  0.00000000000E+00  0.00000000000E+00  0.14866054092E+03  0.14866054094E+03  0.25500000920E-02 0. -1.
        2   -1    0    0  501    0  0.00000000000E+00  0.00000000000E+00 -0.10749361168E+04  0.10749361169E+04  0.25500000920E-02 0.  1.
    10030    2    1    2    0    0  0.00000000000E+00  0.00000000000E+00 -0.92627557593E+03  0.12235966578E+04  0.79950130605E+03 0.  0.
        4    1    3    3  502    0 -0.45465885735E+02 -0.10991160055E+03 -0.10472230324E+04  0.10539570196E+04  0.12699999809E+01 0.  1.
       -4    1    3    3    0  502  0.45465885735E+02  0.10991160055E+03  0.12094745649E+03  0.16963963815E+03  0.12699999809E+01 0. -1.
</event>
<event>
 5   0  0.1095350E-03  0.7999572E+03  0.7818609E-02  0.9560079E-01
       -4   -1    0    0    0  501  0.00000000000E+00  0.00000000000E+00  0.71256926022E+03  0.71257039197E+03  0.12699999809E+01 0.  1.
        4   -1    0    0  501    0  0.00000000000E+00  0.00000000000E+00 -0.22451246753E+03  0.22451605950E+03  0.12699999809E+01 0. -1.
    10030    2    1    2    0    0  0.00000000000E+00  0.00000000000E+00  0.48805679269E+03  0.93708645147E+03  0.79995723926E+03 0.  0.
        1    1    3    3  502    0 -0.33306075729E+03 -0.21050576077E+03  0.16337242242E+03  0.42653568643E+03  0.50400001928E-02 0.  1.
       -1    1    3    3    0  502  0.33306075729E+03  0.21050576077E+03  0.32468437028E+03  0.51055076505E+03  0.50400001928E-02 0. -1.
</event>
<event>
 5   0  0.1712793E-03  0.7990972E+03  0.7818609E-02  0.9561325E-01
        1   -1    0    0  501    0  0.00000000000E+00  0.00000000000E+00  0.22871031731E+03  0.22871031736E+03  0.50400001928E-02 0.  1.
       -1   -1    0    0    0  501  0.00000000000E+00  0.00000000000E+00 -0.69799677843E+03  0.69799677845E+03  0.50400001928E-02 0. -1.
    10030    2    1    2    0    0  0.00000000000E+00  0.00000000000E+00 -0.46928646112E+03  0.92670709581E+03  0.79909715231E+03 0.  0.
        4    1    3    3  502    0  0.16052704045E+03 -0.72251179868E+02  0.18131039223E+03  0.25271374109E+03  0.12699999809E+01 0.  1.
       -4    1    3    3    0  502 -0.16052704045E+03  0.72251179868E+02 -0.65059685335E+03  0.67399335471E+03  0.12699999809E+01 0. -1.
</event>
<event>
 5   0  0.2690809E-03  0.7996433E+03  0.7818609E-02  0.9560534E-01
       -2   -1    0    0    0  501  0.00000000000E+00  0.00000000000E+00  0.18804172166E+03  0.18804172168E+03  0.25500000920E-02 0.  1.
        2   -1    0    0  501    0  0.00000000000E+00  0.00000000000E+00 -0.85011635502E+03  0.85011635502E+03  0.25500000920E-02 0. -1.
    10030    2    1    2    0    0  0.00000000000E+00  0.00000000000E+00 -0.66207463336E+03  0.10381580767E+04  0.79964327802E+03 0.  0.
        5    1    3    3  502    0 -0.28975478767E+03 -0.25950821986E+03 -0.45096391659E+03  0.59556099370E+03  0.46999998093E+01 0. -1.
       -5    1    3    3    0  502  0.28975478767E+03  0.25950821986E+03 -0.21111071677E+03  0.44259708300E+03  0.46999998093E+01 0.  1.
</event>
<event>
 5   0  0.1617491E-03  0.7992026E+03  0.7818609E-02  0.9561172E-01
       -1   -1    0    0    0  501  0.00000000000E+00  0.00000000000E+00  0.33229838642E+03  0.33229838646E+03  0.50400001928E-02 0.  1.
        1   -1    0    0  501    0  0.00000000000E+00  0.00000000000E+00 -0.48053560846E+03  0.48053560848E+03  0.50400001928E-02 0. -1.
    10030    2    1    2    0    0  0.00000000000E+00  0.00000000000E+00 -0.14823722204E+03  0.81283399494E+03  0.79920262095E+03 0.  0.
        1    1    3    3  502    0 -0.47640570069E+02  0.21651976350E+03 -0.41225084016E+03  0.46808245763E+03  0.50400001928E-02 0. -1.
       -1    1    3    3    0  502  0.47640570069E+02 -0.21651976350E+03  0.26401361812E+03  0.34475153731E+03  0.50400001928E-02 0.  1.
</event>
<event>
 5   0  0.2690809E-03  0.7989988E+03  0.7818609E-02  0.9561467E-01
        2   -1    0    0  501    0  0.00000000000E+00  0.00000000000E+00  0.16826528963E+03  0.16826528965E+03  0.25500000920E-02 0.  1.
       -2   -1    0    0    0  501  0.00000000000E+00  0.00000000000E+00 -0.94850090567E+03  0.94850090568E+03  0.25500000920E-02 0. -1.
    10030    2    1    2    0    0  0.00000000000E+00  0.00000000000E+00 -0.78023561604E+03  0.11167661953E+04  0.79899882258E+03 0.  0.
        5    1    3    3  502    0  0.30749709558E+03 -0.24017012438E+03 -0.27035840526E+03  0.47471244952E+03  0.46999998093E+01 0. -1.
       -5    1    3    3    0  502 -0.30749709558E+03  0.24017012438E+03 -0.50987721079E+03  0.64205374581E+03  0.46999998093E+01 0.  1.
</event>
<event>
 5   0  0.1637228E-03  0.8011843E+03  0.7818609E-02  0.9558305E-01
       -1   -1    0    0    0  501  0.00000000000E+00  0.00000000000E+00  0.25101615282E+03  0.25101615287E+03  0.50400001928E-02 0. -1.
        1   -1    0    0  501    0  0.00000000000E+00  0.00000000000E+00 -0.63929774082E+03  0.63929774084E+03  0.50400001928E-02 0.  1.
    10030    2    1    2    0    0  0.00000000000E+00  0.00000000000E+00 -0.38828158800E+03  0.89031389371E+03  0.80118427204E+03 0.  0.
        2    1    3    3  502    0 -0.16222564704E+03  0.11179344678E+03  0.19345859021E+03  0.27611802084E+03  0.25500000920E-02 0. -1.
       -2    1    3    3    0  502  0.16222564704E+03 -0.11179344678E+03 -0.58174017821E+03  0.61419587287E+03  0.25500000920E-02 0.  1.
</event>
<event>
 5   0  0.2910501E-03  0.7985966E+03  0.7818609E-02  0.9562051E-01
        2   -1    0    0  501    0  0.00000000000E+00  0.00000000000E+00  0.67390890201E+03  0.67390890201E+03  0.25500000920E-02 0. -1.
       -2   -1    0    0    0  501  0.00000000000E+00  0.00000000000E+00 -0.23658854926E+03  0.23658854928E+03  0.25500000920E-02 0.  1.
    10030    2    1    2    0    0  0.00000000000E+00  0.00000000000E+00  0.43732035274E+03  0.91049745129E+03  0.79859659271E+03 0.  0.
        1    1    3    3  502    0  0.24228862677E+03 -0.30172994968E+03  0.33091667340E+03  0.50916656013E+03  0.50400001928E-02 0.  1.
       -1    1    3    3    0  502 -0.24228862677E+03  0.30172994968E+03  0.10640367934E+03  0.40133089116E+03  0.50400001928E-02 0. -1.
</event>
<event>
 5   0  0.2873212E-03  0.7971882E+03  0.7818609E-02  0.9564096E-01
       -2   -1    0    0    0  501  0.00000000000E+00  0.00000000000E+00  0.17480274355E+03  0.17480274357E+03  0.25500000920E-02 0. -1.
        2   -1    0    0  501    0  0.00000000000E+00  0.00000000000E+00 -0.90889454718E+03  0.90889454718E+03  0.25500000920E-02 0.  1.
    10030    2    1    2    0    0  0.00000000000E+00  0.00000000000E+00 -0.73409180363E+03  0.10836972907E+04  0.79718820979E+03 0.  0.
        2    1    3    3  502    0  0.32247983582E+03 -0.21192697740E+03 -0.23130339255E+03  0.44989726346E+03  0.25500000920E-02 0. -1.
       -2    1    3    3    0  502 -0.32247983582E+03  0.21192697740E+03 -0.50278841108E+03  0.63380002728E+03  0.25500000920E-02 0.  1.
</event>
<event>
 5   0  0.1640035E-03  0.7988448E+03  0.7818609E-02  0.9561691E-01
       -1   -1    0    0    0  501  0.00000000000E+00  0.00000000000E+00  0.10680737611E+03  0.10680737623E+03  0.50400001928E-02 0.  1.
        1   -1    0    0  501    0  0.00000000000E+00  0.00000000000E+00 -0.14937006819E+04  0.14937006819E+04  0.50400001928E-02 0. -1.
    10030    2    1    2    0    0  0.00000000000E+00  0.00000000000E+00 -0.13868933058E+04  0.16005080582E+04  0.79884479251E+03 0.  0.
        5    1    3    3  502    0  0.17610468853E+03 -0.20038196960E+03 -0.12889711513E+04  0.13162957548E+04  0.46999998093E+01 0. -1.
       -5    1    3    3    0  502 -0.17610468853E+03  0.20038196960E+03 -0.97922154491E+02  0.28421230340E+03  0.46999998093E+01 0.  1.
</event>
<event>
 5   0  0.1712793E-03  0.7869200E+03  0.7818609E-02  0.9579145E-01
        1   -1    0    0  501    0  0.00000000000E+00  0.00000000000E+00  0.14844078948E+03  0.14844078957E+03  0.50400001928E-02 0.  1.
       -1   -1    0    0    0  501  0.00000000000E+00  0.00000000000E+00 -0.10429125720E+04  0.10429125720E+04  0.50400001928E-02 0. -1.
    10030    2    1    2    0    0  0.00000000000E+00  0.00000000000E+00 -0.89447178249E+03  0.11913533615E+04  0.78691998475E+03 0.  0.
        4    1    3    3  502    0  0.87640062512E+02  0.38351760235E+03 -0.43735215883E+03  0.58825594396E+03  0.12699999809E+01 0.  1.
       -4    1    3    3    0  502 -0.87640062512E+02 -0.38351760235E+03 -0.45711962366E+03  0.60309741759E+03  0.12699999809E+01 0. -1.
</event>
<event>
 5   0  0.1095350E-03  0.7994086E+03  0.7818609E-02  0.9560873E-01
       -3   -1    0    0    0  501  0.00000000000E+00  0.00000000000E+00  0.43234346418E+03  0.43234347598E+03  0.10100000352E+00 0. -1.
        3   -1    0    0  501    0  0.00000000000E+00  0.00000000000E+00 -0.36952919300E+03  0.36952920681E+03  0.10100000352E+00 0.  1.
    10030    2    1    2    0    0  0.00000000000E+00  0.00000000000E+00  0.62814271175E+02  0.80187268278E+03  0.79940863564E+03 0.  0.
        4    1    3    3  502    0  0.22912892627E+03  0.90193339596E+02  0.34722203879E+03  0.42567553428E+03  0.12699999809E+01 0. -1.
       -4    1    3    3    0  502 -0.22912892627E+03 -0.90193339596E+02 -0.28440776762E+03  0.37619714850E+03  0.12699999809E+01 0.  1.
</event>
<event>
 5   0  0.2768834E-03  0.7962322E+03  0.7818609E-02  0.9565487E-01
       -2   -1    0    0    0  501  0.00000000000E+00  0.00000000000E+00  0.15887168889E+03  0.15887168891E+03  0.25500000920E-02 0. -1.
        2   -1    0    0  501    0  0.00000000000E+00  0.00000000000E+00 -0.99763786629E+03  0.99763786630E+03  0.25500000920E-02 0.  1.
    10030    2    1    2    0    0  0.00000000000E+00  0.00000000000E+00 -0.83876617740E+03  0.11565095552E+04  0.79623215895E+03 0.  0.
        4    1    3    3  502    0 -0.20027552885E+03 -0.68885753294E+02 -0.90901951534E+03  0.93336682319E+03  0.12699999809E+01 0.  1.
       -4    1    3    3    0  502  0.20027552885E+03  0.68885753294E+02  0.70253337942E+02  0.22314273202E+03  0.12699999809E+01 0. -1.
</event>
<event>
 5   0  0.2690809E-03  0.7995678E+03  0.7818609E-02  0.9560643E-01
       -2   -1    0    0    0  501  0.00000000000E+00  0.00000000000E+00  0.35458891727E+03  0.35458891728E+03  0.25500000920E-02 0. -1.
        2   -1    0    0  501    0  0.00000000000E+00  0.00000000000E+00 -0.45073933685E+03  0.45073933686E+03  0.25500000920E-02 0.  1.
    10030    2    1    2    0    0  0.00000000000E+00  0.00000000000E+00 -0.96150419582E+02  0.80532825414E+03  0.79956781685E+03 0.  0.
        5    1    3    3  502    0  0.16521026401E+03  0.36400938867E+03 -0.50891253970E+02  0.40300034256E+03  0.46999998093E+01 0.  1.
       -5    1    3    3    0  502 -0.16521026401E+03 -0.36400938867E+03 -0.45259165612E+02  0.40232791159E+03  0.46999998093E+01 0. -1.
</event>
<event>
 5   0  0.1617491E-03  0.7943420E+03  0.7818609E-02  0.9568243E-01
        1   -1    0    0  501    0  0.00000000000E+00  0.00000000000E+00  0.18302534163E+04  0.18302534163E+04  0.50400001928E-02 0.  1.
       -1   -1    0    0    0  501  0.00000000000E+00  0.00000000000E+00 -0.86187403739E+02  0.86187403886E+02  0.50400001928E-02 0. -1.
    10030    2    1    2    0    0  0.00000000000E+00  0.00000000000E+00  0.17440660125E+04  0.19164408202E+04  0.79434196737E+03 0.  0.
        1    1    3    3  502    0  0.24015999901E+02  0.12007468042E+02  0.18280612114E+04  0.18282583899E+04  0.50400001928E-02 0.  1.
       -1    1    3    3    0  502 -0.24015999901E+02 -0.12007468042E+02 -0.83995198901E+02  0.88182430245E+02  0.50400001928E-02 0. -1.
</event>
<event>
 5   0  0.2768834E-03  0.8037497E+03  0.7818609E-02  0.9554605E-01
       -2   -1    0    0    0  501  0.00000000000E+00  0.00000000000E+00  0.18410998584E+03  0.18410998586E+03  0.25500000920E-02 0. -1.
        2   -1    0    0  501    0  0.00000000000E+00  0.00000000000E+00 -0.87721158531E+03  0.87721158532E+03  0.25500000920E-02 0.  1.
    10030    2    1    2    0    0  0.00000000000E+00  0.00000000000E+00 -0.69310159947E+03  0.10613215712E+04  0.80374974354E+03 0.  0.
        4    1    3    3  502    0  0.24398062716E+03 -0.14212188660E+03 -0.72415840173E+03  0.77725940378E+03  0.12699999809E+01 0.  1.
       -4    1    3    3    0  502 -0.24398062716E+03  0.14212188660E+03  0.31056802256E+02  0.28406216739E+03  0.12699999809E+01 0. -1.
</event>
<event>
 5   0  0.1095350E-03  0.8002946E+03  0.7818609E-02  0.9559591E-01
        3   -1    0    0  501    0  0.00000000000E+00  0.00000000000E+00  0.43617502701E+03  0.43617503870E+03  0.10100000352E+00 0.  1.
       -3   -1    0    0    0  501  0.00000000000E+00  0.00000000000E+00 -0.36709539744E+03  0.36709541133E+03  0.10100000352E+00 0. -1.
    10030    2    1    2    0    0  0.00000000000E+00  0.00000000000E+00  0.69079629568E+02  0.80327045004E+03  0.80029458369E+03 0.  0.
        4    1    3    3  502    0  0.36122725484E+03 -0.17175244404E+03  0.46080857376E+02  0.40262773127E+03  0.12699999809E+01 0. -1.
       -4    1    3    3    0  502 -0.36122725484E+03  0.17175244404E+03  0.22998772192E+02  0.40064271876E+03  0.12699999809E+01 0.  1.
</event>
<event>
 5   0  0.1656051E-03  0.7962442E+03  0.7818609E-02  0.9565469E-01
        1   -1    0    0  501    0  0.00000000000E+00  0.00000000000E+00  0.99240153671E+03  0.99240153673E+03  0.50400001928E-02 0.  1.
       -1   -1    0    0    0  501  0.00000000000E+00  0.00000000000E+00 -0.15971479387E+03  0.15971479395E+03  0.50400001928E-02 0. -1.
    10030    2    1    2    0    0  0.00000000000E+00  0.00000000000E+00  0.83268674284E+03  0.11521163307E+04  0.79624420106E+03 0.  0.
        3    1    3    3  502    0 -0.36589732939E+03  0.58238541212E+02  0.20552383013E+03  0.42368931812E+03  0.10100000352E+00 0. -1.
       -3    1    3    3    0  502  0.36589732939E+03 -0.58238541212E+02  0.62716291271E+03  0.72842701256E+03  0.10100000352E+00 0.  1.
</event>
<event>
 5   0  0.1637228E-03  0.7991562E+03  0.7818609E-02  0.9561239E-01
       -1   -1    0    0    0  501  0.00000000000E+00  0.00000000000E+00  0.25405222899E+03  0.25405222904E+03  0.50400001928E-02 0. -1.
        1   -1    0    0  501    0  0.00000000000E+00  0.00000000000E+00 -0.62846388919E+03  0.62846388921E+03  0.50400001928E-02 0.  1.
    10030    2    1    2    0    0  0.00000000000E+00  0.00000000000E+00 -0.37441166020E+03  0.88251611825E+03  0.79915618478E+03 0.  0.
        2    1    3    3  502    0  0.22818506412E+03 -0.78997785620E+02  0.16436312988E+03  0.29210325588E+03  0.25500000920E-02 0. -1.
       -2    1    3    3    0  502 -0.22818506412E+03  0.78997785620E+02 -0.53877479008E+03  0.59041286237E+03  0.25500000920E-02 0.  1.
</event>
<event>
 5   0  0.1637228E-03  0.8034945E+03  0.7818609E-02  0.9554973E-01
        1   -1    0    0  501    0  0.00000000000E+00  0.00000000000E+00  0.40470547229E+03  0.40470547232E+03  0.50400001928E-02 0.  1.
       -1   -1    0    0    0  501  0.00000000000E+00  0.00000000000E+00 -0.39881068935E+03  0.39881068938E+03  0.50400001928E-02 0. -1.
    10030    2    1    2    0    0  0.00000000000E+00  0.00000000000E+00  0.58947829379E+01  0.80351616170E+03  0.80349453866E+03 0.  0.
        2    1    3    3  502    0  0.91642159655E+02 -0.22263183955E+03  0.32457328338E+03  0.40411760380E+03  0.25500000920E-02 0.  1.
       -2    1    3    3    0  502 -0.91642159655E+02  0.22263183955E+03 -0.31867850044E+03  0.39939855791E+03  0.25500000920E-02 0. -1.
</event>
<event>
 5   0  0.1617491E-03  0.8020815E+03  0.7818609E-02  0.9557009E-01
        1   -1    0    0  501    0  0.00000000000E+00  0.00000000000E+00  0.52460002159E+03  0.52460002162E+03  0.50400001928E-02 0.  1.
       -1   -1    0    0    0  501  0.00000000000E+00  0.00000000000E+00 -0.30658340950E+03  0.30658340954E+03  0.50400001928E-02 0. -1.
    10030    2    1    2    0    0  0.00000000000E+00  0.00000000000E+00  0.21801661209E+03  0.83118343116E+03  0.80208145041E+03 0.  0.
        1    1    3    3  502    0 -0.10515467342E+03  0.55641169418E+02 -0.28787623068E+03  0.31149023949E+03  0.50400001928E-02 0. -1.
       -1    1    3    3    0  502  0.10515467342E+03 -0.55641169418E+02  0.50589284277E+03  0.51969319167E+03  0.50400001928E-02 0.  1.
</event>
<event>
 5   0  0.1640035E-03  0.7999913E+03  0.7818609E-02  0.9560030E-01
       -1   -1    0    0    0  501  0.00000000000E+00  0.00000000000E+00  0.15257333423E+03  0.15257333431E+03  0.50400001928E-02 0.  1.
        1   -1    0    0  501    0  0.00000000000E+00  0.00000000000E+00 -0.10486532962E+04  0.10486532962E+04  0.50400001928E-02 0. -1.
    10030    2    1    2    0    0  0.00000000000E+00  0.00000000000E+00 -0.89607996193E+03  0.12012266305E+04  0.79999132471E+03 0.  0.
        5    1    3    3  502    0  0.28588437309E+03  0.26995136307E+03 -0.55808242918E+03  0.68270176575E+03  0.46999998093E+01 0.  1.
       -5    1    3    3    0  502 -0.28588437309E+03 -0.26995136307E+03 -0.33799753274E+03  0.51852486473E+03  0.46999998093E+01 0. -1.
</event>
<event>
 5   0  0.1637228E-03  0.8003015E+03  0.7818609E-02  0.9559581E-01
       -1   -1    0    0    0  501  0.00000000000E+00  0.00000000000E+00  0.90404070346E+02  0.90404070486E+02  0.50400001928E-02 0. -1.
        1   -1    0    0  501    0  0.00000000000E+00  0.00000000000E+00 -0.17711658712E+04  0.17711658712E+04  0.50400001928E-02 0.  1.
    10030    2    1    2    0    0  0.00000000000E+00  0.00000000000E+00 -0.16807618009E+04  0.18615699417E+04  0.80030145359E+03 0.  0.
        2    1    3    3  502    0  0.12908081561E+03  0.30596418463E+03 -0.32106084767E+03  0.46190475983E+03  0.25500000920E-02 0. -1.
       -2    1    3    3    0  502 -0.12908081561E+03 -0.30596418463E+03 -0.13597009532E+04  0.13996651819E+04  0.25500000920E-02 0.  1.
</event>
<event>
 5   0  0.2768834E-03  0.8007639E+03  0.7818609E-02  0.9558912E-01
       -2   -1    0    0    0  501  0.00000000000E+00  0.00000000000E+00  0.17890810253E+03  0.17890810255E+03  0.25500000920E-02 0.  1.
        2   -1    0    0  501    0  0.00000000000E+00  0.00000000000E+00 -0.89602259472E+03  0.89602259472E+03  0.25500000920E-02 0. -1.
    10030    2    1    2    0    0  0.00000000000E+00  0.00000000000E+00 -0.71711449219E+03  0.10749306973E+04  0.80076389094E+03 0.  0.
        4    1    3    3  502    0  0.32784662266E+03 -0.62329406631E+02 -0.61603366129E+02  0.33935961831E+03  0.12699999809E+01 0.  1.
       -4    1    3    3    0  502 -0.32784662266E+03  0.62329406631E+02 -0.65551112606E+03  0.73557107896E+03  0.12699999809E+01 0. -1.
</event>
<event>
 5   0  0.2768834E-03  0.7984886E+03  0.7818609E-02  0.9562207E-01
       -2   -1    0    0    0  501  0.00000000000E+00  0.00000000000E+00  0.14340912984E+03  0.14340912986E+03  0.25500000920E-02 0.  1.
        2   -1    0    0  501    0  0.00000000000E+00  0.00000000000E+00 -0.11114774494E+04  0.11114774494E+04  0.25500000920E-02 0. -1.
    10030    2    1    2    0    0  0.00000000000E+00  0.00000000000E+00 -0.96806831952E+03  0.12548865792E+04  0.79848860696E+03 0.  0.
        4    1    3    3  502    0  0.30011866351E+03  0.23550098929E+03 -0.29899821387E+03  0.48469936346E+03  0.12699999809E+01 0.  1.
       -4    1    3    3    0  502 -0.30011866351E+03 -0.23550098929E+03 -0.66907010565E+03  0.77018721576E+03  0.12699999809E+01 0. -1.
</event>
<event>
 5   0  0.2910501E-03  0.7993231E+03  0.7818609E-02  0.9560997E-01
       -2   -1    0    0    0  501  0.00000000000E+00  0.00000000000E+00  0.15426955537E+03  0.15426955539E+03  0.25500000920E-02 0. -1.
        2   -1    0    0  501    0  0.00000000000E+00  0.00000000000E+00 -0.10353912148E+04  0.10353912148E+04  0.25500000920E-02 0.  1.
    10030    2    1    2    0    0  0.00000000000E+00  0.00000000000E+00 -0.88112165945E+03  0.11896607702E+04  0.79932306949E+03 0.  0.
        1    1    3    3  502    0  0.39810355449E+03  0.32930863025E+02 -0.42182550198E+03  0.58095407390E+03  0.50400001928E-02 0.  1.
       -1    1    3    3    0  502 -0.39810355449E+03 -0.32930863025E+02 -0.45929615748E+03  0.60870669631E+03  0.50400001928E-02 0. -1.
</event>
<event>
 5   0  0.1712793E-03  0.7963149E+03  0.7818609E-02  0.9565367E-01
        1   -1    0    0  501    0  0.00000000000E+00  0.00000000000E+00  0.10910769091E+04  0.10910769091E+04  0.50400001928E-02 0.  1.
       -1   -1    0    0    0  501  0.00000000000E+00  0.00000000000E+00 -0.14529621282E+03  0.14529621291E+03  0.50400001928E-02 0. -1.
    10030    2    1    2    0    0  0.00000000000E+00  0.00000000000E+00  0.94578069628E+03  0.12363731220E+04  0.79631486950E+03 0.  0.
        4    1    3    3  502    0  0.10659884193E+03  0.27083916428E+03  0.51073432645E+02  0.29551188543E+03  0.12699999809E+01 0. -1.
       -4    1    3    3    0  502 -0.10659884193E+03 -0.27083916428E+03  0.89470726363E+03  0.94086123658E+03  0.12699999809E+01 0.  1.
</event>
<event>
 5   0  0.1712793E-03  0.7983220E+03  0.7818609E-02  0.9562449E-01
        1   -1    0    0  501    0  0.00000000000E+00  0.00000000000E+00  0.48117892927E+03  0.48117892929E+03  0.50400001928E-02 0.  1.
       -1   -1    0    0    0  501  0.00000000000E+00  0.00000000000E+00 -0.33112317319E+03  0.33112317323E+03  0.50400001928E-02 0. -1.
    10030    2    1    2    0    0  0.00000000000E+00  0.00000000000E+00  0.15005575607E+03  0.81230210252E+03  0.79832197504E+03 0.  0.
        4    1    3    3  502    0  0.22842903980E+03  0.59886403109E+02  0.40247337569E+03  0.46663973099E+03  0.12699999809E+01 0.  1.
       -4    1    3    3    0  502 -0.22842903980E+03 -0.59886403109E+02 -0.25241761962E+03  0.34566237153E+03  0.12699999809E+01 0. -1.
</event>
<event>
 5   0  0.2690809E-03  0.8003101E+03  0.7818609E-02  0.9559568E-01
       -2   -1    0    0    0  501  0.00000000000E+00  0.00000000000E+00  0.19043525461E+03  0.19043525463E+03  0.25500000920E-02 0. -1.
        2   -1    0    0  501    0  0.00000000000E+00  0.00000000000E+00 -0.84083194258E+03  0.84083194258E+03  0.25500000920E-02 0.  1.
    10030    2    1    2    0    0  0.00000000000E+00  0.00000000000E+00 -0.65039668797E+03  0.10312671972E+04  0.80031005261E+03 0.  0.
        5    1    3    3  502    0  0.12213655138E+03 -0.37816114768E+03 -0.26505077824E+03  0.47769990144E+03  0.46999998093E+01 0. -1.
       -5    1    3    3    0  502 -0.12213655138E+03  0.37816114768E+03 -0.38534590973E+03  0.55356729576E+03  0.46999998093E+01 0.  1.
</event>
<event>
 5   0  0.1640035E-03  0.8004512E+03  0.7818609E-02  0.9559364E-01
        1   -1    0    0  501    0  0.00000000000E+00  0.00000000000E+00  0.31193450093E+03  0.31193450097E+03  0.50400001928E-02 0. -1.
       -1   -1    0    0    0  501  0.00000000000E+00  0.00000000000E+00 -0.51350689591E+03  0.51350689594E+03  0.50400001928E-02 0.  1.
    10030    2    1    2    0    0  0.00000000000E+00  0.00000000000E+00 -0.20157239498E+03  0.82544139691E+03  0.80045116610E+03 0.  0.
        5    1    3    3  502    0 -0.11640330571E+03 -0.11029982172E+03 -0.47889773661E+03  0.50505535576E+03  0.46999998093E+01 0.  1.
       -5    1    3    3    0  502  0.11640330571E+03  0.11029982172E+03  0.27732534163E+03  0.32038604115E+03  0.46999998093E+01 0. -1.
</event>
<event>
 5   0  0.1640035E-03  0.8001097E+03  0.7818609E-02  0.9559858E-01
        1   -1    0    0  501    0  0.00000000000E+00  0.00000000000E+00  0.12123840338E+03  0.12123840348E+03  0.50400001928E-02 0. -1.
       -1   -1    0    0    0  501  0.00000000000E+00  0.00000000000E+00 -0.13200756494E+04  0.13200756494E+04  0.50400001928E-02 0.  1.
    10030    2    1    2    0    0  0.00000000000E+00  0.00000000000E+00 -0.11988372460E+04  0.14413140529E+04  0.80010965287E+03 0.  0.
        5    1    3    3  502    0  0.80340893979E+02  0.21456223160E+03 -0.87087025338E+01  0.22932409811E+03  0.46999998093E+01 0. -1.
       -5    1    3    3    0  502 -0.80340893979E+02 -0.21456223160E+03 -0.11901285435E+04  0.12119899548E+04  0.46999998093E+01 0.  1.
</event>
<event>
 5   0  0.2873212E-03  0.7952641E+03  0.7818609E-02  0.9566898E-01
        2   -1    0    0  501    0  0.00000000000E+00  0.00000000000E+00  0.11886211808E+04  0.11886211808E+04  0.25500000920E-02 0. -1.
       -2   -1    0    0    0  501  0.00000000000E+00  0.00000000000E+00 -0.13302070931E+03  0.13302070934E+03  0.25500000920E-02 0.  1.
    10030    2    1    2    0    0  0.00000000000E+00  0.00000000000E+00  0.10556004715E+04  0.13216418901E+04  0.79526406328E+03 0.  0.
        2    1    3    3  502    0 -0.23884720857E+03 -0.61042810328E+02  0.93089542920E+01  0.24669996022E+03  0.25500000920E-02 0.  1.
       -2    1    3    3    0  502  0.23884720857E+03  0.61042810328E+02  0.10462915172E+04  0.10749419299E+04  0.25500000920E-02 0. -1.
</event>
<event>
 5   0  0.1656051E-03  0.7998827E+03  0.7818609E-02  0.9560187E-01
        1   -1    0    0  501    0  0.00000000000E+00  0.00000000000E+00  0.27945016133E+03  0.27945016138E+03  0.50400001928E-02 0. -1.
       -1   -1    0    0    0  501  0.00000000000E+00  0.00000000000E+00 -0.57238502949E+03  0.57238502951E+03  0.50400001928E-02 0.  1.
    10030    2    1    2    0    0  0.00000000000E+00  0.00000000000E+00 -0.29293486816E+03  0.85183519089E+03  0.79988271356E+03 0.  0.
        3    1    3    3  502    0 -0.80695306577E+02 -0.37421325049E+03 -0.26977095026E+03  0.46832004564E+03  0.10100000352E+00 0.  1.
       -3    1    3    3    0  502  0.80695306577E+02  0.37421325049E+03 -0.23163917905E+02  0.38351514525E+03  0.10100000352E+00 0. -1.
</event>
<event>
 5   0  0.2763587E-03  0.8001017E+03  0.7818609E-02  0.9559870E-01
        2   -1    0    0  501    0  0.00000000000E+00  0.00000000000E+00  0.24176488560E+03  0.24176488562E+03  0.25500000920E-02 0. -1.
       -2   -1    0    0    0  501  0.00000000000E+00  0.00000000000E+00 -0.66196829811E+03  0.66196829811E+03  0.25500000920E-02 0.  1.
    10030    2    1    2    0    0  0.00000000000E+00  0.00000000000E+00 -0.42020341250E+03  0.90373318373E+03  0.80010171822E+03 0.  0.
        3    1    3    3  502    0 -0.24080784576E+02  0.61331301793E+01 -0.66109570231E+03  0.66156257246E+03  0.10100000352E+00 0.  1.
       -3    1    3    3    0  502  0.24080784576E+02 -0.61331301793E+01  0.24089228981E+03  0.24217061127E+03  0.10100000352E+00 0. -1.
</event>
<event>
 5   0  0.1095350E-03  0.8002409E+03  0.7818609E-02  0.9559668E-01
        3   -1    0    0  501    0  0.00000000000E+00  0.00000000000E+00  0.14118862588E+03  0.14118866200E+03  0.10100000352E+00 0. -1.
       -3   -1    0    0    0  501  0.00000000000E+00  0.00000000000E+00 -0.11339183056E+04  0.11339183101E+04  0.10100000352E+00 0.  1.
    10030    2    1    2    0    0  0.00000000000E+00  0.00000000000E+00 -0.99272967970E+03  0.12751069721E+04  0.80024094702E+03 0.  0.
        4    1    3    3  502    0 -0.31257204107E+03 -0.20420251236E+03 -0.26714256459E+03  0.45909335612E+03  0.12699999809E+01 0. -1.
       -4    1    3    3    0  502  0.31257204107E+03  0.20420251236E+03 -0.72558711511E+03  0.81601361596E+03  0.12699999809E+01 0.  1.
</event>
<event>
 5   0  0.2768834E-03  0.8002805E+03  0.7818609E-02  0.9559611E-01
        2   -1    0    0  501    0  0.00000000000E+00  0.00000000000E+00  0.13072145686E+04  0.13072145686E+04  0.25500000920E-02 0.  1.
       -2   -1    0    0    0  501  0.00000000000E+00  0.00000000000E+00 -0.12248350709E+03  0.12248350711E+03  0.25500000920E-02 0. -1.
    10030    2    1    2    0    0  0.00000000000E+00  0.00000000000E+00  0.11847310615E+04  0.14296980757E+04  0.80028051307E+03 0.  0.
        4    1    3    3  502    0  0.22637796124E+03  0.26914085882E+03  0.25139819752E+03  0.43230365467E+03  0.12699999809E+01 0. -1.
       -4    1    3    3    0  502 -0.22637796124E+03 -0.26914085882E+03  0.93333286399E+03  0.99739442105E+03  0.12699999809E+01 0.  1.
</event>
<event>
 5   0  0.2768834E-03  0.7999238E+03  0.7818609E-02  0.9560127E-01
        2   -1    0    0  501    0  0.00000000000E+00  0.00000000000E+00  0.11197553870E+04  0.11197553871E+04  0.25500000920E-02 0.  1.
       -2   -1    0    0    0  501  0.00000000000E+00  0.00000000000E+00 -0.14286114495E+03  0.14286114498E+03  0.25500000920E-02 0. -1.
    10030    2    1    2    0    0  0.00000000000E+00  0.00000000000E+00  0.97689424209E+03  0.12626165320E+04  0.79992383807E+03 0.  0.
        4    1    3    3  502    0  0.39917198619E+03  0.11802876829E+02  0.52339912478E+03  0.65835084809E+03  0.12699999809E+01 0.  1.
       -4    1    3    3    0  502 -0.39917198619E+03 -0.11802876829E+02  0.45349511732E+03  0.60426568394E+03  0.12699999809E+01 0. -1.
</event>
<event>
 5   0  0.1637228E-03  0.7999921E+03  0.7818609E-02  0.9560029E-01
       -1   -1    0    0    0  501  0.00000000000E+00  0.00000000000E+00  0.23345082473E+03  0.23345082478E+03  0.50400001928E-02 0. -1.
        1   -1    0    0  501    0  0.00000000000E+00  0.00000000000E+00 -0.68535560673E+03  0.68535560675E+03  0.50400001928E-02 0.  1.
    10030    2    1    2    0    0  0.00000000000E+00  0.00000000000E+00 -0.45190478200E+03  0.91880643153E+03  0.79999207910E+03 0.  0.
        2    1    3    3  502    0 -0.84920945079E+02 -0.78240251438E+02 -0.66579743134E+03  0.67573613448E+03  0.25500000920E-02 0.  1.
       -2    1    3    3    0  502  0.84920945079E+02  0.78240251438E+02  0.21389264934E+03  0.24307029705E+03  0.25500000920E-02 0. -1.
</event>
<event>
 5   0  0.2910501E-03  0.7982805E+03  0.7818609E-02  0.9562509E-01
       -2   -1    0    0    0  501  0.00000000000E+00  0.00000000000E+00  0.45961296386E+03  0.45961296387E+03  0.25500000920E-02 0. -1.
        2   -1    0    0  501    0  0.00000000000E+00  0.00000000000E+00 -0.34662410799E+03  0.34662410800E+03  0.25500000920E-02 0.  1.
    10030    2    1    2    0    0  0.00000000000E+00  0.00000000000E+00  0.11298885587E+03  0.80623707187E+03  0.79828048611E+03 0.  0.
        1    1    3    3  502    0 -0.20189010402E+03  0.13148332911E+03 -0.26489967726E+03  0.35807725280E+03  0.50400001928E-02 0.  1.
       -1    1    3    3    0  502  0.20189010402E+03 -0.13148332911E+03  0.37788853313E+03  0.44815981907E+03  0.50400001928E-02 0. -1.
</event>
<event>
 5   0  0.1617491E-03  0.8002858E+03  0.7818609E-02  0.9559604E-01
       -1   -1    0    0    0  501  0.00000000000E+00  0.00000000000E+00  0.17439747237E+03  0.17439747245E+03  0.50400001928E-02 0. -1.
        1   -1    0    0  501    0  0.00000000000E+00  0.00000000000E+00 -0.91810004097E+03  0.91810004099E+03  0.50400001928E-02 0.  1.
    10030    2    1    2    0    0  0.00000000000E+00  0.00000000000E+00 -0.74370256860E+03  0.10924975134E+04  0.80028576541E+03 0.  0.
        1    1    3    3  502    0 -0.24326413489E+03 -0.19297654625E+03 -0.27315251209E+02  0.31171061852E+03  0.50400001928E-02 0. -1.
       -1    1    3    3    0  502  0.24326413489E+03  0.19297654625E+03 -0.71638731739E+03  0.78078689491E+03  0.50400001928E-02 0.  1.
</event>
<event>
 5   0  0.1640035E-03  0.8006687E+03  0.7818609E-02  0.9559050E-01
        1   -1    0    0  501    0  0.00000000000E+00  0.00000000000E+00  0.22791848201E+03  0.22791848207E+03  0.50400001928E-02 0.  1.
       -1   -1    0    0    0  501  0.00000000000E+00  0.00000000000E+00 -0.70317952895E+03  0.70317952897E+03  0.50400001928E-02 0. -1.
    10030    2    1    2    0    0  0.00000000000E+00  0.00000000000E+00 -0.47526104694E+03  0.93109801103E+03  0.80066874762E+03 0.  0.
        5    1    3    3  502    0  0.19453177398E+03  0.31731105562E+03 -0.40900197505E+03  0.55302226239E+03  0.46999998093E+01 0. -1.
       -5    1    3    3    0  502 -0.19453177398E+03 -0.31731105562E+03 -0.66259071889E+02  0.37807574864E+03  0.46999998093E+01 0.  1.
</event>
<event>
 5   0  0.2910501E-03  0.7974076E+03  0.7818609E-02  0.9563777E-01
       -2   -1    0    0    0  501  0.00000000000E+00  0.00000000000E+00  0.26033753986E+03  0.26033753987E+03  0.25500000920E-02 0.  1.
        2   -1    0    0  501    0  0.00000000000E+00  0.00000000000E+00 -0.61061011091E+03  0.61061011092E+03  0.25500000920E-02 0. -1.
    10030    2    1    2    0    0  0.00000000000E+00  0.00000000000E+00 -0.35027257106E+03  0.87094765078E+03  0.79740763501E+03 0.  0.
        1    1    3    3  502    0  0.20644586836E+03 -0.26798098778E+03  0.55348902733E+02  0.34277865662E+03  0.50400001928E-02 0.  1.
       -1    1    3    3    0  502 -0.20644586836E+03  0.26798098778E+03 -0.40562147379E+03  0.52816899417E+03  0.50400001928E-02 0. -1.
</event>
<event>
 5   0  0.1640035E-03  0.7983365E+03  0.7818609E-02  0.9562428E-01
       -1   -1    0    0    0  501  0.00000000000E+00  0.00000000000E+00  0.36822202782E+03  0.36822202785E+03  0.50400001928E-02 0. -1.
        1   -1    0    0  501    0  0.00000000000E+00  0.00000000000E+00 -0.43271530254E+03  0.43271530257E+03  0.50400001928E-02 0.  1.
    10030    2    1    2    0    0  0.00000000000E+00  0.00000000000E+00 -0.64493274720E+02  0.80093733042E+03  0.79833653604E+03 0.  0.
        5    1    3    3  502    0  0.21980148740E+03  0.27140912882E+03  0.16161227482E+03  0.38485870972E+03  0.46999998093E+01 0. -1.
       -5    1    3    3    0  502 -0.21980148740E+03 -0.27140912882E+03 -0.22610554955E+03  0.41607862070E+03  0.46999998093E+01 0.  1.
</event>
<event>
 5   0  0.1656051E-03  0.8009227E+03  0.7818609E-02  0.9558683E-01
        1   -1    0    0  501    0  0.00000000000E+00  0.00000000000E+00  0.47821174840E+03  0.47821174843E+03  0.50400001928E-02 0.  1.
       -1   -1    0    0    0  501  0.00000000000E+00  0.00000000000E+00 -0.33535203818E+03  0.33535203822E+03  0.50400001928E-02 0. -1.
    10030    2    1    2    0    0  0.00000000000E+00  0.00000000000E+00  0.14285971022E+03  0.81356378665E+03  0.80092267926E+03 0.  0.
        3    1    3    3  502    0 -0.88298128261E+02 -0.32312213142E+03 -0.15149880820E+03  0.36763619294E+03  0.10100000352E+00 0. -1.
       -3    1    3    3    0  502  0.88298128261E+02  0.32312213142E+03  0.29435851842E+03  0.44592759372E+03  0.10100000352E+00 0.  1.
</event>
<event>
 5   0  0.1712793E-03  0.8001398E+03  0.7818609E-02  0.9559815E-01
       -1   -1    0    0    0  501  0.00000000000E+00  0.00000000000E+00  0.95309637405E+03  0.95309637407E+03  0.50400001928E-02 0. -1.
        1   -1    0    0  501    0  0.00000000000E+00  0.00000000000E+00 -0.16793258099E+03  0.16793258106E+03  0.50400001928E-02 0.  1.
    10030    2    1    2    0    0  0.00000000000E+00  0.00000000000E+00  0.78516379307E+03  0.11210289551E+04  0.80013982297E+03 0.  0.
        4    1    3    3  502    0 -0.13034210398E+03  0.21437850507E+03  0.82917459388E+03  0.86630209947E+03  0.12699999809E+01 0. -1.
       -4    1    3    3    0  502  0.13034210398E+03 -0.21437850507E+03 -0.44010800811E+02  0.25472685566E+03  0.12699999809E+01 0.  1.
</event>
<event>
 5   0  0.2690809E-03  0.7994896E+03  0.7818609E-02  0.9560756E-01
        2   -1    0    0  501    0  0.00000000000E+00  0.00000000000E+00  0.25738687860E+03  0.25738687861E+03  0.25500000920E-02 0.  1.
       -2   -1    0    0    0  501  0.00000000000E+00  0.00000000000E+00 -0.62083939267E+03  0.62083939268E+03  0.25500000920E-02 0. -1.
    10030    2    1    2    0    0  0.00000000000E+00  0.00000000000E+00 -0.36345251407E+03  0.87822627129E+03  0.79948962070E+03 0.  0.
        5    1    3    3  502    0 -0.37280774074E+03  0.12568577782E+03 -0.25933315155E+03  0.47123062272E+03  0.46999998093E+01 0. -1.
       -5    1    3    3    0  502  0.37280774074E+03 -0.12568577782E+03 -0.10411936252E+03  0.40699564856E+03  0.46999998093E+01 0.  1.
</event>
<event>
 5   0  0.2910501E-03  0.7996287E+03  0.7818609E-02  0.9560555E-01
        2   -1    0    0  501    0  0.00000000000E+00  0.00000000000E+00  0.20759332501E+04  0.20759332501E+04  0.25500000920E-02 0. -1.
       -2   -1    0    0    0  501  0.00000000000E+00  0.00000000000E+00 -0.77002236448E+02  0.77002236490E+02  0.25500000920E-02 0.  1.
    10030    2    1    2    0    0  0.00000000000E+00  0.00000000000E+00  0.19989310136E+04  0.21529354866E+04  0.79962867137E+03 0.  0.
        1    1    3    3  502    0 -0.34463226780E+03  0.17456791060E+03  0.12767473876E+04  0.13339150075E+04  0.50400001928E-02 0. -1.
       -1    1    3    3    0  502  0.34463226780E+03 -0.17456791060E+03  0.72218362598E+03  0.81902047904E+03  0.50400001928E-02 0.  1.
</event>
<event>
 5   0  0.1637228E-03  0.7997259E+03  0.7818609E-02  0.9560414E-01
       -1   -1    0    0    0  501  0.00000000000E+00  0.00000000000E+00  0.66352750569E+03  0.66352750571E+03  0.50400001928E-02 0. -1.
        1   -1    0    0  501    0  0.00000000000E+00  0.00000000000E+00 -0.24097024625E+03  0.24097024630E+03  0.50400001928E-02 0.  1.
    10030    2    1    2    0    0  0.00000000000E+00  0.00000000000E+00  0.42255725944E+03  0.90449775201E+03  0.79972591923E+03 0.  0.
        2    1    3    3  502    0  0.41291952336E+02 -0.38903683704E+03  0.11776867744E+03  0.40856351684E+03  0.25500000920E-02 0.  1.
       -2    1    3    3    0  502 -0.41291952336E+02  0.38903683704E+03  0.30478858199E+03  0.49593423518E+03  0.25500000920E-02 0. -1.
</event>
<event>
 5   0  0.1640035E-03  0.8013983E+03  0.7818609E-02  0.9557995E-01
       -1   -1    0    0    0  501  0.00000000000E+00  0.00000000000E+00  0.62614834490E+03  0.62614834492E+03  0.50400001928E-02 0. -1.
        1   -1    0    0  501    0  0.00000000000E+00  0.00000000000E+00 -0.25642458161E+03  0.25642458166E+03  0.50400001928E-02 0.  1.
    10030    2    1    2    0    0  0.00000000000E+00  0.00000000000E+00  0.36972376328E+03  0.88257292658E+03  0.80139834638E+03 0.  0.
        5    1    3    3  502    0 -0.11082146186E+03 -0.10505548059E+01  0.60890222871E+03  0.61892367397E+03  0.46999998093E+01 0. -1.
       -5    1    3    3    0  502  0.11082146186E+03  0.10505548059E+01 -0.23917846543E+03  0.26364925260E+03  0.46999998093E+01 0.  1.
</event>
<event>
 5   0  0.2763587E-03  0.7995445E+03  0.7818609E-02  0.9560677E-01
        2   -1    0    0  501    0  0.00000000000E+00  0.00000000000E+00  0.10110597163E+04  0.10110597163E+04  0.25500000920E-02 0. -1.
       -2   -1    0    0    0  501  0.00000000000E+00  0.00000000000E+00 -0.15806963516E+03  0.15806963518E+03  0.25500000920E-02 0.  1.
    10030    2    1    2    0    0  0.00000000000E+00  0.00000000000E+00  0.85299008113E+03  0.11691293515E+04  0.79954447153E+03 0.  0.
        3    1    3    3  502    0  0.45842318630E+01  0.37887555678E+03  0.61289607864E+03  0.72056180590E+03  0.10100000352E+00 0.  1.
       -3    1    3    3    0  502 -0.45842318630E+01 -0.37887555678E+03  0.24009400249E+03  0.44856754557E+03  0.10100000352E+00 0. -1.
</event>
<event>
 5   0  0.2910501E-03  0.8011939E+03  0.7818609E-02  0.9558291E-01
       -2   -1    0    0    0  501  0.00000000000E+00  0.00000000000E+00  0.13118877692E+03  0.13118877694E+03  0.25500000920E-02 0. -1.
        2   -1    0    0  501    0  0.00000000000E+00  0.00000000000E+00 -0.12232596319E+04  0.12232596319E+04  0.25500000920E-02 0.  1.
    10030    2    1    2    0    0  0.00000000000E+00  0.00000000000E+00 -0.10920708549E+04  0.13544484088E+04  0.80119394650E+03 0.  0.
        1    1    3    3  502    0  0.11976782350E+03  0.25188659153E+03 -0.59916238074E+02  0.28527380207E+03  0.50400001928E-02 0. -1.
       -1    1    3    3    0  502 -0.11976782350E+03 -0.25188659153E+03 -0.10321546169E+04  0.10691746067E+04  0.50400001928E-02 0.  1.
</event>
<event>
 5   0  0.1095350E-03  0.7977870E+03  0.7818609E-02  0.9563226E-01
       -3   -1    0    0    0  501  0.00000000000E+00  0.00000000000E+00  0.61015416751E+03  0.61015417587E+03  0.10100000352E+00 0. -1.
        3   -1    0    0  501    0  0.00000000000E+00  0.00000000000E+00 -0.26078000680E+03  0.26078002636E+03  0.10100000352E+00 0.  1.
    10030    2    1    2    0    0  0.00000000000E+00  0.00000000000E+00  0.34937416070E+03  0.87093420223E+03  0.79778698939E+03 0.  0.
        1    1    3    3  502    0 -0.98503326609E+02 -0.25183233918E+03  0.49482080731E+03  0.56388834336E+03  0.50400001928E-02 0. -1.
       -1    1    3    3    0  502  0.98503326609E+02  0.25183233918E+03 -0.14544664661E+03  0.30704585886E+03  0.50400001928E-02 0.  1.
</event>
<event>
 5   0  0.1640035E-03  0.7999561E+03  0.7818609E-02  0.9560081E-01
        1   -1    0    0  501    0  0.00000000000E+00  0.00000000000E+00  0.34919639506E+03  0.34919639510E+03  0.50400001928E-02 0. -1.
       -1   -1    0    0    0  501  0.00000000000E+00  0.00000000000E+00 -0.45814462505E+03  0.45814462508E+03  0.50400001928E-02 0.  1.
    10030    2    1    2    0    0  0.00000000000E+00  0.00000000000E+00 -0.10894822999E+03  0.80734102017E+03  0.79995612757E+03 0.  0.
        5    1    3    3  502    0 -0.14211523911E+03 -0.10609165898E+03  0.30731561668E+03  0.35484807953E+03  0.46999998093E+01 0. -1.
       -5    1    3    3    0  502  0.14211523911E+03  0.10609165898E+03 -0.41626384667E+03  0.45249294064E+03  0.46999998093E+01 0.  1.
</event>
<event>
 5   0  0.1637228E-03  0.7997815E+03  0.7818609E-02  0.9560333E-01
       -1   -1    0    0    0  501  0.00000000000E+00  0.00000000000E+00  0.16340627496E+03  0.16340627504E+03  0.50400001928E-02 0.  1.
        1   -1    0    0  501    0  0.00000000000E+00  0.00000000000E+00 -0.97861984465E+03  0.97861984467E+03  0.50400001928E-02 0. -1.
    10030    2    1    2    0    0  0.00000000000E+00  0.00000000000E+00 -0.81521356969E+03  0.11420261197E+04  0.79978152884E+03 0.  0.
        2    1    3    3  502    0 -0.13695067950E+03 -0.35710782802E+03 -0.24089332642E+03  0.45200783640E+03  0.25500000920E-02 0.  1.
       -2    1    3    3    0  502  0.13695067950E+03  0.35710782802E+03 -0.57432024328E+03  0.69001828330E+03  0.25500000920E-02 0. -1.
</event>
<event>
 5   0  0.1640035E-03  0.8004608E+03  0.7818609E-02  0.9559350E-01
       -1   -1    0    0    0  501  0.00000000000E+00  0.00000000000E+00  0.17647991346E+03  0.17647991353E+03  0.50400001928E-02 0. -1.
        1   -1    0    0  501    0  0.00000000000E+00  0.00000000000E+00 -0.90766354035E+03  0.90766354036E+03  0.50400001928E-02 0.  1.
    10030    2    1    2    0    0  0.00000000000E+00  0.00000000000E+00 -0.73118362689E+03  0.10841434539E+04  0.80046082502E+03 0.  0.
        5    1    3    3  502    0  0.39656537448E+02 -0.98816114040E+02  0.15690621468E+03  0.18968108909E+03  0.46999998093E+01 0. -1.
       -5    1    3    3    0  502 -0.39656537448E+02  0.98816114040E+02 -0.88808984156E+03  0.89446236480E+03  0.46999998093E+01 0.  1.
</event>
<event>
 5   0  0.1637228E-03  0.8006585E+03  0.7818609E-02  0.9559064E-01
        1   -1    0    0  501    0  0.00000000000E+00  0.00000000000E+00  0.97132949403E+03  0.97132949405E+03  0.50400001928E-02 0.  1.
       -1   -1    0    0    0  501  0.00000000000E+00  0.00000000000E+00 -0.16499397415E+03  0.16499397423E+03  0.50400001928E-02 0. -1.
    10030    2    1    2    0    0  0.00000000000E+00  0.00000000000E+00  0.80633551988E+03  0.11363234683E+04  0.80065851267E+03 0.  0.
        2    1    3    3  502    0  0.12271293046E+03  0.11452080748E+03 -0.11264214563E+03  0.20214284956E+03  0.25500000920E-02 0. -1.
       -2    1    3    3    0  502 -0.12271293046E+03 -0.11452080748E+03  0.91897766552E+03  0.93418061871E+03  0.25500000920E-02 0.  1.
</event>
<event>
 5   0  0.1640035E-03  0.7996913E+03  0.7818609E-02  0.9560464E-01
        1   -1    0    0  501    0  0.00000000000E+00  0.00000000000E+00  0.60792428873E+03  0.60792428875E+03  0.50400001928E-02 0. -1.
       -1   -1    0    0    0  501  0.00000000000E+00  0.00000000000E+00 -0.26298759444E+03  0.26298759449E+03  0.50400001928E-02 0.  1.
    10030    2    1    2    0    0  0.00000000000E+00  0.00000000000E+00  0.34493669429E+03  0.87091188324E+03  0.79969130626E+03 0.  0.
        5    1    3    3  502    0  0.38907803835E+03  0.88366779419E+02  0.14440420275E+03  0.42434074916E+03  0.46999998093E+01 0. -1.
       -5    1    3    3    0  502 -0.38907803835E+03 -0.88366779419E+02  0.20053249154E+03  0.44657113408E+03  0.46999998093E+01 0.  1.
</event>
<event>
 5   0  0.1095350E-03  0.8066112E+03  0.7818609E-02  0.9550497E-01
        4   -1    0    0  501    0  0.00000000000E+00  0.00000000000E+00  0.56010038983E+03  0.56010182966E+03  0.12699999809E+01 0.  1.
       -4   -1    0    0    0  501  0.00000000000E+00  0.00000000000E+00 -0.29040085404E+03  0.29040363105E+03  0.12699999809E+01 0. -1.
    10030    2    1    2    0    0  0.00000000000E+00  0.00000000000E+00  0.26969953579E+03  0.85050546070E+03  0.80661124408E+03 0.  0.
        3    1    3    3  502    0 -0.16709693094E+03 -0.18007119561E+03 -0.20241305433E+03  0.31830500245E+03  0.10100000352E+00 0. -1.
       -3    1    3    3    0  502  0.16709693094E+03  0.18007119561E+03  0.47211259012E+03  0.53220045826E+03  0.10100000352E+00 0.  1.
</event>
<event>
 5   0  0.2763587E-03  0.7992770E+03  0.7818609E-02  0.9561064E-01
       -2   -1    0    0    0  501  0.00000000000E+00  0.00000000000E+00  0.15243238416E+03  0.15243238418E+03  0.25500000920E-02 0. -1.
        2   -1    0    0  501    0  0.00000000000E+00  0.00000000000E+00 -0.10477494011E+04  0.10477494011E+04  0.25500000920E-02 0.  1.
    10030    2    1    2    0    0  0.00000000000E+00  0.00000000000E+00 -0.89531701694E+03  0.12001817853E+04  0.79927702139E+03 0.  0.
        3    1    3    3  502    0 -0.43911524798E+01  0.37691682366E+03 -0.64700960947E+03  0.74880372537E+03  0.10100000352E+00 0.  1.
       -3    1    3    3    0  502  0.43911524798E+01 -0.37691682366E+03 -0.24830740747E+03  0.45137805992E+03  0.10100000352E+00 0. -1.
</event>
<event>
 5   0  0.2873212E-03  0.7985739E+03  0.7818609E-02  0.9562084E-01
       -2   -1    0    0    0  501  0.00000000000E+00  0.00000000000E+00  0.42277342102E+03  0.42277342103E+03  0.25500000920E-02 0. -1.
        2   -1    0    0  501    0  0.00000000000E+00  0.00000000000E+00 -0.37710526859E+03  0.37710526860E+03  0.25500000920E-02 0.  1.
    10030    2    1    2    0    0  0.00000000000E+00  0.00000000000E+00  0.45668152427E+02  0.79987868963E+03  0.79857394020E+03 0.  0.
        2    1    3    3  502    0 -0.95849208783E+02 -0.14798901503E+03  0.38166828796E+03  0.42042657080E+03  0.25500000920E-02 0. -1.
       -2    1    3    3    0  502  0.95849208783E+02  0.14798901503E+03 -0.33600013554E+03  0.37945211882E+03  0.25500000920E-02 0.  1.
</event>
<event>
 5   0  0.2910501E-03  0.8017161E+03  0.7818609E-02  0.9557536E-01
       -2   -1    0    0    0  501  0.00000000000E+00  0.00000000000E+00  0.44115563105E+03  0.44115563105E+03  0.25500000920E-02 0. -1.
        2   -1    0    0  501    0  0.00000000000E+00  0.00000000000E+00 -0.36424148439E+03  0.36424148440E+03  0.25500000920E-02 0.  1.
    10030    2    1    2    0    0  0.00000000000E+00  0.00000000000E+00  0.76914146659E+02  0.80539711545E+03  0.80171611411E+03 0.  0.
        1    1    3    3  502    0  0.24661162510E+03  0.20570308605E+03  0.27946717410E+03  0.42571463996E+03  0.50400001928E-02 0. -1.
       -1    1    3    3    0  502 -0.24661162510E+03 -0.20570308605E+03 -0.20255302744E+03  0.37968247550E+03  0.50400001928E-02 0.  1.
</event>
<event>
 5   0  0.1637228E-03  0.8007431E+03  0.7818609E-02  0.9558942E-01
       -1   -1    0    0    0  501  0.00000000000E+00  0.00000000000E+00  0.56559637232E+03  0.56559637234E+03  0.50400001928E-02 0.  1.
        1   -1    0    0  501    0  0.00000000000E+00  0.00000000000E+00 -0.28341304678E+03  0.28341304682E+03  0.50400001928E-02 0. -1.
    10030    2    1    2    0    0  0.00000000000E+00  0.00000000000E+00  0.28218332554E+03  0.84900941917E+03  0.80074313273E+03 0.  0.
        2    1    3    3  502    0 -0.12204784175E+03 -0.37749182524E+03  0.19820543589E+03  0.44348748418E+03  0.25500000920E-02 0.  1.
       -2    1    3    3    0  502  0.12204784175E+03  0.37749182524E+03  0.83977889654E+02  0.40552193499E+03  0.25500000920E-02 0. -1.
</event>
<event>
 5   0  0.2768834E-03  0.7997742E+03  0.7818609E-02  0.9560344E-01
        2   -1    0    0  501    0  0.00000000000E+00  0.00000000000E+00  0.24757549421E+03  0.24757549422E+03  0.25500000920E-02 0. -1.
       -2   -1    0    0    0  501  0.00000000000E+00  0.00000000000E+00 -0.64590277966E+03  0.64590277967E+03  0.25500000920E-02 0.  1.
    10030    2    1    2    0    0  0.00000000000E+00  0.00000000000E+00 -0.39832728545E+03  0.89347827389E+03  0.79977421788E+03 0.  0.
        4    1    3    3  502    0 -0.78672054181E+02 -0.16150722033E+03  0.19995328566E+03  0.26880625676E+03  0.12699999809E+01 0. -1.
       -4    1    3    3    0  502  0.78672054181E+02  0.16150722033E+03 -0.59828057111E+03  0.62467201714E+03  0.12699999809E+01 0.  1.
</event>
<event>
 5   0  0.1712793E-03  0.8005822E+03  0.7818609E-02  0.9559175E-01
       -1   -1    0    0    0  501  0.00000000000E+00  0.00000000000E+00  0.81152996656E+03  0.81152996658E+03  0.50400001928E-02 0. -1.
        1   -1    0    0  501    0  0.00000000000E+00  0.00000000000E+00 -0.19744554324E+03  0.19744554330E+03  0.50400001928E-02 0.  1.
    10030    2    1    2    0    0  0.00000000000E+00  0.00000000000E+00  0.61408442333E+03  0.10089755099E+04  0.80058222599E+03 0.  0.
        4    1    3    3  502    0 -0.11237531831E+03 -0.22907345780E+03 -0.81671631927E+02  0.26790806183E+03  0.12699999809E+01 0.  1.
       -4    1    3    3    0  502  0.11237531831E+03  0.22907345780E+03  0.69575605525E+03  0.74106744805E+03  0.12699999809E+01 0. -1.
</event>
<event>
 5   0  0.1637228E-03  0.8003227E+03  0.7818609E-02  0.9559550E-01
        1   -1    0    0  501    0  0.00000000000E+00  0.00000000000E+00  0.56018332384E+03  0.56018332386E+03  0.50400001928E-02 0.  1.
       -1   -1    0    0    0  501  0.00000000000E+00  0.00000000000E+00 -0.28585122838E+03  0.28585122842E+03  0.50400001928E-02 0. -1.
    10030    2    1    2    0    0  0.00000000000E+00  0.00000000000E+00  0.27433209546E+03  0.84603455228E+03  0.80032266309E+03 0.  0.
        2    1    3    3  502    0 -0.70797370336E+02 -0.94475650274E+02 -0.26702208994E+03  0.29195669656E+03  0.25500000920E-02 0. -1.
       -2    1    3    3    0  502  0.70797370336E+02  0.94475650274E+02  0.54135418540E+03  0.55407785572E+03  0.25500000920E-02 0.  1.
</event>
<event>
 5   0  0.2763587E-03  0.7996297E+03  0.7818609E-02  0.9560553E-01
       -2   -1    0    0    0  501  0.00000000000E+00  0.00000000000E+00  0.31610072342E+03  0.31610072343E+03  0.25500000920E-02 0. -1.
        2   -1    0    0  501    0  0.00000000000E+00  0.00000000000E+00 -0.50569932364E+03  0.50569932365E+03  0.25500000920E-02 0.  1.
    10030    2    1    2    0    0  0.00000000000E+00  0.00000000000E+00 -0.18959860022E+03  0.82180004708E+03  0.79962971942E+03 0.  0.
        3    1    3    3  502    0  0.39443250574E+03  0.34226423352E+02 -0.37546007853E+02  0.39769103906E+03  0.10100000352E+00 0.  1.
       -3    1    3    3    0  502 -0.39443250574E+03 -0.34226423352E+02 -0.15205259236E+03  0.42410900802E+03  0.10100000352E+00 0. -1.
</event>
<event>
 5   0  0.1640035E-03  0.7995922E+03  0.7818609E-02  0.9560608E-01
       -1   -1    0    0    0  501  0.00000000000E+00  0.00000000000E+00  0.25398490611E+03  0.25398490616E+03  0.50400001928E-02 0.  1.
        1   -1    0    0  501    0  0.00000000000E+00  0.00000000000E+00 -0.62931657296E+03  0.62931657298E+03  0.50400001928E-02 0. -1.
    10030    2    1    2    0    0  0.00000000000E+00  0.00000000000E+00 -0.37533166685E+03  0.88330147914E+03  0.79959217287E+03 0.  0.
        5    1    3    3  502    0 -0.30313367873E+03  0.67354284931E+02 -0.46579376898E+03  0.55983261078E+03  0.46999998093E+01 0. -1.
       -5    1    3    3    0  502  0.30313367873E+03 -0.67354284931E+02  0.90462102124E+02  0.32346886836E+03  0.46999998093E+01 0.  1.
</event>
<event>
 5   0  0.2763587E-03  0.7986214E+03  0.7818609E-02  0.9562015E-01
       -2   -1    0    0    0  501  0.00000000000E+00  0.00000000000E+00  0.69827306883E+03  0.69827306883E+03  0.25500000920E-02 0. -1.
        2   -1    0    0  501    0  0.00000000000E+00  0.00000000000E+00 -0.22834767501E+03  0.22834767502E+03  0.25500000920E-02 0.  1.
    10030    2    1    2    0    0  0.00000000000E+00  0.00000000000E+00  0.46992539382E+03  0.92662074386E+03  0.79862139164E+03 0.  0.
        3    1    3    3  502    0 -0.24598191576E+03 -0.58515050881E+02  0.59355707737E+03  0.64516751961E+03  0.10100000352E+00 0. -1.
       -3    1    3    3    0  502  0.24598191576E+03  0.58515050881E+02 -0.12363168355E+03  0.28145322425E+03  0.10100000352E+00 0.  1.
</event>
<event>
 5   0  0.1095350E-03  0.7998386E+03  0.7818609E-02  0.9560251E-01
       -3   -1    0    0    0  501  0.00000000000E+00  0.00000000000E+00  0.65655137574E+02  0.65655215260E+02  0.10100000352E+00 0.  1.
        3   -1    0    0  501    0  0.00000000000E+00  0.00000000000E+00 -0.24359914814E+04  0.24359914835E+04  0.10100000352E+00 0. -1.
    10030    2    1    2    0    0  0.00000000000E+00  0.00000000000E+00 -0.23703363438E+04  0.25016466987E+04  0.79983862279E+03 0.  0.
        3    1    3    3  502    0 -0.39135797230E+03  0.50629537070E+02 -0.98220468180E+03  0.10585133252E+04  0.10100000352E+00 0.  1.
       -3    1    3    3    0  502  0.39135797230E+03 -0.50629537070E+02 -0.13881316620E+04  0.14431333735E+04  0.10100000352E+00 0. -1.
</event>
<event>
 5   0  0.1712793E-03  0.8003217E+03  0.7818609E-02  0.9559552E-01
       -1   -1    0    0    0  501  0.00000000000E+00  0.00000000000E+00  0.25588556409E+03  0.25588556414E+03  0.50400001928E-02 0. -1.
        1   -1    0    0  501    0  0.00000000000E+00  0.00000000000E+00 -0.62578242284E+03  0.62578242286E+03  0.50400001928E-02 0.  1.
    10030    2    1    2    0    0  0.00000000000E+00  0.00000000000E+00 -0.36989685875E+03  0.88166798700E+03  0.80032165608E+03 0.  0.
        4    1    3    3  502    0 -0.29263407371E+03 -0.22850210724E+03 -0.20515072820E+02  0.37184727406E+03  0.12699999809E+01 0. -1.
       -4    1    3    3    0  502  0.29263407371E+03  0.22850210724E+03 -0.34938178593E+03  0.50982071295E+03  0.12699999809E+01 0.  1.
</event>
<event>
 5   0  0.1640035E-03  0.7988984E+03  0.7818609E-02  0.9561613E-01
       -1   -1    0    0    0  501  0.00000000000E+00  0.00000000000E+00  0.17238140614E+03  0.17238140621E+03  0.50400001928E-02 0.  1.
        1   -1    0    0  501    0  0.00000000000E+00  0.00000000000E+00 -0.92561993976E+03  0.92561993978E+03  0.50400001928E-02 0. -1.
    10030    2    1    2    0    0  0.00000000000E+00  0.00000000000E+00 -0.75323853363E+03  0.10980013460E+04  0.79889840860E+03 0.  0.
        5    1    3    3  502    0  0.30349785153E+03  0.75670657616E+02 -0.35225216175E+02  0.31480136620E+03  0.46999998093E+01 0.  1.
       -5    1    3    3    0  502 -0.30349785153E+03 -0.75670657616E+02 -0.71801331745E+03  0.78319997979E+03  0.46999998093E+01 0. -1.
</event>
<event>
 5   0  0.2690809E-03  0.8000357E+03  0.7818609E-02  0.9559965E-01
       -2   -1    0    0    0  501  0.00000000000E+00  0.00000000000E+00  0.23277521557E+03  0.23277521559E+03  0.25500000920E-02 0.  1.
        2   -1    0    0  501    0  0.00000000000E+00  0.00000000000E+00 -0.68741968695E+03  0.68741968696E+03  0.25500000920E-02 0. -1.
    10030    2    1    2    0    0  0.00000000000E+00  0.00000000000E+00 -0.45464447138E+03  0.92019490254E+03  0.80003566377E+03 0.  0.
        5    1    3    3  502    0 -0.79261142691E+02 -0.17594411647E+03 -0.63030590246E+03  0.65920124509E+03  0.46999998093E+01 0. -1.
       -5    1    3    3    0  502  0.79261142691E+02  0.17594411647E+03  0.17566143108E+03  0.26099365745E+03  0.46999998093E+01 0.  1.
</event>
<event>
 5   0  0.1617491E-03  0.7995159E+03  0.7818609E-02  0.9560718E-01
       -1   -1    0    0    0  501  0.00000000000E+00  0.00000000000E+00  0.43483884461E+03  0.43483884464E+03  0.50400001928E-02 0. -1.
        1   -1    0    0  501    0  0.00000000000E+00  0.00000000000E+00 -0.36750719915E+03  0.36750719918E+03  0.50400001928E-02 0.  1.
    10030    2    1    2    0    0  0.00000000000E+00  0.00000000000E+00  0.67331645460E+02  0.80234604382E+03  0.79951586823E+03 0.  0.
        1    1    3    3  502    0 -0.75194998560E+02  0.92714196797E+02  0.41653462177E+03  0.43330278242E+03  0.50400001928E-02 0. -1.
       -1    1    3    3    0  502  0.75194998560E+02 -0.92714196797E+02 -0.34920297631E+03  0.36904326140E+03  0.50400001928E-02 0.  1.
</event>
<event>
 5   0  0.2690809E-03  0.8008298E+03  0.7818609E-02  0.9558817E-01
        2   -1    0    0  501    0  0.00000000000E+00  0.00000000000E+00  0.10455627770E+04  0.10455627770E+04  0.25500000920E-02 0.  1.
       -2   -1    0    0    0  501  0.00000000000E+00  0.00000000000E+00 -0.15334527339E+03  0.15334527341E+03  0.25500000920E-02 0. -1.
    10030    2    1    2    0    0  0.00000000000E+00  0.00000000000E+00  0.89221750364E+03  0.11989080504E+04  0.80082984435E+03 0.  0.
        5    1    3    3  502    0 -0.23339570210E+03 -0.31176058325E+03  0.58527946565E+03  0.70302372502E+03  0.46999998093E+01 0.  1.
       -5    1    3    3    0  502  0.23339570210E+03  0.31176058325E+03  0.30693803799E+03  0.49588432541E+03  0.46999998093E+01 0. -1.
</event>
<event>
 5   0  0.1637228E-03  0.8000844E+03  0.7818609E-02  0.9559895E-01
       -1   -1    0    0    0  501  0.00000000000E+00  0.00000000000E+00  0.25273958366E+03  0.25273958371E+03  0.50400001928E-02 0. -1.
        1   -1    0    0  501    0  0.00000000000E+00  0.00000000000E+00 -0.63319630487E+03  0.63319630489E+03  0.50400001928E-02 0.  1.
    10030    2    1    2    0    0  0.00000000000E+00  0.00000000000E+00 -0.38045672120E+03  0.88593588860E+03  0.80008442180E+03 0.  0.
        2    1    3    3  502    0  0.34879624476E+03 -0.13282482344E+03 -0.34966659979E+03  0.51143717610E+03  0.25500000920E-02 0.  1.
       -2    1    3    3    0  502 -0.34879624476E+03  0.13282482344E+03 -0.30790121412E+02  0.37449871250E+03  0.25500000920E-02 0. -1.
</event>
<event>
 5   0  0.1656051E-03  0.7998824E+03  0.7818609E-02  0.9560187E-01
        1   -1    0    0  501    0  0.00000000000E+00  0.00000000000E+00  0.49890969881E+03  0.49890969884E+03  0.50400001928E-02 0.  1.
       -1   -1    0    0    0  501  0.00000000000E+00  0.00000000000E+00 -0.32060502601E+03  0.32060502605E+03  0.50400001928E-02 0. -1.
    10030    2    1    2    0    0  0.00000000000E+00  0.00000000000E+00  0.17830467280E+03  0.81951472489E+03  0.79988238383E+03 0.  0.
        3    1    3    3  502    0 -0.30579106876E+03 -0.72730433946E+02 -0.16421276957E+03  0.35463183395E+03  0.10100000352E+00 0. -1.
       -3    1    3    3    0  502  0.30579106876E+03  0.72730433946E+02  0.34251744237E+03  0.46488289094E+03  0.10100000352E+00 0.  1.
</event>
<event>
 5   0  0.1095350E-03  0.7995951E+03  0.7818609E-02  0.9560603E-01
        3   -1    0    0  501    0  0.00000000000E+00  0.00000000000E+00  0.17830215556E+03  0.17830218416E+03  0.10100000352E+00 0. -1.
       -3   -1    0    0    0  501  0.00000000000E+00  0.00000000000E+00 -0.89644485109E+03  0.89644485678E+03  0.10100000352E+00 0.  1.
    10030    2    1    2    0    0  0.00000000000E+00  0.00000000000E+00 -0.71814269553E+03  0.10747470409E+04  0.79959506681E+03 0.  0.
        3    1    3    3  502    0 -0.23034537198E+03  0.12930600638E+03  0.44295099198E+02  0.26784529060E+03  0.10100000352E+00 0. -1.
       -3    1    3    3    0  502  0.23034537198E+03 -0.12930600638E+03 -0.76243779473E+03  0.80690175035E+03  0.10100000352E+00 0.  1.
</event>
<event>
 5   0  0.1640035E-03  0.7981341E+03  0.7818609E-02  0.9562722E-01
        1   -1    0    0  501    0  0.00000000000E+00  0.00000000000E+00  0.14703799016E+03  0.14703799024E+03  0.50400001928E-02 0. -1.
       -1   -1    0    0    0  501  0.00000000000E+00  0.00000000000E+00 -0.10830839848E+04  0.10830839848E+04  0.50400001928E-02 0.  1.
    10030    2    1    2    0    0  0.00000000000E+00  0.00000000000E+00 -0.93604599463E+03  0.12301219750E+04  0.79813405480E+03 0.  0.
        5    1    3    3  502    0  0.23011497005E+03 -0.26227288759E+03 -0.76645415303E+03  0.84214845823E+03  0.46999998093E+01 0.  1.
       -5    1    3    3    0  502 -0.23011497005E+03  0.26227288759E+03 -0.16959184160E+03  0.38797351681E+03  0.46999998093E+01 0. -1.
</event>
<event>
 5   0  0.2873212E-03  0.8073251E+03  0.7818609E-02  0.9549474E-01
        2   -1    0    0  501    0  0.00000000000E+00  0.00000000000E+00  0.22587772862E+04  0.22587772862E+04  0.25500000920E-02 0.  1.
       -2   -1    0    0    0  501  0.00000000000E+00  0.00000000000E+00 -0.72137906675E+02  0.72137906720E+02  0.25500000920E-02 0. -1.
    10030    2    1    2    0    0  0.00000000000E+00  0.00000000000E+00  0.21866393795E+04  0.23309151929E+04  0.80732512689E+03 0.  0.
        2    1    3    3  502    0 -0.17098667701E+03  0.14479382071E+03  0.20627585604E+04  0.20748914605E+04  0.25500000920E-02 0.  1.
       -2    1    3    3    0  502  0.17098667701E+03 -0.14479382071E+03  0.12388081915E+03  0.25602373247E+03  0.25500000920E-02 0. -1.
</event>
<event>
 5   0  0.2910501E-03  0.7970518E+03  0.7818609E-02  0.9564294E-01
        2   -1    0    0  501    0  0.00000000000E+00  0.00000000000E+00  0.79932529870E+03  0.79932529871E+03  0.25500000920E-02 0.  1.
       -2   -1    0    0    0  501  0.00000000000E+00  0.00000000000E+00 -0.19869618693E+03  0.19869618695E+03  0.25500000920E-02 0. -1.
    10030    2    1    2    0    0  0.00000000000E+00  0.00000000000E+00  0.60062911177E+03  0.99802148566E+03  0.79705178999E+03 0.  0.
        1    1    3    3  502    0  0.15724269827E+03 -0.21819586347E+03 -0.67926111197E+02  0.27739621051E+03  0.50400001928E-02 0. -1.
       -1    1    3    3    0  502 -0.15724269827E+03  0.21819586347E+03  0.66855522297E+03  0.72062527515E+03  0.50400001928E-02 0.  1.
</event>
<event>
 5   0  0.1617491E-03  0.8013786E+03  0.7818609E-02  0.9558024E-01
        1   -1    0    0  501    0  0.00000000000E+00  0.00000000000E+00  0.50693352968E+03  0.50693352970E+03  0.50400001928E-02 0. -1.
       -1   -1    0    0    0  501  0.00000000000E+00  0.00000000000E+00 -0.31671193737E+03  0.31671193741E+03  0.50400001928E-02 0.  1.
    10030    2    1    2    0    0  0.00000000000E+00  0.00000000000E+00  0.19022159231E+03  0.82364546711E+03  0.80137856305E+03 0.  0.
        1    1    3    3  502    0 -0.36305476057E+03 -0.19592587652E+02  0.26819208803E+03  0.45179599906E+03  0.50400001928E-02 0. -1.
       -1    1    3    3    0  502  0.36305476057E+03  0.19592587652E+02 -0.77970495721E+02  0.37184946805E+03  0.50400001928E-02 0.  1.
</event>
<event>
 5   0  0.1656051E-03  0.7997848E+03  0.7818609E-02  0.9560329E-01
        1   -1    0    0  501    0  0.00000000000E+00  0.00000000000E+00  0.75853729363E+03  0.75853729365E+03  0.50400001928E-02 0. -1.
       -1   -1    0    0    0  501  0.00000000000E+00  0.00000000000E+00 -0.21081883219E+03  0.21081883225E+03  0.50400001928E-02 0.  1.
    10030    2    1    2    0    0  0.00000000000E+00  0.00000000000E+00  0.54771846144E+03  0.96935612589E+03  0.79978483719E+03 0.  0.
        3    1    3    3  502    0 -0.20029964072E+02  0.39790475412E+02 -0.20780207768E+03  0.21252339891E+03  0.10100000352E+00 0.  1.
       -3    1    3    3    0  502  0.20029964072E+02 -0.39790475412E+02  0.75552053912E+03  0.75683272698E+03  0.10100000352E+00 0. -1.
</event>
<event>
 5   0  0.1656051E-03  0.7999115E+03  0.7818609E-02  0.9560145E-01
        1   -1    0    0  501    0  0.00000000000E+00  0.00000000000E+00  0.38121418862E+03  0.38121418865E+03  0.50400001928E-02 0. -1.
       -1   -1    0    0    0  501  0.00000000000E+00  0.00000000000E+00 -0.41961873869E+03  0.41961873872E+03  0.50400001928E-02 0.  1.
    10030    2    1    2    0    0  0.00000000000E+00  0.00000000000E+00 -0.38404550068E+02  0.80083292737E+03  0.79991153767E+03 0.  0.
        3    1    3    3  502    0  0.56278202397E+02  0.24596322101E+03  0.29147672378E+03  0.38551761680E+03  0.10100000352E+00 0. -1.
       -3    1    3    3    0  502 -0.56278202397E+02 -0.24596322101E+03 -0.32988127385E+03  0.41531531057E+03  0.10100000352E+00 0.  1.
</event>
<event>
 5   0  0.1637228E-03  0.8004461E+03  0.7818609E-02  0.9559372E-01
       -1   -1    0    0    0  501  0.00000000000E+00  0.00000000000E+00  0.11999827290E+03  0.11999827300E+03  0.50400001928E-02 0.  1.
        1   -1    0    0  501    0  0.00000000000E+00  0.00000000000E+00 -0.13348399227E+04  0.13348399227E+04  0.50400001928E-02 0. -1.
    10030    2    1    2    0    0  0.00000000000E+00  0.00000000000E+00 -0.12148416498E+04  0.14548381957E+04  0.80044608913E+03 0.  0.
        2    1    3    3  502    0  0.63223621198E+01 -0.81097024537E+02  0.10481560664E+03  0.13267633946E+03  0.25500000920E-02 0.  1.
       -2    1    3    3    0  502 -0.63223621198E+01  0.81097024537E+02 -0.13196572564E+04  0.13221618562E+04  0.25500000920E-02 0. -1.
</event>
<event>
 5   0  0.2910501E-03  0.8007289E+03  0.7818609E-02  0.9558963E-01
        2   -1    0    0  501    0  0.00000000000E+00  0.00000000000E+00  0.62494917774E+03  0.62494917775E+03  0.25500000920E-02 0. -1.
       -2   -1    0    0    0  501  0.00000000000E+00  0.00000000000E+00 -0.25648759004E+03  0.25648759006E+03  0.25500000920E-02 0.  1.
    10030    2    1    2    0    0  0.00000000000E+00  0.00000000000E+00  0.36846158770E+03  0.88143676780E+03  0.80072893917E+03 0.  0.
        1    1    3    3  502    0 -0.33200560205E+03  0.21069976470E+03  0.26711690526E+03  0.47536675498E+03  0.50400001928E-02 0. -1.
       -1    1    3    3    0  502  0.33200560205E+03 -0.21069976470E+03  0.10134468243E+03  0.40607001283E+03  0.50400001928E-02 0.  1.
</event>
<event>
 5   0  0.2763587E-03  0.7999662E+03  0.7818609E-02  0.9560066E-01
        2   -1    0    0  501    0  0.00000000000E+00  0.00000000000E+00  0.74790949770E+03  0.74790949770E+03  0.25500000920E-02 0.  1.
       -2   -1    0    0    0  501  0.00000000000E+00  0.00000000000E+00 -0.21391157074E+03  0.21391157075E+03  0.25500000920E-02 0. -1.
    10030    2    1    2    0    0  0.00000000000E+00  0.00000000000E+00  0.53399792696E+03  0.96182106846E+03  0.79996623787E+03 0.  0.
        3    1    3    3  502    0 -0.19957475295E+03 -0.31211171110E+03  0.44831803097E+03  0.58157791336E+03  0.10100000352E+00 0.  1.
       -3    1    3    3    0  502  0.19957475295E+03  0.31211171110E+03  0.85679895994E+02  0.38024315509E+03  0.10100000352E+00 0. -1.
</event>
<event>
 5   0  0.1656051E-03  0.8003685E+03  0.7818609E-02  0.9559484E-01
       -1   -1    0    0    0  501  0.00000000000E+00  0.00000000000E+00  0.15906244430E+03  0.15906244438E+03  0.50400001928E-02 0.  1.
        1   -1    0    0  501    0  0.00000000000E+00  0.00000000000E+00 -0.10068211188E+04  0.10068211188E+04  0.50400001928E-02 0. -1.
    10030    2    1    2    0    0  0.00000000000E+00  0.00000000000E+00 -0.84775867445E+03  0.11658835631E+04  0.80036848558E+03 0.  0.
        3    1    3    3  502    0  0.16303498672E+03 -0.29885176147E+03 -0.73031872416E+03  0.80576561809E+03  0.10100000352E+00 0. -1.
       -3    1    3    3    0  502 -0.16303498672E+03  0.29885176147E+03 -0.11743995029E+03  0.36011794506E+03  0.10100000352E+00 0.  1.
</event>
<event>
 5   0  0.2768834E-03  0.8003983E+03  0.7818609E-02  0.9559441E-01
       -2   -1    0    0    0  501  0.00000000000E+00  0.00000000000E+00  0.15270110283E+03  0.15270110285E+03  0.25500000920E-02 0.  1.
        2   -1    0    0  501    0  0.00000000000E+00  0.00000000000E+00 -0.10488422091E+04  0.10488422091E+04  0.25500000920E-02 0. -1.
    10030    2    1    2    0    0  0.00000000000E+00  0.00000000000E+00 -0.89614110626E+03  0.12015433119E+04  0.80039830593E+03 0.  0.
        4    1    3    3  502    0  0.28943903836E+03 -0.27422668886E+03 -0.39644833540E+03  0.56227051261E+03  0.12699999809E+01 0. -1.
       -4    1    3    3    0  502 -0.28943903836E+03  0.27422668886E+03 -0.49969277086E+03  0.63927279933E+03  0.12699999809E+01 0.  1.
</event>
<event>
 5   0  0.1656051E-03  0.7981204E+03  0.7818609E-02  0.9562742E-01
       -1   -1    0    0    0  501  0.00000000000E+00  0.00000000000E+00  0.70202818551E+03  0.70202818553E+03  0.50400001928E-02 0.  1.
        1   -1    0    0  501    0  0.00000000000E+00  0.00000000000E+00 -0.22684138885E+03  0.22684138891E+03  0.50400001928E-02 0. -1.
    10030    2    1    2    0    0  0.00000000000E+00  0.00000000000E+00  0.47518679666E+03  0.92886957444E+03  0.79812041360E+03 0.  0.
        3    1    3    3  502    0 -0.31034055060E+03  0.20874683902E+03  0.39953836840E+03  0.54728184528E+03  0.10100000352E+00 0.  1.
       -3    1    3    3    0  502  0.31034055060E+03 -0.20874683902E+03  0.75648428255E+02  0.38158772916E+03  0.10100000352E+00 0. -1.
</event>
<event>
 5   0  0.1656051E-03  0.7999218E+03  0.7818609E-02  0.9560130E-01
       -1   -1    0    0    0  501  0.00000000000E+00  0.00000000000E+00  0.19054587959E+03  0.19054587965E+03  0.50400001928E-02 0.  1.
        1   -1    0    0  501    0  0.00000000000E+00  0.00000000000E+00 -0.83952857067E+03  0.83952857068E+03  0.50400001928E-02 0. -1.
    10030    2    1    2    0    0  0.00000000000E+00  0.00000000000E+00 -0.64898269108E+03  0.10300744503E+04  0.79992177112E+03 0.  0.
        3    1    3    3  502    0 -0.34942543801E+03 -0.19051535173E+03 -0.37558740859E+03  0.54722952010E+03  0.10100000352E+00 0. -1.
       -3    1    3    3    0  502  0.34942543801E+03  0.19051535173E+03 -0.27339528249E+03  0.48284493024E+03  0.10100000352E+00 0.  1.
</event>
<event>
 5   0  0.2690809E-03  0.8000697E+03  0.7818609E-02  0.9559916E-01
        2   -1    0    0  501    0  0.00000000000E+00  0.00000000000E+00  0.67542929140E+03  0.67542929141E+03  0.25500000920E-02 0. -1.
       -2   -1    0    0    0  501  0.00000000000E+00  0.00000000000E+00 -0.23692765527E+03  0.23692765528E+03  0.25500000920E-02 0.  1.
    10030    2    1    2    0    0  0.00000000000E+00  0.00000000000E+00  0.43850163613E+03  0.91235694669E+03  0.80006969276E+03 0.  0.
        5    1    3    3  502    0 -0.35269418918E+03 -0.18783581494E+03  0.23997578235E+03  0.46613941109E+03  0.46999998093E+01 0. -1.
       -5    1    3    3    0  502  0.35269418918E+03  0.18783581494E+03  0.19852585378E+03  0.44621753560E+03  0.46999998093E+01 0.  1.
</event>
<event>
 5   0  0.1712793E-03  0.7989821E+03  0.7818609E-02  0.9561492E-01
       -1   -1    0    0    0  501  0.00000000000E+00  0.00000000000E+00  0.44103995812E+03  0.44103995815E+03  0.50400001928E-02 0.  1.
        1   -1    0    0  501    0  0.00000000000E+00  0.00000000000E+00 -0.36185629044E+03  0.36185629048E+03  0.50400001928E-02 0. -1.
    10030    2    1    2    0    0  0.00000000000E+00  0.00000000000E+00  0.79183667676E+02  0.80289624862E+03  0.79898206039E+03 0.  0.
        4    1    3    3  502    0  0.35226159290E+03  0.67876398948E+02 -0.13704195078E+03  0.38402805176E+03  0.12699999809E+01 0.  1.
       -4    1    3    3    0  502 -0.35226159290E+03 -0.67876398948E+02  0.21622561846E+03  0.41886819686E+03  0.12699999809E+01 0. -1.
</event>
<event>
 5   0  0.1656051E-03  0.8003264E+03  0.7818609E-02  0.9559545E-01
        1   -1    0    0  501    0  0.00000000000E+00  0.00000000000E+00  0.21680526493E+03  0.21680526499E+03  0.50400001928E-02 0. -1.
       -1   -1    0    0    0  501  0.00000000000E+00  0.00000000000E+00 -0.73859181794E+03  0.73859181795E+03  0.50400001928E-02 0.  1.
    10030    2    1    2    0    0  0.00000000000E+00  0.00000000000E+00 -0.52178655300E+03  0.95539708295E+03  0.80032642041E+03 0.  0.
        3    1    3    3  502    0 -0.36468165075E+03  0.37607414036E+02 -0.45235514736E+03  0.58226472804E+03  0.10100000352E+00 0.  1.
       -3    1    3    3    0  502  0.36468165075E+03 -0.37607414036E+02 -0.69431405647E+02  0.37313235490E+03  0.10100000352E+00 0. -1.
</event>
<event>
 5   0  0.2873212E-03  0.8009250E+03  0.7818609E-02  0.9558679E-01
        2   -1    0    0  501    0  0.00000000000E+00  0.00000000000E+00  0.14257815694E+04  0.14257815694E+04  0.25500000920E-02 0.  1.
       -2   -1    0    0    0  501  0.00000000000E+00  0.00000000000E+00 -0.11247881317E+03  0.11247881320E+03  0.25500000920E-02 0. -1.
    10030    2    1    2    0    0  0.00000000000E+00  0.00000000000E+00  0.13133027562E+04  0.15382603826E+04  0.80092501218E+03 0.  0.
        2    1    3    3  502    0  0.31528592941E+03  0.24614542806E+03  0.61933873139E+03  0.73727420493E+03  0.25500000920E-02 0.  1.
       -2    1    3    3    0  502 -0.31528592941E+03 -0.24614542806E+03  0.69396402481E+03  0.80098617765E+03  0.25500000920E-02 0. -1.
</event>
<event>
 5   0  0.1712793E-03  0.7997025E+03  0.7818609E-02  0.9560448E-01
       -1   -1    0    0    0  501  0.00000000000E+00  0.00000000000E+00  0.23597086751E+03  0.23597086756E+03  0.50400001928E-02 0. -1.
        1   -1    0    0  501    0  0.00000000000E+00  0.00000000000E+00 -0.67754556021E+03  0.67754556023E+03  0.50400001928E-02 0.  1.
    10030    2    1    2    0    0  0.00000000000E+00  0.00000000000E+00 -0.44157469270E+03  0.91351642779E+03  0.79970247881E+03 0.  0.
        4    1    3    3  502    0  0.10849417422E+03 -0.30438079920E+02  0.21745584587E+03  0.24492064093E+03  0.12699999809E+01 0. -1.
       -4    1    3    3    0  502 -0.10849417422E+03  0.30438079920E+02 -0.65903053857E+03  0.66859578687E+03  0.12699999809E+01 0.  1.
</event>
<event>
 5   0  0.2910501E-03  0.8000938E+03  0.7818609E-02  0.9559881E-01
       -2   -1    0    0    0  501  0.00000000000E+00  0.00000000000E+00  0.89287582367E+02  0.89287582404E+02  0.25500000920E-02 0.  1.
        2   -1    0    0  501    0  0.00000000000E+00  0.00000000000E+00 -0.17923826274E+04  0.17923826274E+04  0.25500000920E-02 0. -1.
    10030    2    1    2    0    0  0.00000000000E+00  0.00000000000E+00 -0.17030950450E+04  0.18816702098E+04  0.80009377329E+03 0.  0.
        1    1    3    3  502    0  0.14138831071E+03  0.26878559157E+03 -0.23916725240E+03  0.38657123960E+03  0.50400001928E-02 0.  1.
       -1    1    3    3    0  502 -0.14138831071E+03 -0.26878559157E+03 -0.14639277926E+04  0.14950989702E+04  0.50400001928E-02 0. -1.
</event>
<event>
 5   0  0.1095350E-03  0.8002687E+03  0.7818609E-02  0.9559628E-01
        4   -1    0    0  501    0  0.00000000000E+00  0.00000000000E+00  0.71013317145E+03  0.71013430709E+03  0.12699999809E+01 0. -1.
       -4   -1    0    0    0  501  0.00000000000E+00  0.00000000000E+00 -0.22545810091E+03  0.22546167782E+03  0.12699999809E+01 0.  1.
    10030    2    1    2    0    0  0.00000000000E+00  0.00000000000E+00  0.48467507055E+03  0.93559598490E+03  0.80026865674E+03 0.  0.
        5    1    3    3  502    0  0.19660094181E+03 -0.28909534349E+03  0.14865713675E+02  0.34995875098E+03  0.46999998093E+01 0.  1.
       -5    1    3    3    0  502 -0.19660094181E+03  0.28909534349E+03  0.46980935687E+03  0.58563723392E+03  0.46999998093E+01 0. -1.
</event>
<event>
 5   0  0.1712793E-03  0.7992624E+03  0.7818609E-02  0.9561085E-01
       -1   -1    0    0    0  501  0.00000000000E+00  0.00000000000E+00  0.15229561162E+03  0.15229561171E+03  0.50400001928E-02 0. -1.
        1   -1    0    0  501    0  0.00000000000E+00  0.00000000000E+00 -0.10486519718E+04  0.10486519718E+04  0.50400001928E-02 0.  1.
    10030    2    1    2    0    0  0.00000000000E+00  0.00000000000E+00 -0.89635636015E+03  0.12009475835E+04  0.79926239366E+03 0.  0.
        4    1    3    3  502    0  0.21335346421E+03  0.18749584546E+03 -0.25774048039E+02  0.28520222161E+03  0.12699999809E+01 0. -1.
       -4    1    3    3    0  502 -0.21335346421E+03 -0.18749584546E+03 -0.87058231211E+03  0.91574536188E+03  0.12699999809E+01 0.  1.
</event>
<event>
 5   0  0.2763587E-03  0.7976747E+03  0.7818609E-02  0.9563389E-01
       -2   -1    0    0    0  501  0.00000000000E+00  0.00000000000E+00  0.14611144757E+03  0.14611144760E+03  0.25500000920E-02 0. -1.
        2   -1    0    0  501    0  0.00000000000E+00  0.00000000000E+00 -0.10886979882E+04  0.10886979882E+04  0.25500000920E-02 0.  1.
    10030    2    1    2    0    0  0.00000000000E+00  0.00000000000E+00 -0.94258654058E+03  0.12348094358E+04  0.79767471826E+03 0.  0.
        3    1    3    3  502    0  0.23372918190E+03 -0.31664212242E+03 -0.37121383823E+03  0.54100950829E+03  0.10100000352E+00 0.  1.
       -3    1    3    3    0  502 -0.23372918190E+03  0.31664212242E+03 -0.57137270235E+03  0.69379992747E+03  0.10100000352E+00 0. -1.
</event>
<event>
 5   0  0.1656051E-03  0.8008697E+03  0.7818609E-02  0.9558759E-01
        1   -1    0    0  501    0  0.00000000000E+00  0.00000000000E+00  0.10719671380E+04  0.10719671380E+04  0.50400001928E-02 0. -1.
       -1   -1    0    0    0  501  0.00000000000E+00  0.00000000000E+00 -0.14958299000E+03  0.14958299009E+03  0.50400001928E-02 0.  1.
    10030    2    1    2    0    0  0.00000000000E+00  0.00000000000E+00  0.92238414798E+03  0.12215501281E+04  0.80086965168E+03 0.  0.
        3    1    3    3  502    0  0.21505074481E+03 -0.26478993601E+03  0.78109199200E+03  0.85232930445E+03  0.10100000352E+00 0. -1.
       -3    1    3    3    0  502 -0.21505074481E+03  0.26478993601E+03  0.14129215597E+03  0.36922082363E+03  0.10100000352E+00 0.  1.
</event>
<event>
 5   0  0.2873212E-03  0.8006881E+03  0.7818609E-02  0.9559022E-01
        2   -1    0    0  501    0  0.00000000000E+00  0.00000000000E+00  0.90273956570E+03  0.90273956570E+03  0.25500000920E-02 0. -1.
       -2   -1    0    0    0  501  0.00000000000E+00  0.00000000000E+00 -0.17754329137E+03  0.17754329139E+03  0.25500000920E-02 0.  1.
    10030    2    1    2    0    0  0.00000000000E+00  0.00000000000E+00  0.72519627432E+03  0.10802828571E+04  0.80068808848E+03 0.  0.
        2    1    3    3  502    0 -0.19967376298E+02  0.19881987644E+03  0.83064821113E+03  0.85434447973E+03  0.25500000920E-02 0. -1.
       -2    1    3    3    0  502  0.19967376298E+02 -0.19881987644E+03 -0.10545193681E+03  0.22593837736E+03  0.25500000920E-02 0.  1.
</event>
<event>
 5   0  0.2763587E-03  0.8003442E+03  0.7818609E-02  0.9559519E-01
       -2   -1    0    0    0  501  0.00000000000E+00  0.00000000000E+00  0.12451860881E+03  0.12451860884E+03  0.25500000920E-02 0. -1.
        2   -1    0    0  501    0  0.00000000000E+00  0.00000000000E+00 -0.12860543726E+04  0.12860543726E+04  0.25500000920E-02 0.  1.
    10030    2    1    2    0    0  0.00000000000E+00  0.00000000000E+00 -0.11615357638E+04  0.14105729814E+04  0.80034417933E+03 0.  0.
        3    1    3    3  502    0  0.33844289071E+02 -0.58821729073E+02 -0.12758386284E+04  0.12776422221E+04  0.10100000352E+00 0.  1.
       -3    1    3    3    0  502 -0.33844289071E+02  0.58821729073E+02  0.11430286463E+03  0.13293075934E+03  0.10100000352E+00 0. -1.
</event>
<event>
 5   0  0.2873212E-03  0.8004551E+03  0.7818609E-02  0.9559359E-01
        2   -1    0    0  501    0  0.00000000000E+00  0.00000000000E+00  0.56743891842E+03  0.56743891843E+03  0.25500000920E-02 0. -1.
       -2   -1    0    0    0  501  0.00000000000E+00  0.00000000000E+00 -0.28228957152E+03  0.28228957153E+03  0.25500000920E-02 0.  1.
    10030    2    1    2    0    0  0.00000000000E+00  0.00000000000E+00  0.28514934690E+03  0.84972848996E+03  0.80045509343E+03 0.  0.
        2    1    3    3  502    0  0.26814194069E+03 -0.74868056908E+02 -0.16266075403E+03  0.32243425254E+03  0.25500000920E-02 0.  1.
       -2    1    3    3    0  502 -0.26814194069E+03  0.74868056908E+02  0.44781010094E+03  0.52729423741E+03  0.25500000920E-02 0. -1.
</event>
<event>
 5   0  0.2768834E-03  0.8006899E+03  0.7818609E-02  0.9559019E-01
       -2   -1    0    0    0  501  0.00000000000E+00  0.00000000000E+00  0.39548036035E+03  0.39548036036E+03  0.25500000920E-02 0. -1.
        2   -1    0    0  501    0  0.00000000000E+00  0.00000000000E+00 -0.40526940697E+03  0.40526940698E+03  0.25500000920E-02 0.  1.
    10030    2    1    2    0    0  0.00000000000E+00  0.00000000000E+00 -0.97890466198E+01  0.80074976734E+03  0.80068993029E+03 0.  0.
        4    1    3    3  502    0 -0.28653091653E+03  0.10920607794E+03 -0.26230168473E+03  0.40352164787E+03  0.12699999809E+01 0.  1.
       -4    1    3    3    0  502  0.28653091653E+03 -0.10920607794E+03  0.25251263811E+03  0.39722811947E+03  0.12699999809E+01 0. -1.
</event>
<event>
 5   0  0.1640035E-03  0.7987826E+03  0.7818609E-02  0.9561781E-01
       -1   -1    0    0    0  501  0.00000000000E+00  0.00000000000E+00  0.48288824553E+03  0.48288824556E+03  0.50400001928E-02 0.  1.
        1   -1    0    0  501    0  0.00000000000E+00  0.00000000000E+00 -0.33033189892E+03  0.33033189896E+03  0.50400001928E-02 0. -1.
    10030    2    1    2    0    0  0.00000000000E+00  0.00000000000E+00  0.15255634662E+03  0.81322014452E+03  0.79878255148E+03 0.  0.
        5    1    3    3  502    0  0.25079057471E+03  0.27574048941E+03 -0.69710199812E+02  0.37922332710E+03  0.46999998093E+01 0.  1.
       -5    1    3    3    0  502 -0.25079057471E+03 -0.27574048941E+03  0.22226654643E+03  0.43399681741E+03  0.46999998093E+01 0. -1.
</event>
<event>
 5   0  0.1712793E-03  0.7998657E+03  0.7818609E-02  0.9560211E-01
        1   -1    0    0  501    0  0.00000000000E+00  0.00000000000E+00  0.12665725261E+04  0.12665725261E+04  0.50400001928E-02 0.  1.
       -1   -1    0    0    0  501  0.00000000000E+00  0.00000000000E+00 -0.12628277644E+03  0.12628277654E+03  0.50400001928E-02 0. -1.
    10030    2    1    2    0    0  0.00000000000E+00  0.00000000000E+00  0.11402897497E+04  0.13928553027E+04  0.79986572683E+03 0.  0.
        4    1    3    3  502    0  0.25004875336E+03  0.28130836672E+03  0.80562114936E+03  0.88920516499E+03  0.12699999809E+01 0. -1.
       -4    1    3    3    0  502 -0.25004875336E+03 -0.28130836672E+03  0.33466860030E+03  0.50365013767E+03  0.12699999809E+01 0.  1.
</event>
<event>
 5   0  0.2873212E-03  0.8062672E+03  0.7818609E-02  0.9550990E-01
        2   -1    0    0  501    0  0.00000000000E+00  0.00000000000E+00  0.80450622163E+03  0.80450622163E+03  0.25500000920E-02 0. -1.
       -2   -1    0    0    0  501  0.00000000000E+00  0.00000000000E+00 -0.20200800491E+03  0.20200800493E+03  0.25500000920E-02 0.  1.
    10030    2    1    2    0    0  0.00000000000E+00  0.00000000000E+00  0.60249821671E+03  0.10065142266E+04  0.80626719338E+03 0.  0.
        2    1    3    3  502    0 -0.13646436319E+03  0.18584421564E+03  0.71407073361E+03  0.75037164626E+03  0.25500000920E-02 0. -1.
       -2    1    3    3    0  502  0.13646436319E+03 -0.18584421564E+03 -0.11157251690E+03  0.25614258030E+03  0.25500000920E-02 0.  1.
</event>
<event>
 5   0  0.2873212E-03  0.7948568E+03  0.7818609E-02  0.9567492E-01
       -2   -1    0    0    0  501  0.00000000000E+00  0.00000000000E+00  0.15793207165E+03  0.15793207167E+03  0.25500000920E-02 0. -1.
        2   -1    0    0  501    0  0.00000000000E+00  0.00000000000E+00 -0.10001093636E+04  0.10001093636E+04  0.25500000920E-02 0.  1.
    10030    2    1    2    0    0  0.00000000000E+00  0.00000000000E+00 -0.84217729196E+03  0.11580414353E+04  0.79485682656E+03 0.  0.
        2    1    3    3  502    0 -0.13231598782E+03 -0.29633929636E+02 -0.96536736629E+03  0.97484349632E+03  0.25500000920E-02 0.  1.
       -2    1    3    3    0  502  0.13231598782E+03  0.29633929636E+02  0.12319007433E+03  0.18319793896E+03  0.25500000920E-02 0. -1.
</event>
<event>
 5   0  0.1095350E-03  0.7977813E+03  0.7818609E-02  0.9563234E-01
       -3   -1    0    0    0  501  0.00000000000E+00  0.00000000000E+00  0.65391506171E+03  0.65391506951E+03  0.10100000352E+00 0. -1.
        3   -1    0    0  501    0  0.00000000000E+00  0.00000000000E+00 -0.24332479536E+03  0.24332481632E+03  0.10100000352E+00 0.  1.
    10030    2    1    2    0    0  0.00000000000E+00  0.00000000000E+00  0.41059026635E+03  0.89723988583E+03  0.79778132711E+03 0.  0.
        2    1    3    3  502    0 -0.17582636853E+03  0.19201089406E+03  0.54518093039E+03  0.60415671988E+03  0.25500000920E-02 0. -1.
       -2    1    3    3    0  502  0.17582636853E+03 -0.19201089406E+03 -0.13459066403E+03  0.29308316595E+03  0.25500000920E-02 0.  1.
</event>
<event>
 5   0  0.2763587E-03  0.7992814E+03  0.7818609E-02  0.9561058E-01
       -2   -1    0    0    0  501  0.00000000000E+00  0.00000000000E+00  0.40347900875E+03  0.40347900876E+03  0.25500000920E-02 0.  1.
        2   -1    0    0  501    0  0.00000000000E+00  0.00000000000E+00 -0.39583893434E+03  0.39583893435E+03  0.25500000920E-02 0. -1.
    10030    2    1    2    0    0  0.00000000000E+00  0.00000000000E+00  0.76400744150E+01  0.79931794311E+03  0.79928142943E+03 0.  0.
        3    1    3    3  502    0 -0.24619983236E+03 -0.89509746145E+01 -0.31086593386E+03  0.39665112686E+03  0.10100000352E+00 0. -1.
       -3    1    3    3    0  502  0.24619983236E+03  0.89509746145E+01  0.31850600827E+03  0.40266681625E+03  0.10100000352E+00 0.  1.
</event>
<event>
 5   0  0.1095350E-03  0.8005139E+03  0.7818609E-02  0.9559274E-01
       -4   -1    0    0    0  501  0.00000000000E+00  0.00000000000E+00  0.50117732553E+03  0.50117893464E+03  0.12699999809E+01 0.  1.
        4   -1    0    0  501    0  0.00000000000E+00  0.00000000000E+00 -0.31965515534E+03  0.31965767821E+03  0.12699999809E+01 0. -1.
    10030    2    1    2    0    0  0.00000000000E+00  0.00000000000E+00  0.18152217019E+03  0.82083661284E+03  0.80051386416E+03 0.  0.
        1    1    3    3  502    0 -0.43567086577E+02  0.39659032231E+03  0.57954515485E+02  0.40316336723E+03  0.50400001928E-02 0.  1.
       -1    1    3    3    0  502  0.43567086577E+02 -0.39659032231E+03  0.12356765470E+03  0.41767324561E+03  0.50400001928E-02 0. -1.
</event>
<event>
 5   0  0.1617491E-03  0.8003273E+03  0.7818609E-02  0.9559543E-01
        1   -1    0    0  501    0  0.00000000000E+00  0.00000000000E+00  0.12103139088E+04  0.12103139088E+04  0.50400001928E-02 0. -1.
       -1   -1    0    0    0  501  0.00000000000E+00  0.00000000000E+00 -0.13230531313E+03  0.13230531322E+03  0.50400001928E-02 0.  1.
    10030    2    1    2    0    0  0.00000000000E+00  0.00000000000E+00  0.10780085957E+04  0.13426192221E+04  0.80032733494E+03 0.  0.
        1    1    3    3  502    0  0.29691464604E+03 -0.26734974825E+03  0.57639477958E+03  0.70133097527E+03  0.50400001928E-02 0. -1.
       -1    1    3    3    0  502 -0.29691464604E+03  0.26734974825E+03  0.50161381611E+03  0.64128824678E+03  0.50400001928E-02 0.  1.
</event>
<event>
 5   0  0.2873212E-03  0.8004775E+03  0.7818609E-02  0.9559326E-01
       -2   -1    0    0    0  501  0.00000000000E+00  0.00000000000E+00  0.52626817351E+03  0.52626817351E+03  0.25500000920E-02 0. -1.
        2   -1    0    0  501    0  0.00000000000E+00  0.00000000000E+00 -0.30439054312E+03  0.30439054313E+03  0.25500000920E-02 0.  1.
    10030    2    1    2    0    0  0.00000000000E+00  0.00000000000E+00  0.22187763038E+03  0.83065871665E+03  0.80047749542E+03 0.  0.
        2    1    3    3  502    0 -0.79955640422E+02 -0.22654480184E+03  0.44312666411E+03  0.50406020684E+03  0.25500000920E-02 0. -1.
       -2    1    3    3    0  502  0.79955640422E+02  0.22654480184E+03 -0.22124903372E+03  0.32659850980E+03  0.25500000920E-02 0.  1.
</event>
<event>
 5   0  0.2690809E-03  0.7993527E+03  0.7818609E-02  0.9560954E-01
       -2   -1    0    0    0  501  0.00000000000E+00  0.00000000000E+00  0.42892658132E+03  0.42892658133E+03  0.25500000920E-02 0.  1.
        2   -1    0    0  501    0  0.00000000000E+00  0.00000000000E+00 -0.37242083343E+03  0.37242083344E+03  0.25500000920E-02 0. -1.
    10030    2    1    2    0    0  0.00000000000E+00  0.00000000000E+00  0.56505747892E+02  0.80134741477E+03  0.79935272541E+03 0.  0.
        5    1    3    3  502    0 -0.38665353354E+03 -0.66328953144E+02  0.10472309990E+03  0.40606588465E+03  0.46999998093E+01 0.  1.
       -5    1    3    3    0  502  0.38665353354E+03  0.66328953144E+02 -0.48217352008E+02  0.39528153012E+03  0.46999998093E+01 0. -1.
</event>
<event>
 5   0  0.1095350E-03  0.7996881E+03  0.7818609E-02  0.9560469E-01
        4   -1    0    0  501    0  0.00000000000E+00  0.00000000000E+00  0.33020498088E+03  0.33020742314E+03  0.12699999809E+01 0. -1.
       -4   -1    0    0    0  501  0.00000000000E+00  0.00000000000E+00 -0.48416468027E+03  0.48416634592E+03  0.12699999809E+01 0.  1.
    10030    2    1    2    0    0  0.00000000000E+00  0.00000000000E+00 -0.15395969939E+03  0.81437376906E+03  0.79968809338E+03 0.  0.
        1    1    3    3  502    0  0.34810613708E+03 -0.76555229958E+01 -0.27715713909E+03  0.44503097587E+03  0.50400001928E-02 0.  1.
       -1    1    3    3    0  502 -0.34810613708E+03  0.76555229958E+01  0.12319743970E+03  0.36934279319E+03  0.50400001928E-02 0. -1.
</event>
<event>
 5   0  0.1640035E-03  0.8032834E+03  0.7818609E-02  0.9555277E-01
        1   -1    0    0  501    0  0.00000000000E+00  0.00000000000E+00  0.15244635563E+04  0.15244635563E+04  0.50400001928E-02 0. -1.
       -1   -1    0    0    0  501  0.00000000000E+00  0.00000000000E+00 -0.10581823820E+03  0.10581823832E+03  0.50400001928E-02 0.  1.
    10030    2    1    2    0    0  0.00000000000E+00  0.00000000000E+00  0.14186453181E+04  0.16302817946E+04  0.80328338170E+03 0.  0.
        5    1    3    3  502    0  0.58036810276E+02 -0.10056834959E+03  0.14895987380E+04  0.14941247453E+04  0.46999998093E+01 0. -1.
       -5    1    3    3    0  502 -0.58036810276E+02  0.10056834959E+03 -0.70953419902E+02  0.13615704932E+03  0.46999998093E+01 0.  1.
</event>
<event>
 5   0  0.2768834E-03  0.7999106E+03  0.7818609E-02  0.9560146E-01
       -2   -1    0    0    0  501  0.00000000000E+00  0.00000000000E+00  0.70460489739E+02  0.70460489785E+02  0.25500000920E-02 0.  1.
        2   -1    0    0  501    0  0.00000000000E+00  0.00000000000E+00 -0.22702688338E+04  0.22702688338E+04  0.25500000920E-02 0. -1.
    10030    2    1    2    0    0  0.00000000000E+00  0.00000000000E+00 -0.21998083441E+04  0.23407293236E+04  0.79991062982E+03 0.  0.
        4    1    3    3  502    0 -0.31378565270E+03  0.10379518344E+03 -0.17589757635E+04  0.17897575884E+04  0.12699999809E+01 0. -1.
       -4    1    3    3    0  502  0.31378565270E+03 -0.10379518344E+03 -0.44083258061E+03  0.55097173518E+03  0.12699999809E+01 0.  1.
</event>
<event>
 5   0  0.1656051E-03  0.7996623E+03  0.7818609E-02  0.9560506E-01
        1   -1    0    0  501    0  0.00000000000E+00  0.00000000000E+00  0.68203377220E+03  0.68203377222E+03  0.50400001928E-02 0. -1.
       -1   -1    0    0    0  501  0.00000000000E+00  0.00000000000E+00 -0.23439445653E+03  0.23439445658E+03  0.50400001928E-02 0.  1.
    10030    2    1    2    0    0  0.00000000000E+00  0.00000000000E+00  0.44763931567E+03  0.91642822880E+03  0.79966226721E+03 0.  0.
        3    1    3    3  502    0 -0.66688193603E+02 -0.24634269311E+03  0.57654953091E+03  0.63050884959E+03  0.10100000352E+00 0. -1.
       -3    1    3    3    0  502  0.66688193603E+02  0.24634269311E+03 -0.12891021524E+03  0.28591937921E+03  0.10100000352E+00 0.  1.
</event>
<event>
 5   0  0.1637228E-03  0.8010060E+03  0.7818609E-02  0.9558562E-01
       -1   -1    0    0    0  501  0.00000000000E+00  0.00000000000E+00  0.20649261572E+03  0.20649261578E+03  0.50400001928E-02 0. -1.
        1   -1    0    0  501    0  0.00000000000E+00  0.00000000000E+00 -0.77679605449E+03  0.77679605450E+03  0.50400001928E-02 0.  1.
    10030    2    1    2    0    0  0.00000000000E+00  0.00000000000E+00 -0.57030343877E+03  0.98328867028E+03  0.80100599051E+03 0.  0.
        2    1    3    3  502    0  0.41517011664E+02  0.13502337669E+03  0.17489564576E+03  0.22481873014E+03  0.25500000920E-02 0. -1.
       -2    1    3    3    0  502 -0.41517011664E+02 -0.13502337669E+03 -0.74519908453E+03  0.75846994014E+03  0.25500000920E-02 0.  1.
</event>
<event>
 5   0  0.2873212E-03  0.8010524E+03  0.7818609E-02  0.9558495E-01
       -2   -1    0    0    0  501  0.00000000000E+00  0.00000000000E+00  0.62757816788E+03  0.62757816789E+03  0.25500000920E-02 0.  1.
        2   -1    0    0  501    0  0.00000000000E+00  0.00000000000E+00 -0.25561954166E+03  0.25561954167E+03  0.25500000920E-02 0. -1.
    10030    2    1    2    0    0  0.00000000000E+00  0.00000000000E+00  0.37195862622E+03  0.88319770955E+03  0.80105241685E+03 0.  0.
        2    1    3    3  502    0 -0.65532301297E+02 -0.35899878184E+02  0.61982543458E+03  0.62431310504E+03  0.25500000920E-02 0.  1.
       -2    1    3    3    0  502  0.65532301297E+02  0.35899878184E+02 -0.24786680835E+03  0.25888460452E+03  0.25500000920E-02 0. -1.
</event>
<event>
 5   0  0.2690809E-03  0.7992899E+03  0.7818609E-02  0.9561045E-01
       -2   -1    0    0    0  501  0.00000000000E+00  0.00000000000E+00  0.25094231664E+03  0.25094231665E+03  0.25500000920E-02 0.  1.
        2   -1    0    0  501    0  0.00000000000E+00  0.00000000000E+00 -0.63646539156E+03  0.63646539156E+03  0.25500000920E-02 0. -1.
    10030    2    1    2    0    0  0.00000000000E+00  0.00000000000E+00 -0.38552307492E+03  0.88740770821E+03  0.79928993444E+03 0.  0.
        5    1    3    3  502    0  0.21955813869E+02  0.16966921239E+03  0.20819576501E+03  0.26951301631E+03  0.46999998093E+01 0.  1.
       -5    1    3    3    0  502 -0.21955813869E+02 -0.16966921239E+03 -0.59371883993E+03  0.61789469190E+03  0.46999998093E+01 0. -1.
</event>
<event>
 5   0  0.1712793E-03  0.7998615E+03  0.7818609E-02  0.9560218E-01
        1   -1    0    0  501    0  0.00000000000E+00  0.00000000000E+00  0.30002727428E+03  0.30002727432E+03  0.50400001928E-02 0. -1.
       -1   -1    0    0    0  501  0.00000000000E+00  0.00000000000E+00 -0.53310015776E+03  0.53310015778E+03  0.50400001928E-02 0.  1.
    10030    2    1    2    0    0  0.00000000000E+00  0.00000000000E+00 -0.23307288348E+03  0.83312743210E+03  0.79986145619E+03 0.  0.
        4    1    3    3  502    0 -0.26680434538E+03 -0.36718970788E+02  0.19141167695E+03  0.33041320267E+03  0.12699999809E+01 0. -1.
       -4    1    3    3    0  502  0.26680434538E+03  0.36718970788E+02 -0.42448456043E+03  0.50271422943E+03  0.12699999809E+01 0.  1.
</event>
<event>
 5   0  0.2690809E-03  0.7996882E+03  0.7818609E-02  0.9560469E-01
       -2   -1    0    0    0  501  0.00000000000E+00  0.00000000000E+00  0.37378398029E+03  0.37378398029E+03  0.25500000920E-02 0. -1.
        2   -1    0    0  501    0  0.00000000000E+00  0.00000000000E+00 -0.42772113332E+03  0.42772113333E+03  0.25500000920E-02 0.  1.
    10030    2    1    2    0    0  0.00000000000E+00  0.00000000000E+00 -0.53937153036E+02  0.80150511362E+03  0.79968820842E+03 0.  0.
        5    1    3    3  502    0  0.20480123929E+03 -0.28388494752E+03  0.16665161382E+03  0.38772291837E+03  0.46999998093E+01 0. -1.
       -5    1    3    3    0  502 -0.20480123929E+03  0.28388494752E+03 -0.22058876685E+03  0.41378219525E+03  0.46999998093E+01 0.  1.
</event>
<event>
 5   0  0.1095350E-03  0.8009760E+03  0.7818609E-02  0.9558605E-01
       -3   -1    0    0    0  501  0.00000000000E+00  0.00000000000E+00  0.11818944135E+03  0.11818948450E+03  0.10100000352E+00 0. -1.
        3   -1    0    0  501    0  0.00000000000E+00  0.00000000000E+00 -0.13570638763E+04  0.13570638801E+04  0.10100000352E+00 0.  1.
    10030    2    1    2    0    0  0.00000000000E+00  0.00000000000E+00 -0.12388744350E+04  0.14752533646E+04  0.80097604464E+03 0.  0.
        5    1    3    3  502    0 -0.17133890731E+03  0.36003523261E+03 -0.68801071436E+03  0.79521269039E+03  0.46999998093E+01 0.  1.
       -5    1    3    3    0  502  0.17133890731E+03 -0.36003523261E+03 -0.55086372061E+03  0.68004067420E+03  0.46999998093E+01 0. -1.
</event>
<event>
 5   0  0.1656051E-03  0.8014867E+03  0.7818609E-02  0.9557868E-01
        1   -1    0    0  501    0  0.00000000000E+00  0.00000000000E+00  0.41426732078E+03  0.41426732081E+03  0.50400001928E-02 0.  1.
       -1   -1    0    0    0  501  0.00000000000E+00  0.00000000000E+00 -0.38766089966E+03  0.38766089969E+03  0.50400001928E-02 0. -1.
    10030    2    1    2    0    0  0.00000000000E+00  0.00000000000E+00  0.26606421122E+02  0.80192822050E+03  0.80148672428E+03 0.  0.
        3    1    3    3  502    0  0.14875138234E+03 -0.17409313901E+03 -0.31575457931E+03  0.39004661177E+03  0.10100000352E+00 0. -1.
       -3    1    3    3    0  502 -0.14875138234E+03  0.17409313901E+03  0.34236100043E+03  0.41188160874E+03  0.10100000352E+00 0.  1.
</event>
<event>
 5   0  0.2873212E-03  0.7994743E+03  0.7818609E-02  0.9560778E-01
       -2   -1    0    0    0  501  0.00000000000E+00  0.00000000000E+00  0.15602846675E+03  0.15602846677E+03  0.25500000920E-02 0.  1.
        2   -1    0    0  501    0  0.00000000000E+00  0.00000000000E+00 -0.10241065941E+04  0.10241065941E+04  0.25500000920E-02 0. -1.
    10030    2    1    2    0    0  0.00000000000E+00  0.00000000000E+00 -0.86807812735E+03  0.11801350609E+04  0.79947428147E+03 0.  0.
        2    1    3    3  502    0 -0.30950228859E+03 -0.19622147406E+03 -0.19834055345E+03  0.41669354287E+03  0.25500000920E-02 0.  1.
       -2    1    3    3    0  502  0.30950228859E+03  0.19622147406E+03 -0.66973757390E+03  0.76344151801E+03  0.25500000920E-02 0. -1.
</event>
<event>
 5   0  0.2763587E-03  0.8008590E+03  0.7818609E-02  0.9558775E-01
        2   -1    0    0  501    0  0.00000000000E+00  0.00000000000E+00  0.21553763992E+04  0.21553763992E+04  0.25500000920E-02 0. -1.
       -2   -1    0    0    0  501  0.00000000000E+00  0.00000000000E+00 -0.74392476270E+02  0.74392476314E+02  0.25500000920E-02 0.  1.
    10030    2    1    2    0    0  0.00000000000E+00  0.00000000000E+00  0.20809839229E+04  0.22297688755E+04  0.80085900801E+03 0.  0.
        3    1    3    3  502    0  0.27186397382E+03 -0.81016075161E+02  0.25363454649E+03  0.38053136279E+03  0.10100000352E+00 0.  1.
       -3    1    3    3    0  502 -0.27186397382E+03  0.81016075161E+02  0.18273493764E+04  0.18492375127E+04  0.10100000352E+00 0. -1.
</event>
<event>
 5   0  0.2910501E-03  0.7997994E+03  0.7818609E-02  0.9560308E-01
       -2   -1    0    0    0  501  0.00000000000E+00  0.00000000000E+00  0.28247673284E+03  0.28247673285E+03  0.25500000920E-02 0. -1.
        2   -1    0    0  501    0  0.00000000000E+00  0.00000000000E+00 -0.56613426583E+03  0.56613426584E+03  0.25500000920E-02 0.  1.
    10030    2    1    2    0    0  0.00000000000E+00  0.00000000000E+00 -0.28365753300E+03  0.84861099869E+03  0.79979936926E+03 0.  0.
        1    1    3    3  502    0  0.24695610643E+03  0.72792077780E+02  0.18284246899E+03  0.31578057823E+03  0.50400001928E-02 0. -1.
       -1    1    3    3    0  502 -0.24695610643E+03 -0.72792077780E+02 -0.46650000199E+03  0.53283042046E+03  0.50400001928E-02 0.  1.
</event>
<event>
 5   0  0.1617491E-03  0.7989108E+03  0.7818609E-02  0.9561595E-01
       -1   -1    0    0    0  501  0.00000000000E+00  0.00000000000E+00  0.14874361367E+03  0.14874361375E+03  0.50400001928E-02 0.  1.
        1   -1    0    0  501    0  0.00000000000E+00  0.00000000000E+00 -0.10727493071E+04  0.10727493071E+04  0.50400001928E-02 0. -1.
    10030    2    1    2    0    0  0.00000000000E+00  0.00000000000E+00 -0.92400569341E+03  0.12214929208E+04  0.79891077988E+03 0.  0.
        1    1    3    3  502    0  0.12245303429E+03 -0.37161481457E+03 -0.33899813669E+03  0.51769880502E+03  0.50400001928E-02 0. -1.
       -1    1    3    3    0  502 -0.12245303429E+03  0.37161481457E+03 -0.58500755672E+03  0.70379411582E+03  0.50400001928E-02 0.  1.
</event>
<event>
 5   0  0.2763587E-03  0.8002177E+03  0.7818609E-02  0.9559702E-01
       -2   -1    0    0    0  501  0.00000000000E+00  0.00000000000E+00  0.14737121745E+03  0.14737121748E+03  0.25500000920E-02 0.  1.
        2   -1    0    0  501    0  0.00000000000E+00  0.00000000000E+00 -0.10862847201E+04  0.10862847201E+04  0.25500000920E-02 0. -1.
    10030    2    1    2    0    0  0.00000000000E+00  0.00000000000E+00 -0.93891350264E+03  0.12336559376E+04  0.80021772466E+03 0.  0.
        3    1    3    3  502    0  0.22116442135E+03  0.24588512749E+03 -0.81663248928E+03  0.88105722286E+03  0.10100000352E+00 0. -1.
       -3    1    3    3    0  502 -0.22116442135E+03 -0.24588512749E+03 -0.12228101335E+03  0.35259871471E+03  0.10100000352E+00 0.  1.
</event>
<event>
 5   0  0.1712793E-03  0.8000166E+03  0.7818609E-02  0.9559993E-01
        1   -1    0    0  501    0  0.00000000000E+00  0.00000000000E+00  0.34375445319E+03  0.34375445323E+03  0.50400001928E-02 0.  1.
       -1   -1    0    0    0  501  0.00000000000E+00  0.00000000000E+00 -0.46546778178E+03  0.46546778181E+03  0.50400001928E-02 0. -1.
    10030    2    1    2    0    0  0.00000000000E+00  0.00000000000E+00 -0.12171332859E+03  0.80922223503E+03  0.80001655690E+03 0.  0.
        4    1    3    3  502    0  0.15851658876E+03  0.36406010501E+03 -0.10976321400E+03  0.41196704361E+03  0.12699999809E+01 0.  1.
       -4    1    3    3    0  502 -0.15851658876E+03 -0.36406010501E+03 -0.11950114589E+02  0.39725519142E+03  0.12699999809E+01 0. -1.
</event>
<event>
 5   0  0.2690809E-03  0.8013841E+03  0.7818609E-02  0.9558016E-01
        2   -1    0    0  501    0  0.00000000000E+00  0.00000000000E+00  0.97506652392E+03  0.97506652393E+03  0.25500000920E-02 0.  1.
       -2   -1    0    0    0  501  0.00000000000E+00  0.00000000000E+00 -0.16465967279E+03  0.16465967281E+03  0.25500000920E-02 0. -1.
    10030    2    1    2    0    0  0.00000000000E+00  0.00000000000E+00  0.81040685114E+03  0.11397261967E+04  0.80138413957E+03 0.  0.
        5    1    3    3  502    0  0.27347726091E+03 -0.32501320821E+02 -0.86678951935E+01  0.27557824750E+03  0.46999998093E+01 0. -1.
       -5    1    3    3    0  502 -0.27347726091E+03  0.32501320821E+02  0.81907474633E+03  0.86414794923E+03  0.46999998093E+01 0.  1.
</event>
<event>
 5   0  0.1712793E-03  0.7995141E+03  0.7818609E-02  0.9560721E-01
        1   -1    0    0  501    0  0.00000000000E+00  0.00000000000E+00  0.14838062186E+04  0.14838062186E+04  0.50400001928E-02 0. -1.
       -1   -1    0    0    0  501  0.00000000000E+00  0.00000000000E+00 -0.10769985022E+03  0.10769985033E+03  0.50400001928E-02 0.  1.
    10030    2    1    2    0    0  0.00000000000E+00  0.00000000000E+00  0.13761063683E+04  0.15915060689E+04  0.79951412143E+03 0.  0.
        4    1    3    3  502    0 -0.21857312986E+03  0.34037000235E+02  0.13508674631E+04  0.13688598345E+04  0.12699999809E+01 0. -1.
       -4    1    3    3    0  502  0.21857312986E+03 -0.34037000235E+02  0.25238905201E+02  0.22264623446E+03  0.12699999809E+01 0.  1.
</event>
<event>
 5   0  0.1656051E-03  0.7988871E+03  0.7818609E-02  0.9561629E-01
        1   -1    0    0  501    0  0.00000000000E+00  0.00000000000E+00  0.40122437947E+03  0.40122437950E+03  0.50400001928E-02 0. -1.
       -1   -1    0    0    0  501  0.00000000000E+00  0.00000000000E+00 -0.39767062665E+03  0.39767062668E+03  0.50400001928E-02 0.  1.
    10030    2    1    2    0    0  0.00000000000E+00  0.00000000000E+00  0.35537528189E+01  0.79889500619E+03  0.79888710201E+03 0.  0.
        3    1    3    3  502    0 -0.93908582961E+02 -0.80518193508E+02 -0.37803359381E+03  0.39775797879E+03  0.10100000352E+00 0.  1.
       -3    1    3    3    0  502  0.93908582961E+02  0.80518193508E+02  0.38158734663E+03  0.40113702740E+03  0.10100000352E+00 0. -1.
</event>
<event>
 5   0  0.2910501E-03  0.8004994E+03  0.7818609E-02  0.9559295E-01
       -2   -1    0    0    0  501  0.00000000000E+00  0.00000000000E+00  0.33682960276E+03  0.33682960277E+03  0.25500000920E-02 0. -1.
        2   -1    0    0  501    0  0.00000000000E+00  0.00000000000E+00 -0.47561082479E+03  0.47561082479E+03  0.25500000920E-02 0.  1.
    10030    2    1    2    0    0  0.00000000000E+00  0.00000000000E+00 -0.13878122203E+03  0.81244042756E+03  0.80049935712E+03 0.  0.
        1    1    3    3  502    0  0.75850826445E+02  0.84713315593E+02 -0.45887301894E+03  0.47275166975E+03  0.50400001928E-02 0.  1.
       -1    1    3    3    0  502 -0.75850826445E+02 -0.84713315593E+02  0.32009179691E+03  0.33968875781E+03  0.50400001928E-02 0. -1.
</event>
<event>
 5   0  0.2768834E-03  0.7990158E+03  0.7818609E-02  0.9561443E-01
       -2   -1    0    0    0  501  0.00000000000E+00  0.00000000000E+00  0.54955081847E+03  0.54955081848E+03  0.25500000920E-02 0.  1.
        2   -1    0    0  501    0  0.00000000000E+00  0.00000000000E+00 -0.29043091889E+03  0.29043091890E+03  0.25500000920E-02 0. -1.
    10030    2    1    2    0    0  0.00000000000E+00  0.00000000000E+00  0.25911989958E+03  0.83998173738E+03  0.79901576754E+03 0.  0.
        4    1    3    3  502    0 -0.49804794898E+02 -0.37930856224E+03  0.25056768870E+03  0.45731967211E+03  0.12699999809E+01 0.  1.
       -4    1    3    3    0  502  0.49804794898E+02  0.37930856224E+03  0.85522108866E+01  0.38266206527E+03  0.12699999809E+01 0. -1.
</event>
<event>
 5   0  0.2763587E-03  0.7996940E+03  0.7818609E-02  0.9560460E-01
        2   -1    0    0  501    0  0.00000000000E+00  0.00000000000E+00  0.11850618566E+04  0.11850618566E+04  0.25500000920E-02 0.  1.
       -2   -1    0    0    0  501  0.00000000000E+00  0.00000000000E+00 -0.13491077043E+03  0.13491077045E+03  0.25500000920E-02 0. -1.
    10030    2    1    2    0    0  0.00000000000E+00  0.00000000000E+00  0.10501510862E+04  0.13199726271E+04  0.79969396171E+03 0.  0.
        3    1    3    3  502    0  0.25537835233E+03  0.60810227191E+02  0.10228930675E+04  0.10560427190E+04  0.10100000352E+00 0.  1.
       -3    1    3    3    0  502 -0.25537835233E+03 -0.60810227191E+02  0.27258018620E+02  0.26392990803E+03  0.10100000352E+00 0. -1.
</event>
<event>
 5   0  0.1637228E-03  0.8009613E+03  0.7818609E-02  0.9558627E-01
        1   -1    0    0  501    0  0.00000000000E+00  0.00000000000E+00  0.44030546113E+03  0.44030546115E+03  0.50400001928E-02 0. -1.
       -1   -1    0    0    0  501  0.00000000000E+00  0.00000000000E+00 -0.36425790947E+03  0.36425790950E+03  0.50400001928E-02 0.  1.
    10030    2    1    2    0    0  0.00000000000E+00  0.00000000000E+00  0.76047551660E+02  0.80456337065E+03  0.80096128950E+03 0.  0.
        2    1    3    3  502    0 -0.99076716005E+02 -0.11819569540E+03 -0.33323046423E+03  0.36719063218E+03  0.25500000920E-02 0.  1.
       -2    1    3    3    0  502  0.99076716005E+02  0.11819569540E+03  0.40927801589E+03  0.43737273847E+03  0.25500000920E-02 0. -1.
</event>
<event>
 5   0  0.1637228E-03  0.8002509E+03  0.7818609E-02  0.9559654E-01
       -1   -1    0    0    0  501  0.00000000000E+00  0.00000000000E+00  0.35223752811E+03  0.35223752815E+03  0.50400001928E-02 0.  1.
        1   -1    0    0  501    0  0.00000000000E+00  0.00000000000E+00 -0.45452386390E+03  0.45452386392E+03  0.50400001928E-02 0. -1.
    10030    2    1    2    0    0  0.00000000000E+00  0.00000000000E+00 -0.10228633578E+03  0.80676139207E+03  0.80025086645E+03 0.  0.
        2    1    3    3  502    0 -0.35623624646E+03 -0.18206027028E+03 -0.44003389256E+02  0.40247546953E+03  0.25500000920E-02 0. -1.
       -2    1    3    3    0  502  0.35623624646E+03  0.18206027028E+03 -0.58282946528E+02  0.40428592254E+03  0.25500000920E-02 0.  1.
</event>
<event>
 5   0  0.2690809E-03  0.8005669E+03  0.7818609E-02  0.9559197E-01
        2   -1    0    0  501    0  0.00000000000E+00  0.00000000000E+00  0.17335787950E+04  0.17335787950E+04  0.25500000920E-02 0.  1.
       -2   -1    0    0    0  501  0.00000000000E+00  0.00000000000E+00 -0.92425462299E+02  0.92425462334E+02  0.25500000920E-02 0. -1.
    10030    2    1    2    0    0  0.00000000000E+00  0.00000000000E+00  0.16411533327E+04  0.18260042574E+04  0.80056685316E+03 0.  0.
        5    1    3    3  502    0  0.16108647238E+03 -0.15392109173E+03  0.62153830384E+02  0.23135631112E+03  0.46999998093E+01 0. -1.
       -5    1    3    3    0  502 -0.16108647238E+03  0.15392109173E+03  0.15789995024E+04  0.15946479463E+04  0.46999998093E+01 0.  1.
</event>
<event>
 5   0  0.1617491E-03  0.8002927E+03  0.7818609E-02  0.9559593E-01
       -1   -1    0    0    0  501  0.00000000000E+00  0.00000000000E+00  0.66869949142E+03  0.66869949144E+03  0.50400001928E-02 0.  1.
        1   -1    0    0  501    0  0.00000000000E+00  0.00000000000E+00 -0.23944555003E+03  0.23944555009E+03  0.50400001928E-02 0. -1.
    10030    2    1    2    0    0  0.00000000000E+00  0.00000000000E+00  0.42925394138E+03  0.90814504152E+03  0.80029274035E+03 0.  0.
        1    1    3    3  502    0 -0.38395214645E+03  0.11199887822E+03  0.20053949781E+03  0.44741377906E+03  0.50400001928E-02 0.  1.
       -1    1    3    3    0  502  0.38395214645E+03 -0.11199887822E+03  0.22871444357E+03  0.46073126246E+03  0.50400001928E-02 0. -1.
</event>
<event>
 5   0  0.2763587E-03  0.7992558E+03  0.7818609E-02  0.9561095E-01
        2   -1    0    0  501    0  0.00000000000E+00  0.00000000000E+00  0.18751248241E+04  0.18751248241E+04  0.25500000920E-02 0. -1.
       -2   -1    0    0    0  501  0.00000000000E+00  0.00000000000E+00 -0.85168972880E+02  0.85168972918E+02  0.25500000920E-02 0.  1.
    10030    2    1    2    0    0  0.00000000000E+00  0.00000000000E+00  0.17899558513E+04  0.19602937971E+04  0.79925579218E+03 0.  0.
        3    1    3    3  502    0 -0.24934091737E+02 -0.22900689839E+02 -0.81645455450E+02  0.88386317507E+02  0.10100000352E+00 0.  1.
       -3    1    3    3    0  502  0.24934091737E+02  0.22900689839E+02  0.18716013067E+04  0.18719074796E+04  0.10100000352E+00 0. -1.
</event>
<event>
 5   0  0.1095350E-03  0.8022653E+03  0.7818609E-02  0.9556744E-01
       -4   -1    0    0    0  501  0.00000000000E+00  0.00000000000E+00  0.48116073707E+03  0.48116241312E+03  0.12699999809E+01 0. -1.
        4   -1    0    0  501    0  0.00000000000E+00  0.00000000000E+00 -0.33441156803E+03  0.33441397957E+03  0.12699999809E+01 0.  1.
    10030    2    1    2    0    0  0.00000000000E+00  0.00000000000E+00  0.14674916904E+03  0.81557639269E+03  0.80226525146E+03 0.  0.
        5    1    3    3  502    0  0.99798551580E+02  0.12054105755E+03  0.44881975301E+03  0.47534320038E+03  0.46999998093E+01 0. -1.
       -5    1    3    3    0  502 -0.99798551580E+02 -0.12054105755E+03 -0.30207058397E+03  0.34023319231E+03  0.46999998093E+01 0.  1.
</event>
<event>
 5   0  0.1712793E-03  0.7966424E+03  0.7818609E-02  0.9564890E-01
       -1   -1    0    0    0  501  0.00000000000E+00  0.00000000000E+00  0.57349436372E+03  0.57349436374E+03  0.50400001928E-02 0. -1.
        1   -1    0    0  501    0  0.00000000000E+00  0.00000000000E+00 -0.27665445082E+03  0.27665445086E+03  0.50400001928E-02 0.  1.
    10030    2    1    2    0    0  0.00000000000E+00  0.00000000000E+00  0.29683991290E+03  0.85014881460E+03  0.79664237464E+03 0.  0.
        4    1    3    3  502    0 -0.26815457807E+03 -0.14030331751E+03 -0.12794538864E+03  0.32857804860E+03  0.12699999809E+01 0.  1.
       -4    1    3    3    0  502  0.26815457807E+03  0.14030331751E+03  0.42478530154E+03  0.52157076601E+03  0.12699999809E+01 0. -1.
</event>
<event>
 5   0  0.1640035E-03  0.8000642E+03  0.7818609E-02  0.9559924E-01
       -1   -1    0    0    0  501  0.00000000000E+00  0.00000000000E+00  0.77063331898E+03  0.77063331900E+03  0.50400001928E-02 0. -1.
        1   -1    0    0  501    0  0.00000000000E+00  0.00000000000E+00 -0.20765477624E+03  0.20765477630E+03  0.50400001928E-02 0.  1.
    10030    2    1    2    0    0  0.00000000000E+00  0.00000000000E+00  0.56297854274E+03  0.97828809530E+03  0.80006422106E+03 0.  0.
        5    1    3    3  502    0  0.28253660857E+03 -0.23400573330E+03  0.86544116698E+02  0.37695834323E+03  0.46999998093E+01 0.  1.
       -5    1    3    3    0  502 -0.28253660857E+03  0.23400573330E+03  0.47643442604E+03  0.60132975206E+03  0.46999998093E+01 0. -1.
</event>
<event>
 5   0  0.2768834E-03  0.8015999E+03  0.7818609E-02  0.9557704E-01
        2   -1    0    0  501    0  0.00000000000E+00  0.00000000000E+00  0.43597948806E+03  0.43597948807E+03  0.25500000920E-02 0. -1.
       -2   -1    0    0    0  501  0.00000000000E+00  0.00000000000E+00 -0.36845910123E+03  0.36845910124E+03  0.25500000920E-02 0.  1.
    10030    2    1    2    0    0  0.00000000000E+00  0.00000000000E+00  0.67520386833E+02  0.80443858930E+03  0.80159992597E+03 0.  0.
        4    1    3    3  502    0 -0.15962259348E+03  0.21668575178E+02 -0.33454094534E+03  0.37130601464E+03  0.12699999809E+01 0.  1.
       -4    1    3    3    0  502  0.15962259348E+03 -0.21668575178E+02  0.40206133217E+03  0.43313257466E+03  0.12699999809E+01 0. -1.
</event>
<event>
 5   0  0.1640035E-03  0.7953529E+03  0.7818609E-02  0.9566768E-01
       -1   -1    0    0    0  501  0.00000000000E+00  0.00000000000E+00  0.19876806222E+03  0.19876806229E+03  0.50400001928E-02 0.  1.
        1   -1    0    0  501    0  0.00000000000E+00  0.00000000000E+00 -0.79563355418E+03  0.79563355419E+03  0.50400001928E-02 0. -1.
    10030    2    1    2    0    0  0.00000000000E+00  0.00000000000E+00 -0.59686549195E+03  0.99440161648E+03  0.79535285212E+03 0.  0.
        5    1    3    3  502    0 -0.10703192849E+03 -0.33814748227E+03 -0.73646078210E+02  0.36227805387E+03  0.46999998093E+01 0. -1.
       -5    1    3    3    0  502  0.10703192849E+03  0.33814748227E+03 -0.52321941374E+03  0.63212356261E+03  0.46999998093E+01 0.  1.
</event>
<event>
 5   0  0.2873212E-03  0.7776484E+03  0.7818609E-02  0.9592946E-01
        2   -1    0    0  501    0  0.00000000000E+00  0.00000000000E+00  0.14907482382E+03  0.14907482384E+03  0.25500000920E-02 0. -1.
       -2   -1    0    0    0  501  0.00000000000E+00  0.00000000000E+00 -0.10141500856E+04  0.10141500856E+04  0.25500000920E-02 0.  1.
    10030    2    1    2    0    0  0.00000000000E+00  0.00000000000E+00 -0.86507526176E+03  0.11632249094E+04  0.77764836617E+03 0.  0.
        2    1    3    3  502    0 -0.35456799723E+03  0.13710836252E+03 -0.55467489432E+03  0.67244435169E+03  0.25500000920E-02 0.  1.
       -2    1    3    3    0  502  0.35456799723E+03 -0.13710836252E+03 -0.31040036744E+03  0.49078055773E+03  0.25500000920E-02 0. -1.
</event>
<event>
 5   0  0.1637228E-03  0.8019308E+03  0.7818609E-02  0.9557227E-01
        1   -1    0    0  501    0  0.00000000000E+00  0.00000000000E+00  0.99603694743E+03  0.99603694744E+03  0.50400001928E-02 0.  1.
       -1   -1    0    0    0  501  0.00000000000E+00  0.00000000000E+00 -0.16141295321E+03  0.16141295328E+03  0.50400001928E-02 0. -1.
    10030    2    1    2    0    0  0.00000000000E+00  0.00000000000E+00  0.83462399422E+03  0.11574499007E+04  0.80193083303E+03 0.  0.
        2    1    3    3  502    0 -0.21527298927E+03  0.33827564825E+03  0.41640934209E+03  0.57807405607E+03  0.25500000920E-02 0. -1.
       -2    1    3    3    0  502  0.21527298927E+03 -0.33827564825E+03  0.41821465213E+03  0.57937584466E+03  0.25500000920E-02 0.  1.
</event>
<event>
 5   0  0.1617491E-03  0.8104058E+03  0.7818609E-02  0.9545076E-01
        1   -1    0    0  501    0  0.00000000000E+00  0.00000000000E+00  0.98769128361E+03  0.98769128362E+03  0.50400001928E-02 0. -1.
       -1   -1    0    0    0  501  0.00000000000E+00  0.00000000000E+00 -0.16623551637E+03  0.16623551645E+03  0.50400001928E-02 0.  1.
    10030    2    1    2    0    0  0.00000000000E+00  0.00000000000E+00  0.82145576724E+03  0.11539268001E+04  0.81040575170E+03 0.  0.
        1    1    3    3  502    0 -0.31374752011E+03 -0.25384780356E+03  0.46232602318E+03  0.61369501015E+03  0.50400001928E-02 0.  1.
       -1    1    3    3    0  502  0.31374752011E+03  0.25384780356E+03  0.35912974406E+03  0.54023178992E+03  0.50400001928E-02 0. -1.
</event>
<event>
 5   0  0.2873212E-03  0.8037491E+03  0.7818609E-02  0.9554606E-01
        2   -1    0    0  501    0  0.00000000000E+00  0.00000000000E+00  0.96342545773E+03  0.96342545773E+03  0.25500000920E-02 0. -1.
       -2   -1    0    0    0  501  0.00000000000E+00  0.00000000000E+00 -0.16763428152E+03  0.16763428154E+03  0.25500000920E-02 0.  1.
    10030    2    1    2    0    0  0.00000000000E+00  0.00000000000E+00  0.79579117620E+03  0.11310597393E+04  0.80374905143E+03 0.  0.
        2    1    3    3  502    0  0.32016130769E+03  0.23134736967E+03  0.29373902786E+03  0.49224738180E+03  0.25500000920E-02 0. -1.
       -2    1    3    3    0  502 -0.32016130769E+03 -0.23134736967E+03  0.50205214834E+03  0.63881235747E+03  0.25500000920E-02 0.  1.
</event>
<event>
 5   0  0.2910501E-03  0.7995474E+03  0.7818609E-02  0.9560672E-01
        2   -1    0    0  501    0  0.00000000000E+00  0.00000000000E+00  0.84015801940E+03  0.84015801940E+03  0.25500000920E-02 0.  1.
       -2   -1    0    0    0  501  0.00000000000E+00  0.00000000000E+00 -0.19022493542E+03  0.19022493544E+03  0.25500000920E-02 0. -1.
    10030    2    1    2    0    0  0.00000000000E+00  0.00000000000E+00  0.64993308398E+03  0.10303829548E+04  0.79954738445E+03 0.  0.
        1    1    3    3  502    0  0.83672179333E+02 -0.17368193351E+03 -0.12636196216E+03  0.23050768562E+03  0.50400001928E-02 0. -1.
       -1    1    3    3    0  502 -0.83672179333E+02  0.17368193351E+03  0.77629504614E+03  0.79987526922E+03  0.50400001928E-02 0.  1.
</event>
<event>
 5   0  0.1637228E-03  0.8099599E+03  0.7818609E-02  0.9545711E-01
       -1   -1    0    0    0  501  0.00000000000E+00  0.00000000000E+00  0.29674883131E+03  0.29674883136E+03  0.50400001928E-02 0.  1.
        1   -1    0    0  501    0  0.00000000000E+00  0.00000000000E+00 -0.55268547150E+03  0.55268547153E+03  0.50400001928E-02 0. -1.
    10030    2    1    2    0    0  0.00000000000E+00  0.00000000000E+00 -0.25593664019E+03  0.84943430288E+03  0.80995991945E+03 0.  0.
        2    1    3    3  502    0 -0.29881710936E+03 -0.87983550967E+02  0.14344169083E+03  0.34294064904E+03  0.25500000920E-02 0.  1.
       -2    1    3    3    0  502  0.29881710936E+03  0.87983550967E+02 -0.39937833102E+03  0.50649365384E+03  0.25500000920E-02 0. -1.
</event>
<event>
 5   0  0.1617491E-03  0.7998575E+03  0.7818609E-02  0.9560223E-01
       -1   -1    0    0    0  501  0.00000000000E+00  0.00000000000E+00  0.20663350419E+03  0.20663350425E+03  0.50400001928E-02 0.  1.
        1   -1    0    0  501    0  0.00000000000E+00  0.00000000000E+00 -0.77404201004E+03  0.77404201005E+03  0.50400001928E-02 0. -1.
    10030    2    1    2    0    0  0.00000000000E+00  0.00000000000E+00 -0.56740850585E+03  0.98067551430E+03  0.79985751971E+03 0.  0.
        1    1    3    3  502    0 -0.34402936166E+03  0.20387831599E+03 -0.28924783536E+03  0.49354521546E+03  0.50400001928E-02 0. -1.
       -1    1    3    3    0  502  0.34402936166E+03 -0.20387831599E+03 -0.27816067049E+03  0.48713029884E+03  0.50400001928E-02 0.  1.
</event>
<event>
 5   0  0.1712793E-03  0.7796309E+03  0.7818609E-02  0.9589978E-01
       -1   -1    0    0    0  501  0.00000000000E+00  0.00000000000E+00  0.13811808005E+03  0.13811808014E+03  0.50400001928E-02 0. -1.
        1   -1    0    0  501    0  0.00000000000E+00  0.00000000000E+00 -0.11001897909E+04  0.11001897909E+04  0.50400001928E-02 0.  1.
    10030    2    1    2    0    0  0.00000000000E+00  0.00000000000E+00 -0.96207171085E+03  0.12383078711E+04  0.77963094263E+03 0.  0.
        4    1    3    3  502    0 -0.26792259930E+03 -0.28163235130E+03 -0.52748422053E+03  0.65524080789E+03  0.12699999809E+01 0.  1.
       -4    1    3    3    0  502  0.26792259930E+03  0.28163235130E+03 -0.43458749032E+03  0.58306706317E+03  0.12699999809E+01 0. -1.
</event>
<event>
 5   0  0.2768834E-03  0.8008305E+03  0.7818609E-02  0.9558816E-01
       -2   -1    0    0    0  501  0.00000000000E+00  0.00000000000E+00  0.11488953824E+03  0.11488953827E+03  0.25500000920E-02 0. -1.
        2   -1    0    0  501    0  0.00000000000E+00  0.00000000000E+00 -0.13955350353E+04  0.13955350353E+04  0.25500000920E-02 0.  1.
    10030    2    1    2    0    0  0.00000000000E+00  0.00000000000E+00 -0.12806454971E+04  0.15104245736E+04  0.80083050850E+03 0.  0.
        4    1    3    3  502    0  0.12780443670E+03 -0.98329457897E+02 -0.13315834690E+04  0.13413123440E+04  0.12699999809E+01 0.  1.
       -4    1    3    3    0  502 -0.12780443670E+03  0.98329457897E+02  0.50937971896E+02  0.16911222963E+03  0.12699999809E+01 0. -1.
</event>
<event>
 5   0  0.1656051E-03  0.8005809E+03  0.7818609E-02  0.9559177E-01
       -1   -1    0    0    0  501  0.00000000000E+00  0.00000000000E+00  0.18292955106E+03  0.18292955113E+03  0.50400001928E-02 0.  1.
        1   -1    0    0  501    0  0.00000000000E+00  0.00000000000E+00 -0.87592422867E+03  0.87592422868E+03  0.50400001928E-02 0. -1.
    10030    2    1    2    0    0  0.00000000000E+00  0.00000000000E+00 -0.69299467761E+03  0.10588537798E+04  0.80058085401E+03 0.  0.
        3    1    3    3  502    0  0.12373687297E+03 -0.46687573914E+02 -0.84619404448E+03  0.85646652848E+03  0.10100000352E+00 0. -1.
       -3    1    3    3    0  502 -0.12373687297E+03  0.46687573914E+02  0.15319936687E+03  0.20238725133E+03  0.10100000352E+00 0.  1.
</event>
<event>
 5   0  0.1617491E-03  0.8000733E+03  0.7818609E-02  0.9559911E-01
       -1   -1    0    0    0  501  0.00000000000E+00  0.00000000000E+00  0.27137469467E+03  0.27137469471E+03  0.50400001928E-02 0. -1.
        1   -1    0    0  501    0  0.00000000000E+00  0.00000000000E+00 -0.58969878754E+03  0.58969878757E+03  0.50400001928E-02 0.  1.
    10030    2    1    2    0    0  0.00000000000E+00  0.00000000000E+00 -0.31832409288E+03  0.86107348228E+03  0.80007331775E+03 0.  0.
        1    1    3    3  502    0 -0.24738934283E+03 -0.29191978682E+03 -0.33602328298E+02  0.38411946758E+03  0.50400001928E-02 0. -1.
       -1    1    3    3    0  502  0.24738934283E+03  0.29191978682E+03 -0.28472176458E+03  0.47695401470E+03  0.50400001928E-02 0.  1.
</event>
<event>
 5   0  0.1617491E-03  0.7991680E+03  0.7818609E-02  0.9561222E-01
       -1   -1    0    0    0  501  0.00000000000E+00  0.00000000000E+00  0.22405404845E+03  0.22405404851E+03  0.50400001928E-02 0.  1.
        1   -1    0    0  501    0  0.00000000000E+00  0.00000000000E+00 -0.71262876824E+03  0.71262876826E+03  0.50400001928E-02 0. -1.
    10030    2    1    2    0    0  0.00000000000E+00  0.00000000000E+00 -0.48857471979E+03  0.93668281676E+03  0.79916796883E+03 0.  0.
        1    1    3    3  502    0 -0.23948330840E+03 -0.14720485912E+03  0.88560260194E+02  0.29472774770E+03  0.50400001928E-02 0.  1.
       -1    1    3    3    0  502  0.23948330840E+03  0.14720485912E+03 -0.57713497998E+03  0.64195506906E+03  0.50400001928E-02 0. -1.
</event>
<event>
 5   0  0.2768834E-03  0.7988729E+03  0.7818609E-02  0.9561650E-01
       -2   -1    0    0    0  501  0.00000000000E+00  0.00000000000E+00  0.47175056242E+03  0.47175056243E+03  0.25500000920E-02 0. -1.
        2   -1    0    0  501    0  0.00000000000E+00  0.00000000000E+00 -0.33820726923E+03  0.33820726924E+03  0.25500000920E-02 0.  1.
    10030    2    1    2    0    0  0.00000000000E+00  0.00000000000E+00  0.13354329319E+03  0.80995783166E+03  0.79887287970E+03 0.  0.
        4    1    3    3  502    0  0.21261297948E+03  0.19954637986E+03  0.34355196113E+03  0.45061358130E+03  0.12699999809E+01 0. -1.
       -4    1    3    3    0  502 -0.21261297948E+03 -0.19954637986E+03 -0.21000866794E+03  0.35934425036E+03  0.12699999809E+01 0.  1.
</event>
<event>
 5   0  0.2763587E-03  0.8011603E+03  0.7818609E-02  0.9558339E-01
       -2   -1    0    0    0  501  0.00000000000E+00  0.00000000000E+00  0.23750367442E+03  0.23750367444E+03  0.25500000920E-02 0.  1.
        2   -1    0    0  501    0  0.00000000000E+00  0.00000000000E+00 -0.67562937506E+03  0.67562937507E+03  0.25500000920E-02 0. -1.
    10030    2    1    2    0    0  0.00000000000E+00  0.00000000000E+00 -0.43812570064E+03  0.91313304950E+03  0.80116030639E+03 0.  0.
        3    1    3    3  502    0 -0.19049174533E+03  0.11844600267E+03 -0.59733356988E+03  0.63806266502E+03  0.10100000352E+00 0. -1.
       -3    1    3    3    0  502  0.19049174533E+03 -0.11844600267E+03  0.15920786925E+03  0.27507038448E+03  0.10100000352E+00 0.  1.
</event>
<event>
 5   0  0.1095350E-03  0.8085820E+03  0.7818609E-02  0.9547677E-01
       -3   -1    0    0    0  501  0.00000000000E+00  0.00000000000E+00  0.14428628726E+03  0.14428632261E+03  0.10100000352E+00 0. -1.
        3   -1    0    0  501    0  0.00000000000E+00  0.00000000000E+00 -0.11328254462E+04  0.11328254507E+04  0.10100000352E+00 0.  1.
    10030    2    1    2    0    0  0.00000000000E+00  0.00000000000E+00 -0.98853915899E+03  0.12771117734E+04  0.80858197654E+03 0.  0.
        5    1    3    3  502    0  0.19183931016E+02  0.23436273142E+03 -0.10136533754E+04  0.10405811687E+04  0.46999998093E+01 0.  1.
       -5    1    3    3    0  502 -0.19183931016E+02 -0.23436273142E+03  0.25114216432E+02  0.23653060468E+03  0.46999998093E+01 0. -1.
</event>
<event>
 5   0  0.2690809E-03  0.8012874E+03  0.7818609E-02  0.9558155E-01
       -2   -1    0    0    0  501  0.00000000000E+00  0.00000000000E+00  0.25541366220E+03  0.25541366221E+03  0.25500000920E-02 0. -1.
        2   -1    0    0  501    0  0.00000000000E+00  0.00000000000E+00 -0.62845265314E+03  0.62845265315E+03  0.25500000920E-02 0.  1.
    10030    2    1    2    0    0  0.00000000000E+00  0.00000000000E+00 -0.37303899094E+03  0.88386631535E+03  0.80128744821E+03 0.  0.
        5    1    3    3  502    0  0.57812849231E+02  0.38020713204E+03 -0.62733440330E+02  0.38968880319E+03  0.46999998093E+01 0. -1.
       -5    1    3    3    0  502 -0.57812849231E+02 -0.38020713204E+03 -0.31030555061E+03  0.49417751217E+03  0.46999998093E+01 0.  1.
</event>
<event>
 5   0  0.2763587E-03  0.7996582E+03  0.7818609E-02  0.9560512E-01
        2   -1    0    0  501    0  0.00000000000E+00  0.00000000000E+00  0.10303181571E+04  0.10303181571E+04  0.25500000920E-02 0.  1.
       -2   -1    0    0    0  501  0.00000000000E+00  0.00000000000E+00 -0.15515917716E+03  0.15515917718E+03  0.25500000920E-02 0. -1.
    10030    2    1    2    0    0  0.00000000000E+00  0.00000000000E+00  0.87515897991E+03  0.11854773342E+04  0.79965822068E+03 0.  0.
        3    1    3    3  502    0  0.35227629343E+03 -0.18908355662E+03  0.43241650444E+03  0.58892717870E+03  0.10100000352E+00 0.  1.
       -3    1    3    3    0  502 -0.35227629343E+03  0.18908355662E+03  0.44274247547E+03  0.59655015555E+03  0.10100000352E+00 0. -1.
</event>
<event>
 5   0  0.1640035E-03  0.8005581E+03  0.7818609E-02  0.9559210E-01
       -1   -1    0    0    0  501  0.00000000000E+00  0.00000000000E+00  0.51901647274E+03  0.51901647276E+03  0.50400001928E-02 0. -1.
        1   -1    0    0  501    0  0.00000000000E+00  0.00000000000E+00 -0.30870562770E+03  0.30870562774E+03  0.50400001928E-02 0.  1.
    10030    2    1    2    0    0  0.00000000000E+00  0.00000000000E+00  0.21031084504E+03  0.82772210050E+03  0.80055807042E+03 0.  0.
        5    1    3    3  502    0  0.14430042216E+03  0.37330408766E+03  0.10023339574E+03  0.41261044257E+03  0.46999998093E+01 0.  1.
       -5    1    3    3    0  502 -0.14430042216E+03 -0.37330408766E+03  0.11007744930E+03  0.41511165792E+03  0.46999998093E+01 0. -1.
</event>
<event>
 5   0  0.2690809E-03  0.7996019E+03  0.7818609E-02  0.9560593E-01
       -2   -1    0    0    0  501  0.00000000000E+00  0.00000000000E+00  0.43773416449E+03  0.43773416450E+03  0.25500000920E-02 0. -1.
        2   -1    0    0  501    0  0.00000000000E+00  0.00000000000E+00 -0.36515497333E+03  0.36515497334E+03  0.25500000920E-02 0.  1.
    10030    2    1    2    0    0  0.00000000000E+00  0.00000000000E+00  0.72579191159E+02  0.80288913784E+03  0.79960191888E+03 0.  0.
        5    1    3    3  502    0  0.37737456790E+01  0.37133380469E+02 -0.36337384129E+03  0.36531598327E+03  0.46999998093E+01 0.  1.
       -5    1    3    3    0  502 -0.37737456790E+01 -0.37133380469E+02  0.43595303245E+03  0.43757315457E+03  0.46999998093E+01 0. -1.
</event>
<event>
 5   0  0.2873212E-03  0.7995024E+03  0.7818609E-02  0.9560738E-01
       -2   -1    0    0    0  501  0.00000000000E+00  0.00000000000E+00  0.20344646454E+03  0.20344646456E+03  0.25500000920E-02 0. -1.
        2   -1    0    0  501    0  0.00000000000E+00  0.00000000000E+00 -0.78546967801E+03  0.78546967801E+03  0.25500000920E-02 0.  1.
    10030    2    1    2    0    0  0.00000000000E+00  0.00000000000E+00 -0.58202321346E+03  0.98891614257E+03  0.79950241777E+03 0.  0.
        2    1    3    3  502    0 -0.30326310277E+03 -0.20733513401E+02 -0.61213958215E+03  0.68345684291E+03  0.25500000920E-02 0.  1.
       -2    1    3    3    0  502  0.30326310277E+03  0.20733513401E+02  0.30116368685E+02  0.30545929966E+03  0.25500000920E-02 0. -1.
</event>
<event>
 5   0  0.2690809E-03  0.7996964E+03  0.7818609E-02  0.9560457E-01
        2   -1    0    0  501    0  0.00000000000E+00  0.00000000000E+00  0.21297945098E+04  0.21297945098E+04  0.25500000920E-02 0.  1.
       -2   -1    0    0    0  501  0.00000000000E+00  0.00000000000E+00 -0.75067612416E+02  0.75067612459E+02  0.25500000920E-02 0. -1.
    10030    2    1    2    0    0  0.00000000000E+00  0.00000000000E+00  0.20547268974E+04  0.22048621222E+04  0.79969641449E+03 0.  0.
        5    1    3    3  502    0  0.35619523932E+03 -0.66859436189E+02  0.56181536887E+03  0.66858345135E+03  0.46999998093E+01 0. -1.
       -5    1    3    3    0  502 -0.35619523932E+03  0.66859436189E+02  0.14929115285E+04  0.15362786709E+04  0.46999998093E+01 0.  1.
</event>
<event>
 5   0  0.1617491E-03  0.7994698E+03  0.7818609E-02  0.9560785E-01
       -1   -1    0    0    0  501  0.00000000000E+00  0.00000000000E+00  0.10159523108E+03  0.10159523120E+03  0.50400001928E-02 0.  1.
        1   -1    0    0  501    0  0.00000000000E+00  0.00000000000E+00 -0.15727903045E+04  0.15727903045E+04  0.50400001928E-02 0. -1.
    10030    2    1    2    0    0  0.00000000000E+00  0.00000000000E+00 -0.14711950734E+04  0.16743855357E+04  0.79946981064E+03 0.  0.
        1    1    3    3  502    0  0.35489248368E+03  0.46305804910E+02 -0.11084606342E+04  0.11648080873E+04  0.50400001928E-02 0. -1.
       -1    1    3    3    0  502 -0.35489248368E+03 -0.46305804910E+02 -0.36273443919E+03  0.50957744842E+03  0.50400001928E-02 0.  1.
</event>
<event>
 5   0  0.2873212E-03  0.8001773E+03  0.7818609E-02  0.9559760E-01
        2   -1    0    0  501    0  0.00000000000E+00  0.00000000000E+00  0.36772300797E+03  0.36772300798E+03  0.25500000920E-02 0. -1.
       -2   -1    0    0    0  501  0.00000000000E+00  0.00000000000E+00 -0.43530301078E+03  0.43530301078E+03  0.25500000920E-02 0.  1.
    10030    2    1    2    0    0  0.00000000000E+00  0.00000000000E+00 -0.67580002807E+02  0.80302601876E+03  0.80017731162E+03 0.  0.
        2    1    3    3  502    0 -0.31510558131E+03 -0.21307222783E+03  0.90666142166E+02  0.39103919367E+03  0.25500000920E-02 0. -1.
       -2    1    3    3    0  502  0.31510558131E+03  0.21307222783E+03 -0.15824614497E+03  0.41198682509E+03  0.25500000920E-02 0.  1.
</event>
<event>
 5   0  0.1640035E-03  0.7995165E+03  0.7818609E-02  0.9560717E-01
       -1   -1    0    0    0  501  0.00000000000E+00  0.00000000000E+00  0.43417828949E+03  0.43417828952E+03  0.50400001928E-02 0. -1.
        1   -1    0    0  501    0  0.00000000000E+00  0.00000000000E+00 -0.36806690451E+03  0.36806690454E+03  0.50400001928E-02 0.  1.
    10030    2    1    2    0    0  0.00000000000E+00  0.00000000000E+00  0.66111384982E+02  0.80224519406E+03  0.79951650150E+03 0.  0.
        5    1    3    3  502    0  0.21989204885E+03  0.27488635926E+02 -0.30076039673E+03  0.37361349613E+03  0.46999998093E+01 0.  1.
       -5    1    3    3    0  502 -0.21989204885E+03 -0.27488635926E+02  0.36687178172E+03  0.42863169793E+03  0.46999998093E+01 0. -1.
</event>
<event>
 5   0  0.1656051E-03  0.8001292E+03  0.7818609E-02  0.9559830E-01
        1   -1    0    0  501    0  0.00000000000E+00  0.00000000000E+00  0.17323172719E+04  0.17323172719E+04  0.50400001928E-02 0. -1.
       -1   -1    0    0    0  501  0.00000000000E+00  0.00000000000E+00 -0.92391661905E+02  0.92391662043E+02  0.50400001928E-02 0.  1.
    10030    2    1    2    0    0  0.00000000000E+00  0.00000000000E+00  0.16399256100E+04  0.18247089339E+04  0.80012916914E+03 0.  0.
        3    1    3    3  502    0 -0.26347913486E+03 -0.18191030363E+03  0.27292815835E+03  0.42071653508E+03  0.10100000352E+00 0.  1.
       -3    1    3    3    0  502  0.26347913486E+03  0.18191030363E+03  0.13669974516E+04  0.14039923989E+04  0.10100000352E+00 0. -1.
</event>
<event>
 5   0  0.2768834E-03  0.8007418E+03  0.7818609E-02  0.9558944E-01
       -2   -1    0    0    0  501  0.00000000000E+00  0.00000000000E+00  0.87771086322E+02  0.87771086359E+02  0.25500000920E-02 0.  1.
        2   -1    0    0  501    0  0.00000000000E+00  0.00000000000E+00 -0.18263058411E+04  0.18263058411E+04  0.25500000920E-02 0. -1.
    10030    2    1    2    0    0  0.00000000000E+00  0.00000000000E+00 -0.17385347548E+04  0.19140769275E+04  0.80074177528E+03 0.  0.
        4    1    3    3  502    0  0.30196036189E+02 -0.39694635941E+03 -0.76737375914E+03  0.86448962514E+03  0.12699999809E+01 0.  1.
       -4    1    3    3    0  502 -0.30196036189E+02  0.39694635941E+03 -0.97116099566E+03  0.10495873023E+04  0.12699999809E+01 0. -1.
</event>
<event>
 5   0  0.1656051E-03  0.7930998E+03  0.7818609E-02  0.9570059E-01
       -1   -1    0    0    0  501  0.00000000000E+00  0.00000000000E+00  0.12348494380E+03  0.12348494390E+03  0.50400001928E-02 0.  1.
        1   -1    0    0  501    0  0.00000000000E+00  0.00000000000E+00 -0.12734493479E+04  0.12734493479E+04  0.50400001928E-02 0. -1.
    10030    2    1    2    0    0  0.00000000000E+00  0.00000000000E+00 -0.11499644041E+04  0.13969342918E+04  0.79309979507E+03 0.  0.
        3    1    3    3  502    0  0.14940263721E+02  0.21738740926E+03  0.85872796495E+01  0.21806936685E+03  0.10100000352E+00 0.  1.
       -3    1    3    3    0  502 -0.14940263721E+02 -0.21738740926E+03 -0.11585516837E+04  0.11788649249E+04  0.10100000352E+00 0. -1.
</event>
<event>
 5   0  0.1712793E-03  0.7979697E+03  0.7818609E-02  0.9562961E-01
        1   -1    0    0  501    0  0.00000000000E+00  0.00000000000E+00  0.51885510334E+03  0.51885510337E+03  0.50400001928E-02 0. -1.
       -1   -1    0    0    0  501  0.00000000000E+00  0.00000000000E+00 -0.30680803794E+03  0.30680803798E+03  0.50400001928E-02 0.  1.
    10030    2    1    2    0    0  0.00000000000E+00  0.00000000000E+00  0.21204706540E+03  0.82566314135E+03  0.79796971436E+03 0.  0.
        4    1    3    3  502    0 -0.15519957138E+03  0.22632870777E+03 -0.19364048633E+03  0.33587176387E+03  0.12699999809E+01 0.  1.
       -4    1    3    3    0  502  0.15519957138E+03 -0.22632870777E+03  0.40568755173E+03  0.48979137747E+03  0.12699999809E+01 0. -1.
</event>
<event>
 5   0  0.1656051E-03  0.8000960E+03  0.7818609E-02  0.9559878E-01
        1   -1    0    0  501    0  0.00000000000E+00  0.00000000000E+00  0.49402934522E+03  0.49402934525E+03  0.50400001928E-02 0.  1.
       -1   -1    0    0    0  501  0.00000000000E+00  0.00000000000E+00 -0.32394510815E+03  0.32394510819E+03  0.50400001928E-02 0. -1.
    10030    2    1    2    0    0  0.00000000000E+00  0.00000000000E+00  0.17008423707E+03  0.81797445343E+03  0.80009596847E+03 0.  0.
        3    1    3    3  502    0  0.14093221114E+03  0.15893567149E+03 -0.26152535633E+03  0.33692426154E+03  0.10100000352E+00 0. -1.
       -3    1    3    3    0  502 -0.14093221114E+03 -0.15893567149E+03  0.43160959340E+03  0.48105019190E+03  0.10100000352E+00 0.  1.
</event>
<event>
 5   0  0.2690809E-03  0.7982267E+03  0.7818609E-02  0.9562587E-01
       -2   -1    0    0    0  501  0.00000000000E+00  0.00000000000E+00  0.37834674913E+03  0.37834674914E+03  0.25500000920E-02 0.  1.
        2   -1    0    0  501    0  0.00000000000E+00  0.00000000000E+00 -0.42101982994E+03  0.42101982994E+03  0.25500000920E-02 0. -1.
    10030    2    1    2    0    0  0.00000000000E+00  0.00000000000E+00 -0.42673080804E+02  0.79936657909E+03  0.79822674469E+03 0.  0.
        5    1    3    3  502    0  0.12611689974E+03  0.21731867723E+02 -0.39988643865E+03  0.41989165304E+03  0.46999998093E+01 0. -1.
       -5    1    3    3    0  502 -0.12611689974E+03 -0.21731867723E+02  0.35721335785E+03  0.37947492605E+03  0.46999998093E+01 0.  1.
</event>
<event>
 5   0  0.1712793E-03  0.8011741E+03  0.7818609E-02  0.9558319E-01
        1   -1    0    0  501    0  0.00000000000E+00  0.00000000000E+00  0.18754722599E+04  0.18754722599E+04  0.50400001928E-02 0. -1.
       -1   -1    0    0    0  501  0.00000000000E+00  0.00000000000E+00 -0.85562437804E+02  0.85562437953E+02  0.50400001928E-02 0.  1.
    10030    2    1    2    0    0  0.00000000000E+00  0.00000000000E+00  0.17899098221E+04  0.19610346979E+04  0.80117408531E+03 0.  0.
        4    1    3    3  502    0 -0.24567525290E+03 -0.62342065543E+02  0.16542375667E+04  0.16735430687E+04  0.12699999809E+01 0. -1.
       -4    1    3    3    0  502  0.24567525290E+03  0.62342065543E+02  0.13567225542E+03  0.28749162912E+03  0.12699999809E+01 0.  1.
</event>
<event>
 5   0  0.1640035E-03  0.7999421E+03  0.7818609E-02  0.9560101E-01
        1   -1    0    0  501    0  0.00000000000E+00  0.00000000000E+00  0.88171103465E+03  0.88171103467E+03  0.50400001928E-02 0.  1.
       -1   -1    0    0    0  501  0.00000000000E+00  0.00000000000E+00 -0.18143909222E+03  0.18143909229E+03  0.50400001928E-02 0. -1.
    10030    2    1    2    0    0  0.00000000000E+00  0.00000000000E+00  0.70027194243E+03  0.10631501270E+04  0.79994212234E+03 0.  0.
        5    1    3    3  502    0 -0.20193541214E+03 -0.20905958488E+02 -0.10783101065E+03  0.22992300153E+03  0.46999998093E+01 0. -1.
       -5    1    3    3    0  502  0.20193541214E+03  0.20905958488E+02  0.80810295308E+03  0.83322712543E+03  0.46999998093E+01 0.  1.
</event>
<event>
 5   0  0.2690809E-03  0.7992523E+03  0.7818609E-02  0.9561100E-01
       -2   -1    0    0    0  501  0.00000000000E+00  0.00000000000E+00  0.21616443033E+03  0.21616443034E+03  0.25500000920E-02 0. -1.
        2   -1    0    0  501    0  0.00000000000E+00  0.00000000000E+00 -0.73879442635E+03  0.73879442636E+03  0.25500000920E-02 0.  1.
    10030    2    1    2    0    0  0.00000000000E+00  0.00000000000E+00 -0.52262999602E+03  0.95495885670E+03  0.79925234141E+03 0.  0.
        5    1    3    3  502    0  0.17350178931E+03 -0.18901985156E+02 -0.69081547112E+03  0.71253649806E+03  0.46999998093E+01 0.  1.
       -5    1    3    3    0  502 -0.17350178931E+03  0.18901985156E+02  0.16818547510E+03  0.24242235864E+03  0.46999998093E+01 0. -1.
</event>
<event>
 5   0  0.1640035E-03  0.8059367E+03  0.7818609E-02  0.9551463E-01
       -1   -1    0    0    0  501  0.00000000000E+00  0.00000000000E+00  0.13396848129E+03  0.13396848139E+03  0.50400001928E-02 0. -1.
        1   -1    0    0  501    0  0.00000000000E+00  0.00000000000E+00 -0.12121022627E+04  0.12121022628E+04  0.50400001928E-02 0.  1.
    10030    2    1    2    0    0  0.00000000000E+00  0.00000000000E+00 -0.10781337815E+04  0.13460707441E+04  0.80593672055E+03 0.  0.
        5    1    3    3  502    0  0.31305895636E+03 -0.91444431876E+02 -0.93428371099E+03  0.98958382005E+03  0.46999998093E+01 0.  1.
       -5    1    3    3    0  502 -0.31305895636E+03  0.91444431876E+02 -0.14385007046E+03  0.35648692409E+03  0.46999998093E+01 0. -1.
</event>
<event>
 5   0  0.2768834E-03  0.7997828E+03  0.7818609E-02  0.9560332E-01
        2   -1    0    0  501    0  0.00000000000E+00  0.00000000000E+00  0.19309291513E+04  0.19309291513E+04  0.25500000920E-02 0.  1.
       -2   -1    0    0    0  501  0.00000000000E+00  0.00000000000E+00 -0.82816676310E+02  0.82816676349E+02  0.25500000920E-02 0. -1.
    10030    2    1    2    0    0  0.00000000000E+00  0.00000000000E+00  0.18481124750E+04  0.20137458277E+04  0.79978280687E+03 0.  0.
        4    1    3    3  502    0  0.37134655531E+02  0.10175343431E+03  0.18932834380E+04  0.18963798495E+04  0.12699999809E+01 0.  1.
       -4    1    3    3    0  502 -0.37134655531E+02 -0.10175343431E+03 -0.45170963000E+02  0.11736597817E+03  0.12699999809E+01 0. -1.
</event>
<event>
 5   0  0.1637228E-03  0.7994794E+03  0.7818609E-02  0.9560771E-01
        1   -1    0    0  501    0  0.00000000000E+00  0.00000000000E+00  0.42793947036E+03  0.42793947039E+03  0.50400001928E-02 0. -1.
       -1   -1    0    0    0  501  0.00000000000E+00  0.00000000000E+00 -0.37339818784E+03  0.37339818788E+03  0.50400001928E-02 0.  1.
    10030    2    1    2    0    0  0.00000000000E+00  0.00000000000E+00  0.54541282517E+02  0.80133765827E+03  0.79947938751E+03 0.  0.
        2    1    3    3  502    0 -0.30178227226E+03 -0.13295554559E+03 -0.19917948816E+03  0.38525599990E+03  0.25500000920E-02 0.  1.
       -2    1    3    3    0  502  0.30178227226E+03  0.13295554559E+03  0.25372077067E+03  0.41608165837E+03  0.25500000920E-02 0. -1.
</event>
<event>
 5   0  0.1637228E-03  0.8004479E+03  0.7818609E-02  0.9559369E-01
        1   -1    0    0  501    0  0.00000000000E+00  0.00000000000E+00  0.43311927912E+03  0.43311927915E+03  0.50400001928E-02 0. -1.
       -1   -1    0    0    0  501  0.00000000000E+00  0.00000000000E+00 -0.36982705721E+03  0.36982705725E+03  0.50400001928E-02 0.  1.
    10030    2    1    2    0    0  0.00000000000E+00  0.00000000000E+00  0.63292221907E+02  0.80294633639E+03  0.80044794570E+03 0.  0.
        2    1    3    3  502    0  0.14546160645E+03 -0.68776905772E+02 -0.33595353146E+03  0.37249713694E+03  0.25500000920E-02 0.  1.
       -2    1    3    3    0  502 -0.14546160645E+03  0.68776905772E+02  0.39924575337E+03  0.43044919945E+03  0.25500000920E-02 0. -1.
</event>
<event>
 5   0  0.1617491E-03  0.8015629E+03  0.7818609E-02  0.9557758E-01
       -1   -1    0    0    0  501  0.00000000000E+00  0.00000000000E+00  0.59620090697E+03  0.59620090699E+03  0.50400001928E-02 0. -1.
        1   -1    0    0  501    0  0.00000000000E+00  0.00000000000E+00 -0.26941552110E+03  0.26941552115E+03  0.50400001928E-02 0.  1.
    10030    2    1    2    0    0  0.00000000000E+00  0.00000000000E+00  0.32678538587E+03  0.86561642814E+03  0.80156291846E+03 0.  0.
        1    1    3    3  502    0 -0.23223556089E+03 -0.30816097310E+03  0.28034875908E+03  0.47696118063E+03  0.50400001928E-02 0. -1.
       -1    1    3    3    0  502  0.23223556089E+03  0.30816097310E+03  0.46436626791E+02  0.38865524751E+03  0.50400001928E-02 0.  1.
</event>
<event>
 5   0  0.2763587E-03  0.7874091E+03  0.7818609E-02  0.9578423E-01
       -2   -1    0    0    0  501  0.00000000000E+00  0.00000000000E+00  0.10255101140E+03  0.10255101143E+03  0.25500000920E-02 0.  1.
        2   -1    0    0  501    0  0.00000000000E+00  0.00000000000E+00 -0.15114746425E+04  0.15114746425E+04  0.25500000920E-02 0. -1.
    10030    2    1    2    0    0  0.00000000000E+00  0.00000000000E+00 -0.14089236311E+04  0.16140256539E+04  0.78740905078E+03 0.  0.
        3    1    3    3  502    0 -0.33435045532E+03  0.47699913460E+02 -0.11191980047E+04  0.11690464887E+04  0.10100000352E+00 0. -1.
       -3    1    3    3    0  502  0.33435045532E+03 -0.47699913460E+02 -0.28972562636E+03  0.44497916523E+03  0.10100000352E+00 0.  1.
</event>
<event>
 5   0  0.1637228E-03  0.7994096E+03  0.7818609E-02  0.9560872E-01
       -1   -1    0    0    0  501  0.00000000000E+00  0.00000000000E+00  0.69988083567E+03  0.69988083569E+03  0.50400001928E-02 0.  1.
        1   -1    0    0  501    0  0.00000000000E+00  0.00000000000E+00 -0.22827303656E+03  0.22827303662E+03  0.50400001928E-02 0. -1.
    10030    2    1    2    0    0  0.00000000000E+00  0.00000000000E+00  0.47160779911E+03  0.92815387230E+03  0.79940959119E+03 0.  0.
        2    1    3    3  502    0 -0.14134649103E+03 -0.37385839235E+03  0.24029995829E+03  0.46636144568E+03  0.25500000920E-02 0.  1.
       -2    1    3    3    0  502  0.14134649103E+03  0.37385839235E+03  0.23130784082E+03  0.46179242662E+03  0.25500000920E-02 0. -1.
</event>
<event>
 5   0  0.1095350E-03  0.7998818E+03  0.7818609E-02  0.9560188E-01
        3   -1    0    0  501    0  0.00000000000E+00  0.00000000000E+00  0.19608122366E+03  0.19608124968E+03  0.10100000352E+00 0.  1.
       -3   -1    0    0    0  501  0.00000000000E+00  0.00000000000E+00 -0.81574709207E+03  0.81574709832E+03  0.10100000352E+00 0. -1.
    10030    2    1    2    0    0  0.00000000000E+00  0.00000000000E+00 -0.61966586841E+03  0.10118283480E+04  0.79988175210E+03 0.  0.
        1    1    3    3  502    0  0.29782444855E+03 -0.23444840835E+03 -0.14839526407E+03  0.40704620469E+03  0.50400001928E-02 0. -1.
       -1    1    3    3    0  502 -0.29782444855E+03  0.23444840835E+03 -0.47127060434E+03  0.60478214331E+03  0.50400001928E-02 0.  1.
</event>
<event>
 5   0  0.1637228E-03  0.8012621E+03  0.7818609E-02  0.9558192E-01
       -1   -1    0    0    0  501  0.00000000000E+00  0.00000000000E+00  0.16008831445E+03  0.16008831453E+03  0.50400001928E-02 0.  1.
        1   -1    0    0  501    0  0.00000000000E+00  0.00000000000E+00 -0.10026043644E+04  0.10026043644E+04  0.50400001928E-02 0. -1.
    10030    2    1    2    0    0  0.00000000000E+00  0.00000000000E+00 -0.84251604998E+03  0.11626926790E+04  0.80126211147E+03 0.  0.
        2    1    3    3  502    0  0.23853608644E+03  0.32187028247E+03 -0.41791754002E+03  0.57892574095E+03  0.25500000920E-02 0.  1.
       -2    1    3    3    0  502 -0.23853608644E+03 -0.32187028247E+03 -0.42459850996E+03  0.58376693803E+03  0.25500000920E-02 0. -1.
</event>
<event>
 5   0  0.2690809E-03  0.8006218E+03  0.7818609E-02  0.9559118E-01
       -2   -1    0    0    0  501  0.00000000000E+00  0.00000000000E+00  0.19007021298E+03  0.19007021299E+03  0.25500000920E-02 0. -1.
        2   -1    0    0  501    0  0.00000000000E+00  0.00000000000E+00 -0.84310322892E+03  0.84310322892E+03  0.25500000920E-02 0.  1.
    10030    2    1    2    0    0  0.00000000000E+00  0.00000000000E+00 -0.65303301594E+03  0.10331734419E+04  0.80062178410E+03 0.  0.
        5    1    3    3  502    0  0.23616372061E+03  0.25535984417E+03 -0.70871856634E+02  0.35500262394E+03  0.46999998093E+01 0. -1.
       -5    1    3    3    0  502 -0.23616372061E+03 -0.25535984417E+03 -0.58216115931E+03  0.67817081797E+03  0.46999998093E+01 0.  1.
</event>
<event>
 5   0  0.2768834E-03  0.7985713E+03  0.7818609E-02  0.9562087E-01
       -2   -1    0    0    0  501  0.00000000000E+00  0.00000000000E+00  0.90575557708E+02  0.90575557744E+02  0.25500000920E-02 0.  1.
        2   -1    0    0  501    0  0.00000000000E+00  0.00000000000E+00 -0.17601771388E+04  0.17601771388E+04  0.25500000920E-02 0. -1.
    10030    2    1    2    0    0  0.00000000000E+00  0.00000000000E+00 -0.16696015811E+04  0.18507526965E+04  0.79857128936E+03 0.  0.
        4    1    3    3  502    0 -0.43318918965E+02 -0.37928244575E+03 -0.56357749647E+03  0.68070030837E+03  0.12699999809E+01 0.  1.
       -4    1    3    3    0  502  0.43318918965E+02  0.37928244575E+03 -0.11060240846E+04  0.11700523882E+04  0.12699999809E+01 0. -1.
</event>
<event>
 5   0  0.1637228E-03  0.8024100E+03  0.7818609E-02  0.9556535E-01
        1   -1    0    0  501    0  0.00000000000E+00  0.00000000000E+00  0.55618154056E+03  0.55618154059E+03  0.50400001928E-02 0. -1.
       -1   -1    0    0    0  501  0.00000000000E+00  0.00000000000E+00 -0.28941174478E+03  0.28941174483E+03  0.50400001928E-02 0.  1.
    10030    2    1    2    0    0  0.00000000000E+00  0.00000000000E+00  0.26676979578E+03  0.84559328541E+03  0.80241004505E+03 0.  0.
        2    1    3    3  502    0 -0.48326472622E+02 -0.18779703006E+03  0.50351669315E+03  0.53956670834E+03  0.25500000920E-02 0. -1.
       -2    1    3    3    0  502  0.48326472622E+02  0.18779703006E+03 -0.23674689737E+03  0.30602657708E+03  0.25500000920E-02 0.  1.
</event>
<event>
 5   0  0.1617491E-03  0.7992562E+03  0.7818609E-02  0.9561094E-01
       -1   -1    0    0    0  501  0.00000000000E+00  0.00000000000E+00  0.24791010890E+03  0.24791010895E+03  0.50400001928E-02 0. -1.
        1   -1    0    0  501    0  0.00000000000E+00  0.00000000000E+00 -0.64419563424E+03  0.64419563426E+03  0.50400001928E-02 0.  1.
    10030    2    1    2    0    0  0.00000000000E+00  0.00000000000E+00 -0.39628552534E+03  0.89210574320E+03  0.79925617887E+03 0.  0.
        1    1    3    3  502    0  0.12164194468E+03 -0.26420465335E+03  0.10774024820E+03  0.31017547077E+03  0.50400001928E-02 0. -1.
       -1    1    3    3    0  502 -0.12164194468E+03  0.26420465335E+03 -0.50402577354E+03  0.58193027244E+03  0.50400001928E-02 0.  1.
</event>
<event>
 5   0  0.1656051E-03  0.7813580E+03  0.7818609E-02  0.9587400E-01
        1   -1    0    0  501    0  0.00000000000E+00  0.00000000000E+00  0.33626818333E+03  0.33626818336E+03  0.50400001928E-02 0.  1.
       -1   -1    0    0    0  501  0.00000000000E+00  0.00000000000E+00 -0.45389395057E+03  0.45389395060E+03  0.50400001928E-02 0. -1.
    10030    2    1    2    0    0  0.00000000000E+00  0.00000000000E+00 -0.11762576725E+03  0.79016213396E+03  0.78135803370E+03 0.  0.
        3    1    3    3  502    0 -0.27778033689E+03  0.10849709667E+03  0.19641262720E+03  0.35708747650E+03  0.10100000352E+00 0.  1.
       -3    1    3    3    0  502  0.27778033689E+03 -0.10849709667E+03 -0.31403839445E+03  0.43307465746E+03  0.10100000352E+00 0. -1.
</event>
<event>
 5   0  0.2873212E-03  0.7992906E+03  0.7818609E-02  0.9561044E-01
       -2   -1    0    0    0  501  0.00000000000E+00  0.00000000000E+00  0.72972991068E+02  0.72972991112E+02  0.25500000920E-02 0.  1.
        2   -1    0    0  501    0  0.00000000000E+00  0.00000000000E+00 -0.21887054722E+04  0.21887054722E+04  0.25500000920E-02 0. -1.
    10030    2    1    2    0    0  0.00000000000E+00  0.00000000000E+00 -0.21157324811E+04  0.22616784633E+04  0.79929064782E+03 0.  0.
        2    1    3    3  502    0 -0.38628094230E+03 -0.80195233202E+02 -0.12384329347E+04  0.12997539673E+04  0.25500000920E-02 0. -1.
       -2    1    3    3    0  502  0.38628094230E+03  0.80195233202E+02 -0.87729954645E+03  0.96192449601E+03  0.25500000920E-02 0.  1.
</event>
<event>
 5   0  0.1617491E-03  0.8026679E+03  0.7818609E-02  0.9556163E-01
       -1   -1    0    0    0  501  0.00000000000E+00  0.00000000000E+00  0.34493140509E+03  0.34493140512E+03  0.50400001928E-02 0.  1.
        1   -1    0    0  501    0  0.00000000000E+00  0.00000000000E+00 -0.46695931526E+03  0.46695931529E+03  0.50400001928E-02 0. -1.
    10030    2    1    2    0    0  0.00000000000E+00  0.00000000000E+00 -0.12202791018E+03  0.81189072042E+03  0.80266788340E+03 0.  0.
        1    1    3    3  502    0  0.36817449626E+03  0.39998178126E+01  0.10050958418E+03  0.38166822605E+03  0.50400001928E-02 0.  1.
       -1    1    3    3    0  502 -0.36817449626E+03 -0.39998178126E+01 -0.22253749435E+03  0.43022249437E+03  0.50400001928E-02 0. -1.
</event>
<event>
 5   0  0.2690809E-03  0.8004177E+03  0.7818609E-02  0.9559413E-01
        2   -1    0    0  501    0  0.00000000000E+00  0.00000000000E+00  0.42128185944E+03  0.42128185945E+03  0.25500000920E-02 0.  1.
       -2   -1    0    0    0  501  0.00000000000E+00  0.00000000000E+00 -0.38018992419E+03  0.38018992420E+03  0.25500000920E-02 0. -1.
    10030    2    1    2    0    0  0.00000000000E+00  0.00000000000E+00  0.41091935250E+02  0.80147178365E+03  0.80041768649E+03 0.  0.
        5    1    3    3  502    0  0.10717723701E+03 -0.38405989620E+03 -0.13499753666E+02  0.39899034744E+03  0.46999998093E+01 0. -1.
       -5    1    3    3    0  502 -0.10717723701E+03  0.38405989620E+03  0.54591688916E+02  0.40248143621E+03  0.46999998093E+01 0.  1.
</event>
<event>
 5   0  0.1617491E-03  0.8003846E+03  0.7818609E-02  0.9559461E-01
       -1   -1    0    0    0  501  0.00000000000E+00  0.00000000000E+00  0.12177490214E+03  0.12177490224E+03  0.50400001928E-02 0.  1.
        1   -1    0    0  501    0  0.00000000000E+00  0.00000000000E+00 -0.13151632823E+04  0.13151632823E+04  0.50400001928E-02 0. -1.
    10030    2    1    2    0    0  0.00000000000E+00  0.00000000000E+00 -0.11933883802E+04  0.14369381846E+04  0.80038460776E+03 0.  0.
        1    1    3    3  502    0  0.32094993051E+03  0.34381057477E+02 -0.17198689992E+03  0.36574637220E+03  0.50400001928E-02 0.  1.
       -1    1    3    3    0  502 -0.32094993051E+03 -0.34381057477E+02 -0.10214014802E+04  0.10711918124E+04  0.50400001928E-02 0. -1.
</event>
<event>
 5   0  0.2873212E-03  0.7922660E+03  0.7818609E-02  0.9571280E-01
       -2   -1    0    0    0  501  0.00000000000E+00  0.00000000000E+00  0.14109517465E+03  0.14109517467E+03  0.25500000920E-02 0. -1.
        2   -1    0    0  501    0  0.00000000000E+00  0.00000000000E+00 -0.11121666426E+04  0.11121666426E+04  0.25500000920E-02 0.  1.
    10030    2    1    2    0    0  0.00000000000E+00  0.00000000000E+00 -0.97107146794E+03  0.12532618173E+04  0.79226598232E+03 0.  0.
        2    1    3    3  502    0  0.18476345899E+03  0.31928658741E+03 -0.71389491083E+03  0.80357165480E+03  0.25500000920E-02 0.  1.
       -2    1    3    3    0  502 -0.18476345899E+03 -0.31928658741E+03 -0.25717655710E+03  0.44969016245E+03  0.25500000920E-02 0. -1.
</event>
<event>
 5   0  0.1095350E-03  0.8003807E+03  0.7818609E-02  0.9559466E-01
        3   -1    0    0  501    0  0.00000000000E+00  0.00000000000E+00  0.22942736143E+03  0.22942738367E+03  0.10100000352E+00 0. -1.
       -3   -1    0    0    0  501  0.00000000000E+00  0.00000000000E+00 -0.69805233304E+03  0.69805234035E+03  0.10100000352E+00 0.  1.
    10030    2    1    2    0    0  0.00000000000E+00  0.00000000000E+00 -0.46862497160E+03  0.92747972401E+03  0.80038070594E+03 0.  0.
        2    1    3    3  502    0  0.85345517560E+02  0.31442623586E+03  0.34979360454E+02  0.32767555727E+03  0.25500000920E-02 0. -1.
       -2    1    3    3    0  502 -0.85345517560E+02 -0.31442623586E+03 -0.50360433206E+03  0.59980416674E+03  0.25500000920E-02 0.  1.
</event>
<event>
 5   0  0.2690809E-03  0.8012715E+03  0.7818609E-02  0.9558179E-01
        2   -1    0    0  501    0  0.00000000000E+00  0.00000000000E+00  0.39439493341E+03  0.39439493342E+03  0.25500000920E-02 0. -1.
       -2   -1    0    0    0  501  0.00000000000E+00  0.00000000000E+00 -0.40697528971E+03  0.40697528972E+03  0.25500000920E-02 0.  1.
    10030    2    1    2    0    0  0.00000000000E+00  0.00000000000E+00 -0.12580356298E+02  0.80137022314E+03  0.80127147033E+03 0.  0.
        5    1    3    3  502    0 -0.91531279012E+02  0.23041279634E+03 -0.32100160030E+03  0.40562562683E+03  0.46999998093E+01 0.  1.
       -5    1    3    3    0  502  0.91531279012E+02 -0.23041279634E+03  0.30842124400E+03  0.39574459630E+03  0.46999998093E+01 0. -1.
</event>
<event>
 5   0  0.1617491E-03  0.7996705E+03  0.7818609E-02  0.9560494E-01
        1   -1    0    0  501    0  0.00000000000E+00  0.00000000000E+00  0.88221072980E+03  0.88221072982E+03  0.50400001928E-02 0. -1.
       -1   -1    0    0    0  501  0.00000000000E+00  0.00000000000E+00 -0.18121318188E+03  0.18121318195E+03  0.50400001928E-02 0.  1.
    10030    2    1    2    0    0  0.00000000000E+00  0.00000000000E+00  0.70099754793E+03  0.10634239118E+04  0.79967046582E+03 0.  0.
        1    1    3    3  502    0  0.17561920391E+03 -0.28970600508E+03  0.63290025669E+03  0.71786796078E+03  0.50400001928E-02 0.  1.
       -1    1    3    3    0  502 -0.17561920391E+03  0.28970600508E+03  0.68097291234E+02  0.34555595098E+03  0.50400001928E-02 0. -1.
</event>
<event>
 5   0  0.1637228E-03  0.7952610E+03  0.7818609E-02  0.9566902E-01
        1   -1    0    0  501    0  0.00000000000E+00  0.00000000000E+00  0.16345417362E+04  0.16345417362E+04  0.50400001928E-02 0. -1.
       -1   -1    0    0    0  501  0.00000000000E+00  0.00000000000E+00 -0.96730494668E+02  0.96730494799E+02  0.50400001928E-02 0.  1.
    10030    2    1    2    0    0  0.00000000000E+00  0.00000000000E+00  0.15378112415E+04  0.17312722310E+04  0.79526104096E+03 0.  0.
        2    1    3    3  502    0  0.16105645901E+02 -0.42444143009E+02 -0.91070390383E+02  0.10175811082E+03  0.25500000920E-02 0.  1.
       -2    1    3    3    0  502 -0.16105645901E+02  0.42444143009E+02  0.16288816319E+04  0.16295141202E+04  0.25500000920E-02 0. -1.
</event>
<event>
 5   0  0.2763587E-03  0.8008902E+03  0.7818609E-02  0.9558729E-01
        2   -1    0    0  501    0  0.00000000000E+00  0.00000000000E+00  0.13402323274E+04  0.13402323274E+04  0.25500000920E-02 0. -1.
       -2   -1    0    0    0  501  0.00000000000E+00  0.00000000000E+00 -0.11964812988E+03  0.11964812990E+03  0.25500000920E-02 0.  1.
    10030    2    1    2    0    0  0.00000000000E+00  0.00000000000E+00  0.12205841975E+04  0.14598804573E+04  0.80089023366E+03 0.  0.
        3    1    3    3  502    0  0.94054665269E+02 -0.15283925069E+03  0.12628272051E+04  0.12755150633E+04  0.10100000352E+00 0. -1.
       -3    1    3    3    0  502 -0.94054665269E+02  0.15283925069E+03 -0.42243007577E+02  0.18436539399E+03  0.10100000352E+00 0.  1.
</event>
<event>
 5   0  0.1656051E-03  0.8045654E+03  0.7818609E-02  0.9553432E-01
        1   -1    0    0  501    0  0.00000000000E+00  0.00000000000E+00  0.15107203687E+03  0.15107203696E+03  0.50400001928E-02 0.  1.
       -1   -1    0    0    0  501  0.00000000000E+00  0.00000000000E+00 -0.10712198864E+04  0.10712198864E+04  0.50400001928E-02 0. -1.
    10030    2    1    2    0    0  0.00000000000E+00  0.00000000000E+00 -0.92014784955E+03  0.12222919234E+04  0.80456539880E+03 0.  0.
        3    1    3    3  502    0 -0.33281211492E+03 -0.18386509753E+03 -0.65966797904E+03  0.76140142547E+03  0.10100000352E+00 0. -1.
       -3    1    3    3    0  502  0.33281211492E+03  0.18386509753E+03 -0.26047987050E+03  0.46089049792E+03  0.10100000352E+00 0.  1.
</event>
<event>
 5   0  0.2910501E-03  0.7985012E+03  0.7818609E-02  0.9562189E-01
        2   -1    0    0  501    0  0.00000000000E+00  0.00000000000E+00  0.54350410277E+03  0.54350410278E+03  0.25500000920E-02 0. -1.
       -2   -1    0    0    0  501  0.00000000000E+00  0.00000000000E+00 -0.29328396189E+03  0.29328396190E+03  0.25500000920E-02 0.  1.
    10030    2    1    2    0    0  0.00000000000E+00  0.00000000000E+00  0.25022014088E+03  0.83678806468E+03  0.79850118741E+03 0.  0.
        1    1    3    3  502    0 -0.31288203524E+03 -0.29953038728E+02 -0.13288258232E+03  0.34124790581E+03  0.50400001928E-02 0.  1.
       -1    1    3    3    0  502  0.31288203524E+03  0.29953038728E+02  0.38310272320E+03  0.49554015887E+03  0.50400001928E-02 0. -1.
</event>
<event>
 5   0  0.1617491E-03  0.8002907E+03  0.7818609E-02  0.9559596E-01
       -1   -1    0    0    0  501  0.00000000000E+00  0.00000000000E+00  0.27514783969E+03  0.27514783973E+03  0.50400001928E-02 0.  1.
        1   -1    0    0  501    0  0.00000000000E+00  0.00000000000E+00 -0.58192823617E+03  0.58192823619E+03  0.50400001928E-02 0. -1.
    10030    2    1    2    0    0  0.00000000000E+00  0.00000000000E+00 -0.30678039648E+03  0.85707607592E+03  0.80029068984E+03 0.  0.
        1    1    3    3  502    0  0.11920712904E+03  0.27661618526E+03 -0.43550008730E+03  0.52951598618E+03  0.50400001928E-02 0. -1.
       -1    1    3    3    0  502 -0.11920712904E+03 -0.27661618526E+03  0.12871969082E+03  0.32756008974E+03  0.50400001928E-02 0.  1.
</event>
<event>
 5   0  0.2873212E-03  0.8168039E+03  0.7818609E-02  0.9536008E-01
       -2   -1    0    0    0  501  0.00000000000E+00  0.00000000000E+00  0.30624822045E+03  0.30624822046E+03  0.25500000920E-02 0. -1.
        2   -1    0    0  501    0  0.00000000000E+00  0.00000000000E+00 -0.54463062447E+03  0.54463062447E+03  0.25500000920E-02 0.  1.
    10030    2    1    2    0    0  0.00000000000E+00  0.00000000000E+00 -0.23838240402E+03  0.85087884494E+03  0.81680391662E+03 0.  0.
        2    1    3    3  502    0 -0.25250482256E+03  0.11817588715E+03  0.19170155444E+03  0.33833963956E+03  0.25500000920E-02 0. -1.
       -2    1    3    3    0  502  0.25250482256E+03 -0.11817588715E+03 -0.43008395845E+03  0.51253920537E+03  0.25500000920E-02 0.  1.
</event>
<event>
 5   0  0.1656051E-03  0.7994268E+03  0.7818609E-02  0.9560847E-01
       -1   -1    0    0    0  501  0.00000000000E+00  0.00000000000E+00  0.15017875107E+03  0.15017875116E+03  0.50400001928E-02 0. -1.
        1   -1    0    0  501    0  0.00000000000E+00  0.00000000000E+00 -0.10638708691E+04  0.10638708691E+04  0.50400001928E-02 0.  1.
    10030    2    1    2    0    0  0.00000000000E+00  0.00000000000E+00 -0.91369211800E+03  0.12140496202E+04  0.79942679084E+03 0.  0.
        3    1    3    3  502    0 -0.24779846977E+03 -0.13129555060E+03 -0.24288785504E+02  0.28148278549E+03  0.10100000352E+00 0. -1.
       -3    1    3    3    0  502  0.24779846977E+03  0.13129555060E+03 -0.88940333249E+03  0.93256683475E+03  0.10100000352E+00 0.  1.
</event>
<event>
 5   0  0.2768834E-03  0.7995715E+03  0.7818609E-02  0.9560638E-01
       -2   -1    0    0    0  501  0.00000000000E+00  0.00000000000E+00  0.47598000757E+03  0.47598000758E+03  0.25500000920E-02 0. -1.
        2   -1    0    0  501    0  0.00000000000E+00  0.00000000000E+00 -0.33578854379E+03  0.33578854380E+03  0.25500000920E-02 0.  1.
    10030    2    1    2    0    0  0.00000000000E+00  0.00000000000E+00  0.14019146379E+03  0.81176855137E+03  0.79957146928E+03 0.  0.
        4    1    3    3  502    0 -0.17991399616E+03  0.30516383681E+03 -0.11802248647E+03  0.37339648301E+03  0.12699999809E+01 0.  1.
       -4    1    3    3    0  502  0.17991399616E+03 -0.30516383681E+03  0.25821395026E+03  0.43837206836E+03  0.12699999809E+01 0. -1.
</event>
<event>
 5   0  0.2910501E-03  0.8005673E+03  0.7818609E-02  0.9559196E-01
        2   -1    0    0  501    0  0.00000000000E+00  0.00000000000E+00  0.99127629669E+03  0.99127629670E+03  0.25500000920E-02 0. -1.
       -2   -1    0    0    0  501  0.00000000000E+00  0.00000000000E+00 -0.16163707984E+03  0.16163707986E+03  0.25500000920E-02 0.  1.
    10030    2    1    2    0    0  0.00000000000E+00  0.00000000000E+00  0.82963921685E+03  0.11529133766E+04  0.80056731367E+03 0.  0.
        1    1    3    3  502    0 -0.75275348764E+02 -0.20910212926E+03  0.89426711291E+03  0.92146825657E+03  0.50400001928E-02 0. -1.
       -1    1    3    3    0  502  0.75275348764E+02  0.20910212926E+03 -0.64627896064E+02  0.23144511999E+03  0.50400001928E-02 0.  1.
</event>
<event>
 5   0  0.1656051E-03  0.8007026E+03  0.7818609E-02  0.9559001E-01
        1   -1    0    0  501    0  0.00000000000E+00  0.00000000000E+00  0.44001550065E+03  0.44001550068E+03  0.50400001928E-02 0. -1.
       -1   -1    0    0    0  501  0.00000000000E+00  0.00000000000E+00 -0.36426257388E+03  0.36426257392E+03  0.50400001928E-02 0.  1.
    10030    2    1    2    0    0  0.00000000000E+00  0.00000000000E+00  0.75752926768E+02  0.80427807459E+03  0.80070263853E+03 0.  0.
        3    1    3    3  502    0 -0.29352692180E+03 -0.22657739027E+03  0.18950017388E+03  0.41642009282E+03  0.10100000352E+00 0. -1.
       -3    1    3    3    0  502  0.29352692180E+03  0.22657739027E+03 -0.11374724711E+03  0.38785798178E+03  0.10100000352E+00 0.  1.
</event>
<event>
 5   0  0.1640035E-03  0.7996613E+03  0.7818609E-02  0.9560507E-01
        1   -1    0    0  501    0  0.00000000000E+00  0.00000000000E+00  0.74884364781E+03  0.74884364782E+03  0.50400001928E-02 0.  1.
       -1   -1    0    0    0  501  0.00000000000E+00  0.00000000000E+00 -0.21348190357E+03  0.21348190363E+03  0.50400001928E-02 0. -1.
    10030    2    1    2    0    0  0.00000000000E+00  0.00000000000E+00  0.53536174424E+03  0.96232555145E+03  0.79966134693E+03 0.  0.
        5    1    3    3  502    0  0.14246649097E+03 -0.15632241517E+03  0.67597271416E+03  0.70830402993E+03  0.46999998093E+01 0.  1.
       -5    1    3    3    0  502 -0.14246649097E+03  0.15632241517E+03 -0.14061096992E+03  0.25402152152E+03  0.46999998093E+01 0. -1.
</event>
<event>
 5   0  0.1656051E-03  0.7943864E+03  0.7818609E-02  0.9568178E-01
       -1   -1    0    0    0  501  0.00000000000E+00  0.00000000000E+00  0.35568295813E+03  0.35568295817E+03  0.50400001928E-02 0.  1.
        1   -1    0    0  501    0  0.00000000000E+00  0.00000000000E+00 -0.44354796852E+03  0.44354796855E+03  0.50400001928E-02 0. -1.
    10030    2    1    2    0    0  0.00000000000E+00  0.00000000000E+00 -0.87865010387E+02  0.79923092672E+03  0.79438643881E+03 0.  0.
        3    1    3    3  502    0  0.27250307550E+03  0.28893322729E+03 -0.39201985837E+02  0.39909540449E+03  0.10100000352E+00 0.  1.
       -3    1    3    3    0  502 -0.27250307550E+03 -0.28893322729E+03 -0.48663024550E+02  0.40013552223E+03  0.10100000352E+00 0. -1.
</event>
<event>
 5   0  0.1640035E-03  0.7987247E+03  0.7818609E-02  0.9561865E-01
        1   -1    0    0  501    0  0.00000000000E+00  0.00000000000E+00  0.63614652485E+03  0.63614652487E+03  0.50400001928E-02 0.  1.
       -1   -1    0    0    0  501  0.00000000000E+00  0.00000000000E+00 -0.25071311112E+03  0.25071311117E+03  0.50400001928E-02 0. -1.
    10030    2    1    2    0    0  0.00000000000E+00  0.00000000000E+00  0.38543341373E+03  0.88685963603E+03  0.79872466946E+03 0.  0.
        5    1    3    3  502    0  0.20415420081E+03 -0.29072632890E+03  0.39523652872E+03  0.53144589532E+03  0.46999998093E+01 0.  1.
       -5    1    3    3    0  502 -0.20415420081E+03  0.29072632890E+03 -0.98031149893E+01  0.35541374071E+03  0.46999998093E+01 0. -1.
</event>
<event>
 5   0  0.2873212E-03  0.8005622E+03  0.7818609E-02  0.9559204E-01
        2   -1    0    0  501    0  0.00000000000E+00  0.00000000000E+00  0.87432992353E+03  0.87432992353E+03  0.25500000920E-02 0.  1.
       -2   -1    0    0    0  501  0.00000000000E+00  0.00000000000E+00 -0.18325457316E+03  0.18325457318E+03  0.25500000920E-02 0. -1.
    10030    2    1    2    0    0  0.00000000000E+00  0.00000000000E+00  0.69107535037E+03  0.10575844967E+04  0.80056219484E+03 0.  0.
        2    1    3    3  502    0  0.25614793564E+03  0.69503062713E+02  0.74137421795E+03  0.78745042492E+03  0.25500000920E-02 0.  1.
       -2    1    3    3    0  502 -0.25614793564E+03 -0.69503062713E+02 -0.50298867585E+02  0.27013407180E+03  0.25500000920E-02 0. -1.
</event>
<event>
 5   0  0.1656051E-03  0.8005296E+03  0.7818609E-02  0.9559251E-01
        1   -1    0    0  501    0  0.00000000000E+00  0.00000000000E+00  0.33030655439E+03  0.33030655442E+03  0.50400001928E-02 0.  1.
       -1   -1    0    0    0  501  0.00000000000E+00  0.00000000000E+00 -0.48504007873E+03  0.48504007875E+03  0.50400001928E-02 0. -1.
    10030    2    1    2    0    0  0.00000000000E+00  0.00000000000E+00 -0.15473352434E+03  0.81534663318E+03  0.80052961762E+03 0.  0.
        3    1    3    3  502    0 -0.17174948213E+02  0.15034133203E+03  0.30005152435E+03  0.33604824420E+03  0.10100000352E+00 0.  1.
       -3    1    3    3    0  502  0.17174948213E+02 -0.15034133203E+03 -0.45478504869E+03  0.47929838898E+03  0.10100000352E+00 0. -1.
</event>
<event>
 5   0  0.2910501E-03  0.8005663E+03  0.7818609E-02  0.9559198E-01
        2   -1    0    0  501    0  0.00000000000E+00  0.00000000000E+00  0.41806886894E+03  0.41806886894E+03  0.25500000920E-02 0.  1.
       -2   -1    0    0    0  501  0.00000000000E+00  0.00000000000E+00 -0.38325406948E+03  0.38325406949E+03  0.25500000920E-02 0. -1.
    10030    2    1    2    0    0  0.00000000000E+00  0.00000000000E+00  0.34814799458E+02  0.80132293843E+03  0.80056628795E+03 0.  0.
        1    1    3    3  502    0 -0.36097056624E+03 -0.14226830323E+03 -0.81106023732E+02  0.39638139071E+03  0.50400001928E-02 0. -1.
       -1    1    3    3    0  502  0.36097056624E+03  0.14226830323E+03  0.11592082319E+03  0.40494154772E+03  0.50400001928E-02 0.  1.
</event>
<event>
 5   0  0.2768834E-03  0.7953984E+03  0.7818609E-02  0.9566702E-01
       -2   -1    0    0    0  501  0.00000000000E+00  0.00000000000E+00  0.78012599156E+02  0.78012599198E+02  0.25500000920E-02 0.  1.
        2   -1    0    0  501    0  0.00000000000E+00  0.00000000000E+00 -0.20274242856E+04  0.20274242856E+04  0.25500000920E-02 0. -1.
    10030    2    1    2    0    0  0.00000000000E+00  0.00000000000E+00 -0.19494116864E+04  0.21054368848E+04  0.79539836096E+03 0.  0.
        4    1    3    3  502    0  0.13075796287E+02  0.90825696417E+02 -0.19990135151E+04  0.20011189195E+04  0.12699999809E+01 0. -1.
       -4    1    3    3    0  502 -0.13075796287E+02 -0.90825696417E+02  0.49601828648E+02  0.10431796530E+03  0.12699999809E+01 0.  1.
</event>
<event>
 5   0  0.1656051E-03  0.8006445E+03  0.7818609E-02  0.9559085E-01
       -1   -1    0    0    0  501  0.00000000000E+00  0.00000000000E+00  0.16416296169E+03  0.16416296177E+03  0.50400001928E-02 0.  1.
        1   -1    0    0  501    0  0.00000000000E+00  0.00000000000E+00 -0.97621237536E+03  0.97621237537E+03  0.50400001928E-02 0. -1.
    10030    2    1    2    0    0  0.00000000000E+00  0.00000000000E+00 -0.81204941367E+03  0.11403753371E+04  0.80064452745E+03 0.  0.
        3    1    3    3  502    0  0.11385509166E+03 -0.21448577372E+03 -0.85933233264E+03  0.89298331291E+03  0.10100000352E+00 0. -1.
       -3    1    3    3    0  502 -0.11385509166E+03  0.21448577372E+03  0.47282918969E+02  0.24739202423E+03  0.10100000352E+00 0.  1.
</event>
<event>
 5   0  0.2763587E-03  0.8014963E+03  0.7818609E-02  0.9557854E-01
        2   -1    0    0  501    0  0.00000000000E+00  0.00000000000E+00  0.11540289803E+04  0.11540289803E+04  0.25500000920E-02 0.  1.
       -2   -1    0    0    0  501  0.00000000000E+00  0.00000000000E+00 -0.13916382956E+03  0.13916382958E+03  0.25500000920E-02 0. -1.
    10030    2    1    2    0    0  0.00000000000E+00  0.00000000000E+00  0.10148651507E+04  0.12931928099E+04  0.80149633147E+03 0.  0.
        3    1    3    3  502    0 -0.20055859390E+03 -0.31642974906E+03  0.27784523107E+03  0.46642203883E+03  0.10100000352E+00 0.  1.
       -3    1    3    3    0  502  0.20055859390E+03  0.31642974906E+03  0.73701991967E+03  0.82677077105E+03  0.10100000352E+00 0. -1.
</event>
<event>
 5   0  0.2763587E-03  0.7990155E+03  0.7818609E-02  0.9561443E-01
        2   -1    0    0  501    0  0.00000000000E+00  0.00000000000E+00  0.50141560512E+03  0.50141560513E+03  0.25500000920E-02 0.  1.
       -2   -1    0    0    0  501  0.00000000000E+00  0.00000000000E+00 -0.31831168136E+03  0.31831168137E+03  0.25500000920E-02 0. -1.
    10030    2    1    2    0    0  0.00000000000E+00  0.00000000000E+00  0.18310392376E+03  0.81972728650E+03  0.79901550507E+03 0.  0.
        3    1    3    3  502    0  0.47434704876E+02 -0.28299718984E+03  0.37673044594E+03  0.47356446212E+03  0.10100000352E+00 0.  1.
       -3    1    3    3    0  502 -0.47434704876E+02  0.28299718984E+03 -0.19362652219E+03  0.34616282438E+03  0.10100000352E+00 0. -1.
</event>
<event>
 5   0  0.1637228E-03  0.8003557E+03  0.7818609E-02  0.9559502E-01
       -1   -1    0    0    0  501  0.00000000000E+00  0.00000000000E+00  0.14130858313E+03  0.14130858322E+03  0.50400001928E-02 0.  1.
        1   -1    0    0  501    0  0.00000000000E+00  0.00000000000E+00 -0.11332808459E+04  0.11332808459E+04  0.50400001928E-02 0. -1.
    10030    2    1    2    0    0  0.00000000000E+00  0.00000000000E+00 -0.99197226278E+03  0.12745894291E+04  0.80035569765E+03 0.  0.
        2    1    3    3  502    0 -0.19987162911E+03 -0.99457189417E+02  0.32920226714E+02  0.22566378084E+03  0.25500000920E-02 0.  1.
       -2    1    3    3    0  502  0.19987162911E+03  0.99457189417E+02 -0.10248924895E+04  0.10489256483E+04  0.25500000920E-02 0. -1.
</event>
<event>
 5   0  0.1640035E-03  0.7962961E+03  0.7818609E-02  0.9565394E-01
       -1   -1    0    0    0  501  0.00000000000E+00  0.00000000000E+00  0.58927974345E+03  0.58927974347E+03  0.50400001928E-02 0. -1.
        1   -1    0    0  501    0  0.00000000000E+00  0.00000000000E+00 -0.26900953401E+03  0.26900953406E+03  0.50400001928E-02 0.  1.
    10030    2    1    2    0    0  0.00000000000E+00  0.00000000000E+00  0.32027020944E+03  0.85828927753E+03  0.79629609874E+03 0.  0.
        5    1    3    3  502    0  0.25170783544E+03 -0.20655019025E+03 -0.86784664266E+02  0.33700665196E+03  0.46999998093E+01 0.  1.
       -5    1    3    3    0  502 -0.25170783544E+03  0.20655019025E+03  0.40705487370E+03  0.52128262557E+03  0.46999998093E+01 0. -1.
</event>
<event>
 5   0  0.1617491E-03  0.7903589E+03  0.7818609E-02  0.9574078E-01
        1   -1    0    0  501    0  0.00000000000E+00  0.00000000000E+00  0.64997443842E+03  0.64997443844E+03  0.50400001928E-02 0.  1.
       -1   -1    0    0    0  501  0.00000000000E+00  0.00000000000E+00 -0.24026603916E+03  0.24026603922E+03  0.50400001928E-02 0. -1.
    10030    2    1    2    0    0  0.00000000000E+00  0.00000000000E+00  0.40970839925E+03  0.89024047765E+03  0.79035886510E+03 0.  0.
        1    1    3    3  502    0 -0.16592453799E+02 -0.62100608511E+02  0.64404656423E+03  0.64724629935E+03  0.50400001928E-02 0.  1.
       -1    1    3    3    0  502  0.16592453799E+02  0.62100608511E+02 -0.23433816498E+03  0.24299417831E+03  0.50400001928E-02 0. -1.
</event>
<event>
 5   0  0.2690809E-03  0.8006354E+03  0.7818609E-02  0.9559098E-01
        2   -1    0    0  501    0  0.00000000000E+00  0.00000000000E+00  0.45177260951E+03  0.45177260952E+03  0.25500000920E-02 0.  1.
       -2   -1    0    0    0  501  0.00000000000E+00  0.00000000000E+00 -0.35472325807E+03  0.35472325808E+03  0.25500000920E-02 0. -1.
    10030    2    1    2    0    0  0.00000000000E+00  0.00000000000E+00  0.97049351440E+02  0.80649586760E+03  0.80063537758E+03 0.  0.
        5    1    3    3  502    0  0.10028908810E+03 -0.78242907499E+02  0.43084508364E+03  0.44925430422E+03  0.46999998093E+01 0.  1.
       -5    1    3    3    0  502 -0.10028908810E+03  0.78242907499E+02 -0.33379573220E+03  0.35724156337E+03  0.46999998093E+01 0. -1.
</event>
<event>
 5   0  0.2763587E-03  0.7997052E+03  0.7818609E-02  0.9560444E-01
        2   -1    0    0  501    0  0.00000000000E+00  0.00000000000E+00  0.13450252362E+04  0.13450252362E+04  0.25500000920E-02 0. -1.
       -2   -1    0    0    0  501  0.00000000000E+00  0.00000000000E+00 -0.11886922365E+03  0.11886922368E+03  0.25500000920E-02 0.  1.
    10030    2    1    2    0    0  0.00000000000E+00  0.00000000000E+00  0.12261560125E+04  0.14638944599E+04  0.79970520979E+03 0.  0.
        3    1    3    3  502    0 -0.58273536453E+02  0.39365047919E+03  0.54157919083E+03  0.67205991917E+03  0.10100000352E+00 0.  1.
       -3    1    3    3    0  502  0.58273536453E+02 -0.39365047919E+03  0.68457682170E+03  0.79183454069E+03  0.10100000352E+00 0. -1.
</event>
<event>
 5   0  0.2768834E-03  0.7981812E+03  0.7818609E-02  0.9562653E-01
       -2   -1    0    0    0  501  0.00000000000E+00  0.00000000000E+00  0.66751686451E+03  0.66751686452E+03  0.25500000920E-02 0. -1.
        2   -1    0    0  501    0  0.00000000000E+00  0.00000000000E+00 -0.23860565967E+03  0.23860565969E+03  0.25500000920E-02 0.  1.
    10030    2    1    2    0    0  0.00000000000E+00  0.00000000000E+00  0.42891120484E+03  0.90612252420E+03  0.79818118697E+03 0.  0.
        4    1    3    3  502    0  0.35306482327E+03  0.11355339706E+03  0.47138322137E+02  0.37386197684E+03  0.12699999809E+01 0. -1.
       -4    1    3    3    0  502 -0.35306482327E+03 -0.11355339706E+03  0.38177288270E+03  0.53226054736E+03  0.12699999809E+01 0.  1.
</event>
<event>
 5   0  0.2763587E-03  0.7970442E+03  0.7818609E-02  0.9564305E-01
        2   -1    0    0  501    0  0.00000000000E+00  0.00000000000E+00  0.54411748576E+03  0.54411748576E+03  0.25500000920E-02 0. -1.
       -2   -1    0    0    0  501  0.00000000000E+00  0.00000000000E+00 -0.29188527038E+03  0.29188527039E+03  0.25500000920E-02 0.  1.
    10030    2    1    2    0    0  0.00000000000E+00  0.00000000000E+00  0.25223221538E+03  0.83600275616E+03  0.79704423831E+03 0.  0.
        3    1    3    3  502    0  0.61652730467E+02  0.60520232927E+02 -0.28194505567E+03  0.29488435426E+03  0.10100000352E+00 0.  1.
       -3    1    3    3    0  502 -0.61652730467E+02 -0.60520232927E+02  0.53417727105E+03  0.54111840190E+03  0.10100000352E+00 0. -1.
</event>
<event>
 5   0  0.1640035E-03  0.7992857E+03  0.7818609E-02  0.9561052E-01
        1   -1    0    0  501    0  0.00000000000E+00  0.00000000000E+00  0.46254196064E+03  0.46254196067E+03  0.50400001928E-02 0. -1.
       -1   -1    0    0    0  501  0.00000000000E+00  0.00000000000E+00 -0.34529712819E+03  0.34529712823E+03  0.50400001928E-02 0.  1.
    10030    2    1    2    0    0  0.00000000000E+00  0.00000000000E+00  0.11724483245E+03  0.80783908889E+03  0.79928570787E+03 0.  0.
        5    1    3    3  502    0  0.33648253329E+03 -0.61305586648E+02  0.26750640137E+03  0.43423569054E+03  0.46999998093E+01 0. -1.
       -5    1    3    3    0  502 -0.33648253329E+03  0.61305586648E+02 -0.15026156892E+03  0.37360339835E+03  0.46999998093E+01 0.  1.
</event>
<event>
 5   0  0.1712793E-03  0.8013162E+03  0.7818609E-02  0.9558114E-01
       -1   -1    0    0    0  501  0.00000000000E+00  0.00000000000E+00  0.30444687973E+03  0.30444687978E+03  0.50400001928E-02 0.  1.
        1   -1    0    0  501    0  0.00000000000E+00  0.00000000000E+00 -0.52727402850E+03  0.52727402853E+03  0.50400001928E-02 0. -1.
    10030    2    1    2    0    0  0.00000000000E+00  0.00000000000E+00 -0.22282714877E+03  0.83172090830E+03  0.80131624911E+03 0.  0.
        4    1    3    3  502    0  0.39839283840E+03  0.12644613940E+02 -0.69270261476E+02  0.40456979864E+03  0.12699999809E+01 0. -1.
       -4    1    3    3    0  502 -0.39839283840E+03 -0.12644613940E+02 -0.15355688729E+03  0.42715110966E+03  0.12699999809E+01 0.  1.
</event>
<event>
 5   0  0.1640035E-03  0.7997654E+03  0.7818609E-02  0.9560357E-01
        1   -1    0    0  501    0  0.00000000000E+00  0.00000000000E+00  0.21648933417E+03  0.21648933423E+03  0.50400001928E-02 0. -1.
       -1   -1    0    0    0  501  0.00000000000E+00  0.00000000000E+00 -0.73863310051E+03  0.73863310053E+03  0.50400001928E-02 0.  1.
    10030    2    1    2    0    0  0.00000000000E+00  0.00000000000E+00 -0.52214376634E+03  0.95512243476E+03  0.79976543603E+03 0.  0.
        5    1    3    3  502    0 -0.20365205102E+03  0.86870750546E+01 -0.67189233835E+03  0.70214743999E+03  0.46999998093E+01 0.  1.
       -5    1    3    3    0  502  0.20365205102E+03 -0.86870750546E+01  0.14974857201E+03  0.25297499477E+03  0.46999998093E+01 0. -1.
</event>
<event>
 5   0  0.1712793E-03  0.8000695E+03  0.7818609E-02  0.9559916E-01
        1   -1    0    0  501    0  0.00000000000E+00  0.00000000000E+00  0.15191465925E+03  0.15191465933E+03  0.50400001928E-02 0.  1.
       -1   -1    0    0    0  501  0.00000000000E+00  0.00000000000E+00 -0.10534059506E+04  0.10534059506E+04  0.50400001928E-02 0. -1.
    10030    2    1    2    0    0  0.00000000000E+00  0.00000000000E+00 -0.90149129137E+03  0.12053206100E+04  0.80006951222E+03 0.  0.
        4    1    3    3  502    0 -0.16968887441E+03 -0.81157296067E+02  0.81133473766E+02  0.20485378754E+03  0.12699999809E+01 0.  1.
       -4    1    3    3    0  502  0.16968887441E+03  0.81157296067E+02 -0.98262476513E+03  0.10004668224E+04  0.12699999809E+01 0. -1.
</event>
<event>
 5   0  0.2763587E-03  0.7991591E+03  0.7818609E-02  0.9561235E-01
        2   -1    0    0  501    0  0.00000000000E+00  0.00000000000E+00  0.99778833813E+03  0.99778833813E+03  0.25500000920E-02 0. -1.
       -2   -1    0    0    0  501  0.00000000000E+00  0.00000000000E+00 -0.16001774168E+03  0.16001774170E+03  0.25500000920E-02 0.  1.
    10030    2    1    2    0    0  0.00000000000E+00  0.00000000000E+00  0.83777059645E+03  0.11578060798E+04  0.79915914950E+03 0.  0.
        3    1    3    3  502    0  0.19445826347E+03  0.71091630033E+01 -0.86735456226E+02  0.21304367158E+03  0.10100000352E+00 0.  1.
       -3    1    3    3    0  502 -0.19445826347E+03 -0.71091630033E+01  0.92450605267E+03  0.94476240826E+03  0.10100000352E+00 0. -1.
</event>
<event>
 5   0  0.1656051E-03  0.8007553E+03  0.7818609E-02  0.9558925E-01
        1   -1    0    0  501    0  0.00000000000E+00  0.00000000000E+00  0.16096273664E+04  0.16096273664E+04  0.50400001928E-02 0.  1.
       -1   -1    0    0    0  501  0.00000000000E+00  0.00000000000E+00 -0.99589667839E+02  0.99589667967E+02  0.50400001928E-02 0. -1.
    10030    2    1    2    0    0  0.00000000000E+00  0.00000000000E+00  0.15100376986E+04  0.17092170344E+04  0.80075528067E+03 0.  0.
        3    1    3    3  502    0 -0.20870935267E+02  0.35332206683E+03  0.35551727254E+03  0.50166185835E+03  0.10100000352E+00 0. -1.
       -3    1    3    3    0  502  0.20870935267E+02 -0.35332206683E+03  0.11545204260E+04  0.12075551760E+04  0.10100000352E+00 0.  1.
</event>
<event>
 5   0  0.1095350E-03  0.7998855E+03  0.7818609E-02  0.9560183E-01
       -4   -1    0    0    0  501  0.00000000000E+00  0.00000000000E+00  0.24644979754E+03  0.24645306979E+03  0.12699999809E+01 0.  1.
        4   -1    0    0  501    0  0.00000000000E+00  0.00000000000E+00 -0.64902534504E+03  0.64902658760E+03  0.12699999809E+01 0. -1.
    10030    2    1    2    0    0  0.00000000000E+00  0.00000000000E+00 -0.40257554750E+03  0.89547965739E+03  0.79988545764E+03 0.  0.
        2    1    3    3  502    0 -0.25376756414E+03 -0.15513985664E+03  0.98037917717E+02  0.31317372981E+03  0.25500000920E-02 0.  1.
       -2    1    3    3    0  502  0.25376756414E+03  0.15513985664E+03 -0.50061346522E+03  0.58230592758E+03  0.25500000920E-02 0. -1.
</event>
<event>
 5   0  0.2763587E-03  0.7994413E+03  0.7818609E-02  0.9560826E-01
       -2   -1    0    0    0  501  0.00000000000E+00  0.00000000000E+00  0.32799525429E+03  0.32799525430E+03  0.25500000920E-02 0. -1.
        2   -1    0    0  501    0  0.00000000000E+00  0.00000000000E+00 -0.48713078426E+03  0.48713078426E+03  0.25500000920E-02 0.  1.
    10030    2    1    2    0    0  0.00000000000E+00  0.00000000000E+00 -0.15913552997E+03  0.81512603856E+03  0.79944126854E+03 0.  0.
        3    1    3    3  502    0  0.22182525229E+03  0.14813907605E+03 -0.38310795167E+03  0.46682260147E+03  0.10100000352E+00 0.  1.
       -3    1    3    3    0  502 -0.22182525229E+03 -0.14813907605E+03  0.22397242170E+03  0.34830343709E+03  0.10100000352E+00 0. -1.
</event>
<event>
 5   0  0.1656051E-03  0.8005041E+03  0.7818609E-02  0.9559288E-01
        1   -1    0    0  501    0  0.00000000000E+00  0.00000000000E+00  0.91973077292E+03  0.91973077293E+03  0.50400001928E-02 0.  1.
       -1   -1    0    0    0  501  0.00000000000E+00  0.00000000000E+00 -0.17418327260E+03  0.17418327267E+03  0.50400001928E-02 0. -1.
    10030    2    1    2    0    0  0.00000000000E+00  0.00000000000E+00  0.74554750032E+03  0.10939140456E+04  0.80050413113E+03 0.  0.
        3    1    3    3  502    0 -0.27409260412E+03  0.28696498739E+03  0.30142502392E+03  0.49832992572E+03  0.10100000352E+00 0. -1.
       -3    1    3    3    0  502  0.27409260412E+03 -0.28696498739E+03  0.44412247640E+03  0.59558411989E+03  0.10100000352E+00 0.  1.
</event>
<event>
 5   0  0.2768834E-03  0.8004584E+03  0.7818609E-02  0.9559354E-01
       -2   -1    0    0    0  501  0.00000000000E+00  0.00000000000E+00  0.11116317188E+03  0.11116317191E+03  0.25500000920E-02 0. -1.
        2   -1    0    0  501    0  0.00000000000E+00  0.00000000000E+00 -0.14409755696E+04  0.14409755696E+04  0.25500000920E-02 0.  1.
    10030    2    1    2    0    0  0.00000000000E+00  0.00000000000E+00 -0.13298123978E+04  0.15521387416E+04  0.80045840603E+03 0.  0.
        4    1    3    3  502    0 -0.13628067412E+03  0.14125269929E+03 -0.13412389503E+04  0.13555250945E+04  0.12699999809E+01 0.  1.
       -4    1    3    3    0  502  0.13628067412E+03 -0.14125269929E+03  0.11426552538E+02  0.19661364703E+03  0.12699999809E+01 0. -1.
</event>
<event>
 5   0  0.1095350E-03  0.7988456E+03  0.7818609E-02  0.9561690E-01
        4   -1    0    0  501    0  0.00000000000E+00  0.00000000000E+00  0.27704783723E+03  0.27705074808E+03  0.12699999809E+01 0. -1.
       -4   -1    0    0    0  501  0.00000000000E+00  0.00000000000E+00 -0.57584548827E+03  0.57584688873E+03  0.12699999809E+01 0.  1.
    10030    2    1    2    0    0  0.00000000000E+00  0.00000000000E+00 -0.29879765105E+03  0.85289763681E+03  0.79884563128E+03 0.  0.
        2    1    3    3  502    0 -0.11057380788E+03  0.38030037093E+03 -0.94089711344E+02  0.40707224532E+03  0.25500000920E-02 0.  1.
       -2    1    3    3    0  502  0.11057380788E+03 -0.38030037093E+03 -0.20470793970E+03  0.44582539150E+03  0.25500000920E-02 0. -1.
</event>
<event>
 5   0  0.1637228E-03  0.8022264E+03  0.7818609E-02  0.9556800E-01
        1   -1    0    0  501    0  0.00000000000E+00  0.00000000000E+00  0.49154755521E+03  0.49154755523E+03  0.50400001928E-02 0.  1.
       -1   -1    0    0    0  501  0.00000000000E+00  0.00000000000E+00 -0.32731688692E+03  0.32731688696E+03  0.50400001928E-02 0. -1.
    10030    2    1    2    0    0  0.00000000000E+00  0.00000000000E+00  0.16423066828E+03  0.81886444219E+03  0.80222644078E+03 0.  0.
        2    1    3    3  502    0 -0.60765841540E+02  0.25037544881E+03 -0.23168780474E+03  0.34649616410E+03  0.25500000920E-02 0. -1.
       -2    1    3    3    0  502  0.60765841540E+02 -0.25037544881E+03  0.39591847302E+03  0.47236827810E+03  0.25500000920E-02 0.  1.
</event>
<event>
 5   0  0.1712793E-03  0.7934288E+03  0.7818609E-02  0.9569578E-01
       -1   -1    0    0    0  501  0.00000000000E+00  0.00000000000E+00  0.10445426570E+04  0.10445426570E+04  0.50400001928E-02 0. -1.
        1   -1    0    0  501    0  0.00000000000E+00  0.00000000000E+00 -0.15067103916E+03  0.15067103924E+03  0.50400001928E-02 0.  1.
    10030    2    1    2    0    0  0.00000000000E+00  0.00000000000E+00  0.89387161784E+03  0.11952136963E+04  0.79342883143E+03 0.  0.
        4    1    3    3  502    0 -0.27094043619E+03 -0.12759947514E+03  0.83885905488E+03  0.89071683092E+03  0.12699999809E+01 0. -1.
       -4    1    3    3    0  502  0.27094043619E+03  0.12759947514E+03  0.55012562959E+02  0.30449686534E+03  0.12699999809E+01 0.  1.
</event>
<event>
 5   0  0.1656051E-03  0.8015535E+03  0.7818609E-02  0.9557771E-01
       -1   -1    0    0    0  501  0.00000000000E+00  0.00000000000E+00  0.17981273215E+03  0.17981273222E+03  0.50400001928E-02 0. -1.
        1   -1    0    0  501    0  0.00000000000E+00  0.00000000000E+00 -0.89327380613E+03  0.89327380615E+03  0.50400001928E-02 0.  1.
    10030    2    1    2    0    0  0.00000000000E+00  0.00000000000E+00 -0.71346107398E+03  0.10730865384E+04  0.80155350086E+03 0.  0.
        3    1    3    3  502    0 -0.11296075516E+03 -0.31651304580E+03 -0.64398429705E+02  0.34218095844E+03  0.10100000352E+00 0. -1.
       -3    1    3    3    0  502  0.11296075516E+03  0.31651304580E+03 -0.64906264428E+03  0.73090557993E+03  0.10100000352E+00 0.  1.
</event>
<event>
 5   0  0.1640035E-03  0.7989494E+03  0.7818609E-02  0.9561539E-01
       -1   -1    0    0    0  501  0.00000000000E+00  0.00000000000E+00  0.10525803724E+03  0.10525803736E+03  0.50400001928E-02 0.  1.
        1   -1    0    0  501    0  0.00000000000E+00  0.00000000000E+00 -0.15160840103E+04  0.15160840103E+04  0.50400001928E-02 0. -1.
    10030    2    1    2    0    0  0.00000000000E+00  0.00000000000E+00 -0.14108259731E+04  0.16213420477E+04  0.79894937843E+03 0.  0.
        5    1    3    3  502    0 -0.23617034209E+03 -0.20014945786E+03 -0.12176831528E+04  0.12564277084E+04  0.46999998093E+01 0. -1.
       -5    1    3    3    0  502  0.23617034209E+03  0.20014945786E+03 -0.19314282030E+03  0.36491433925E+03  0.46999998093E+01 0.  1.
</event>
<event>
 5   0  0.2763587E-03  0.8016187E+03  0.7818609E-02  0.9557677E-01
        2   -1    0    0  501    0  0.00000000000E+00  0.00000000000E+00  0.83668055540E+03  0.83668055540E+03  0.25500000920E-02 0. -1.
       -2   -1    0    0    0  501  0.00000000000E+00  0.00000000000E+00 -0.19200655533E+03  0.19200655535E+03  0.25500000920E-02 0.  1.
    10030    2    1    2    0    0  0.00000000000E+00  0.00000000000E+00  0.64467400007E+03  0.10286871107E+04  0.80161874071E+03 0.  0.
        3    1    3    3  502    0 -0.38430473618E+02  0.19701741628E+03  0.76752985561E+03  0.79334409500E+03  0.10100000352E+00 0. -1.
       -3    1    3    3    0  502  0.38430473618E+02 -0.19701741628E+03 -0.12285585554E+03  0.23534301575E+03  0.10100000352E+00 0.  1.
</event>
<event>
 5   0  0.1617491E-03  0.7775572E+03  0.7818609E-02  0.9593083E-01
        1   -1    0    0  501    0  0.00000000000E+00  0.00000000000E+00  0.69444544698E+03  0.69444544700E+03  0.50400001928E-02 0. -1.
       -1   -1    0    0    0  501  0.00000000000E+00  0.00000000000E+00 -0.21765394874E+03  0.21765394880E+03  0.50400001928E-02 0.  1.
    10030    2    1    2    0    0  0.00000000000E+00  0.00000000000E+00  0.47679149824E+03  0.91209939580E+03  0.77755718441E+03 0.  0.
        1    1    3    3  502    0  0.91709782791E+02 -0.96676374293E+01  0.68143027033E+03  0.68764188414E+03  0.50400001928E-02 0. -1.
       -1    1    3    3    0  502 -0.91709782791E+02  0.96676374293E+01 -0.20463877209E+03  0.22445751166E+03  0.50400001928E-02 0.  1.
</event>
<event>
 5   0  0.2910501E-03  0.7986315E+03  0.7818609E-02  0.9562000E-01
       -2   -1    0    0    0  501  0.00000000000E+00  0.00000000000E+00  0.57914390415E+03  0.57914390416E+03  0.25500000920E-02 0. -1.
        2   -1    0    0  501    0  0.00000000000E+00  0.00000000000E+00 -0.27532549419E+03  0.27532549420E+03  0.25500000920E-02 0.  1.
    10030    2    1    2    0    0  0.00000000000E+00  0.00000000000E+00  0.30381840996E+03  0.85446939835E+03  0.79863153362E+03 0.  0.
        1    1    3    3  502    0  0.34448213699E+01 -0.17885198439E+03  0.53387581619E+03  0.56304820953E+03  0.50400001928E-02 0. -1.
       -1    1    3    3    0  502 -0.34448213699E+01  0.17885198439E+03 -0.23005740622E+03  0.29142118883E+03  0.50400001928E-02 0.  1.
</event>
<event>
 5   0  0.1656051E-03  0.7999137E+03  0.7818609E-02  0.9560142E-01
       -1   -1    0    0    0  501  0.00000000000E+00  0.00000000000E+00  0.21843441097E+03  0.21843441103E+03  0.50400001928E-02 0. -1.
        1   -1    0    0  501    0  0.00000000000E+00  0.00000000000E+00 -0.73232736839E+03  0.73232736840E+03  0.50400001928E-02 0.  1.
    10030    2    1    2    0    0  0.00000000000E+00  0.00000000000E+00 -0.51389295742E+03  0.95076177943E+03  0.79991373882E+03 0.  0.
        3    1    3    3  502    0 -0.13450814587E+03 -0.30314293935E+03  0.87681143044E+01  0.33176041508E+03  0.10100000352E+00 0. -1.
       -3    1    3    3    0  502  0.13450814587E+03  0.30314293935E+03 -0.52266107172E+03  0.61900136436E+03  0.10100000352E+00 0.  1.
</event>
<event>
 5   0  0.1637228E-03  0.8008534E+03  0.7818609E-02  0.9558783E-01
       -1   -1    0    0    0  501  0.00000000000E+00  0.00000000000E+00  0.15431238517E+03  0.15431238525E+03  0.50400001928E-02 0.  1.
        1   -1    0    0  501    0  0.00000000000E+00  0.00000000000E+00 -0.10390710136E+04  0.10390710136E+04  0.50400001928E-02 0. -1.
    10030    2    1    2    0    0  0.00000000000E+00  0.00000000000E+00 -0.88475862840E+03  0.11933833988E+04  0.80085336116E+03 0.  0.
        2    1    3    3  502    0  0.35378253576E+03 -0.18751245447E+03 -0.43596594211E+03  0.59193691039E+03  0.25500000920E-02 0.  1.
       -2    1    3    3    0  502 -0.35378253576E+03  0.18751245447E+03 -0.44879268629E+03  0.60144648844E+03  0.25500000920E-02 0. -1.
</event>
<event>
 5   0  0.1640035E-03  0.7999962E+03  0.7818609E-02  0.9560023E-01
        1   -1    0    0  501    0  0.00000000000E+00  0.00000000000E+00  0.13347755085E+04  0.13347755086E+04  0.50400001928E-02 0. -1.
       -1   -1    0    0    0  501  0.00000000000E+00  0.00000000000E+00 -0.11986920179E+03  0.11986920190E+03  0.50400001928E-02 0.  1.
    10030    2    1    2    0    0  0.00000000000E+00  0.00000000000E+00  0.12149063068E+04  0.14546447105E+04  0.79999618716E+03 0.  0.
        5    1    3    3  502    0  0.28945883234E+03 -0.18417685927E+03  0.98128754304E+03  0.10395455080E+04  0.46999998093E+01 0. -1.
       -5    1    3    3    0  502 -0.28945883234E+03  0.18417685927E+03  0.23361876371E+03  0.41509920244E+03  0.46999998093E+01 0.  1.
</event>
<event>
 5   0  0.2690809E-03  0.7962880E+03  0.7818609E-02  0.9565406E-01
       -2   -1    0    0    0  501  0.00000000000E+00  0.00000000000E+00  0.14955764263E+03  0.14955764265E+03  0.25500000920E-02 0.  1.
        2   -1    0    0  501    0  0.00000000000E+00  0.00000000000E+00 -0.10599167776E+04  0.10599167776E+04  0.25500000920E-02 0. -1.
    10030    2    1    2    0    0  0.00000000000E+00  0.00000000000E+00 -0.91035913499E+03  0.12094744203E+04  0.79628802493E+03 0.  0.
        5    1    3    3  502    0  0.36380164959E+03 -0.99009689920E+02 -0.64934824928E+03  0.75088600852E+03  0.46999998093E+01 0. -1.
       -5    1    3    3    0  502 -0.36380164959E+03  0.99009689920E+02 -0.26101088571E+03  0.45858841176E+03  0.46999998093E+01 0.  1.
</event>
<event>
 5   0  0.2690809E-03  0.7996476E+03  0.7818609E-02  0.9560527E-01
        2   -1    0    0  501    0  0.00000000000E+00  0.00000000000E+00  0.30859817535E+03  0.30859817536E+03  0.25500000920E-02 0. -1.
       -2   -1    0    0    0  501  0.00000000000E+00  0.00000000000E+00 -0.51801692448E+03  0.51801692448E+03  0.25500000920E-02 0.  1.
    10030    2    1    2    0    0  0.00000000000E+00  0.00000000000E+00 -0.20941874913E+03  0.82661509985E+03  0.79964761665E+03 0.  0.
        5    1    3    3  502    0 -0.31249173697E+02  0.21179533664E+03 -0.45373975560E+03  0.50173262928E+03  0.46999998093E+01 0.  1.
       -5    1    3    3    0  502  0.31249173697E+02 -0.21179533664E+03  0.24432100647E+03  0.32488247057E+03  0.46999998093E+01 0. -1.
</event>
<event>
 5   0  0.2690809E-03  0.8004682E+03  0.7818609E-02  0.9559340E-01
       -2   -1    0    0    0  501  0.00000000000E+00  0.00000000000E+00  0.19549559828E+03  0.19549559830E+03  0.25500000920E-02 0. -1.
        2   -1    0    0  501    0  0.00000000000E+00  0.00000000000E+00 -0.81939110429E+03  0.81939110430E+03  0.25500000920E-02 0.  1.
    10030    2    1    2    0    0  0.00000000000E+00  0.00000000000E+00 -0.62389550601E+03  0.10148867026E+04  0.80046824839E+03 0.  0.
        5    1    3    3  502    0 -0.21589397557E+03 -0.26032649385E+02 -0.73791564806E+03  0.76930455684E+03  0.46999998093E+01 0.  1.
       -5    1    3    3    0  502  0.21589397557E+03  0.26032649385E+02  0.11402014205E+03  0.24558214575E+03  0.46999998093E+01 0. -1.
</event>
<event>
 5   0  0.1712793E-03  0.8001358E+03  0.7818609E-02  0.9559821E-01
        1   -1    0    0  501    0  0.00000000000E+00  0.00000000000E+00  0.37212099474E+03  0.37212099477E+03  0.50400001928E-02 0. -1.
       -1   -1    0    0    0  501  0.00000000000E+00  0.00000000000E+00 -0.43011366714E+03  0.43011366717E+03  0.50400001928E-02 0.  1.
    10030    2    1    2    0    0  0.00000000000E+00  0.00000000000E+00 -0.57992672397E+02  0.80223466194E+03  0.80013580270E+03 0.  0.
        4    1    3    3  502    0 -0.29337038603E+03 -0.20796664980E+03  0.14678154789E+03  0.38841053864E+03  0.12699999809E+01 0.  1.
       -4    1    3    3    0  502  0.29337038603E+03  0.20796664980E+03 -0.20477422028E+03  0.41382412330E+03  0.12699999809E+01 0. -1.
</event>
<event>
 5   0  0.2873212E-03  0.7992667E+03  0.7818609E-02  0.9561079E-01
        2   -1    0    0  501    0  0.00000000000E+00  0.00000000000E+00  0.12096708199E+04  0.12096708199E+04  0.25500000920E-02 0.  1.
       -2   -1    0    0    0  501  0.00000000000E+00  0.00000000000E+00 -0.13202500950E+03  0.13202500952E+03  0.25500000920E-02 0. -1.
    10030    2    1    2    0    0  0.00000000000E+00  0.00000000000E+00  0.10776458104E+04  0.13416958295E+04  0.79926666766E+03 0.  0.
        2    1    3    3  502    0  0.23822828725E+03  0.31957161602E+03  0.49051757257E+03  0.63204922563E+03  0.25500000920E-02 0. -1.
       -2    1    3    3    0  502 -0.23822828725E+03 -0.31957161602E+03  0.58712823786E+03  0.70964660382E+03  0.25500000920E-02 0.  1.
</event>
<event>
 5   0  0.2763587E-03  0.8030574E+03  0.7818609E-02  0.9555602E-01
        2   -1    0    0  501    0  0.00000000000E+00  0.00000000000E+00  0.40611614079E+03  0.40611614080E+03  0.25500000920E-02 0. -1.
       -2   -1    0    0    0  501  0.00000000000E+00  0.00000000000E+00 -0.39699306929E+03  0.39699306930E+03  0.25500000920E-02 0.  1.
    10030    2    1    2    0    0  0.00000000000E+00  0.00000000000E+00  0.91230714943E+01  0.80310921010E+03  0.80305739080E+03 0.  0.
        3    1    3    3  502    0 -0.29798311319E+03 -0.47425767018E+02 -0.26037468593E+03  0.39854501176E+03  0.10100000352E+00 0.  1.
       -3    1    3    3    0  502  0.29798311319E+03  0.47425767018E+02  0.26949775742E+03  0.40456419834E+03  0.10100000352E+00 0. -1.
</event>
<event>
 5   0  0.1617491E-03  0.8002901E+03  0.7818609E-02  0.9559597E-01
       -1   -1    0    0    0  501  0.00000000000E+00  0.00000000000E+00  0.20614806596E+03  0.20614806602E+03  0.50400001928E-02 0.  1.
        1   -1    0    0  501    0  0.00000000000E+00  0.00000000000E+00 -0.77670411471E+03  0.77670411472E+03  0.50400001928E-02 0. -1.
    10030    2    1    2    0    0  0.00000000000E+00  0.00000000000E+00 -0.57055604875E+03  0.98285218074E+03  0.80029007518E+03 0.  0.
        1    1    3    3  502    0  0.18604631791E+03  0.32416696712E+03 -0.10978748295E+03  0.38955198166E+03  0.50400001928E-02 0.  1.
       -1    1    3    3    0  502 -0.18604631791E+03 -0.32416696712E+03 -0.46076856580E+03  0.59330019909E+03  0.50400001928E-02 0. -1.
</event>
<event>
 5   0  0.2763587E-03  0.8161846E+03  0.7818609E-02  0.9536882E-01
       -2   -1    0    0    0  501  0.00000000000E+00  0.00000000000E+00  0.19694127073E+03  0.19694127075E+03  0.25500000920E-02 0. -1.
        2   -1    0    0  501    0  0.00000000000E+00  0.00000000000E+00 -0.84562928524E+03  0.84562928525E+03  0.25500000920E-02 0.  1.
    10030    2    1    2    0    0  0.00000000000E+00  0.00000000000E+00 -0.64868801451E+03  0.10425705560E+04  0.81618455269E+03 0.  0.
        3    1    3    3  502    0  0.16521032491E+03 -0.28856491149E+03 -0.22129948070E+02  0.33324751222E+03  0.10100000352E+00 0. -1.
       -3    1    3    3    0  502 -0.16521032491E+03  0.28856491149E+03 -0.62655806644E+03  0.70932304377E+03  0.10100000352E+00 0.  1.
</event>
<event>
 5   0  0.1712793E-03  0.8072180E+03  0.7818609E-02  0.9549628E-01
       -1   -1    0    0    0  501  0.00000000000E+00  0.00000000000E+00  0.25558700687E+03  0.25558700691E+03  0.50400001928E-02 0.  1.
        1   -1    0    0  501    0  0.00000000000E+00  0.00000000000E+00 -0.63735716850E+03  0.63735716852E+03  0.50400001928E-02 0. -1.
    10030    2    1    2    0    0  0.00000000000E+00  0.00000000000E+00 -0.38177016164E+03  0.89294417544E+03  0.80721796569E+03 0.  0.
        4    1    3    3  502    0  0.18308419925E+03  0.69077382105E+02 -0.58137053927E+03  0.61342059435E+03  0.12699999809E+01 0. -1.
       -4    1    3    3    0  502 -0.18308419925E+03 -0.69077382105E+02  0.19960037764E+03  0.27952358109E+03  0.12699999809E+01 0.  1.
</event>
<event>
 5   0  0.2690809E-03  0.8017050E+03  0.7818609E-02  0.9557552E-01
       -2   -1    0    0    0  501  0.00000000000E+00  0.00000000000E+00  0.10695503887E+04  0.10695503887E+04  0.25500000920E-02 0.  1.
        2   -1    0    0  501    0  0.00000000000E+00  0.00000000000E+00 -0.15023389713E+03  0.15023389715E+03  0.25500000920E-02 0. -1.
    10030    2    1    2    0    0  0.00000000000E+00  0.00000000000E+00  0.91931649162E+03  0.12197842859E+04  0.80170499086E+03 0.  0.
        5    1    3    3  502    0 -0.31028426800E+03 -0.17190554230E+02  0.74482008515E+02  0.31959584120E+03  0.46999998093E+01 0. -1.
       -5    1    3    3    0  502  0.31028426800E+03  0.17190554230E+02  0.84483448310E+03  0.90018844469E+03  0.46999998093E+01 0.  1.
</event>
<event>
 5   0  0.1656051E-03  0.8009875E+03  0.7818609E-02  0.9558589E-01
       -1   -1    0    0    0  501  0.00000000000E+00  0.00000000000E+00  0.65005722726E+03  0.65005722727E+03  0.50400001928E-02 0. -1.
        1   -1    0    0  501    0  0.00000000000E+00  0.00000000000E+00 -0.24674021902E+03  0.24674021908E+03  0.50400001928E-02 0.  1.
    10030    2    1    2    0    0  0.00000000000E+00  0.00000000000E+00  0.40331700823E+03  0.89679744635E+03  0.80098754713E+03 0.  0.
        3    1    3    3  502    0  0.36890314093E+03 -0.73417696983E+02  0.47673553221E+02  0.37914702095E+03  0.10100000352E+00 0. -1.
       -3    1    3    3    0  502 -0.36890314093E+03  0.73417696983E+02  0.35564345501E+03  0.51765042540E+03  0.10100000352E+00 0.  1.
</event>
<event>
 5   0  0.2873212E-03  0.8004333E+03  0.7818609E-02  0.9559390E-01
        2   -1    0    0  501    0  0.00000000000E+00  0.00000000000E+00  0.22368114673E+04  0.22368114673E+04  0.25500000920E-02 0. -1.
       -2   -1    0    0    0  501  0.00000000000E+00  0.00000000000E+00 -0.71607899821E+02  0.71607899866E+02  0.25500000920E-02 0.  1.
    10030    2    1    2    0    0  0.00000000000E+00  0.00000000000E+00  0.21652035675E+04  0.23084193672E+04  0.80043331147E+03 0.  0.
        2    1    3    3  502    0  0.21157186472E+03  0.18399496194E+03  0.25899666823E+03  0.38170155111E+03  0.25500000920E-02 0.  1.
       -2    1    3    3    0  502 -0.21157186472E+03 -0.18399496194E+03  0.19062068993E+04  0.19267178161E+04  0.25500000920E-02 0. -1.
</event>
<event>
 5   0  0.1640035E-03  0.7989748E+03  0.7818609E-02  0.9561502E-01
        1   -1    0    0  501    0  0.00000000000E+00  0.00000000000E+00  0.96737682039E+03  0.96737682040E+03  0.50400001928E-02 0. -1.
       -1   -1    0    0    0  501  0.00000000000E+00  0.00000000000E+00 -0.16497209190E+03  0.16497209197E+03  0.50400001928E-02 0.  1.
    10030    2    1    2    0    0  0.00000000000E+00  0.00000000000E+00  0.80240472849E+03  0.11323489124E+04  0.79897478749E+03 0.  0.
        5    1    3    3  502    0  0.21970055194E+03 -0.15539615087E+03  0.81959627182E+03  0.86265661477E+03  0.46999998093E+01 0. -1.
       -5    1    3    3    0  502 -0.21970055194E+03  0.15539615087E+03 -0.17191543327E+02  0.26969229761E+03  0.46999998093E+01 0.  1.
</event>
<event>
 5   0  0.1637228E-03  0.7990331E+03  0.7818609E-02  0.9561418E-01
        1   -1    0    0  501    0  0.00000000000E+00  0.00000000000E+00  0.43279757838E+03  0.43279757841E+03  0.50400001928E-02 0.  1.
       -1   -1    0    0    0  501  0.00000000000E+00  0.00000000000E+00 -0.36879478654E+03  0.36879478658E+03  0.50400001928E-02 0. -1.
    10030    2    1    2    0    0  0.00000000000E+00  0.00000000000E+00  0.64002791841E+02  0.80159236499E+03  0.79903314214E+03 0.  0.
        2    1    3    3  502    0  0.19383844259E+03  0.30441566516E+02  0.38112963982E+03  0.42867217445E+03  0.25500000920E-02 0.  1.
       -2    1    3    3    0  502 -0.19383844259E+03 -0.30441566516E+02 -0.31712684798E+03  0.37292019054E+03  0.25500000920E-02 0. -1.
</event>
<event>
 5   0  0.1640035E-03  0.7996165E+03  0.7818609E-02  0.9560572E-01
        1   -1    0    0  501    0  0.00000000000E+00  0.00000000000E+00  0.11472186916E+04  0.11472186916E+04  0.50400001928E-02 0.  1.
       -1   -1    0    0    0  501  0.00000000000E+00  0.00000000000E+00 -0.13933404274E+03  0.13933404283E+03  0.50400001928E-02 0. -1.
    10030    2    1    2    0    0  0.00000000000E+00  0.00000000000E+00  0.10078846488E+04  0.12865527344E+04  0.79961645374E+03 0.  0.
        5    1    3    3  502    0 -0.10899786366E+03 -0.23340452587E+03  0.12046149920E+02  0.25792519595E+03  0.46999998093E+01 0. -1.
       -5    1    3    3    0  502  0.10899786366E+03  0.23340452587E+03  0.99583849892E+03  0.10286275385E+04  0.46999998093E+01 0.  1.
</event>
<event>
 5   0  0.2690809E-03  0.8005250E+03  0.7818609E-02  0.9559258E-01
       -2   -1    0    0    0  501  0.00000000000E+00  0.00000000000E+00  0.17112207719E+03  0.17112207721E+03  0.25500000920E-02 0.  1.
        2   -1    0    0  501    0  0.00000000000E+00  0.00000000000E+00 -0.93623251066E+03  0.93623251067E+03  0.25500000920E-02 0. -1.
    10030    2    1    2    0    0  0.00000000000E+00  0.00000000000E+00 -0.76511043347E+03  0.11073545879E+04  0.80052495768E+03 0.  0.
        5    1    3    3  502    0  0.26643190197E+03  0.25393232715E+02 -0.79420106555E+03  0.83809796395E+03  0.46999998093E+01 0. -1.
       -5    1    3    3    0  502 -0.26643190197E+03 -0.25393232715E+02  0.29090632071E+02  0.26925662393E+03  0.46999998093E+01 0.  1.
</event>
<event>
 5   0  0.1640035E-03  0.8001471E+03  0.7818609E-02  0.9559804E-01
        1   -1    0    0  501    0  0.00000000000E+00  0.00000000000E+00  0.61722271714E+03  0.61722271716E+03  0.50400001928E-02 0.  1.
       -1   -1    0    0    0  501  0.00000000000E+00  0.00000000000E+00 -0.25932102739E+03  0.25932102744E+03  0.50400001928E-02 0. -1.
    10030    2    1    2    0    0  0.00000000000E+00  0.00000000000E+00  0.35790168975E+03  0.87654374459E+03  0.80014705940E+03 0.  0.
        5    1    3    3  502    0 -0.22262661405E+03 -0.96058415004E+02  0.52752458937E+03  0.58059806301E+03  0.46999998093E+01 0.  1.
       -5    1    3    3    0  502  0.22262661405E+03  0.96058415004E+02 -0.16962289962E+03  0.29594568159E+03  0.46999998093E+01 0. -1.
</event>
<event>
 5   0  0.2910501E-03  0.8005999E+03  0.7818609E-02  0.9559149E-01
       -2   -1    0    0    0  501  0.00000000000E+00  0.00000000000E+00  0.14960985312E+03  0.14960985314E+03  0.25500000920E-02 0. -1.
        2   -1    0    0  501    0  0.00000000000E+00  0.00000000000E+00 -0.10710528963E+04  0.10710528963E+04  0.25500000920E-02 0.  1.
    10030    2    1    2    0    0  0.00000000000E+00  0.00000000000E+00 -0.92144304320E+03  0.12206627495E+04  0.80059994134E+03 0.  0.
        1    1    3    3  502    0 -0.12492271157E+03  0.17341339880E+03  0.55339151096E+02  0.22077208251E+03  0.50400001928E-02 0. -1.
       -1    1    3    3    0  502  0.12492271157E+03 -0.17341339880E+03 -0.97678219430E+03  0.99989066696E+03  0.50400001928E-02 0.  1.
</event>
<event>
 5   0  0.2690809E-03  0.8011351E+03  0.7818609E-02  0.9558376E-01
       -2   -1    0    0    0  501  0.00000000000E+00  0.00000000000E+00  0.48302283340E+03  0.48302283341E+03  0.25500000920E-02 0.  1.
        2   -1    0    0  501    0  0.00000000000E+00  0.00000000000E+00 -0.33218797167E+03  0.33218797168E+03  0.25500000920E-02 0. -1.
    10030    2    1    2    0    0  0.00000000000E+00  0.00000000000E+00  0.15083486173E+03  0.81521080509E+03  0.80113513293E+03 0.  0.
        5    1    3    3  502    0  0.24547718317E+03  0.31640387923E+03  0.83418340941E+02  0.40908577567E+03  0.46999998093E+01 0. -1.
       -5    1    3    3    0  502 -0.24547718317E+03 -0.31640387923E+03  0.67416520787E+02  0.40612502942E+03  0.46999998093E+01 0.  1.
</event>
<event>
 5   0  0.2690809E-03  0.8021301E+03  0.7818609E-02  0.9556939E-01
        2   -1    0    0  501    0  0.00000000000E+00  0.00000000000E+00  0.19068632690E+04  0.19068632690E+04  0.25500000920E-02 0.  1.
       -2   -1    0    0    0  501  0.00000000000E+00  0.00000000000E+00 -0.84354856131E+02  0.84354856169E+02  0.25500000920E-02 0. -1.
    10030    2    1    2    0    0  0.00000000000E+00  0.00000000000E+00  0.18225084129E+04  0.19912181252E+04  0.80213010606E+03 0.  0.
        5    1    3    3  502    0 -0.34487758130E+03  0.10386801831E+03  0.13490463938E+04  0.13963084810E+04  0.46999998093E+01 0.  1.
       -5    1    3    3    0  502  0.34487758130E+03 -0.10386801831E+03  0.47346201908E+03  0.59490964425E+03  0.46999998093E+01 0. -1.
</event>
<event>
 5   0  0.1656051E-03  0.8061974E+03  0.7818609E-02  0.9551090E-01
        1   -1    0    0  501    0  0.00000000000E+00  0.00000000000E+00  0.21317783027E+03  0.21317783033E+03  0.50400001928E-02 0.  1.
       -1   -1    0    0    0  501  0.00000000000E+00  0.00000000000E+00 -0.76222068459E+03  0.76222068460E+03  0.50400001928E-02 0. -1.
    10030    2    1    2    0    0  0.00000000000E+00  0.00000000000E+00 -0.54904285432E+03  0.97539851493E+03  0.80619737475E+03 0.  0.
        3    1    3    3  502    0 -0.19818730608E+03 -0.12775896507E+02 -0.69892244707E+03  0.72659068879E+03  0.10100000352E+00 0. -1.
       -3    1    3    3    0  502  0.19818730608E+03  0.12775896507E+02  0.14987959275E+03  0.24880782614E+03  0.10100000352E+00 0.  1.
</event>
<event>
 5   0  0.1640035E-03  0.7984738E+03  0.7818609E-02  0.9562229E-01
        1   -1    0    0  501    0  0.00000000000E+00  0.00000000000E+00  0.55911097814E+03  0.55911097816E+03  0.50400001928E-02 0. -1.
       -1   -1    0    0    0  501  0.00000000000E+00  0.00000000000E+00 -0.28507772436E+03  0.28507772441E+03  0.50400001928E-02 0.  1.
    10030    2    1    2    0    0  0.00000000000E+00  0.00000000000E+00  0.27403325377E+03  0.84418870256E+03  0.79847375747E+03 0.  0.
        5    1    3    3  502    0 -0.22133910579E+03  0.17346745784E+03 -0.16255377244E+03  0.32485039266E+03  0.46999998093E+01 0.  1.
       -5    1    3    3    0  502  0.22133910579E+03 -0.17346745784E+03  0.43658702621E+03  0.51933830990E+03  0.46999998093E+01 0. -1.
</event>
<event>
 5   0  0.2690809E-03  0.8004630E+03  0.7818609E-02  0.9559347E-01
        2   -1    0    0  501    0  0.00000000000E+00  0.00000000000E+00  0.24640136910E+03  0.24640136911E+03  0.25500000920E-02 0. -1.
       -2   -1    0    0    0  501  0.00000000000E+00  0.00000000000E+00 -0.65009890714E+03  0.65009890714E+03  0.25500000920E-02 0.  1.
    10030    2    1    2    0    0  0.00000000000E+00  0.00000000000E+00 -0.40369753804E+03  0.89650027625E+03  0.80046301795E+03 0.  0.
        5    1    3    3  502    0  0.80780185432E+02  0.32394288887E+03 -0.44900297498E+03  0.55954463195E+03  0.46999998093E+01 0.  1.
       -5    1    3    3    0  502 -0.80780185432E+02 -0.32394288887E+03  0.45305436938E+02  0.33695564430E+03  0.46999998093E+01 0. -1.
</event>
<event>
 5   0  0.1637228E-03  0.8041114E+03  0.7818609E-02  0.9554085E-01
       -1   -1    0    0    0  501  0.00000000000E+00  0.00000000000E+00  0.16163347182E+03  0.16163347190E+03  0.50400001928E-02 0.  1.
        1   -1    0    0  501    0  0.00000000000E+00  0.00000000000E+00 -0.10000948023E+04  0.10000948023E+04  0.50400001928E-02 0. -1.
    10030    2    1    2    0    0  0.00000000000E+00  0.00000000000E+00 -0.83846133048E+03  0.11617282742E+04  0.80411142287E+03 0.  0.
        2    1    3    3  502    0 -0.71639367301E+01  0.25757945026E+03 -0.86511427016E+03  0.90267446824E+03  0.25500000920E-02 0. -1.
       -2    1    3    3    0  502  0.71639367301E+01 -0.25757945026E+03  0.26652939682E+02  0.25905380597E+03  0.25500000920E-02 0.  1.
</event>
<event>
 5   0  0.2910501E-03  0.8005838E+03  0.7818609E-02  0.9559172E-01
       -2   -1    0    0    0  501  0.00000000000E+00  0.00000000000E+00  0.14017162242E+03  0.14017162244E+03  0.25500000920E-02 0.  1.
        2   -1    0    0  501    0  0.00000000000E+00  0.00000000000E+00 -0.11431244150E+04  0.11431244150E+04  0.25500000920E-02 0. -1.
    10030    2    1    2    0    0  0.00000000000E+00  0.00000000000E+00 -0.10029527926E+04  0.12832960375E+04  0.80058379673E+03 0.  0.
        1    1    3    3  502    0  0.93393244910E+02  0.23385368409E+03 -0.10002586915E+04  0.10314685132E+04  0.50400001928E-02 0. -1.
       -1    1    3    3    0  502 -0.93393244910E+02 -0.23385368409E+03 -0.26941010705E+01  0.25182752424E+03  0.50400001928E-02 0.  1.
</event>
<event>
 5   0  0.1640035E-03  0.7995948E+03  0.7818609E-02  0.9560604E-01
        1   -1    0    0  501    0  0.00000000000E+00  0.00000000000E+00  0.11869924615E+04  0.11869924615E+04  0.50400001928E-02 0. -1.
       -1   -1    0    0    0  501  0.00000000000E+00  0.00000000000E+00 -0.13465792548E+03  0.13465792557E+03  0.50400001928E-02 0.  1.
    10030    2    1    2    0    0  0.00000000000E+00  0.00000000000E+00  0.10523345360E+04  0.13216503870E+04  0.79959475358E+03 0.  0.
        5    1    3    3  502    0  0.35818670216E+03  0.80908914896E+02  0.26496777677E+03  0.45285094550E+03  0.46999998093E+01 0.  1.
       -5    1    3    3    0  502 -0.35818670216E+03 -0.80908914896E+02  0.78736675920E+03  0.86879944154E+03  0.46999998093E+01 0. -1.
</event>
<event>
 5   0  0.1617491E-03  0.8032328E+03  0.7818609E-02  0.9555349E-01
       -1   -1    0    0    0  501  0.00000000000E+00  0.00000000000E+00  0.23164549449E+03  0.23164549454E+03  0.50400001928E-02 0.  1.
        1   -1    0    0  501    0  0.00000000000E+00  0.00000000000E+00 -0.69630424510E+03  0.69630424512E+03  0.50400001928E-02 0. -1.
    10030    2    1    2    0    0  0.00000000000E+00  0.00000000000E+00 -0.46465875062E+03  0.92794973966E+03  0.80323282105E+03 0.  0.
        1    1    3    3  502    0  0.32123866143E+03  0.14651654828E+03 -0.45344902636E+03  0.57469765621E+03  0.50400001928E-02 0. -1.
       -1    1    3    3    0  502 -0.32123866143E+03 -0.14651654828E+03 -0.11209724254E+02  0.35325208345E+03  0.50400001928E-02 0.  1.
</event>
<event>
 5   0  0.1617491E-03  0.8019819E+03  0.7818609E-02  0.9557153E-01
       -1   -1    0    0    0  501  0.00000000000E+00  0.00000000000E+00  0.11979024878E+03  0.11979024889E+03  0.50400001928E-02 0.  1.
        1   -1    0    0  501    0  0.00000000000E+00  0.00000000000E+00 -0.13422941103E+04  0.13422941103E+04  0.50400001928E-02 0. -1.
    10030    2    1    2    0    0  0.00000000000E+00  0.00000000000E+00 -0.12225038615E+04  0.14620843592E+04  0.80198190875E+03 0.  0.
        1    1    3    3  502    0 -0.38343054616E+03 -0.33608204687E+02 -0.81626029247E+03  0.90245740078E+03  0.50400001928E-02 0. -1.
       -1    1    3    3    0  502  0.38343054616E+03  0.33608204687E+02 -0.40624356900E+03  0.55962695837E+03  0.50400001928E-02 0.  1.
</event>
<event>
 5   0  0.1712793E-03  0.8057013E+03  0.7818609E-02  0.9551801E-01
       -1   -1    0    0    0  501  0.00000000000E+00  0.00000000000E+00  0.27736720841E+03  0.27736720846E+03  0.50400001928E-02 0. -1.
        1   -1    0    0  501    0  0.00000000000E+00  0.00000000000E+00 -0.58510393474E+03  0.58510393476E+03  0.50400001928E-02 0.  1.
    10030    2    1    2    0    0  0.00000000000E+00  0.00000000000E+00 -0.30773672633E+03  0.86247114322E+03  0.80570129711E+03 0.  0.
        4    1    3    3  502    0 -0.74784112298E+02  0.26089101248E+03 -0.47255326852E+03  0.54494494064E+03  0.12699999809E+01 0.  1.
       -4    1    3    3    0  502  0.74784112298E+02 -0.26089101248E+03  0.16481654219E+03  0.31752620258E+03  0.12699999809E+01 0. -1.
</event>
<event>
 5   0  0.2768834E-03  0.8012580E+03  0.7818609E-02  0.9558198E-01
        2   -1    0    0  501    0  0.00000000000E+00  0.00000000000E+00  0.71714824292E+03  0.71714824292E+03  0.25500000920E-02 0.  1.
       -2   -1    0    0    0  501  0.00000000000E+00  0.00000000000E+00 -0.22380809293E+03  0.22380809295E+03  0.25500000920E-02 0. -1.
    10030    2    1    2    0    0  0.00000000000E+00  0.00000000000E+00  0.49334014998E+03  0.94095633587E+03  0.80125796248E+03 0.  0.
        4    1    3    3  502    0 -0.33956891817E+03 -0.32115150695E+02 -0.12075860619E+00  0.34108658809E+03  0.12699999809E+01 0. -1.
       -4    1    3    3    0  502  0.33956891817E+03  0.32115150695E+02  0.49346090859E+03  0.59986974778E+03  0.12699999809E+01 0.  1.
</event>
<event>
 5   0  0.2763587E-03  0.8005263E+03  0.7818609E-02  0.9559256E-01
        2   -1    0    0  501    0  0.00000000000E+00  0.00000000000E+00  0.39619836759E+03  0.39619836760E+03  0.25500000920E-02 0.  1.
       -2   -1    0    0    0  501  0.00000000000E+00  0.00000000000E+00 -0.40436966513E+03  0.40436966513E+03  0.25500000920E-02 0. -1.
    10030    2    1    2    0    0  0.00000000000E+00  0.00000000000E+00 -0.81712975380E+01  0.80056803273E+03  0.80052632994E+03 0.  0.
        3    1    3    3  502    0 -0.33094902757E+03  0.24515094584E+02  0.21971685447E+03  0.39799969227E+03  0.10100000352E+00 0.  1.
       -3    1    3    3    0  502  0.33094902757E+03 -0.24515094584E+02 -0.22788815201E+03  0.40256834046E+03  0.10100000352E+00 0. -1.
</event>
<event>
 5   0  0.1712793E-03  0.8001668E+03  0.7818609E-02  0.9559776E-01
        1   -1    0    0  501    0  0.00000000000E+00  0.00000000000E+00  0.95408383723E+03  0.95408383724E+03  0.50400001928E-02 0.  1.
       -1   -1    0    0    0  501  0.00000000000E+00  0.00000000000E+00 -0.16777006456E+03  0.16777006464E+03  0.50400001928E-02 0. -1.
    10030    2    1    2    0    0  0.00000000000E+00  0.00000000000E+00  0.78631377267E+03  0.11218539019E+04  0.80016675017E+03 0.  0.
        4    1    3    3  502    0  0.26285587524E+03  0.28777107104E+03  0.26651052152E+03  0.47215979441E+03  0.12699999809E+01 0. -1.
       -4    1    3    3    0  502 -0.26285587524E+03 -0.28777107104E+03  0.51980325115E+03  0.64969410747E+03  0.12699999809E+01 0.  1.
</event>
<event>
 5   0  0.2690809E-03  0.7982742E+03  0.7818609E-02  0.9562518E-01
        2   -1    0    0  501    0  0.00000000000E+00  0.00000000000E+00  0.82412219242E+03  0.82412219242E+03  0.25500000920E-02 0. -1.
       -2   -1    0    0    0  501  0.00000000000E+00  0.00000000000E+00 -0.19330923947E+03  0.19330923949E+03  0.25500000920E-02 0.  1.
    10030    2    1    2    0    0  0.00000000000E+00  0.00000000000E+00  0.63081295295E+03  0.10174314319E+04  0.79827422421E+03 0.  0.
        5    1    3    3  502    0  0.28086786594E+02  0.81596228095E+02 -0.18124111393E+03  0.20079154215E+03  0.46999998093E+01 0.  1.
       -5    1    3    3    0  502 -0.28086786594E+02 -0.81596228095E+02  0.81205406688E+03  0.81663988976E+03  0.46999998093E+01 0. -1.
</event>
<event>
 5   0  0.2763587E-03  0.8002826E+03  0.7818609E-02  0.9559608E-01
        2   -1    0    0  501    0  0.00000000000E+00  0.00000000000E+00  0.97856402864E+03  0.97856402864E+03  0.25500000920E-02 0. -1.
       -2   -1    0    0    0  501  0.00000000000E+00  0.00000000000E+00 -0.16362043350E+03  0.16362043351E+03  0.25500000920E-02 0.  1.
    10030    2    1    2    0    0  0.00000000000E+00  0.00000000000E+00  0.81494359514E+03  0.11421844622E+04  0.80028262653E+03 0.  0.
        3    1    3    3  502    0  0.94558123726E+02  0.28363356161E+03  0.78702768078E+03  0.84190368603E+03  0.10100000352E+00 0. -1.
       -3    1    3    3    0  502 -0.94558123726E+02 -0.28363356161E+03  0.27915914363E+02  0.30028077613E+03  0.10100000352E+00 0.  1.
</event>
<event>
 5   0  0.2768834E-03  0.8041775E+03  0.7818609E-02  0.9553990E-01
       -2   -1    0    0    0  501  0.00000000000E+00  0.00000000000E+00  0.15741174875E+03  0.15741174877E+03  0.25500000920E-02 0.  1.
        2   -1    0    0  501    0  0.00000000000E+00  0.00000000000E+00 -0.10270857586E+04  0.10270857586E+04  0.25500000920E-02 0. -1.
    10030    2    1    2    0    0  0.00000000000E+00  0.00000000000E+00 -0.86967400982E+03  0.11844975073E+04  0.80417750624E+03 0.  0.
        4    1    3    3  502    0 -0.29730687822E+02  0.43048197091E+02  0.15237417286E+03  0.16111040478E+03  0.12699999809E+01 0.  1.
       -4    1    3    3    0  502  0.29730687822E+02 -0.43048197091E+02 -0.10220481827E+04  0.10233871026E+04  0.12699999809E+01 0. -1.
</event>
<event>
 5   0  0.2873212E-03  0.8013069E+03  0.7818609E-02  0.9558127E-01
       -2   -1    0    0    0  501  0.00000000000E+00  0.00000000000E+00  0.27522617161E+03  0.27522617162E+03  0.25500000920E-02 0. -1.
        2   -1    0    0  501    0  0.00000000000E+00  0.00000000000E+00 -0.58324104749E+03  0.58324104749E+03  0.25500000920E-02 0.  1.
    10030    2    1    2    0    0  0.00000000000E+00  0.00000000000E+00 -0.30801487588E+03  0.85846721912E+03  0.80130693404E+03 0.  0.
        2    1    3    3  502    0  0.11609371258E+03 -0.36829426072E+03 -0.26841860732E+03  0.47028391567E+03  0.25500000920E-02 0.  1.
       -2    1    3    3    0  502 -0.11609371258E+03  0.36829426072E+03 -0.39596268563E+02  0.38818330344E+03  0.25500000920E-02 0. -1.
</event>
<event>
 5   0  0.2873212E-03  0.8005714E+03  0.7818609E-02  0.9559190E-01
       -2   -1    0    0    0  501  0.00000000000E+00  0.00000000000E+00  0.28146378025E+03  0.28146378027E+03  0.25500000920E-02 0. -1.
        2   -1    0    0  501    0  0.00000000000E+00  0.00000000000E+00 -0.56926911153E+03  0.56926911154E+03  0.25500000920E-02 0.  1.
    10030    2    1    2    0    0  0.00000000000E+00  0.00000000000E+00 -0.28780533127E+03  0.85073289180E+03  0.80057138625E+03 0.  0.
        2    1    3    3  502    0 -0.29816788920E+03  0.20233608263E+02 -0.42688717611E+03  0.52110090212E+03  0.25500000920E-02 0.  1.
       -2    1    3    3    0  502  0.29816788920E+03 -0.20233608263E+02  0.13908184484E+03  0.32963198968E+03  0.25500000920E-02 0. -1.
</event>
<event>
 5   0  0.2873212E-03  0.8046890E+03  0.7818609E-02  0.9553255E-01
        2   -1    0    0  501    0  0.00000000000E+00  0.00000000000E+00  0.66541887796E+03  0.66541887796E+03  0.25500000920E-02 0. -1.
       -2   -1    0    0    0  501  0.00000000000E+00  0.00000000000E+00 -0.24327698819E+03  0.24327698820E+03  0.25500000920E-02 0.  1.
    10030    2    1    2    0    0  0.00000000000E+00  0.00000000000E+00  0.42214188977E+03  0.90869586616E+03  0.80468900954E+03 0.  0.
        2    1    3    3  502    0 -0.75947293796E+02 -0.91555807915E+02 -0.22296507947E+03  0.25271304689E+03  0.25500000920E-02 0.  1.
       -2    1    3    3    0  502  0.75947293796E+02  0.91555807915E+02  0.64510696925E+03  0.65598281927E+03  0.25500000920E-02 0. -1.
</event>
<event>
 5   0  0.2763587E-03  0.7999699E+03  0.7818609E-02  0.9560061E-01
       -2   -1    0    0    0  501  0.00000000000E+00  0.00000000000E+00  0.15680753984E+03  0.15680753987E+03  0.25500000920E-02 0. -1.
        2   -1    0    0  501    0  0.00000000000E+00  0.00000000000E+00 -0.10202823366E+04  0.10202823366E+04  0.25500000920E-02 0.  1.
    10030    2    1    2    0    0  0.00000000000E+00  0.00000000000E+00 -0.86347479679E+03  0.11770898765E+04  0.79996990736E+03 0.  0.
        3    1    3    3  502    0  0.26581662343E+02 -0.12377233946E+03 -0.99002704292E+03  0.99808803856E+03  0.10100000352E+00 0.  1.
       -3    1    3    3    0  502 -0.26581662343E+02  0.12377233946E+03  0.12655224613E+03  0.17900183795E+03  0.10100000352E+00 0. -1.
</event>
<event>
 5   0  0.2768834E-03  0.8006976E+03  0.7818609E-02  0.9559008E-01
       -2   -1    0    0    0  501  0.00000000000E+00  0.00000000000E+00  0.15224513060E+03  0.15224513062E+03  0.25500000920E-02 0. -1.
        2   -1    0    0  501    0  0.00000000000E+00  0.00000000000E+00 -0.10527704531E+04  0.10527704531E+04  0.25500000920E-02 0.  1.
    10030    2    1    2    0    0  0.00000000000E+00  0.00000000000E+00 -0.90052532250E+03  0.12050155837E+04  0.80069763367E+03 0.  0.
        4    1    3    3  502    0  0.19480412375E+03  0.43884680986E+02 -0.97246987072E+03  0.99276068326E+03  0.12699999809E+01 0.  1.
       -4    1    3    3    0  502 -0.19480412375E+03 -0.43884680986E+02  0.71944548221E+02  0.21225490047E+03  0.12699999809E+01 0. -1.
</event>
<event>
 5   0  0.2910501E-03  0.8000069E+03  0.7818609E-02  0.9560007E-01
        2   -1    0    0  501    0  0.00000000000E+00  0.00000000000E+00  0.82913802901E+03  0.82913802901E+03  0.25500000920E-02 0.  1.
       -2   -1    0    0    0  501  0.00000000000E+00  0.00000000000E+00 -0.19297481201E+03  0.19297481203E+03  0.25500000920E-02 0. -1.
    10030    2    1    2    0    0  0.00000000000E+00  0.00000000000E+00  0.63616321700E+03  0.10221128410E+04  0.80000688819E+03 0.  0.
        1    1    3    3  502    0 -0.21513552539E+02 -0.30017025887E+03 -0.18587214406E+02  0.30151368429E+03  0.50400001928E-02 0. -1.
       -1    1    3    3    0  502  0.21513552539E+02  0.30017025887E+03  0.65475043140E+03  0.72059915674E+03  0.50400001928E-02 0.  1.
</event>
<event>
 5   0  0.1617491E-03  0.7981130E+03  0.7818609E-02  0.9562752E-01
        1   -1    0    0  501    0  0.00000000000E+00  0.00000000000E+00  0.68845715230E+03  0.68845715231E+03  0.50400001928E-02 0. -1.
       -1   -1    0    0    0  501  0.00000000000E+00  0.00000000000E+00 -0.23130864386E+03  0.23130864391E+03  0.50400001928E-02 0.  1.
    10030    2    1    2    0    0  0.00000000000E+00  0.00000000000E+00  0.45714850844E+03  0.91976579623E+03  0.79811300024E+03 0.  0.
        1    1    3    3  502    0 -0.39572302560E+03  0.32534612650E+02  0.18260885153E+03  0.43703684821E+03  0.50400001928E-02 0.  1.
       -1    1    3    3    0  502  0.39572302560E+03 -0.32534612650E+02  0.27453965690E+03  0.48272894802E+03  0.50400001928E-02 0. -1.
</event>
<event>
 5   0  0.1656051E-03  0.7997990E+03  0.7818609E-02  0.9560308E-01
        1   -1    0    0  501    0  0.00000000000E+00  0.00000000000E+00  0.42956827656E+03  0.42956827659E+03  0.50400001928E-02 0.  1.
       -1   -1    0    0    0  501  0.00000000000E+00  0.00000000000E+00 -0.37227983898E+03  0.37227983902E+03  0.50400001928E-02 0. -1.
    10030    2    1    2    0    0  0.00000000000E+00  0.00000000000E+00  0.57288437580E+02  0.80184811561E+03  0.79979899689E+03 0.  0.
        3    1    3    3  502    0 -0.30253201559E+03 -0.24053961836E+02  0.28972528284E+03  0.41957712432E+03  0.10100000352E+00 0. -1.
       -3    1    3    3    0  502  0.30253201559E+03  0.24053961836E+02 -0.23243684526E+03  0.38227099128E+03  0.10100000352E+00 0.  1.
</event>
<event>
 5   0  0.1617491E-03  0.7993334E+03  0.7818609E-02  0.9560983E-01
       -1   -1    0    0    0  501  0.00000000000E+00  0.00000000000E+00  0.15029855642E+03  0.15029855650E+03  0.50400001928E-02 0. -1.
        1   -1    0    0  501    0  0.00000000000E+00  0.00000000000E+00 -0.10627743547E+04  0.10627743547E+04  0.50400001928E-02 0.  1.
    10030    2    1    2    0    0  0.00000000000E+00  0.00000000000E+00 -0.91247579826E+03  0.12130729112E+04  0.79933335065E+03 0.  0.
        1    1    3    3  502    0  0.34644012431E+02  0.19657663477E+03 -0.98171286162E+03  0.10017997423E+04  0.50400001928E-02 0.  1.
       -1    1    3    3    0  502 -0.34644012431E+02 -0.19657663477E+03  0.69237063356E+02  0.21127316892E+03  0.50400001928E-02 0. -1.
</event>
<event>
 5   0  0.2768834E-03  0.7893717E+03  0.7818609E-02  0.9575530E-01
        2   -1    0    0  501    0  0.00000000000E+00  0.00000000000E+00  0.16060405510E+04  0.16060405510E+04  0.25500000920E-02 0.  1.
       -2   -1    0    0    0  501  0.00000000000E+00  0.00000000000E+00 -0.96994396957E+02  0.96994396990E+02  0.25500000920E-02 0. -1.
    10030    2    1    2    0    0  0.00000000000E+00  0.00000000000E+00  0.15090461541E+04  0.17030349480E+04  0.78937173693E+03 0.  0.
        4    1    3    3  502    0  0.35497408014E+02 -0.39260594852E+03  0.79634797266E+03  0.88857819197E+03  0.12699999809E+01 0. -1.
       -4    1    3    3    0  502 -0.35497408014E+02  0.39260594852E+03  0.71269818141E+03  0.81445675605E+03  0.12699999809E+01 0.  1.
</event>
<event>
 5   0  0.2873212E-03  0.7973528E+03  0.7818609E-02  0.9563857E-01
       -2   -1    0    0    0  501  0.00000000000E+00  0.00000000000E+00  0.20439669162E+03  0.20439669164E+03  0.25500000920E-02 0. -1.
        2   -1    0    0  501    0  0.00000000000E+00  0.00000000000E+00 -0.77761952996E+03  0.77761952996E+03  0.25500000920E-02 0.  1.
    10030    2    1    2    0    0  0.00000000000E+00  0.00000000000E+00 -0.57322283834E+03  0.98201622160E+03  0.79735276828E+03 0.  0.
        2    1    3    3  502    0 -0.91862135291E+01 -0.16652920799E+03 -0.73258936501E+03  0.75133450697E+03  0.25500000920E-02 0.  1.
       -2    1    3    3    0  502  0.91862135291E+01  0.16652920799E+03  0.15936652667E+03  0.23068171463E+03  0.25500000920E-02 0. -1.
</event>
<event>
 5   0  0.2873212E-03  0.7983573E+03  0.7818609E-02  0.9562398E-01
        2   -1    0    0  501    0  0.00000000000E+00  0.00000000000E+00  0.16073330065E+04  0.16073330065E+04  0.25500000920E-02 0. -1.
       -2   -1    0    0    0  501  0.00000000000E+00  0.00000000000E+00 -0.99135400416E+02  0.99135400449E+02  0.25500000920E-02 0.  1.
    10030    2    1    2    0    0  0.00000000000E+00  0.00000000000E+00  0.15081976061E+04  0.17064684069E+04  0.79835731657E+03 0.  0.
        2    1    3    3  502    0  0.16155091970E+03  0.73037728384E+00 -0.26136098570E+02  0.16365307440E+03  0.25500000920E-02 0.  1.
       -2    1    3    3    0  502 -0.16155091970E+03 -0.73037728384E+00  0.15343337046E+04  0.15428153325E+04  0.25500000920E-02 0. -1.
</event>
<event>
 5   0  0.2910501E-03  0.7988753E+03  0.7818609E-02  0.9561647E-01
        2   -1    0    0  501    0  0.00000000000E+00  0.00000000000E+00  0.10440119696E+04  0.10440119696E+04  0.25500000920E-02 0. -1.
       -2   -1    0    0    0  501  0.00000000000E+00  0.00000000000E+00 -0.15282433050E+03  0.15282433052E+03  0.25500000920E-02 0.  1.
    10030    2    1    2    0    0  0.00000000000E+00  0.00000000000E+00  0.89118763907E+03  0.11968363001E+04  0.79887528512E+03 0.  0.
        1    1    3    3  502    0 -0.71233701506E+02  0.50672109385E+02 -0.13831743237E+03  0.16362644964E+03  0.50400001928E-02 0.  1.
       -1    1    3    3    0  502  0.71233701506E+02 -0.50672109385E+02  0.10295050714E+04  0.10332098504E+04  0.50400001928E-02 0. -1.
</event>
<event>
 5   0  0.2690809E-03  0.7923319E+03  0.7818609E-02  0.9571183E-01
       -2   -1    0    0    0  501  0.00000000000E+00  0.00000000000E+00  0.26581790240E+03  0.26581790241E+03  0.25500000920E-02 0.  1.
        2   -1    0    0  501    0  0.00000000000E+00  0.00000000000E+00 -0.59043228134E+03  0.59043228134E+03  0.25500000920E-02 0. -1.
    10030    2    1    2    0    0  0.00000000000E+00  0.00000000000E+00 -0.32461437894E+03  0.85625018375E+03  0.79233192676E+03 0.  0.
        5    1    3    3  502    0 -0.37989718523E+02  0.63044994490E+02 -0.58294719461E+03  0.58759459812E+03  0.46999998093E+01 0. -1.
       -5    1    3    3    0  502  0.37989718523E+02 -0.63044994490E+02  0.25833281566E+03  0.26865558563E+03  0.46999998093E+01 0.  1.
</event>
<event>
 5   0  0.1637228E-03  0.7902977E+03  0.7818609E-02  0.9574168E-01
        1   -1    0    0  501    0  0.00000000000E+00  0.00000000000E+00  0.89763312890E+03  0.89763312891E+03  0.50400001928E-02 0.  1.
       -1   -1    0    0    0  501  0.00000000000E+00  0.00000000000E+00 -0.17394926260E+03  0.17394926267E+03  0.50400001928E-02 0. -1.
    10030    2    1    2    0    0  0.00000000000E+00  0.00000000000E+00  0.72368386630E+03  0.10715823916E+04  0.79029771834E+03 0.  0.
        2    1    3    3  502    0 -0.50190722273E+02 -0.76914290018E+01 -0.16950728929E+03  0.17694911079E+03  0.25500000920E-02 0. -1.
       -2    1    3    3    0  502  0.50190722273E+02  0.76914290018E+01  0.89319115558E+03  0.89463328079E+03  0.25500000920E-02 0.  1.
</event>
<event>
 5   0  0.1656051E-03  0.7992393E+03  0.7818609E-02  0.9561119E-01
       -1   -1    0    0    0  501  0.00000000000E+00  0.00000000000E+00  0.10329904130E+03  0.10329904142E+03  0.50400001928E-02 0. -1.
        1   -1    0    0  501    0  0.00000000000E+00  0.00000000000E+00 -0.15459569666E+04  0.15459569666E+04  0.50400001928E-02 0.  1.
    10030    2    1    2    0    0  0.00000000000E+00  0.00000000000E+00 -0.14426579253E+04  0.16492560081E+04  0.79923931998E+03 0.  0.
        3    1    3    3  502    0  0.98800423067E+02  0.33898811314E+03 -0.33515946033E+03  0.48683296776E+03  0.10100000352E+00 0. -1.
       -3    1    3    3    0  502 -0.98800423067E+02 -0.33898811314E+03 -0.11074984650E+04  0.11624230403E+04  0.10100000352E+00 0.  1.
</event>
<event>
 5   0  0.1617491E-03  0.7986349E+03  0.7818609E-02  0.9561995E-01
        1   -1    0    0  501    0  0.00000000000E+00  0.00000000000E+00  0.24986016242E+03  0.24986016247E+03  0.50400001928E-02 0. -1.
       -1   -1    0    0    0  501  0.00000000000E+00  0.00000000000E+00 -0.63817459955E+03  0.63817459957E+03  0.50400001928E-02 0.  1.
    10030    2    1    2    0    0  0.00000000000E+00  0.00000000000E+00 -0.38831443713E+03  0.88803476204E+03  0.79863485806E+03 0.  0.
        1    1    3    3  502    0  0.98764748858E+01  0.25614225858E+03 -0.53461457931E+03  0.59289050407E+03  0.50400001928E-02 0.  1.
       -1    1    3    3    0  502 -0.98764748858E+01 -0.25614225858E+03  0.14630014218E+03  0.29514425797E+03  0.50400001928E-02 0. -1.
</event>
<event>
 5   0  0.1637228E-03  0.8010552E+03  0.7818609E-02  0.9558491E-01
        1   -1    0    0  501    0  0.00000000000E+00  0.00000000000E+00  0.50930489095E+03  0.50930489098E+03  0.50400001928E-02 0. -1.
       -1   -1    0    0    0  501  0.00000000000E+00  0.00000000000E+00 -0.31498294081E+03  0.31498294085E+03  0.50400001928E-02 0.  1.
    10030    2    1    2    0    0  0.00000000000E+00  0.00000000000E+00  0.19432195015E+03  0.82428783183E+03  0.80105518498E+03 0.  0.
        2    1    3    3  502    0  0.11549935668E+02 -0.63633173827E+02  0.50389663408E+03  0.50802992005E+03  0.25500000920E-02 0. -1.
       -2    1    3    3    0  502 -0.11549935668E+02  0.63633173827E+02 -0.30957468393E+03  0.31625791178E+03  0.25500000920E-02 0.  1.
</event>
<event>
 5   0  0.2763587E-03  0.8007898E+03  0.7818609E-02  0.9558875E-01
        2   -1    0    0  501    0  0.00000000000E+00  0.00000000000E+00  0.92137033760E+03  0.92137033760E+03  0.25500000920E-02 0. -1.
       -2   -1    0    0    0  501  0.00000000000E+00  0.00000000000E+00 -0.17399741988E+03  0.17399741990E+03  0.25500000920E-02 0.  1.
    10030    2    1    2    0    0  0.00000000000E+00  0.00000000000E+00  0.74737291772E+03  0.10953677575E+04  0.80078976393E+03 0.  0.
        3    1    3    3  502    0  0.14014110036E+03 -0.22547323533E+03  0.78367555600E+03  0.82742074855E+03  0.10100000352E+00 0. -1.
       -3    1    3    3    0  502 -0.14014110036E+03  0.22547323533E+03 -0.36302638272E+02  0.26794700895E+03  0.10100000352E+00 0.  1.
</event>
<event>
 5   0  0.1637228E-03  0.7996528E+03  0.7818609E-02  0.9560520E-01
        1   -1    0    0  501    0  0.00000000000E+00  0.00000000000E+00  0.94152262774E+03  0.94152262775E+03  0.50400001928E-02 0. -1.
       -1   -1    0    0    0  501  0.00000000000E+00  0.00000000000E+00 -0.16979004277E+03  0.16979004285E+03  0.50400001928E-02 0.  1.
    10030    2    1    2    0    0  0.00000000000E+00  0.00000000000E+00  0.77173258497E+03  0.11113126706E+04  0.79965284288E+03 0.  0.
        2    1    3    3  502    0 -0.27078090829E+03 -0.13542305058E+03  0.22934292261E+02  0.30362424918E+03  0.25500000920E-02 0.  1.
       -2    1    3    3    0  502  0.27078090829E+03  0.13542305058E+03  0.74879829271E+03  0.80768842142E+03  0.25500000920E-02 0. -1.
</event>
<event>
 5   0  0.2690809E-03  0.7968084E+03  0.7818609E-02  0.9564648E-01
        2   -1    0    0  501    0  0.00000000000E+00  0.00000000000E+00  0.70110215116E+03  0.70110215116E+03  0.25500000920E-02 0. -1.
       -2   -1    0    0    0  501  0.00000000000E+00  0.00000000000E+00 -0.22639484739E+03  0.22639484740E+03  0.25500000920E-02 0.  1.
    10030    2    1    2    0    0  0.00000000000E+00  0.00000000000E+00  0.47470730377E+03  0.92749699856E+03  0.79680841994E+03 0.  0.
        5    1    3    3  502    0  0.84734628609E+02 -0.28227934904E+03  0.54934928804E+03  0.62343268959E+03  0.46999998093E+01 0. -1.
       -5    1    3    3    0  502 -0.84734628609E+02  0.28227934904E+03 -0.74641984274E+02  0.30406430897E+03  0.46999998093E+01 0.  1.
</event>
<event>
 5   0  0.2910501E-03  0.7999836E+03  0.7818609E-02  0.9560041E-01
       -2   -1    0    0    0  501  0.00000000000E+00  0.00000000000E+00  0.10163446790E+03  0.10163446793E+03  0.25500000920E-02 0. -1.
        2   -1    0    0  501    0  0.00000000000E+00  0.00000000000E+00 -0.15742045073E+04  0.15742045073E+04  0.25500000920E-02 0.  1.
    10030    2    1    2    0    0  0.00000000000E+00  0.00000000000E+00 -0.14725700394E+04  0.16758389752E+04  0.79998359355E+03 0.  0.
        1    1    3    3  502    0 -0.17586384951E+03 -0.31575835111E+03 -0.37732665363E+03  0.52250055831E+03  0.50400001928E-02 0.  1.
       -1    1    3    3    0  502  0.17586384951E+03  0.31575835111E+03 -0.10952433857E+04  0.11533384169E+04  0.50400001928E-02 0. -1.
</event>
<event>
 5   0  0.1640035E-03  0.8100912E+03  0.7818609E-02  0.9545524E-01
        1   -1    0    0  501    0  0.00000000000E+00  0.00000000000E+00  0.38100693704E+03  0.38100693708E+03  0.50400001928E-02 0. -1.
       -1   -1    0    0    0  501  0.00000000000E+00  0.00000000000E+00 -0.43060093213E+03  0.43060093216E+03  0.50400001928E-02 0.  1.
    10030    2    1    2    0    0  0.00000000000E+00  0.00000000000E+00 -0.49593995087E+02  0.81160786924E+03  0.81009121033E+03 0.  0.
        5    1    3    3  502    0  0.28002512814E+03 -0.28713529743E+03  0.31692079813E+02  0.40235212109E+03  0.46999998093E+01 0. -1.
       -5    1    3    3    0  502 -0.28002512814E+03  0.28713529743E+03 -0.81286074900E+02  0.40925574815E+03  0.46999998093E+01 0.  1.
</event>
<event>
 5   0  0.1656051E-03  0.8079241E+03  0.7818609E-02  0.9548618E-01
       -1   -1    0    0    0  501  0.00000000000E+00  0.00000000000E+00  0.15893974311E+03  0.15893974319E+03  0.50400001928E-02 0.  1.
        1   -1    0    0  501    0  0.00000000000E+00  0.00000000000E+00 -0.10267118997E+04  0.10267118997E+04  0.50400001928E-02 0. -1.
    10030    2    1    2    0    0  0.00000000000E+00  0.00000000000E+00 -0.86777215658E+03  0.11856516429E+04  0.80792406980E+03 0.  0.
        3    1    3    3  502    0 -0.17924186827E+02 -0.25182640331E+03  0.28903423835E+02  0.25411263642E+03  0.10100000352E+00 0.  1.
       -3    1    3    3    0  502  0.17924186827E+02  0.25182640331E+03 -0.89667558042E+03  0.93153900648E+03  0.10100000352E+00 0. -1.
</event>
<event>
 5   0  0.1712793E-03  0.7992131E+03  0.7818609E-02  0.9561157E-01
       -1   -1    0    0    0  501  0.00000000000E+00  0.00000000000E+00  0.14962372706E+03  0.14962372714E+03  0.50400001928E-02 0. -1.
        1   -1    0    0  501    0  0.00000000000E+00  0.00000000000E+00 -0.10672466037E+04  0.10672466037E+04  0.50400001928E-02 0.  1.
    10030    2    1    2    0    0  0.00000000000E+00  0.00000000000E+00 -0.91762287660E+03  0.12168703308E+04  0.79921314951E+03 0.  0.
        4    1    3    3  502    0 -0.20729174734E+03 -0.24897693056E+03 -0.10262919059E+03  0.33984370544E+03  0.12699999809E+01 0. -1.
       -4    1    3    3    0  502  0.20729174734E+03  0.24897693056E+03 -0.81499368601E+03  0.87702662537E+03  0.12699999809E+01 0.  1.
</event>
<event>
 5   0  0.1640035E-03  0.7997583E+03  0.7818609E-02  0.9560367E-01
       -1   -1    0    0    0  501  0.00000000000E+00  0.00000000000E+00  0.28626982075E+03  0.28626982079E+03  0.50400001928E-02 0.  1.
        1   -1    0    0  501    0  0.00000000000E+00  0.00000000000E+00 -0.55857557666E+03  0.55857557668E+03  0.50400001928E-02 0. -1.
    10030    2    1    2    0    0  0.00000000000E+00  0.00000000000E+00 -0.27230575591E+03  0.84484539747E+03  0.79975828906E+03 0.  0.
        5    1    3    3  502    0  0.12470416315E+03 -0.33094182225E+03 -0.33323883054E+03  0.48594632029E+03  0.46999998093E+01 0. -1.
       -5    1    3    3    0  502 -0.12470416315E+03  0.33094182225E+03  0.60933074637E+02  0.35889907718E+03  0.46999998093E+01 0.  1.
</event>
<event>
 5   0  0.2873212E-03  0.7997803E+03  0.7818609E-02  0.9560335E-01
        2   -1    0    0  501    0  0.00000000000E+00  0.00000000000E+00  0.40169017038E+03  0.40169017039E+03  0.25500000920E-02 0.  1.
       -2   -1    0    0    0  501  0.00000000000E+00  0.00000000000E+00 -0.39809824283E+03  0.39809824283E+03  0.25500000920E-02 0. -1.
    10030    2    1    2    0    0  0.00000000000E+00  0.00000000000E+00  0.35919275590E+01  0.79978841323E+03  0.79978034734E+03 0.  0.
        2    1    3    3  502    0  0.14500192336E+03  0.26780457008E+03 -0.25737320924E+03  0.39873025265E+03  0.25500000920E-02 0. -1.
       -2    1    3    3    0  502 -0.14500192336E+03 -0.26780457008E+03  0.26096513680E+03  0.40105816058E+03  0.25500000920E-02 0.  1.
</event>
<event>
 5   0  0.1637228E-03  0.8003461E+03  0.7818609E-02  0.9559516E-01
        1   -1    0    0  501    0  0.00000000000E+00  0.00000000000E+00  0.16577591745E+03  0.16577591753E+03  0.50400001928E-02 0.  1.
       -1   -1    0    0    0  501  0.00000000000E+00  0.00000000000E+00 -0.96599361495E+03  0.96599361497E+03  0.50400001928E-02 0. -1.
    10030    2    1    2    0    0  0.00000000000E+00  0.00000000000E+00 -0.80021769750E+03  0.11317695325E+04  0.80034611968E+03 0.  0.
        2    1    3    3  502    0 -0.18467621239E+03 -0.17153934929E+03 -0.83963569848E+03  0.87665224459E+03  0.25500000920E-02 0. -1.
       -2    1    3    3    0  502  0.18467621239E+03  0.17153934929E+03  0.39418000977E+02  0.25511728790E+03  0.25500000920E-02 0.  1.
</event>
<event>
 5   0  0.2690809E-03  0.7828314E+03  0.7818609E-02  0.9585206E-01
        2   -1    0    0  501    0  0.00000000000E+00  0.00000000000E+00  0.76780843313E+03  0.76780843313E+03  0.25500000920E-02 0.  1.
       -2   -1    0    0    0  501  0.00000000000E+00  0.00000000000E+00 -0.19953707502E+03  0.19953707503E+03  0.25500000920E-02 0. -1.
    10030    2    1    2    0    0  0.00000000000E+00  0.00000000000E+00  0.56827135811E+03  0.96734550816E+03  0.78283139674E+03 0.  0.
        5    1    3    3  502    0 -0.97986640687E+01  0.44412009725E+02 -0.19622583404E+03  0.20148227805E+03  0.46999998093E+01 0. -1.
       -5    1    3    3    0  502  0.97986640687E+01 -0.44412009725E+02  0.76449719215E+03  0.76586323011E+03  0.46999998093E+01 0.  1.
</event>
<event>
 5   0  0.1617491E-03  0.8046577E+03  0.7818609E-02  0.9553300E-01
       -1   -1    0    0    0  501  0.00000000000E+00  0.00000000000E+00  0.26391721957E+03  0.26391721962E+03  0.50400001928E-02 0. -1.
        1   -1    0    0  501    0  0.00000000000E+00  0.00000000000E+00 -0.61333062118E+03  0.61333062120E+03  0.50400001928E-02 0.  1.
    10030    2    1    2    0    0  0.00000000000E+00  0.00000000000E+00 -0.34941340161E+03  0.87724784081E+03  0.80465772164E+03 0.  0.
        1    1    3    3  502    0  0.23522320999E+02  0.34664213657E+03 -0.39587327069E+03  0.52671597366E+03  0.50400001928E-02 0.  1.
       -1    1    3    3    0  502 -0.23522320999E+02 -0.34664213657E+03  0.46459869080E+02  0.35053186716E+03  0.50400001928E-02 0. -1.
</event>
<event>
 5   0  0.2763587E-03  0.7995225E+03  0.7818609E-02  0.9560709E-01
        2   -1    0    0  501    0  0.00000000000E+00  0.00000000000E+00  0.27842884711E+03  0.27842884712E+03  0.25500000920E-02 0.  1.
       -2   -1    0    0    0  501  0.00000000000E+00  0.00000000000E+00 -0.57396731291E+03  0.57396731292E+03  0.25500000920E-02 0. -1.
    10030    2    1    2    0    0  0.00000000000E+00  0.00000000000E+00 -0.29553846580E+03  0.85239616003E+03  0.79952250054E+03 0.  0.
        3    1    3    3  502    0  0.27815222298E+03  0.16798987597E+03  0.10048102454E+03  0.34012601205E+03  0.10100000352E+00 0.  1.
       -3    1    3    3    0  502 -0.27815222298E+03 -0.16798987597E+03 -0.39601949034E+03  0.51227014798E+03  0.10100000352E+00 0. -1.
</event>
<event>
 5   0  0.2690809E-03  0.7993064E+03  0.7818609E-02  0.9561022E-01
        2   -1    0    0  501    0  0.00000000000E+00  0.00000000000E+00  0.34701205694E+03  0.34701205695E+03  0.25500000920E-02 0.  1.
       -2   -1    0    0    0  501  0.00000000000E+00  0.00000000000E+00 -0.46027994247E+03  0.46027994248E+03  0.25500000920E-02 0. -1.
    10030    2    1    2    0    0  0.00000000000E+00  0.00000000000E+00 -0.11326788553E+03  0.80729199943E+03  0.79930642338E+03 0.  0.
        5    1    3    3  502    0  0.38555703729E+03  0.92979148881E+02 -0.71418410213E+01  0.39670196247E+03  0.46999998093E+01 0.  1.
       -5    1    3    3    0  502 -0.38555703729E+03 -0.92979148881E+02 -0.10612604451E+03  0.41059003697E+03  0.46999998093E+01 0. -1.
</event>
<event>
 5   0  0.2690809E-03  0.8000402E+03  0.7818609E-02  0.9559959E-01
       -2   -1    0    0    0  501  0.00000000000E+00  0.00000000000E+00  0.33599094280E+03  0.33599094281E+03  0.25500000920E-02 0.  1.
        2   -1    0    0  501    0  0.00000000000E+00  0.00000000000E+00 -0.47625116471E+03  0.47625116471E+03  0.25500000920E-02 0. -1.
    10030    2    1    2    0    0  0.00000000000E+00  0.00000000000E+00 -0.14026022190E+03  0.81224210753E+03  0.80004019361E+03 0.  0.
        5    1    3    3  502    0 -0.13230845999E+02 -0.38077863980E+03  0.53491356338E+02  0.38477375562E+03  0.46999998093E+01 0.  1.
       -5    1    3    3    0  502  0.13230845999E+02  0.38077863980E+03 -0.19375157824E+03  0.42746835191E+03  0.46999998093E+01 0. -1.
</event>
<event>
 5   0  0.2763587E-03  0.7957833E+03  0.7818609E-02  0.9566141E-01
       -2   -1    0    0    0  501  0.00000000000E+00  0.00000000000E+00  0.95458496954E+03  0.95458496954E+03  0.25500000920E-02 0.  1.
        2   -1    0    0  501    0  0.00000000000E+00  0.00000000000E+00 -0.16584982355E+03  0.16584982357E+03  0.25500000920E-02 0. -1.
    10030    2    1    2    0    0  0.00000000000E+00  0.00000000000E+00  0.78873514599E+03  0.11204347931E+04  0.79578325888E+03 0.  0.
        3    1    3    3  502    0 -0.86042968878E+02  0.14121852519E+03  0.90391014822E+03  0.91891219962E+03  0.10100000352E+00 0.  1.
       -3    1    3    3    0  502  0.86042968878E+02 -0.14121852519E+03 -0.11517500223E+03  0.20152259350E+03  0.10100000352E+00 0. -1.
</event>
<event>
 5   0  0.1617491E-03  0.7998560E+03  0.7818609E-02  0.9560226E-01
       -1   -1    0    0    0  501  0.00000000000E+00  0.00000000000E+00  0.56444451538E+03  0.56444451541E+03  0.50400001928E-02 0. -1.
        1   -1    0    0  501    0  0.00000000000E+00  0.00000000000E+00 -0.28336249178E+03  0.28336249182E+03  0.50400001928E-02 0.  1.
    10030    2    1    2    0    0  0.00000000000E+00  0.00000000000E+00  0.28108202361E+03  0.84780700723E+03  0.79985599798E+03 0.  0.
        1    1    3    3  502    0 -0.22268624410E+02  0.39165529422E+03  0.22300374655E+03  0.45124320729E+03  0.50400001928E-02 0.  1.
       -1    1    3    3    0  502  0.22268624410E+02 -0.39165529422E+03  0.58078277058E+02  0.39656379993E+03  0.50400001928E-02 0. -1.
</event>
<event>
 5   0  0.1637228E-03  0.7997480E+03  0.7818609E-02  0.9560382E-01
        1   -1    0    0  501    0  0.00000000000E+00  0.00000000000E+00  0.64110489519E+03  0.64110489521E+03  0.50400001928E-02 0. -1.
       -1   -1    0    0    0  501  0.00000000000E+00  0.00000000000E+00 -0.24941192316E+03  0.24941192321E+03  0.50400001928E-02 0.  1.
    10030    2    1    2    0    0  0.00000000000E+00  0.00000000000E+00  0.39169297204E+03  0.89051681842E+03  0.79974797252E+03 0.  0.
        2    1    3    3  502    0 -0.38711075938E+03  0.42141209407E+02  0.94594271205E+02  0.40072271923E+03  0.25500000920E-02 0.  1.
       -2    1    3    3    0  502  0.38711075938E+03 -0.42141209407E+02  0.29709870083E+03  0.48979409919E+03  0.25500000920E-02 0. -1.
</event>
<event>
 5   0  0.1640035E-03  0.8001727E+03  0.7818609E-02  0.9559767E-01
        1   -1    0    0  501    0  0.00000000000E+00  0.00000000000E+00  0.15742379401E+04  0.15742379401E+04  0.50400001928E-02 0. -1.
       -1   -1    0    0    0  501  0.00000000000E+00  0.00000000000E+00 -0.10168037406E+03  0.10168037419E+03  0.50400001928E-02 0.  1.
    10030    2    1    2    0    0  0.00000000000E+00  0.00000000000E+00  0.14725575661E+04  0.16759183143E+04  0.80017273816E+03 0.  0.
        5    1    3    3  502    0 -0.15915722097E+03 -0.77600612169E+02  0.14876394848E+04  0.14981475904E+04  0.46999998093E+01 0. -1.
       -5    1    3    3    0  502  0.15915722097E+03  0.77600612169E+02 -0.15081918746E+02  0.17777072387E+03  0.46999998093E+01 0.  1.
</event>
<event>
 5   0  0.2873212E-03  0.7989884E+03  0.7818609E-02  0.9561483E-01
        2   -1    0    0  501    0  0.00000000000E+00  0.00000000000E+00  0.11974931810E+04  0.11974931810E+04  0.25500000920E-02 0.  1.
       -2   -1    0    0    0  501  0.00000000000E+00  0.00000000000E+00 -0.13327476166E+03  0.13327476169E+03  0.25500000920E-02 0. -1.
    10030    2    1    2    0    0  0.00000000000E+00  0.00000000000E+00  0.10642184193E+04  0.13307679427E+04  0.79898840620E+03 0.  0.
        2    1    3    3  502    0  0.40968012752E+02  0.16906238178E+03 -0.66881574706E+02  0.18636955772E+03  0.25500000920E-02 0. -1.
       -2    1    3    3    0  502 -0.40968012752E+02 -0.16906238178E+03  0.11310999941E+04  0.11443983850E+04  0.25500000920E-02 0.  1.
</event>
<event>
 5   0  0.1656051E-03  0.7999460E+03  0.7818609E-02  0.9560095E-01
       -1   -1    0    0    0  501  0.00000000000E+00  0.00000000000E+00  0.13238417402E+03  0.13238417411E+03  0.50400001928E-02 0. -1.
        1   -1    0    0  501    0  0.00000000000E+00  0.00000000000E+00 -0.12084405030E+04  0.12084405031E+04  0.50400001928E-02 0.  1.
    10030    2    1    2    0    0  0.00000000000E+00  0.00000000000E+00 -0.10760563290E+04  0.13408246772E+04  0.79994599296E+03 0.  0.
        3    1    3    3  502    0  0.13408267052E+03  0.25030545971E+03 -0.65880677116E+02  0.29149830105E+03  0.10100000352E+00 0.  1.
       -3    1    3    3    0  502 -0.13408267052E+03 -0.25030545971E+03 -0.10101756519E+04  0.10493263761E+04  0.10100000352E+00 0. -1.
</event>
<event>
 5   0  0.1712793E-03  0.8000456E+03  0.7818609E-02  0.9559951E-01
        1   -1    0    0  501    0  0.00000000000E+00  0.00000000000E+00  0.52524165423E+03  0.52524165426E+03  0.50400001928E-02 0.  1.
       -1   -1    0    0    0  501  0.00000000000E+00  0.00000000000E+00 -0.30465638547E+03  0.30465638552E+03  0.50400001928E-02 0. -1.
    10030    2    1    2    0    0  0.00000000000E+00  0.00000000000E+00  0.22058526876E+03  0.82989803977E+03  0.80004555847E+03 0.  0.
        4    1    3    3  502    0  0.27380579913E+03 -0.25344828903E+03  0.25993552166E+03  0.45472380537E+03  0.12699999809E+01 0.  1.
       -4    1    3    3    0  502 -0.27380579913E+03  0.25344828903E+03 -0.39350252897E+02  0.37517423440E+03  0.12699999809E+01 0. -1.
</event>
<event>
 5   0  0.2768834E-03  0.7921944E+03  0.7818609E-02  0.9571385E-01
       -2   -1    0    0    0  501  0.00000000000E+00  0.00000000000E+00  0.43398430985E+03  0.43398430986E+03  0.25500000920E-02 0.  1.
        2   -1    0    0  501    0  0.00000000000E+00  0.00000000000E+00 -0.36151770185E+03  0.36151770186E+03  0.25500000920E-02 0. -1.
    10030    2    1    2    0    0  0.00000000000E+00  0.00000000000E+00  0.72466607997E+02  0.79550201172E+03  0.79219444669E+03 0.  0.
        4    1    3    3  502    0  0.71994517649E+02  0.21509495661E+03 -0.28984133314E+03  0.36804709241E+03  0.12699999809E+01 0. -1.
       -4    1    3    3    0  502 -0.71994517649E+02 -0.21509495661E+03  0.36230794114E+03  0.42745491931E+03  0.12699999809E+01 0.  1.
</event>
<event>
 5   0  0.1095350E-03  0.8005619E+03  0.7818609E-02  0.9559204E-01
       -3   -1    0    0    0  501  0.00000000000E+00  0.00000000000E+00  0.89986665312E+03  0.89986665879E+03  0.10100000352E+00 0.  1.
        3   -1    0    0  501    0  0.00000000000E+00  0.00000000000E+00 -0.17805396946E+03  0.17805399811E+03  0.10100000352E+00 0. -1.
    10030    2    1    2    0    0  0.00000000000E+00  0.00000000000E+00  0.72181268365E+03  0.10779206569E+04  0.80056192283E+03 0.  0.
        3    1    3    3  502    0  0.11198252544E+03  0.18182796200E+03 -0.94950421021E+02  0.23370298762E+03  0.10100000352E+00 0. -1.
       -3    1    3    3    0  502 -0.11198252544E+03 -0.18182796200E+03  0.81676310467E+03  0.84421766928E+03  0.10100000352E+00 0.  1.
</event>
<event>
 5   0  0.1712793E-03  0.8002992E+03  0.7818609E-02  0.9559584E-01
        1   -1    0    0  501    0  0.00000000000E+00  0.00000000000E+00  0.10162822072E+04  0.10162822073E+04  0.50400001928E-02 0. -1.
       -1   -1    0    0    0  501  0.00000000000E+00  0.00000000000E+00 -0.15755436558E+03  0.15755436567E+03  0.50400001928E-02 0.  1.
    10030    2    1    2    0    0  0.00000000000E+00  0.00000000000E+00  0.85872784166E+03  0.11738365729E+04  0.80029919023E+03 0.  0.
        4    1    3    3  502    0 -0.28938318367E+03 -0.13729127839E+02  0.24512554830E+02  0.29074661509E+03  0.12699999809E+01 0.  1.
       -4    1    3    3    0  502  0.28938318367E+03  0.13729127839E+02  0.83421528683E+03  0.88308995783E+03  0.12699999809E+01 0. -1.
</event>
<event>
 5   0  0.1712793E-03  0.7992376E+03  0.7818609E-02  0.9561121E-01
        1   -1    0    0  501    0  0.00000000000E+00  0.00000000000E+00  0.23849646041E+03  0.23849646047E+03  0.50400001928E-02 0. -1.
       -1   -1    0    0    0  501  0.00000000000E+00  0.00000000000E+00 -0.66959145768E+03  0.66959145770E+03  0.50400001928E-02 0.  1.
    10030    2    1    2    0    0  0.00000000000E+00  0.00000000000E+00 -0.43109499727E+03  0.90808791817E+03  0.79923761827E+03 0.  0.
        4    1    3    3  502    0  0.16985705318E+03 -0.12000594444E+03  0.17216022139E+03  0.26998814779E+03  0.12699999809E+01 0. -1.
       -4    1    3    3    0  502 -0.16985705318E+03  0.12000594444E+03 -0.60325521866E+03  0.63809977038E+03  0.12699999809E+01 0.  1.
</event>
<event>
 5   0  0.1617491E-03  0.8048963E+03  0.7818609E-02  0.9552957E-01
       -1   -1    0    0    0  501  0.00000000000E+00  0.00000000000E+00  0.92173218626E+03  0.92173218628E+03  0.50400001928E-02 0. -1.
        1   -1    0    0  501    0  0.00000000000E+00  0.00000000000E+00 -0.17571756281E+03  0.17571756288E+03  0.50400001928E-02 0.  1.
    10030    2    1    2    0    0  0.00000000000E+00  0.00000000000E+00  0.74601462346E+03  0.10974497492E+04  0.80489634954E+03 0.  0.
        1    1    3    3  502    0 -0.36755976638E+03 -0.77147051409E+02  0.57018127811E+03  0.68275803864E+03  0.50400001928E-02 0. -1.
       -1    1    3    3    0  502  0.36755976638E+03  0.77147051409E+02  0.17583334535E+03  0.41469171051E+03  0.50400001928E-02 0.  1.
</event>
<event>
 5   0  0.2910501E-03  0.7998335E+03  0.7818609E-02  0.9560258E-01
       -2   -1    0    0    0  501  0.00000000000E+00  0.00000000000E+00  0.11313774874E+03  0.11313774877E+03  0.25500000920E-02 0.  1.
        2   -1    0    0  501    0  0.00000000000E+00  0.00000000000E+00 -0.14136166324E+04  0.14136166324E+04  0.25500000920E-02 0. -1.
    10030    2    1    2    0    0  0.00000000000E+00  0.00000000000E+00 -0.13004788837E+04  0.15267543812E+04  0.79983349116E+03 0.  0.
        1    1    3    3  502    0  0.39358009057E+03  0.64299319061E+02 -0.59317459089E+03  0.71476974294E+03  0.50400001928E-02 0.  1.
       -1    1    3    3    0  502 -0.39358009057E+03 -0.64299319061E+02 -0.70730429282E+03  0.81198463827E+03  0.50400001928E-02 0. -1.
</event>
<event>
 5   0  0.1656051E-03  0.7988560E+03  0.7818609E-02  0.9561675E-01
       -1   -1    0    0    0  501  0.00000000000E+00  0.00000000000E+00  0.21529044280E+03  0.21529044286E+03  0.50400001928E-02 0. -1.
        1   -1    0    0  501    0  0.00000000000E+00  0.00000000000E+00 -0.74105802461E+03  0.74105802462E+03  0.50400001928E-02 0.  1.
    10030    2    1    2    0    0  0.00000000000E+00  0.00000000000E+00 -0.52576758181E+03  0.95634846748E+03  0.79885595771E+03 0.  0.
        3    1    3    3  502    0  0.28372037723E+03 -0.21453889958E+03 -0.48041742324E+03  0.59776676274E+03  0.10100000352E+00 0.  1.
       -3    1    3    3    0  502 -0.28372037723E+03  0.21453889958E+03 -0.45350158568E+02  0.35858170473E+03  0.10100000352E+00 0. -1.
</event>
<event>
 5   0  0.2873212E-03  0.8044315E+03  0.7818609E-02  0.9553625E-01
       -2   -1    0    0    0  501  0.00000000000E+00  0.00000000000E+00  0.69482775831E+02  0.69482775878E+02  0.25500000920E-02 0. -1.
        2   -1    0    0  501    0  0.00000000000E+00  0.00000000000E+00 -0.23283111610E+04  0.23283111610E+04  0.25500000920E-02 0.  1.
    10030    2    1    2    0    0  0.00000000000E+00  0.00000000000E+00 -0.22588283852E+04  0.23977939369E+04  0.80443153226E+03 0.  0.
        2    1    3    3  502    0  0.95447890053E+02  0.19685210029E+03 -0.21354560208E+04  0.21466330534E+04  0.25500000920E-02 0.  1.
       -2    1    3    3    0  502 -0.95447890053E+02 -0.19685210029E+03 -0.12337236438E+03  0.25116088351E+03  0.25500000920E-02 0. -1.
</event>
<event>
 5   0  0.2763587E-03  0.8006947E+03  0.7818609E-02  0.9559012E-01
        2   -1    0    0  501    0  0.00000000000E+00  0.00000000000E+00  0.73001552704E+03  0.73001552704E+03  0.25500000920E-02 0.  1.
       -2   -1    0    0    0  501  0.00000000000E+00  0.00000000000E+00 -0.21955425392E+03  0.21955425394E+03  0.25500000920E-02 0. -1.
    10030    2    1    2    0    0  0.00000000000E+00  0.00000000000E+00  0.51046127311E+03  0.94956978098E+03  0.80069473434E+03 0.  0.
        3    1    3    3  502    0  0.15270673483E+02 -0.10964337615E+03  0.71150358418E+03  0.72006404153E+03  0.10100000352E+00 0.  1.
       -3    1    3    3    0  502 -0.15270673483E+02  0.10964337615E+03 -0.20104231106E+03  0.22950573945E+03  0.10100000352E+00 0. -1.
</event>
<event>
 5   0  0.1095350E-03  0.7994024E+03  0.7818609E-02  0.9560883E-01
       -3   -1    0    0    0  501  0.00000000000E+00  0.00000000000E+00  0.14730783380E+03  0.14730786842E+03  0.10100000352E+00 0. -1.
        3   -1    0    0  501    0  0.00000000000E+00  0.00000000000E+00 -0.10845385723E+04  0.10845385770E+04  0.10100000352E+00 0.  1.
    10030    2    1    2    0    0  0.00000000000E+00  0.00000000000E+00 -0.93723073848E+03  0.12318464454E+04  0.79940240674E+03 0.  0.
        2    1    3    3  502    0  0.19319986147E+03  0.28977988714E+03 -0.77082602907E+03  0.84585538750E+03  0.25500000920E-02 0.  1.
       -2    1    3    3    0  502 -0.19319986147E+03 -0.28977988714E+03 -0.16640470941E+03  0.38599105791E+03  0.25500000920E-02 0. -1.
</event>
<event>
 5   0  0.1640035E-03  0.7793684E+03  0.7818609E-02  0.9590370E-01
       -1   -1    0    0    0  501  0.00000000000E+00  0.00000000000E+00  0.38979934047E+03  0.38979934050E+03  0.50400001928E-02 0. -1.
        1   -1    0    0  501    0  0.00000000000E+00  0.00000000000E+00 -0.38956905105E+03  0.38956905108E+03  0.50400001928E-02 0.  1.
    10030    2    1    2    0    0  0.00000000000E+00  0.00000000000E+00  0.23028941730E+00  0.77936839159E+03  0.77936835756E+03 0.  0.
        5    1    3    3  502    0  0.14755874699E+03 -0.76792066326E+02  0.35248011852E+03  0.38978831334E+03  0.46999998093E+01 0. -1.
       -5    1    3    3    0  502 -0.14755874699E+03  0.76792066326E+02 -0.35224982910E+03  0.38958007825E+03  0.46999998093E+01 0.  1.
</event>
<event>
 5   0  0.2768834E-03  0.8000317E+03  0.7818609E-02  0.9559971E-01
        2   -1    0    0  501    0  0.00000000000E+00  0.00000000000E+00  0.62974618892E+03  0.62974618893E+03  0.25500000920E-02 0. -1.
       -2   -1    0    0    0  501  0.00000000000E+00  0.00000000000E+00 -0.25409074426E+03  0.25409074427E+03  0.25500000920E-02 0.  1.
    10030    2    1    2    0    0  0.00000000000E+00  0.00000000000E+00  0.37565544466E+03  0.88383693320E+03  0.80003169399E+03 0.  0.
        4    1    3    3  502    0  0.36824772564E+01  0.14543731500E+03 -0.22382486059E+03  0.26695459230E+03  0.12699999809E+01 0.  1.
       -4    1    3    3    0  502 -0.36824772564E+01 -0.14543731500E+03  0.59948030525E+03  0.61688234090E+03  0.12699999809E+01 0. -1.
</event>
<event>
 5   0  0.2768834E-03  0.7994022E+03  0.7818609E-02  0.9560883E-01
        2   -1    0    0  501    0  0.00000000000E+00  0.00000000000E+00  0.18836286184E+04  0.18836286185E+04  0.25500000920E-02 0. -1.
       -2   -1    0    0    0  501  0.00000000000E+00  0.00000000000E+00 -0.84815528075E+02  0.84815528113E+02  0.25500000920E-02 0.  1.
    10030    2    1    2    0    0  0.00000000000E+00  0.00000000000E+00  0.17988130904E+04  0.19684441466E+04  0.79940216665E+03 0.  0.
        4    1    3    3  502    0 -0.17627014875E+03 -0.68400278886E+02  0.17665389039E+04  0.17766291328E+04  0.12699999809E+01 0. -1.
       -4    1    3    3    0  502  0.17627014875E+03  0.68400278886E+02  0.32274186430E+02  0.19181501376E+03  0.12699999809E+01 0.  1.
</event>
<event>
 5   0  0.2873212E-03  0.8001913E+03  0.7818609E-02  0.9559740E-01
       -2   -1    0    0    0  501  0.00000000000E+00  0.00000000000E+00  0.40662643874E+03  0.40662643875E+03  0.25500000920E-02 0. -1.
        2   -1    0    0  501    0  0.00000000000E+00  0.00000000000E+00 -0.39366974344E+03  0.39366974345E+03  0.25500000920E-02 0.  1.
    10030    2    1    2    0    0  0.00000000000E+00  0.00000000000E+00  0.12956695305E+02  0.80029618220E+03  0.80019129168E+03 0.  0.
        2    1    3    3  502    0  0.34102572369E+03  0.11773557932E+02  0.21540610151E+03  0.40353060536E+03  0.25500000920E-02 0. -1.
       -2    1    3    3    0  502 -0.34102572369E+03 -0.11773557932E+02 -0.20244940620E+03  0.39676557684E+03  0.25500000920E-02 0.  1.
</event>
<event>
 5   0  0.1656051E-03  0.7995517E+03  0.7818609E-02  0.9560666E-01
        1   -1    0    0  501    0  0.00000000000E+00  0.00000000000E+00  0.11886793512E+04  0.11886793512E+04  0.50400001928E-02 0. -1.
       -1   -1    0    0    0  501  0.00000000000E+00  0.00000000000E+00 -0.13445235452E+03  0.13445235461E+03  0.50400001928E-02 0.  1.
    10030    2    1    2    0    0  0.00000000000E+00  0.00000000000E+00  0.10542269967E+04  0.13231317058E+04  0.79955171840E+03 0.  0.
        3    1    3    3  502    0  0.14485754070E+03 -0.17888729458E+03 -0.13785340343E+02  0.23059578719E+03  0.10100000352E+00 0.  1.
       -3    1    3    3    0  502 -0.14485754070E+03  0.17888729458E+03  0.10680123370E+04  0.10925359186E+04  0.10100000352E+00 0. -1.
</event>
<event>
 5   0  0.2763587E-03  0.8003010E+03  0.7818609E-02  0.9559581E-01
        2   -1    0    0  501    0  0.00000000000E+00  0.00000000000E+00  0.23220783088E+04  0.23220783088E+04  0.25500000920E-02 0. -1.
       -2   -1    0    0    0  501  0.00000000000E+00  0.00000000000E+00 -0.68955658239E+02  0.68955658286E+02  0.25500000920E-02 0.  1.
    10030    2    1    2    0    0  0.00000000000E+00  0.00000000000E+00  0.22531226505E+04  0.23910339670E+04  0.80030103916E+03 0.  0.
        3    1    3    3  502    0 -0.35595345031E+03 -0.15611796460E+03  0.84242244826E+03  0.92776681833E+03  0.10100000352E+00 0.  1.
       -3    1    3    3    0  502  0.35595345031E+03  0.15611796460E+03  0.14107002023E+04  0.14632671487E+04  0.10100000352E+00 0. -1.
</event>
<event>
 5   0  0.1640035E-03  0.7988834E+03  0.7818609E-02  0.9561635E-01
        1   -1    0    0  501    0  0.00000000000E+00  0.00000000000E+00  0.17999463546E+04  0.17999463546E+04  0.50400001928E-02 0.  1.
       -1   -1    0    0    0  501  0.00000000000E+00  0.00000000000E+00 -0.88643577465E+02  0.88643577608E+02  0.50400001928E-02 0. -1.
    10030    2    1    2    0    0  0.00000000000E+00  0.00000000000E+00  0.17113027771E+04  0.18885899322E+04  0.79888343145E+03 0.  0.
        5    1    3    3  502    0 -0.29666518171E+03 -0.26712151422E+03  0.82505917390E+03  0.91657452716E+03  0.46999998093E+01 0.  1.
       -5    1    3    3    0  502  0.29666518171E+03  0.26712151422E+03  0.88624360324E+03  0.97201540507E+03  0.46999998093E+01 0. -1.
</event>
<event>
 5   0  0.1656051E-03  0.7998126E+03  0.7818609E-02  0.9560288E-01
       -1   -1    0    0    0  501  0.00000000000E+00  0.00000000000E+00  0.27938005413E+03  0.27938005418E+03  0.50400001928E-02 0.  1.
        1   -1    0    0  501    0  0.00000000000E+00  0.00000000000E+00 -0.57242826817E+03  0.57242826819E+03  0.50400001928E-02 0. -1.
    10030    2    1    2    0    0  0.00000000000E+00  0.00000000000E+00 -0.29304821404E+03  0.85180832236E+03  0.79981257948E+03 0.  0.
        3    1    3    3  502    0 -0.34784155351E+02  0.10771046726E+03 -0.55501274716E+03  0.56643679429E+03  0.10100000352E+00 0. -1.
       -3    1    3    3    0  502  0.34784155351E+02 -0.10771046726E+03  0.26196453312E+03  0.28537152807E+03  0.10100000352E+00 0.  1.
</event>
<event>
 5   0  0.1640035E-03  0.7998410E+03  0.7818609E-02  0.9560247E-01
        1   -1    0    0  501    0  0.00000000000E+00  0.00000000000E+00  0.95948044115E+03  0.95948044116E+03  0.50400001928E-02 0.  1.
       -1   -1    0    0    0  501  0.00000000000E+00  0.00000000000E+00 -0.16669062906E+03  0.16669062913E+03  0.50400001928E-02 0. -1.
    10030    2    1    2    0    0  0.00000000000E+00  0.00000000000E+00  0.79278981209E+03  0.11261710703E+04  0.79984098008E+03 0.  0.
        5    1    3    3  502    0 -0.15178630453E+03  0.55697734892E+02  0.91136846354E+03  0.92561108801E+03  0.46999998093E+01 0.  1.
       -5    1    3    3    0  502  0.15178630453E+03 -0.55697734892E+02 -0.11857865145E+03  0.20055998228E+03  0.46999998093E+01 0. -1.
</event>
<event>
 5   0  0.2768834E-03  0.8007326E+03  0.7818609E-02  0.9558957E-01
       -2   -1    0    0    0  501  0.00000000000E+00  0.00000000000E+00  0.18858569677E+03  0.18858569679E+03  0.25500000920E-02 0. -1.
        2   -1    0    0  501    0  0.00000000000E+00  0.00000000000E+00 -0.84997524209E+03  0.84997524210E+03  0.25500000920E-02 0.  1.
    10030    2    1    2    0    0  0.00000000000E+00  0.00000000000E+00 -0.66138954532E+03  0.10385609389E+04  0.80073259776E+03 0.  0.
        4    1    3    3  502    0 -0.37322978510E+03 -0.94580632203E+02 -0.47304512558E+03  0.60993382609E+03  0.12699999809E+01 0.  1.
       -4    1    3    3    0  502  0.37322978510E+03  0.94580632203E+02 -0.18834441974E+03  0.42862711279E+03  0.12699999809E+01 0. -1.
</event>
<event>
 5   0  0.1712793E-03  0.8001861E+03  0.7818609E-02  0.9559748E-01
       -1   -1    0    0    0  501  0.00000000000E+00  0.00000000000E+00  0.25798437520E+03  0.25798437525E+03  0.50400001928E-02 0.  1.
        1   -1    0    0  501    0  0.00000000000E+00  0.00000000000E+00 -0.62048121054E+03  0.62048121056E+03  0.50400001928E-02 0. -1.
    10030    2    1    2    0    0  0.00000000000E+00  0.00000000000E+00 -0.36249683534E+03  0.87846558582E+03  0.80018612199E+03 0.  0.
        4    1    3    3  502    0 -0.36205042336E+03 -0.16977520925E+03 -0.19550807462E+03  0.44511700807E+03  0.12699999809E+01 0.  1.
       -4    1    3    3    0  502  0.36205042336E+03  0.16977520925E+03 -0.16698876071E+03  0.43334857775E+03  0.12699999809E+01 0. -1.
</event>
<event>
 5   0  0.1656051E-03  0.8006854E+03  0.7818609E-02  0.9559026E-01
       -1   -1    0    0    0  501  0.00000000000E+00  0.00000000000E+00  0.11261314401E+03  0.11261314412E+03  0.50400001928E-02 0.  1.
        1   -1    0    0  501    0  0.00000000000E+00  0.00000000000E+00 -0.14232289650E+04  0.14232289650E+04  0.50400001928E-02 0. -1.
    10030    2    1    2    0    0  0.00000000000E+00  0.00000000000E+00 -0.13106158210E+04  0.15358421091E+04  0.80068542759E+03 0.  0.
        3    1    3    3  502    0  0.33653135722E+03 -0.11939815504E+03 -0.30809987941E+03  0.47162996058E+03  0.10100000352E+00 0.  1.
       -3    1    3    3    0  502 -0.33653135722E+03  0.11939815504E+03 -0.10025159416E+04  0.10642121485E+04  0.10100000352E+00 0. -1.
</event>
<event>
 5   0  0.2873212E-03  0.7996862E+03  0.7818609E-02  0.9560471E-01
        2   -1    0    0  501    0  0.00000000000E+00  0.00000000000E+00  0.77816977439E+03  0.77816977439E+03  0.25500000920E-02 0.  1.
       -2   -1    0    0    0  501  0.00000000000E+00  0.00000000000E+00 -0.20544940170E+03  0.20544940172E+03  0.25500000920E-02 0. -1.
    10030    2    1    2    0    0  0.00000000000E+00  0.00000000000E+00  0.57272037269E+03  0.98361917611E+03  0.79968622492E+03 0.  0.
        2    1    3    3  502    0  0.16853788049E+03  0.35993266485E+03  0.23249244684E+03  0.46044465273E+03  0.25500000920E-02 0. -1.
       -2    1    3    3    0  502 -0.16853788049E+03 -0.35993266485E+03  0.34022792585E+03  0.52317452338E+03  0.25500000920E-02 0.  1.
</event>
<event>
 5   0  0.1656051E-03  0.8019589E+03  0.7818609E-02  0.9557186E-01
        1   -1    0    0  501    0  0.00000000000E+00  0.00000000000E+00  0.90094059144E+03  0.90094059145E+03  0.50400001928E-02 0.  1.
       -1   -1    0    0    0  501  0.00000000000E+00  0.00000000000E+00 -0.17846296212E+03  0.17846296219E+03  0.50400001928E-02 0. -1.
    10030    2    1    2    0    0  0.00000000000E+00  0.00000000000E+00  0.72247762931E+03  0.10794035536E+04  0.80195891838E+03 0.  0.
        3    1    3    3  502    0  0.18565173530E+03  0.17329541769E+03  0.77889099775E+03  0.81924908616E+03  0.10100000352E+00 0.  1.
       -3    1    3    3    0  502 -0.18565173530E+03 -0.17329541769E+03 -0.56413368432E+02  0.26015446748E+03  0.10100000352E+00 0. -1.
</event>
<event>
 5   0  0.2768834E-03  0.8018154E+03  0.7818609E-02  0.9557393E-01
       -2   -1    0    0    0  501  0.00000000000E+00  0.00000000000E+00  0.45475554510E+03  0.45475554510E+03  0.25500000920E-02 0. -1.
        2   -1    0    0  501    0  0.00000000000E+00  0.00000000000E+00 -0.35343600541E+03  0.35343600542E+03  0.25500000920E-02 0.  1.
    10030    2    1    2    0    0  0.00000000000E+00  0.00000000000E+00  0.10131953969E+03  0.80819155052E+03  0.80181539846E+03 0.  0.
        4    1    3    3  502    0 -0.13869826756E+03 -0.15482579105E+03 -0.29487401044E+03  0.36077767383E+03  0.12699999809E+01 0.  1.
       -4    1    3    3    0  502  0.13869826756E+03  0.15482579105E+03  0.39619355013E+03  0.44741387670E+03  0.12699999809E+01 0. -1.
</event>
<event>
 5   0  0.2910501E-03  0.8001905E+03  0.7818609E-02  0.9559741E-01
       -2   -1    0    0    0  501  0.00000000000E+00  0.00000000000E+00  0.10512699349E+04  0.10512699349E+04  0.25500000920E-02 0.  1.
        2   -1    0    0  501    0  0.00000000000E+00  0.00000000000E+00 -0.15226937104E+03  0.15226937106E+03  0.25500000920E-02 0. -1.
    10030    2    1    2    0    0  0.00000000000E+00  0.00000000000E+00  0.89900056389E+03  0.12035393060E+04  0.80019050683E+03 0.  0.
        1    1    3    3  502    0 -0.48644548626E+02 -0.34982331477E+03  0.73222295070E+03  0.81295331553E+03  0.50400001928E-02 0.  1.
       -1    1    3    3    0  502  0.48644548626E+02  0.34982331477E+03  0.16677761319E+03  0.39058599048E+03  0.50400001928E-02 0. -1.
</event>
<event>
 5   0  0.2763587E-03  0.8003955E+03  0.7818609E-02  0.9559445E-01
       -2   -1    0    0    0  501  0.00000000000E+00  0.00000000000E+00  0.10496210369E+03  0.10496210372E+03  0.25500000920E-02 0.  1.
        2   -1    0    0  501    0  0.00000000000E+00  0.00000000000E+00 -0.15258671191E+04  0.15258671191E+04  0.25500000920E-02 0. -1.
    10030    2    1    2    0    0  0.00000000000E+00  0.00000000000E+00 -0.14209050154E+04  0.16308292228E+04  0.80039545925E+03 0.  0.
        3    1    3    3  502    0  0.53838440687E+02 -0.33739029406E+03 -0.11350582910E+04  0.11853641308E+04  0.10100000352E+00 0. -1.
       -3    1    3    3    0  502 -0.53838440687E+02  0.33739029406E+03 -0.28584672440E+03  0.44546509209E+03  0.10100000352E+00 0.  1.
</event>
<event>
 5   0  0.2763587E-03  0.7999697E+03  0.7818609E-02  0.9560061E-01
        2   -1    0    0  501    0  0.00000000000E+00  0.00000000000E+00  0.91631898545E+03  0.91631898545E+03  0.25500000920E-02 0.  1.
       -2   -1    0    0    0  501  0.00000000000E+00  0.00000000000E+00 -0.17459847696E+03  0.17459847698E+03  0.25500000920E-02 0. -1.
    10030    2    1    2    0    0  0.00000000000E+00  0.00000000000E+00  0.74172050849E+03  0.10909174624E+04  0.79996974764E+03 0.  0.
        3    1    3    3  502    0 -0.35334639993E+03  0.72688780691E+02  0.60647068459E+03  0.70565149943E+03  0.10100000352E+00 0.  1.
       -3    1    3    3    0  502  0.35334639993E+03 -0.72688780691E+02  0.13524982390E+03  0.38526596300E+03  0.10100000352E+00 0. -1.
</event>
<event>
 5   0  0.2690809E-03  0.7999198E+03  0.7818609E-02  0.9560133E-01
        2   -1    0    0  501    0  0.00000000000E+00  0.00000000000E+00  0.74485910458E+03  0.74485910459E+03  0.25500000920E-02 0. -1.
       -2   -1    0    0    0  501  0.00000000000E+00  0.00000000000E+00 -0.21476263577E+03  0.21476263578E+03  0.25500000920E-02 0.  1.
    10030    2    1    2    0    0  0.00000000000E+00  0.00000000000E+00  0.53009646882E+03  0.95962174037E+03  0.79991975743E+03 0.  0.
        5    1    3    3  502    0 -0.26265339918E+03 -0.12315018363E+03  0.59531761694E+03  0.66225216561E+03  0.46999998093E+01 0. -1.
       -5    1    3    3    0  502  0.26265339918E+03  0.12315018363E+03 -0.65221148120E+02  0.29736957475E+03  0.46999998093E+01 0.  1.
</event>
<event>
 5   0  0.1656051E-03  0.8212513E+03  0.7818609E-02  0.9529756E-01
        1   -1    0    0  501    0  0.00000000000E+00  0.00000000000E+00  0.21300508831E+03  0.21300508837E+03  0.50400001928E-02 0. -1.
       -1   -1    0    0    0  501  0.00000000000E+00  0.00000000000E+00 -0.79159335355E+03  0.79159335357E+03  0.50400001928E-02 0.  1.
    10030    2    1    2    0    0  0.00000000000E+00  0.00000000000E+00 -0.57858826524E+03  0.10045984419E+04  0.82125127024E+03 0.  0.
        3    1    3    3  502    0 -0.25534989764E+03 -0.23884917922E+03 -0.25908317725E+02  0.35060483706E+03  0.10100000352E+00 0. -1.
       -3    1    3    3    0  502  0.25534989764E+03  0.23884917922E+03 -0.55267994752E+03  0.65399360488E+03  0.10100000352E+00 0.  1.
</event>
<event>
 5   0  0.1712793E-03  0.8007377E+03  0.7818609E-02  0.9558950E-01
       -1   -1    0    0    0  501  0.00000000000E+00  0.00000000000E+00  0.19802431429E+03  0.19802431435E+03  0.50400001928E-02 0. -1.
        1   -1    0    0  501    0  0.00000000000E+00  0.00000000000E+00 -0.80947238072E+03  0.80947238073E+03  0.50400001928E-02 0.  1.
    10030    2    1    2    0    0  0.00000000000E+00  0.00000000000E+00 -0.61144806643E+03  0.10074966951E+04  0.80073769280E+03 0.  0.
        4    1    3    3  502    0 -0.27206399601E+03  0.47441800266E+02 -0.67044034197E+03  0.72509406795E+03  0.12699999809E+01 0.  1.
       -4    1    3    3    0  502  0.27206399601E+03 -0.47441800266E+02  0.58992275545E+02  0.28240262713E+03  0.12699999809E+01 0. -1.
</event>
<event>
 5   0  0.2768834E-03  0.8012952E+03  0.7818609E-02  0.9558144E-01
        2   -1    0    0  501    0  0.00000000000E+00  0.00000000000E+00  0.18708819778E+04  0.18708819778E+04  0.25500000920E-02 0.  1.
       -2   -1    0    0    0  501  0.00000000000E+00  0.00000000000E+00 -0.85798308931E+02  0.85798308969E+02  0.25500000920E-02 0. -1.
    10030    2    1    2    0    0  0.00000000000E+00  0.00000000000E+00  0.17850836689E+04  0.19566802868E+04  0.80129522635E+03 0.  0.
        4    1    3    3  502    0 -0.62867018641E+02 -0.63850864049E+02  0.18460945870E+04  0.18482683875E+04  0.12699999809E+01 0.  1.
       -4    1    3    3    0  502  0.62867018641E+02  0.63850864049E+02 -0.61010918183E+02  0.10841189930E+03  0.12699999809E+01 0. -1.
</event>
<event>
 5   0  0.1656051E-03  0.7997411E+03  0.7818609E-02  0.9560392E-01
       -1   -1    0    0    0  501  0.00000000000E+00  0.00000000000E+00  0.12792988508E+03  0.12792988518E+03  0.50400001928E-02 0. -1.
        1   -1    0    0  501    0  0.00000000000E+00  0.00000000000E+00 -0.12498756596E+04  0.12498756597E+04  0.50400001928E-02 0.  1.
    10030    2    1    2    0    0  0.00000000000E+00  0.00000000000E+00 -0.11219457746E+04  0.13778055448E+04  0.79974108204E+03 0.  0.
        3    1    3    3  502    0  0.91508900911E+02 -0.52184057242E+02  0.10359459903E+03  0.14774608599E+03  0.10100000352E+00 0. -1.
       -3    1    3    3    0  502 -0.91508900911E+02  0.52184057242E+02 -0.12255403736E+04  0.12300594588E+04  0.10100000352E+00 0.  1.
</event>
<event>
 5   0  0.1637228E-03  0.8005507E+03  0.7818609E-02  0.9559220E-01
       -1   -1    0    0    0  501  0.00000000000E+00  0.00000000000E+00  0.42365242287E+03  0.42365242290E+03  0.50400001928E-02 0.  1.
        1   -1    0    0  501    0  0.00000000000E+00  0.00000000000E+00 -0.37818819918E+03  0.37818819922E+03  0.50400001928E-02 0. -1.
    10030    2    1    2    0    0  0.00000000000E+00  0.00000000000E+00  0.45464223684E+02  0.80184062211E+03  0.80055067774E+03 0.  0.
        2    1    3    3  502    0 -0.22585127024E+03 -0.25635396896E+03 -0.18615654844E+03  0.38907636038E+03  0.25500000920E-02 0. -1.
       -2    1    3    3    0  502  0.22585127024E+03  0.25635396896E+03  0.23162077213E+03  0.41276426173E+03  0.25500000920E-02 0.  1.
</event>
<event>
 5   0  0.1656051E-03  0.7991104E+03  0.7818609E-02  0.9561306E-01
       -1   -1    0    0    0  501  0.00000000000E+00  0.00000000000E+00  0.14870293708E+03  0.14870293716E+03  0.50400001928E-02 0. -1.
        1   -1    0    0  501    0  0.00000000000E+00  0.00000000000E+00 -0.10735791641E+04  0.10735791641E+04  0.50400001928E-02 0.  1.
    10030    2    1    2    0    0  0.00000000000E+00  0.00000000000E+00 -0.92487622702E+03  0.12222821013E+04  0.79911044279E+03 0.  0.
        3    1    3    3  502    0  0.26922157315E+03 -0.19903676920E+03 -0.79596660320E+03  0.86351533545E+03  0.10100000352E+00 0.  1.
       -3    1    3    3    0  502 -0.26922157315E+03  0.19903676920E+03 -0.12890962382E+03  0.35876676582E+03  0.10100000352E+00 0. -1.
</event>
<event>
 5   0  0.1656051E-03  0.8004336E+03  0.7818609E-02  0.9559390E-01
       -1   -1    0    0    0  501  0.00000000000E+00  0.00000000000E+00  0.69685063548E+03  0.69685063550E+03  0.50400001928E-02 0. -1.
        1   -1    0    0  501    0  0.00000000000E+00  0.00000000000E+00 -0.22985341270E+03  0.22985341276E+03  0.50400001928E-02 0.  1.
    10030    2    1    2    0    0  0.00000000000E+00  0.00000000000E+00  0.46699722277E+03  0.92670404825E+03  0.80043362434E+03 0.  0.
        3    1    3    3  502    0 -0.14301959095E+03  0.36739302515E+03  0.15377956731E+03  0.42317892652E+03  0.10100000352E+00 0.  1.
       -3    1    3    3    0  502  0.14301959095E+03 -0.36739302515E+03  0.31321765546E+03  0.50352512174E+03  0.10100000352E+00 0. -1.
</event>
<event>
 5   0  0.1640035E-03  0.8020416E+03  0.7818609E-02  0.9557067E-01
       -1   -1    0    0    0  501  0.00000000000E+00  0.00000000000E+00  0.12709740350E+03  0.12709740360E+03  0.50400001928E-02 0.  1.
        1   -1    0    0  501    0  0.00000000000E+00  0.00000000000E+00 -0.12653105453E+04  0.12653105453E+04  0.50400001928E-02 0. -1.
    10030    2    1    2    0    0  0.00000000000E+00  0.00000000000E+00 -0.11382131418E+04  0.13924079489E+04  0.80204160741E+03 0.  0.
        5    1    3    3  502    0 -0.17450828545E+03  0.16015416727E+03 -0.11308378619E+04  0.11553868871E+04  0.46999998093E+01 0. -1.
       -5    1    3    3    0  502  0.17450828545E+03 -0.16015416727E+03 -0.73752798999E+01  0.23702106180E+03  0.46999998093E+01 0.  1.
</event>
<event>
 5   0  0.1637228E-03  0.8013987E+03  0.7818609E-02  0.9557995E-01
       -1   -1    0    0    0  501  0.00000000000E+00  0.00000000000E+00  0.21062948986E+03  0.21062948992E+03  0.50400001928E-02 0.  1.
        1   -1    0    0  501    0  0.00000000000E+00  0.00000000000E+00 -0.76228624086E+03  0.76228624087E+03  0.50400001928E-02 0. -1.
    10030    2    1    2    0    0  0.00000000000E+00  0.00000000000E+00 -0.55165675099E+03  0.97291573079E+03  0.80139868250E+03 0.  0.
        2    1    3    3  502    0  0.27951468599E+03  0.12685284440E+03 -0.58851828799E+03  0.66375739477E+03  0.25500000920E-02 0. -1.
       -2    1    3    3    0  502 -0.27951468599E+03 -0.12685284440E+03  0.36861536992E+02  0.30915833602E+03  0.25500000920E-02 0.  1.
</event>
<event>
 5   0  0.1095350E-03  0.8008967E+03  0.7818609E-02  0.9558720E-01
       -3   -1    0    0    0  501  0.00000000000E+00  0.00000000000E+00  0.34670980899E+03  0.34670982370E+03  0.10100000352E+00 0. -1.
        3   -1    0    0  501    0  0.00000000000E+00  0.00000000000E+00 -0.46251607606E+03  0.46251608709E+03  0.10100000352E+00 0.  1.
    10030    2    1    2    0    0  0.00000000000E+00  0.00000000000E+00 -0.11580626707E+03  0.80922591079E+03  0.80089667449E+03 0.  0.
        4    1    3    3  502    0  0.18708635057E+03 -0.85489483230E+02 -0.40505674959E+03  0.45429322865E+03  0.12699999809E+01 0.  1.
       -4    1    3    3    0  502 -0.18708635057E+03  0.85489483230E+02  0.28925048252E+03  0.35493268214E+03  0.12699999809E+01 0. -1.
</event>
<event>
 5   0  0.1095350E-03  0.8002455E+03  0.7818609E-02  0.9559662E-01
       -4   -1    0    0    0  501  0.00000000000E+00  0.00000000000E+00  0.39385797095E+03  0.39386001851E+03  0.12699999809E+01 0.  1.
        4   -1    0    0  501    0  0.00000000000E+00  0.00000000000E+00 -0.40648311344E+03  0.40648509740E+03  0.12699999809E+01 0. -1.
    10030    2    1    2    0    0  0.00000000000E+00  0.00000000000E+00 -0.12625142484E+02  0.80034511591E+03  0.80024553129E+03 0.  0.
        3    1    3    3  502    0  0.27152100601E+03  0.21276188521E+03 -0.20908626882E+03  0.40337123659E+03  0.10100000352E+00 0. -1.
       -3    1    3    3    0  502 -0.27152100601E+03 -0.21276188521E+03  0.19646112634E+03  0.39697387932E+03  0.10100000352E+00 0.  1.
</event>
<event>
 5   0  0.2690809E-03  0.7992997E+03  0.7818609E-02  0.9561031E-01
       -2   -1    0    0    0  501  0.00000000000E+00  0.00000000000E+00  0.66790625353E+03  0.66790625353E+03  0.25500000920E-02 0.  1.
        2   -1    0    0  501    0  0.00000000000E+00  0.00000000000E+00 -0.23913537486E+03  0.23913537487E+03  0.25500000920E-02 0. -1.
    10030    2    1    2    0    0  0.00000000000E+00  0.00000000000E+00  0.42877087867E+03  0.90704162840E+03  0.79929972429E+03 0.  0.
        5    1    3    3  502    0 -0.31555025271E+03  0.97346349787E+02 -0.41005669745E+02  0.33279397343E+03  0.46999998093E+01 0. -1.
       -5    1    3    3    0  502  0.31555025271E+03 -0.97346349787E+02  0.46977654842E+03  0.57424765497E+03  0.46999998093E+01 0.  1.
</event>
<event>
 5   0  0.1617491E-03  0.8004489E+03  0.7818609E-02  0.9559368E-01
        1   -1    0    0  501    0  0.00000000000E+00  0.00000000000E+00  0.45697309004E+03  0.45697309007E+03  0.50400001928E-02 0.  1.
       -1   -1    0    0    0  501  0.00000000000E+00  0.00000000000E+00 -0.35052305142E+03  0.35052305146E+03  0.50400001928E-02 0. -1.
    10030    2    1    2    0    0  0.00000000000E+00  0.00000000000E+00  0.10645003861E+03  0.80749614153E+03  0.80044887898E+03 0.  0.
        1    1    3    3  502    0 -0.29470400886E+03  0.86587368121E+02  0.31206099770E+03  0.43786971974E+03  0.50400001928E-02 0.  1.
       -1    1    3    3    0  502  0.29470400886E+03 -0.86587368121E+02 -0.20561095909E+03  0.36962642178E+03  0.50400001928E-02 0. -1.
</event>
<event>
 5   0  0.2690809E-03  0.8010919E+03  0.7818609E-02  0.9558438E-01
        2   -1    0    0  501    0  0.00000000000E+00  0.00000000000E+00  0.11548427638E+04  0.11548427638E+04  0.25500000920E-02 0. -1.
       -2   -1    0    0    0  501  0.00000000000E+00  0.00000000000E+00 -0.13892546058E+03  0.13892546060E+03  0.25500000920E-02 0.  1.
    10030    2    1    2    0    0  0.00000000000E+00  0.00000000000E+00  0.10159173033E+04  0.12937682244E+04  0.80109191202E+03 0.  0.
        5    1    3    3  502    0 -0.25074239859E+03  0.15895109254E+03  0.73771954027E+02  0.30594377174E+03  0.46999998093E+01 0.  1.
       -5    1    3    3    0  502  0.25074239859E+03 -0.15895109254E+03  0.94214534923E+03  0.98782445270E+03  0.46999998093E+01 0. -1.
</event>
<event>
 5   0  0.1656051E-03  0.7998526E+03  0.7818609E-02  0.9560231E-01
        1   -1    0    0  501    0  0.00000000000E+00  0.00000000000E+00  0.60272659916E+03  0.60272659918E+03  0.50400001928E-02 0.  1.
       -1   -1    0    0    0  501  0.00000000000E+00  0.00000000000E+00 -0.26536249738E+03  0.26536249743E+03  0.50400001928E-02 0. -1.
    10030    2    1    2    0    0  0.00000000000E+00  0.00000000000E+00  0.33736410178E+03  0.86808909661E+03  0.79985257547E+03 0.  0.
        3    1    3    3  502    0  0.25679357514E+03  0.77815074300E+01  0.50132163568E+03  0.56331774754E+03  0.10100000352E+00 0.  1.
       -3    1    3    3    0  502 -0.25679357514E+03 -0.77815074300E+01 -0.16395753390E+03  0.30477134907E+03  0.10100000352E+00 0. -1.
</event>
<event>
 5   0  0.2768834E-03  0.7998815E+03  0.7818609E-02  0.9560189E-01
       -2   -1    0    0    0  501  0.00000000000E+00  0.00000000000E+00  0.12402540976E+03  0.12402540979E+03  0.25500000920E-02 0.  1.
        2   -1    0    0  501    0  0.00000000000E+00  0.00000000000E+00 -0.12896760172E+04  0.12896760172E+04  0.25500000920E-02 0. -1.
    10030    2    1    2    0    0  0.00000000000E+00  0.00000000000E+00 -0.11656506074E+04  0.14137014270E+04  0.79988148250E+03 0.  0.
        4    1    3    3  502    0  0.30910972302E+03  0.14168066033E+03 -0.95493827738E+03  0.10136720164E+04  0.12699999809E+01 0. -1.
       -4    1    3    3    0  502 -0.30910972302E+03 -0.14168066033E+03 -0.21071233005E+03  0.40002941055E+03  0.12699999809E+01 0.  1.
</event>
<event>
 5   0  0.1712793E-03  0.8003852E+03  0.7818609E-02  0.9559460E-01
       -1   -1    0    0    0  501  0.00000000000E+00  0.00000000000E+00  0.19816655569E+03  0.19816655575E+03  0.50400001928E-02 0. -1.
        1   -1    0    0  501    0  0.00000000000E+00  0.00000000000E+00 -0.80817938901E+03  0.80817938903E+03  0.50400001928E-02 0.  1.
    10030    2    1    2    0    0  0.00000000000E+00  0.00000000000E+00 -0.61001283332E+03  0.10063459448E+04  0.80038522210E+03 0.  0.
        4    1    3    3  502    0  0.32123403568E+03  0.96160756455E+02 -0.57965198263E+03  0.66965381402E+03  0.12699999809E+01 0.  1.
       -4    1    3    3    0  502 -0.32123403568E+03 -0.96160756455E+02 -0.30360850687E+02  0.33669213076E+03  0.12699999809E+01 0. -1.
</event>
<event>
 5   0  0.2768834E-03  0.8001388E+03  0.7818609E-02  0.9559816E-01
        2   -1    0    0  501    0  0.00000000000E+00  0.00000000000E+00  0.74022232816E+03  0.74022232817E+03  0.25500000920E-02 0.  1.
       -2   -1    0    0    0  501  0.00000000000E+00  0.00000000000E+00 -0.21622628454E+03  0.21622628455E+03  0.25500000920E-02 0. -1.
    10030    2    1    2    0    0  0.00000000000E+00  0.00000000000E+00  0.52399604362E+03  0.95644861272E+03  0.80013879736E+03 0.  0.
        4    1    3    3  502    0  0.45003387004E+02  0.14966826494E+03  0.70221928705E+03  0.71940213676E+03  0.12699999809E+01 0.  1.
       -4    1    3    3    0  502 -0.45003387004E+02 -0.14966826494E+03 -0.17822324342E+03  0.23704647596E+03  0.12699999809E+01 0. -1.
</event>
<event>
 5   0  0.2873212E-03  0.7983546E+03  0.7818609E-02  0.9562402E-01
       -2   -1    0    0    0  501  0.00000000000E+00  0.00000000000E+00  0.66988086380E+03  0.66988086380E+03  0.25500000920E-02 0.  1.
        2   -1    0    0  501    0  0.00000000000E+00  0.00000000000E+00 -0.23786697158E+03  0.23786697160E+03  0.25500000920E-02 0. -1.
    10030    2    1    2    0    0  0.00000000000E+00  0.00000000000E+00  0.43201389221E+03  0.90774783540E+03  0.79835463900E+03 0.  0.
        2    1    3    3  502    0  0.66901642443E+02  0.28226124690E+03  0.52779874763E+03  0.60226137122E+03  0.25500000920E-02 0.  1.
       -2    1    3    3    0  502 -0.66901642443E+02 -0.28226124690E+03 -0.95784855413E+02  0.30548646418E+03  0.25500000920E-02 0. -1.
</event>
<event>
 5   0  0.1617491E-03  0.7994485E+03  0.7818609E-02  0.9560816E-01
       -1   -1    0    0    0  501  0.00000000000E+00  0.00000000000E+00  0.30391701135E+03  0.30391701139E+03  0.50400001928E-02 0. -1.
        1   -1    0    0  501    0  0.00000000000E+00  0.00000000000E+00 -0.52573393995E+03  0.52573393998E+03  0.50400001928E-02 0.  1.
    10030    2    1    2    0    0  0.00000000000E+00  0.00000000000E+00 -0.22181692860E+03  0.82965095137E+03  0.79944852948E+03 0.  0.
        1    1    3    3  502    0 -0.83156742037E+02  0.38623994937E+03 -0.47926768629E+02  0.39798657943E+03  0.50400001928E-02 0. -1.
       -1    1    3    3    0  502  0.83156742037E+02 -0.38623994937E+03 -0.17389015997E+03  0.43166437193E+03  0.50400001928E-02 0.  1.
</event>
<event>
 5   0  0.1095350E-03  0.7999340E+03  0.7818609E-02  0.9560113E-01
        3   -1    0    0  501    0  0.00000000000E+00  0.00000000000E+00  0.21241393827E+03  0.21241396228E+03  0.10100000352E+00 0. -1.
       -3   -1    0    0    0  501  0.00000000000E+00  0.00000000000E+00 -0.75312194501E+03  0.75312195178E+03  0.10100000352E+00 0.  1.
    10030    2    1    2    0    0  0.00000000000E+00  0.00000000000E+00 -0.54070800674E+03  0.96553591407E+03  0.79993403028E+03 0.  0.
        2    1    3    3  502    0  0.55062697286E+02 -0.15696917579E+02 -0.74814974160E+03  0.75033747722E+03  0.25500000920E-02 0.  1.
       -2    1    3    3    0  502 -0.55062697286E+02  0.15696917579E+02  0.20744173486E+03  0.21519843685E+03  0.25500000920E-02 0. -1.
</event>
<event>
 5   0  0.1617491E-03  0.7989863E+03  0.7818609E-02  0.9561486E-01
        1   -1    0    0  501    0  0.00000000000E+00  0.00000000000E+00  0.41223186968E+03  0.41223186971E+03  0.50400001928E-02 0.  1.
       -1   -1    0    0    0  501  0.00000000000E+00  0.00000000000E+00 -0.38714810101E+03  0.38714810104E+03  0.50400001928E-02 0. -1.
    10030    2    1    2    0    0  0.00000000000E+00  0.00000000000E+00  0.25083768675E+02  0.79937997075E+03  0.79898632165E+03 0.  0.
        1    1    3    3  502    0 -0.29155734719E+03 -0.10335859605E+03 -0.24037922232E+03  0.39175356620E+03  0.50400001928E-02 0. -1.
       -1    1    3    3    0  502  0.29155734719E+03  0.10335859605E+03  0.26546299100E+03  0.40762640456E+03  0.50400001928E-02 0.  1.
</event>
<event>
 5   0  0.2690809E-03  0.8008413E+03  0.7818609E-02  0.9558800E-01
        2   -1    0    0  501    0  0.00000000000E+00  0.00000000000E+00  0.21168426532E+04  0.21168426532E+04  0.25500000920E-02 0.  1.
       -2   -1    0    0    0  501  0.00000000000E+00  0.00000000000E+00 -0.75743327417E+02  0.75743327460E+02  0.25500000920E-02 0. -1.
    10030    2    1    2    0    0  0.00000000000E+00  0.00000000000E+00  0.20410993258E+04  0.21925859807E+04  0.80084132316E+03 0.  0.
        5    1    3    3  502    0  0.26015979870E+03 -0.16262458122E+03  0.17249005973E+04  0.17519800329E+04  0.46999998093E+01 0.  1.
       -5    1    3    3    0  502 -0.26015979870E+03  0.16262458122E+03  0.31619872853E+03  0.44060594776E+03  0.46999998093E+01 0. -1.
</event>
<event>
 5   0  0.2763587E-03  0.8012385E+03  0.7818609E-02  0.9558226E-01
        2   -1    0    0  501    0  0.00000000000E+00  0.00000000000E+00  0.88705452786E+03  0.88705452786E+03  0.25500000920E-02 0. -1.
       -2   -1    0    0    0  501  0.00000000000E+00  0.00000000000E+00 -0.18093114142E+03  0.18093114144E+03  0.25500000920E-02 0.  1.
    10030    2    1    2    0    0  0.00000000000E+00  0.00000000000E+00  0.70612338643E+03  0.10679856693E+04  0.80123851190E+03 0.  0.
        3    1    3    3  502    0  0.17668153541E+03  0.29692320742E+02 -0.12455815417E+03  0.21820344369E+03  0.10100000352E+00 0.  1.
       -3    1    3    3    0  502 -0.17668153541E+03 -0.29692320742E+02  0.83068154060E+03  0.84978222561E+03  0.10100000352E+00 0. -1.
</event>
<event>
 5   0  0.2690809E-03  0.8004298E+03  0.7818609E-02  0.9559395E-01
        2   -1    0    0  501    0  0.00000000000E+00  0.00000000000E+00  0.42021458471E+03  0.42021458472E+03  0.25500000920E-02 0.  1.
       -2   -1    0    0    0  501  0.00000000000E+00  0.00000000000E+00 -0.38116705956E+03  0.38116705956E+03  0.25500000920E-02 0. -1.
    10030    2    1    2    0    0  0.00000000000E+00  0.00000000000E+00  0.39047525158E+02  0.80138164429E+03  0.80042977867E+03 0.  0.
        5    1    3    3  502    0  0.30606514742E+03  0.25431004311E+03 -0.22957759640E+02  0.39862089913E+03  0.46999998093E+01 0. -1.
       -5    1    3    3    0  502 -0.30606514742E+03 -0.25431004311E+03  0.62005284798E+02  0.40276074516E+03  0.46999998093E+01 0.  1.
</event>
<event>
 5   0  0.1637228E-03  0.8030135E+03  0.7818609E-02  0.9555665E-01
       -1   -1    0    0    0  501  0.00000000000E+00  0.00000000000E+00  0.47857733236E+03  0.47857733239E+03  0.50400001928E-02 0.  1.
        1   -1    0    0  501    0  0.00000000000E+00  0.00000000000E+00 -0.33684766703E+03  0.33684766706E+03  0.50400001928E-02 0. -1.
    10030    2    1    2    0    0  0.00000000000E+00  0.00000000000E+00  0.14172966533E+03  0.81542499945E+03  0.80301346919E+03 0.  0.
        2    1    3    3  502    0  0.17846360430E+03  0.14458398255E+03 -0.26354860684E+03  0.34958783480E+03  0.25500000920E-02 0. -1.
       -2    1    3    3    0  502 -0.17846360430E+03 -0.14458398255E+03  0.40527827217E+03  0.46583716465E+03  0.25500000920E-02 0.  1.
</event>
<event>
 5   0  0.2768834E-03  0.7927062E+03  0.7818609E-02  0.9570635E-01
        2   -1    0    0  501    0  0.00000000000E+00  0.00000000000E+00  0.54181215662E+03  0.54181215663E+03  0.25500000920E-02 0. -1.
       -2   -1    0    0    0  501  0.00000000000E+00  0.00000000000E+00 -0.28994510193E+03  0.28994510194E+03  0.25500000920E-02 0.  1.
    10030    2    1    2    0    0  0.00000000000E+00  0.00000000000E+00  0.25186705470E+03  0.83175725857E+03  0.79270620279E+03 0.  0.
        4    1    3    3  502    0 -0.23390388829E+02 -0.39492625547E+03  0.10065716517E+03  0.40822461385E+03  0.12699999809E+01 0.  1.
       -4    1    3    3    0  502  0.23390388829E+02  0.39492625547E+03  0.15120988953E+03  0.42353264472E+03  0.12699999809E+01 0. -1.
</event>
<event>
 5   0  0.1617491E-03  0.7986126E+03  0.7818609E-02  0.9562028E-01
       -1   -1    0    0    0  501  0.00000000000E+00  0.00000000000E+00  0.35661768010E+03  0.35661768014E+03  0.50400001928E-02 0.  1.
        1   -1    0    0  501    0  0.00000000000E+00  0.00000000000E+00 -0.44710489331E+03  0.44710489334E+03  0.50400001928E-02 0. -1.
    10030    2    1    2    0    0  0.00000000000E+00  0.00000000000E+00 -0.90487213212E+02  0.80372257348E+03  0.79861257150E+03 0.  0.
        1    1    3    3  502    0 -0.19388497243E+03  0.10329081308E+03 -0.38082153445E+03  0.43964237254E+03  0.50400001928E-02 0. -1.
       -1    1    3    3    0  502  0.19388497243E+03 -0.10329081308E+03  0.29033432124E+03  0.36408020094E+03  0.50400001928E-02 0.  1.
</event>
<event>
 5   0  0.2763587E-03  0.8009668E+03  0.7818609E-02  0.9558619E-01
       -2   -1    0    0    0  501  0.00000000000E+00  0.00000000000E+00  0.64924978272E+03  0.64924978273E+03  0.25500000920E-02 0. -1.
        2   -1    0    0  501    0  0.00000000000E+00  0.00000000000E+00 -0.24703426707E+03  0.24703426709E+03  0.25500000920E-02 0.  1.
    10030    2    1    2    0    0  0.00000000000E+00  0.00000000000E+00  0.40221551565E+03  0.89628404981E+03  0.80096677641E+03 0.  0.
        3    1    3    3  502    0  0.14794850762E+03  0.31521723825E+03 -0.20263309139E+02  0.34879977078E+03  0.10100000352E+00 0.  1.
       -3    1    3    3    0  502 -0.14794850762E+03 -0.31521723825E+03  0.42247882479E+03  0.54748427904E+03  0.10100000352E+00 0. -1.
</event>
<event>
 5   0  0.1617491E-03  0.7990186E+03  0.7818609E-02  0.9561439E-01
        1   -1    0    0  501    0  0.00000000000E+00  0.00000000000E+00  0.24212097314E+03  0.24212097320E+03  0.50400001928E-02 0.  1.
       -1   -1    0    0    0  501  0.00000000000E+00  0.00000000000E+00 -0.65920626512E+03  0.65920626514E+03  0.50400001928E-02 0. -1.
    10030    2    1    2    0    0  0.00000000000E+00  0.00000000000E+00 -0.41708529198E+03  0.90132723834E+03  0.79901855409E+03 0.  0.
        1    1    3    3  502    0 -0.59891139648E+02 -0.94913255490E+01  0.23689954144E+03  0.24453716820E+03  0.50400001928E-02 0.  1.
       -1    1    3    3    0  502  0.59891139648E+02  0.94913255490E+01 -0.65398483342E+03  0.65679007014E+03  0.50400001928E-02 0. -1.
</event>
<event>
 5   0  0.2690809E-03  0.8003386E+03  0.7818609E-02  0.9559527E-01
        2   -1    0    0  501    0  0.00000000000E+00  0.00000000000E+00  0.69224403915E+03  0.69224403915E+03  0.25500000920E-02 0.  1.
       -2   -1    0    0    0  501  0.00000000000E+00  0.00000000000E+00 -0.23132805852E+03  0.23132805853E+03  0.25500000920E-02 0. -1.
    10030    2    1    2    0    0  0.00000000000E+00  0.00000000000E+00  0.46091598063E+03  0.92357209769E+03  0.80033860236E+03 0.  0.
        5    1    3    3  502    0  0.26464480846E+03 -0.28677317954E+03  0.12829586256E+03  0.41080122869E+03  0.46999998093E+01 0. -1.
       -5    1    3    3    0  502 -0.26464480846E+03  0.28677317954E+03  0.33262011807E+03  0.51277086899E+03  0.46999998093E+01 0.  1.
</event>
<event>
 5   0  0.1095350E-03  0.8037978E+03  0.7818609E-02  0.9554536E-01
       -3   -1    0    0    0  501  0.00000000000E+00  0.00000000000E+00  0.24431571447E+03  0.24431573534E+03  0.10100000352E+00 0.  1.
        3   -1    0    0  501    0  0.00000000000E+00  0.00000000000E+00 -0.66112297205E+03  0.66112297976E+03  0.10100000352E+00 0. -1.
    10030    2    1    2    0    0  0.00000000000E+00  0.00000000000E+00 -0.41680725758E+03  0.90543871511E+03  0.80379784575E+03 0.  0.
        2    1    3    3  502    0 -0.30403653246E+03 -0.25966912584E+03 -0.25424998501E+03  0.47382414762E+03  0.25500000920E-02 0.  1.
       -2    1    3    3    0  502  0.30403653246E+03  0.25966912584E+03 -0.16255727257E+03  0.43161456748E+03  0.25500000920E-02 0. -1.
</event>
<event>
 5   0  0.1712793E-03  0.8007124E+03  0.7818609E-02  0.9558986E-01
       -1   -1    0    0    0  501  0.00000000000E+00  0.00000000000E+00  0.45313083308E+03  0.45313083311E+03  0.50400001928E-02 0. -1.
        1   -1    0    0  501    0  0.00000000000E+00  0.00000000000E+00 -0.35372806566E+03  0.35372806569E+03  0.50400001928E-02 0.  1.
    10030    2    1    2    0    0  0.00000000000E+00  0.00000000000E+00  0.99402767424E+02  0.80685889880E+03  0.80071241554E+03 0.  0.
        4    1    3    3  502    0  0.37050540316E+03 -0.13128387426E+03 -0.26867232809E+02  0.39399640926E+03  0.12699999809E+01 0. -1.
       -4    1    3    3    0  502 -0.37050540316E+03  0.13128387426E+03  0.12627000023E+03  0.41286248954E+03  0.12699999809E+01 0.  1.
</event>
<event>
 5   0  0.2873212E-03  0.7985443E+03  0.7818609E-02  0.9562127E-01
        2   -1    0    0  501    0  0.00000000000E+00  0.00000000000E+00  0.13983391291E+04  0.13983391291E+04  0.25500000920E-02 0. -1.
       -2   -1    0    0    0  501  0.00000000000E+00  0.00000000000E+00 -0.11400541999E+03  0.11400542002E+03  0.25500000920E-02 0.  1.
    10030    2    1    2    0    0  0.00000000000E+00  0.00000000000E+00  0.12843337091E+04  0.15123445491E+04  0.79854427485E+03 0.  0.
        2    1    3    3  502    0 -0.15262716591E+03  0.31321178978E+03  0.10114561561E+04  0.10697851340E+04  0.25500000920E-02 0.  1.
       -2    1    3    3    0  502  0.15262716591E+03 -0.31321178978E+03  0.27287755300E+03  0.44255941518E+03  0.25500000920E-02 0. -1.
</event>
<event>
 5   0  0.2763587E-03  0.7989074E+03  0.7818609E-02  0.9561600E-01
       -2   -1    0    0    0  501  0.00000000000E+00  0.00000000000E+00  0.47817379754E+03  0.47817379755E+03  0.25500000920E-02 0.  1.
        2   -1    0    0  501    0  0.00000000000E+00  0.00000000000E+00 -0.33369298731E+03  0.33369298732E+03  0.25500000920E-02 0. -1.
    10030    2    1    2    0    0  0.00000000000E+00  0.00000000000E+00  0.14448081023E+03  0.81186678486E+03  0.79890736124E+03 0.  0.
        3    1    3    3  502    0  0.59611274228E+01 -0.36627679262E+03 -0.89619805635E+02  0.37712855052E+03  0.10100000352E+00 0. -1.
       -3    1    3    3    0  502 -0.59611274228E+01  0.36627679262E+03  0.23410061587E+03  0.43473823435E+03  0.10100000352E+00 0.  1.
</event>
<event>
 5   0  0.1640035E-03  0.7997487E+03  0.7818609E-02  0.9560381E-01
       -1   -1    0    0    0  501  0.00000000000E+00  0.00000000000E+00  0.26151897042E+03  0.26151897047E+03  0.50400001928E-02 0.  1.
        1   -1    0    0  501    0  0.00000000000E+00  0.00000000000E+00 -0.61142595245E+03  0.61142595247E+03  0.50400001928E-02 0. -1.
    10030    2    1    2    0    0  0.00000000000E+00  0.00000000000E+00 -0.34990698203E+03  0.87294492294E+03  0.79974867453E+03 0.  0.
        5    1    3    3  502    0 -0.32316238574E+03 -0.17388617787E+03 -0.34825185261E+03  0.50593653085E+03  0.46999998093E+01 0. -1.
       -5    1    3    3    0  502  0.32316238574E+03  0.17388617787E+03 -0.16551294152E+01  0.36700839208E+03  0.46999998093E+01 0.  1.
</event>
<event>
 5   0  0.1095350E-03  0.7996898E+03  0.7818609E-02  0.9560466E-01
        4   -1    0    0  501    0  0.00000000000E+00  0.00000000000E+00  0.35066768578E+03  0.35066998553E+03  0.12699999809E+01 0. -1.
       -4   -1    0    0    0  501  0.00000000000E+00  0.00000000000E+00 -0.45591396523E+03  0.45591573409E+03  0.12699999809E+01 0.  1.
    10030    2    1    2    0    0  0.00000000000E+00  0.00000000000E+00 -0.10524627945E+03  0.80658571962E+03  0.79968977970E+03 0.  0.
        4    1    3    3  502    0 -0.14716082515E+03 -0.33923937409E+03  0.10078929384E+03  0.38327503968E+03  0.12699999809E+01 0. -1.
       -4    1    3    3    0  502  0.14716082515E+03  0.33923937409E+03 -0.20603557329E+03  0.42331067994E+03  0.12699999809E+01 0.  1.
</event>
<event>
 5   0  0.2910501E-03  0.7958232E+03  0.7818609E-02  0.9566083E-01
        2   -1    0    0  501    0  0.00000000000E+00  0.00000000000E+00  0.97685995296E+03  0.97685995296E+03  0.25500000920E-02 0. -1.
       -2   -1    0    0    0  501  0.00000000000E+00  0.00000000000E+00 -0.16208429416E+03  0.16208429418E+03  0.25500000920E-02 0.  1.
    10030    2    1    2    0    0  0.00000000000E+00  0.00000000000E+00  0.81477565880E+03  0.11389442471E+04  0.79582323660E+03 0.  0.
        1    1    3    3  502    0 -0.35621992610E+03  0.13535039389E+03  0.57132375406E+03  0.68674827764E+03  0.50400001928E-02 0. -1.
       -1    1    3    3    0  502  0.35621992610E+03 -0.13535039389E+03  0.24345190474E+03  0.45219596949E+03  0.50400001928E-02 0.  1.
</event>
<event>
 5   0  0.2873212E-03  0.7991635E+03  0.7818609E-02  0.9561229E-01
       -2   -1    0    0    0  501  0.00000000000E+00  0.00000000000E+00  0.20346867452E+03  0.20346867454E+03  0.25500000920E-02 0.  1.
        2   -1    0    0  501    0  0.00000000000E+00  0.00000000000E+00 -0.78471827028E+03  0.78471827029E+03  0.25500000920E-02 0. -1.
    10030    2    1    2    0    0  0.00000000000E+00  0.00000000000E+00 -0.58124959576E+03  0.98818694483E+03  0.79916352854E+03 0.  0.
        2    1    3    3  502    0 -0.19147834698E+03  0.12580538577E+03  0.11418355065E+03  0.25598600684E+03  0.25500000920E-02 0.  1.
       -2    1    3    3    0  502  0.19147834698E+03 -0.12580538577E+03 -0.69543314641E+03  0.73220093799E+03  0.25500000920E-02 0. -1.
</event>
<event>
 5   0  0.1095350E-03  0.7998587E+03  0.7818609E-02  0.9560222E-01
        4   -1    0    0  501    0  0.00000000000E+00  0.00000000000E+00  0.82075581250E+03  0.82075679507E+03  0.12699999809E+01 0.  1.
       -4   -1    0    0    0  501  0.00000000000E+00  0.00000000000E+00 -0.19487022710E+03  0.19487436546E+03  0.12699999809E+01 0. -1.
    10030    2    1    2    0    0  0.00000000000E+00  0.00000000000E+00  0.62588558540E+03  0.10156311605E+04  0.79985866766E+03 0.  0.
        5    1    3    3  502    0 -0.38394421877E+03 -0.60633179932E+02  0.43227241611E+03  0.58135279939E+03  0.46999998093E+01 0.  1.
       -5    1    3    3    0  502  0.38394421877E+03  0.60633179932E+02  0.19361316929E+03  0.43427836114E+03  0.46999998093E+01 0. -1.
</event>
<event>
 5   0  0.2768834E-03  0.7996128E+03  0.7818609E-02  0.9560578E-01
       -2   -1    0    0    0  501  0.00000000000E+00  0.00000000000E+00  0.33026492514E+03  0.33026492515E+03  0.25500000920E-02 0.  1.
        2   -1    0    0  501    0  0.00000000000E+00  0.00000000000E+00 -0.48399075083E+03  0.48399075084E+03  0.25500000920E-02 0. -1.
    10030    2    1    2    0    0  0.00000000000E+00  0.00000000000E+00 -0.15372582569E+03  0.81425567599E+03  0.79961282906E+03 0.  0.
        4    1    3    3  502    0 -0.30125418304E+03 -0.14563568226E+03  0.14595846163E+03  0.36506070750E+03  0.12699999809E+01 0.  1.
       -4    1    3    3    0  502  0.30125418304E+03  0.14563568226E+03 -0.29968428732E+03  0.44919496848E+03  0.12699999809E+01 0. -1.
</event>
<event>
 5   0  0.2690809E-03  0.7996629E+03  0.7818609E-02  0.9560505E-01
        2   -1    0    0  501    0  0.00000000000E+00  0.00000000000E+00  0.22737494961E+04  0.22737494961E+04  0.25500000920E-02 0. -1.
       -2   -1    0    0    0  501  0.00000000000E+00  0.00000000000E+00 -0.70309061010E+02  0.70309061056E+02  0.25500000920E-02 0.  1.
    10030    2    1    2    0    0  0.00000000000E+00  0.00000000000E+00  0.22034404350E+04  0.23440585571E+04  0.79966290922E+03 0.  0.
        5    1    3    3  502    0 -0.22093015617E+03 -0.32471519518E+03  0.13209423056E+04  0.13781004160E+04  0.46999998093E+01 0.  1.
       -5    1    3    3    0  502  0.22093015617E+03  0.32471519518E+03  0.88249812945E+03  0.96595814110E+03  0.46999998093E+01 0. -1.
</event>
<event>
 5   0  0.2768834E-03  0.8012768E+03  0.7818609E-02  0.9558171E-01
        2   -1    0    0  501    0  0.00000000000E+00  0.00000000000E+00  0.50680717133E+03  0.50680717134E+03  0.25500000920E-02 0.  1.
       -2   -1    0    0    0  501  0.00000000000E+00  0.00000000000E+00 -0.31671047353E+03  0.31671047354E+03  0.25500000920E-02 0. -1.
    10030    2    1    2    0    0  0.00000000000E+00  0.00000000000E+00  0.19009669780E+03  0.82351764488E+03  0.80127682914E+03 0.  0.
        4    1    3    3  502    0 -0.20637288975E+03  0.21747617118E+03 -0.17807956385E+03  0.34871133996E+03  0.12699999809E+01 0. -1.
       -4    1    3    3    0  502  0.20637288975E+03 -0.21747617118E+03  0.36817626165E+03  0.47480630492E+03  0.12699999809E+01 0.  1.
</event>
<event>
 5   0  0.2873212E-03  0.7992748E+03  0.7818609E-02  0.9561067E-01
        2   -1    0    0  501    0  0.00000000000E+00  0.00000000000E+00  0.43964874937E+03  0.43964874938E+03  0.25500000920E-02 0. -1.
       -2   -1    0    0    0  501  0.00000000000E+00  0.00000000000E+00 -0.36326742002E+03  0.36326742003E+03  0.25500000920E-02 0.  1.
    10030    2    1    2    0    0  0.00000000000E+00  0.00000000000E+00  0.76381329354E+02  0.80291616940E+03  0.79927483860E+03 0.  0.
        2    1    3    3  502    0  0.16923521580E+03  0.11211602490E+03  0.38399651127E+03  0.43435455792E+03  0.25500000920E-02 0. -1.
       -2    1    3    3    0  502 -0.16923521580E+03 -0.11211602490E+03 -0.30761518192E+03  0.36856161149E+03  0.25500000920E-02 0.  1.
</event>
<event>
 5   0  0.2690809E-03  0.7997958E+03  0.7818609E-02  0.9560313E-01
        2   -1    0    0  501    0  0.00000000000E+00  0.00000000000E+00  0.86237852451E+03  0.86237852451E+03  0.25500000920E-02 0. -1.
       -2   -1    0    0    0  501  0.00000000000E+00  0.00000000000E+00 -0.18543865864E+03  0.18543865866E+03  0.25500000920E-02 0.  1.
    10030    2    1    2    0    0  0.00000000000E+00  0.00000000000E+00  0.67693986586E+03  0.10478171832E+04  0.79979576603E+03 0.  0.
        5    1    3    3  502    0  0.36813003379E+03  0.15156191523E+03  0.38758564419E+03  0.55563968316E+03  0.46999998093E+01 0. -1.
       -5    1    3    3    0  502 -0.36813003379E+03 -0.15156191523E+03  0.28935422168E+03  0.49217750002E+03  0.46999998093E+01 0.  1.
</event>
<event>
 5   0  0.1617491E-03  0.8007653E+03  0.7818609E-02  0.9558910E-01
        1   -1    0    0  501    0  0.00000000000E+00  0.00000000000E+00  0.14321156325E+04  0.14321156325E+04  0.50400001928E-02 0. -1.
       -1   -1    0    0    0  501  0.00000000000E+00  0.00000000000E+00 -0.11193667849E+03  0.11193667861E+03  0.50400001928E-02 0.  1.
    10030    2    1    2    0    0  0.00000000000E+00  0.00000000000E+00  0.13201789540E+04  0.15440523111E+04  0.80076530199E+03 0.  0.
        1    1    3    3  502    0 -0.20273490987E+03 -0.24427012662E+03  0.11305790219E+04  0.11742990519E+04  0.50400001928E-02 0. -1.
       -1    1    3    3    0  502  0.20273490987E+03  0.24427012662E+03  0.18959993210E+03  0.36975325924E+03  0.50400001928E-02 0.  1.
</event>
<event>
 5   0  0.2763587E-03  0.7988121E+03  0.7818609E-02  0.9561738E-01
       -2   -1    0    0    0  501  0.00000000000E+00  0.00000000000E+00  0.34185976771E+03  0.34185976772E+03  0.25500000920E-02 0.  1.
        2   -1    0    0  501    0  0.00000000000E+00  0.00000000000E+00 -0.46663928569E+03  0.46663928570E+03  0.25500000920E-02 0. -1.
    10030    2    1    2    0    0  0.00000000000E+00  0.00000000000E+00 -0.12477951798E+03  0.80849905342E+03  0.79881211262E+03 0.  0.
        3    1    3    3  502    0 -0.11352012808E+03 -0.30801983551E+03 -0.29266170107E+03  0.43978849465E+03  0.10100000352E+00 0. -1.
       -3    1    3    3    0  502  0.11352012808E+03  0.30801983551E+03  0.16788218309E+03  0.36871055877E+03  0.10100000352E+00 0.  1.
</event>
<event>
 5   0  0.1617491E-03  0.7984935E+03  0.7818609E-02  0.9562200E-01
        1   -1    0    0  501    0  0.00000000000E+00  0.00000000000E+00  0.10065943542E+04  0.10065943542E+04  0.50400001928E-02 0. -1.
       -1   -1    0    0    0  501  0.00000000000E+00  0.00000000000E+00 -0.15835370789E+03  0.15835370797E+03  0.50400001928E-02 0.  1.
    10030    2    1    2    0    0  0.00000000000E+00  0.00000000000E+00  0.84824064628E+03  0.11649480622E+04  0.79849345240E+03 0.  0.
        1    1    3    3  502    0  0.13647782674E+03  0.18113341870E+03 -0.55250438119E+02  0.23342691255E+03  0.50400001928E-02 0.  1.
       -1    1    3    3    0  502 -0.13647782674E+03 -0.18113341870E+03  0.90349108440E+03  0.93152114962E+03  0.50400001928E-02 0. -1.
</event>
<event>
 5   0  0.2873212E-03  0.8006479E+03  0.7818609E-02  0.9559080E-01
        2   -1    0    0  501    0  0.00000000000E+00  0.00000000000E+00  0.29366184196E+04  0.29366184196E+04  0.25500000920E-02 0.  1.
       -2   -1    0    0    0  501  0.00000000000E+00  0.00000000000E+00 -0.54572719421E+02  0.54572719480E+02  0.25500000920E-02 0. -1.
    10030    2    1    2    0    0  0.00000000000E+00  0.00000000000E+00  0.28820457002E+04  0.29911911391E+04  0.80064787054E+03 0.  0.
        2    1    3    3  502    0  0.17711998350E+03  0.14427290179E+03  0.26692011111E+04  0.26789588892E+04  0.25500000920E-02 0.  1.
       -2    1    3    3    0  502 -0.17711998350E+03 -0.14427290179E+03  0.21284458915E+03  0.31223224991E+03  0.25500000920E-02 0. -1.
</event>
<event>
 5   0  0.2690809E-03  0.7989260E+03  0.7818609E-02  0.9561573E-01
       -2   -1    0    0    0  501  0.00000000000E+00  0.00000000000E+00  0.19709731566E+03  0.19709731568E+03  0.25500000920E-02 0. -1.
        2   -1    0    0  501    0  0.00000000000E+00  0.00000000000E+00 -0.80960350403E+03  0.80960350404E+03  0.25500000920E-02 0.  1.
    10030    2    1    2    0    0  0.00000000000E+00  0.00000000000E+00 -0.61250618837E+03  0.10067008197E+04  0.79892597255E+03 0.  0.
        5    1    3    3  502    0  0.35797356035E+03  0.17656962346E+03 -0.28728141300E+03  0.49180748478E+03  0.46999998093E+01 0.  1.
       -5    1    3    3    0  502 -0.35797356035E+03 -0.17656962346E+03 -0.32522477538E+03  0.51489333493E+03  0.46999998093E+01 0. -1.
</event>
<event>
 5   0  0.1617491E-03  0.7991695E+03  0.7818609E-02  0.9561220E-01
       -1   -1    0    0    0  501  0.00000000000E+00  0.00000000000E+00  0.26530413522E+03  0.26530413527E+03  0.50400001928E-02 0. -1.
        1   -1    0    0  501    0  0.00000000000E+00  0.00000000000E+00 -0.60182988088E+03  0.60182988090E+03  0.50400001928E-02 0.  1.
    10030    2    1    2    0    0  0.00000000000E+00  0.00000000000E+00 -0.33652574566E+03  0.86713401618E+03  0.79916945920E+03 0.  0.
        1    1    3    3  502    0 -0.68622114686E+02 -0.39379308008E+02  0.25672024302E+03  0.26863545508E+03  0.50400001928E-02 0. -1.
       -1    1    3    3    0  502  0.68622114686E+02  0.39379308008E+02 -0.59324598868E+03  0.59849856110E+03  0.50400001928E-02 0.  1.
</event>
<event>
 5   0  0.1712793E-03  0.8011035E+03  0.7818609E-02  0.9558421E-01
       -1   -1    0    0    0  501  0.00000000000E+00  0.00000000000E+00  0.21068974428E+03  0.21068974434E+03  0.50400001928E-02 0. -1.
        1   -1    0    0  501    0  0.00000000000E+00  0.00000000000E+00 -0.76150689780E+03  0.76150689781E+03  0.50400001928E-02 0.  1.
    10030    2    1    2    0    0  0.00000000000E+00  0.00000000000E+00 -0.55081715352E+03  0.97219664215E+03  0.80110347297E+03 0.  0.
        4    1    3    3  502    0  0.35829883277E+03  0.71092955790E+02 -0.75969498821E+02  0.37310218383E+03  0.12699999809E+01 0.  1.
       -4    1    3    3    0  502 -0.35829883277E+03 -0.71092955790E+02 -0.47484765470E+03  0.59909445833E+03  0.12699999809E+01 0. -1.
</event>
<event>
 5   0  0.1656051E-03  0.8003410E+03  0.7818609E-02  0.9559524E-01
       -1   -1    0    0    0  501  0.00000000000E+00  0.00000000000E+00  0.15093502933E+03  0.15093502942E+03  0.50400001928E-02 0.  1.
        1   -1    0    0  501    0  0.00000000000E+00  0.00000000000E+00 -0.10609627558E+04  0.10609627559E+04  0.50400001928E-02 0. -1.
    10030    2    1    2    0    0  0.00000000000E+00  0.00000000000E+00 -0.91002772651E+03  0.12118977853E+04  0.80034103915E+03 0.  0.
        3    1    3    3  502    0  0.13103277237E+03  0.45219139743E+02 -0.10234483544E+04  0.10327927684E+04  0.10100000352E+00 0. -1.
       -3    1    3    3    0  502 -0.13103277237E+03 -0.45219139743E+02  0.11342062793E+03  0.17910501689E+03  0.10100000352E+00 0.  1.
</event>
<event>
 5   0  0.1095350E-03  0.7997450E+03  0.7818609E-02  0.9560386E-01
       -3   -1    0    0    0  501  0.00000000000E+00  0.00000000000E+00  0.79304116255E+03  0.79304116898E+03  0.10100000352E+00 0. -1.
        3   -1    0    0  501    0  0.00000000000E+00  0.00000000000E+00 -0.20162636357E+03  0.20162638887E+03  0.10100000352E+00 0.  1.
    10030    2    1    2    0    0  0.00000000000E+00  0.00000000000E+00  0.59141479898E+03  0.99466755785E+03  0.79974501323E+03 0.  0.
        2    1    3    3  502    0  0.33589692471E+03  0.19854168461E+03  0.40450703199E+03  0.56202445097E+03  0.25500000920E-02 0. -1.
       -2    1    3    3    0  502 -0.33589692471E+03 -0.19854168461E+03  0.18690776699E+03  0.43264310688E+03  0.25500000920E-02 0.  1.
</event>
<event>
 5   0  0.1640035E-03  0.8026555E+03  0.7818609E-02  0.9556181E-01
        1   -1    0    0  501    0  0.00000000000E+00  0.00000000000E+00  0.12429923334E+04  0.12429923334E+04  0.50400001928E-02 0. -1.
       -1   -1    0    0    0  501  0.00000000000E+00  0.00000000000E+00 -0.12957759012E+03  0.12957759021E+03  0.50400001928E-02 0.  1.
    10030    2    1    2    0    0  0.00000000000E+00  0.00000000000E+00  0.11134147432E+04  0.13725699236E+04  0.80265547071E+03 0.  0.
        5    1    3    3  502    0 -0.32198054735E+03  0.88214231130E+02  0.93750689572E+03  0.99518565754E+03  0.46999998093E+01 0. -1.
       -5    1    3    3    0  502  0.32198054735E+03 -0.88214231130E+02  0.17590784753E+03  0.37738426605E+03  0.46999998093E+01 0.  1.
</event>
<event>
 5   0  0.1656051E-03  0.7985801E+03  0.7818609E-02  0.9562075E-01
        1   -1    0    0  501    0  0.00000000000E+00  0.00000000000E+00  0.47800520619E+03  0.47800520622E+03  0.50400001928E-02 0.  1.
       -1   -1    0    0    0  501  0.00000000000E+00  0.00000000000E+00 -0.33353729310E+03  0.33353729314E+03  0.50400001928E-02 0. -1.
    10030    2    1    2    0    0  0.00000000000E+00  0.00000000000E+00  0.14446791309E+03  0.81154249936E+03  0.79858014648E+03 0.  0.
        3    1    3    3  502    0  0.36102107476E+02 -0.27841152860E+03  0.36077257645E+03  0.45713586989E+03  0.10100000352E+00 0.  1.
       -3    1    3    3    0  502 -0.36102107476E+02  0.27841152860E+03 -0.21630466335E+03  0.35440662947E+03  0.10100000352E+00 0. -1.
</event>
<event>
 5   0  0.2690809E-03  0.8002877E+03  0.7818609E-02  0.9559601E-01
       -2   -1    0    0    0  501  0.00000000000E+00  0.00000000000E+00  0.17418241685E+03  0.17418241687E+03  0.25500000920E-02 0.  1.
        2   -1    0    0  501    0  0.00000000000E+00  0.00000000000E+00 -0.91923799536E+03  0.91923799536E+03  0.25500000920E-02 0. -1.
    10030    2    1    2    0    0  0.00000000000E+00  0.00000000000E+00 -0.74505557851E+03  0.10934204122E+04  0.80028768753E+03 0.  0.
        5    1    3    3  502    0 -0.88444956971E+01  0.39380490039E+03 -0.27657143175E+03  0.48132563980E+03  0.46999998093E+01 0.  1.
       -5    1    3    3    0  502  0.88444956971E+01 -0.39380490039E+03 -0.46848414676E+03  0.61209477243E+03  0.46999998093E+01 0. -1.
</event>
<event>
 5   0  0.1640035E-03  0.7997332E+03  0.7818609E-02  0.9560403E-01
        1   -1    0    0  501    0  0.00000000000E+00  0.00000000000E+00  0.22379870653E+04  0.22379870653E+04  0.50400001928E-02 0. -1.
       -1   -1    0    0    0  501  0.00000000000E+00  0.00000000000E+00 -0.71445132782E+02  0.71445132960E+02  0.50400001928E-02 0.  1.
    10030    2    1    2    0    0  0.00000000000E+00  0.00000000000E+00  0.21665419325E+04  0.23094321982E+04  0.79973316364E+03 0.  0.
        5    1    3    3  502    0 -0.15146825849E+03 -0.52947851625E+02  0.21408555599E+04  0.21468653257E+04  0.46999998093E+01 0. -1.
       -5    1    3    3    0  502  0.15146825849E+03  0.52947851625E+02  0.25686372618E+02  0.16256687257E+03  0.46999998093E+01 0.  1.
</event>
<event>
 5   0  0.2690809E-03  0.8007951E+03  0.7818609E-02  0.9558867E-01
       -2   -1    0    0    0  501  0.00000000000E+00  0.00000000000E+00  0.17553236337E+03  0.17553236339E+03  0.25500000920E-02 0.  1.
        2   -1    0    0  501    0  0.00000000000E+00  0.00000000000E+00 -0.91332567137E+03  0.91332567138E+03  0.25500000920E-02 0. -1.
    10030    2    1    2    0    0  0.00000000000E+00  0.00000000000E+00 -0.73779330800E+03  0.10888580348E+04  0.80079513893E+03 0.  0.
        5    1    3    3  502    0 -0.25127802743E+03  0.12526268456E+03  0.19195319099E+02  0.28146391863E+03  0.46999998093E+01 0.  1.
       -5    1    3    3    0  502  0.25127802743E+03 -0.12526268456E+03 -0.75698862710E+03  0.80739411614E+03  0.46999998093E+01 0. -1.
</event>
<event>
 5   0  0.1712793E-03  0.7888006E+03  0.7818609E-02  0.9576371E-01
       -1   -1    0    0    0  501  0.00000000000E+00  0.00000000000E+00  0.11125115624E+03  0.11125115635E+03  0.50400001928E-02 0.  1.
        1   -1    0    0  501    0  0.00000000000E+00  0.00000000000E+00 -0.13982021677E+04  0.13982021677E+04  0.50400001928E-02 0. -1.
    10030    2    1    2    0    0  0.00000000000E+00  0.00000000000E+00 -0.12869510115E+04  0.15094533241E+04  0.78880062855E+03 0.  0.
        4    1    3    3  502    0  0.59237152034E+02 -0.33524272672E+03 -0.26241675597E+03  0.42983821691E+03  0.12699999809E+01 0.  1.
       -4    1    3    3    0  502 -0.59237152034E+02  0.33524272672E+03 -0.10245342555E+04  0.10796151072E+04  0.12699999809E+01 0. -1.
</event>
<event>
 5   0  0.1640035E-03  0.8003986E+03  0.7818609E-02  0.9559440E-01
       -1   -1    0    0    0  501  0.00000000000E+00  0.00000000000E+00  0.48352032508E+03  0.48352032510E+03  0.50400001928E-02 0.  1.
        1   -1    0    0  501    0  0.00000000000E+00  0.00000000000E+00 -0.33123629320E+03  0.33123629324E+03  0.50400001928E-02 0. -1.
    10030    2    1    2    0    0  0.00000000000E+00  0.00000000000E+00  0.15228403188E+03  0.81475661834E+03  0.80039860118E+03 0.  0.
        5    1    3    3  502    0  0.23430627978E+03 -0.88335812307E+02  0.39388684755E+03  0.46676716589E+03  0.46999998093E+01 0.  1.
       -5    1    3    3    0  502 -0.23430627978E+03  0.88335812307E+02 -0.24160281567E+03  0.34798945245E+03  0.46999998093E+01 0. -1.
</event>
<event>
 5   0  0.2763587E-03  0.8001595E+03  0.7818609E-02  0.9559786E-01
       -2   -1    0    0    0  501  0.00000000000E+00  0.00000000000E+00  0.30908665793E+03  0.30908665794E+03  0.25500000920E-02 0.  1.
        2   -1    0    0  501    0  0.00000000000E+00  0.00000000000E+00 -0.51786058668E+03  0.51786058669E+03  0.25500000920E-02 0. -1.
    10030    2    1    2    0    0  0.00000000000E+00  0.00000000000E+00 -0.20877392875E+03  0.82694724462E+03  0.80015947915E+03 0.  0.
        3    1    3    3  502    0 -0.16888556340E+02 -0.11858737972E+03 -0.49889356253E+03  0.51307210692E+03  0.10100000352E+00 0. -1.
       -3    1    3    3    0  502  0.16888556340E+02  0.11858737972E+03  0.29011963378E+03  0.31387513770E+03  0.10100000352E+00 0.  1.
</event>
<event>
 5   0  0.2690809E-03  0.8004045E+03  0.7818609E-02  0.9559432E-01
       -2   -1    0    0    0  501  0.00000000000E+00  0.00000000000E+00  0.80365878109E+02  0.80365878149E+02  0.25500000920E-02 0. -1.
        2   -1    0    0  501    0  0.00000000000E+00  0.00000000000E+00 -0.19929083865E+04  0.19929083865E+04  0.25500000920E-02 0.  1.
    10030    2    1    2    0    0  0.00000000000E+00  0.00000000000E+00 -0.19125425084E+04  0.20732742647E+04  0.80040447904E+03 0.  0.
        5    1    3    3  502    0  0.17927523201E+03  0.15775484406E+03 -0.17880447951E+04  0.18039269605E+04  0.46999998093E+01 0.  1.
       -5    1    3    3    0  502 -0.17927523201E+03 -0.15775484406E+03 -0.12449771333E+03  0.26934730416E+03  0.46999998093E+01 0. -1.
</event>
<event>
 5   0  0.1640035E-03  0.8006172E+03  0.7818609E-02  0.9559124E-01
        1   -1    0    0  501    0  0.00000000000E+00  0.00000000000E+00  0.37249273387E+03  0.37249273391E+03  0.50400001928E-02 0. -1.
       -1   -1    0    0    0  501  0.00000000000E+00  0.00000000000E+00 -0.43020157628E+03  0.43020157631E+03  0.50400001928E-02 0.  1.
    10030    2    1    2    0    0  0.00000000000E+00  0.00000000000E+00 -0.57708842407E+02  0.80269431022E+03  0.80061716517E+03 0.  0.
        5    1    3    3  502    0  0.21553828130E+03 -0.26906677893E+02 -0.36594711233E+03  0.42558207087E+03  0.46999998093E+01 0.  1.
       -5    1    3    3    0  502 -0.21553828130E+03  0.26906677893E+02  0.30823826993E+03  0.37711223935E+03  0.46999998093E+01 0. -1.
</event>
<event>
 5   0  0.2768834E-03  0.8011052E+03  0.7818609E-02  0.9558419E-01
        2   -1    0    0  501    0  0.00000000000E+00  0.00000000000E+00  0.28913709077E+03  0.28913709078E+03  0.25500000920E-02 0.  1.
       -2   -1    0    0    0  501  0.00000000000E+00  0.00000000000E+00 -0.55490067952E+03  0.55490067953E+03  0.25500000920E-02 0. -1.
    10030    2    1    2    0    0  0.00000000000E+00  0.00000000000E+00 -0.26576358876E+03  0.84403777030E+03  0.80110515701E+03 0.  0.
        4    1    3    3  502    0  0.38624854933E+03 -0.10603660846E+03 -0.12971206711E+03  0.42102082781E+03  0.12699999809E+01 0.  1.
       -4    1    3    3    0  502 -0.38624854933E+03  0.10603660846E+03 -0.13605152164E+03  0.42301694249E+03  0.12699999809E+01 0. -1.
</event>
<event>
 5   0  0.1617491E-03  0.8025683E+03  0.7818609E-02  0.9556307E-01
        1   -1    0    0  501    0  0.00000000000E+00  0.00000000000E+00  0.16539917893E+04  0.16539917894E+04  0.50400001928E-02 0. -1.
       -1   -1    0    0    0  501  0.00000000000E+00  0.00000000000E+00 -0.97357783168E+02  0.97357783298E+02  0.50400001928E-02 0.  1.
    10030    2    1    2    0    0  0.00000000000E+00  0.00000000000E+00  0.15566340062E+04  0.17513495727E+04  0.80256831263E+03 0.  0.
        1    1    3    3  502    0  0.29832702065E+03 -0.10692642182E+03  0.13154914313E+04  0.13531260018E+04  0.50400001928E-02 0. -1.
       -1    1    3    3    0  502 -0.29832702065E+03  0.10692642182E+03  0.24114257490E+03  0.39822357086E+03  0.50400001928E-02 0.  1.
</event>
<event>
 5   0  0.1637228E-03  0.7976345E+03  0.7818609E-02  0.9563447E-01
        1   -1    0    0  501    0  0.00000000000E+00  0.00000000000E+00  0.89987698958E+03  0.89987698960E+03  0.50400001928E-02 0.  1.
       -1   -1    0    0    0  501  0.00000000000E+00  0.00000000000E+00 -0.17675216108E+03  0.17675216115E+03  0.50400001928E-02 0. -1.
    10030    2    1    2    0    0  0.00000000000E+00  0.00000000000E+00  0.72312482850E+03  0.10766291507E+04  0.79763450944E+03 0.  0.
        2    1    3    3  502    0 -0.59323220616E+02  0.32601285031E+03  0.66111445390E+03  0.73951061131E+03  0.25500000920E-02 0.  1.
       -2    1    3    3    0  502  0.59323220616E+02 -0.32601285031E+03  0.62010374599E+02  0.33711853944E+03  0.25500000920E-02 0. -1.
</event>
<event>
 5   0  0.1712793E-03  0.8033294E+03  0.7818609E-02  0.9555210E-01
       -1   -1    0    0    0  501  0.00000000000E+00  0.00000000000E+00  0.53984945089E+03  0.53984945092E+03  0.50400001928E-02 0.  1.
        1   -1    0    0  501    0  0.00000000000E+00  0.00000000000E+00 -0.29885098550E+03  0.29885098554E+03  0.50400001928E-02 0. -1.
    10030    2    1    2    0    0  0.00000000000E+00  0.00000000000E+00  0.24099846540E+03  0.83870043646E+03  0.80332942296E+03 0.  0.
        4    1    3    3  502    0 -0.19682174308E+03  0.48020462792E+02 -0.24159753123E+03  0.31530262193E+03  0.12699999809E+01 0. -1.
       -4    1    3    3    0  502  0.19682174308E+03 -0.48020462792E+02  0.48259599663E+03  0.52339781453E+03  0.12699999809E+01 0.  1.
</event>
<event>
 5   0  0.1712793E-03  0.8004432E+03  0.7818609E-02  0.9559376E-01
        1   -1    0    0  501    0  0.00000000000E+00  0.00000000000E+00  0.21230602179E+04  0.21230602179E+04  0.50400001928E-02 0.  1.
       -1   -1    0    0    0  501  0.00000000000E+00  0.00000000000E+00 -0.75446429660E+02  0.75446429828E+02  0.50400001928E-02 0. -1.
    10030    2    1    2    0    0  0.00000000000E+00  0.00000000000E+00  0.20476137882E+04  0.21985066477E+04  0.80044316121E+03 0.  0.
        4    1    3    3  502    0 -0.26225482571E+03  0.23614951956E+03  0.50534790657E+03  0.61637838117E+03  0.12699999809E+01 0. -1.
       -4    1    3    3    0  502  0.26225482571E+03 -0.23614951956E+03  0.15422658816E+04  0.15821282665E+04  0.12699999809E+01 0.  1.
</event>
<event>
 5   0  0.1617491E-03  0.7999790E+03  0.7818609E-02  0.9560047E-01
       -1   -1    0    0    0  501  0.00000000000E+00  0.00000000000E+00  0.91846480039E+03  0.91846480040E+03  0.50400001928E-02 0.  1.
        1   -1    0    0  501    0  0.00000000000E+00  0.00000000000E+00 -0.17419459693E+03  0.17419459700E+03  0.50400001928E-02 0. -1.
    10030    2    1    2    0    0  0.00000000000E+00  0.00000000000E+00  0.74427020346E+03  0.10926593974E+04  0.79997901409E+03 0.  0.
        1    1    3    3  502    0  0.24183969648E+03 -0.31608102321E+03  0.42673455644E+03  0.58352037986E+03  0.50400001928E-02 0. -1.
       -1    1    3    3    0  502 -0.24183969648E+03  0.31608102321E+03  0.31753564702E+03  0.50913901754E+03  0.50400001928E-02 0.  1.
</event>
<event>
 5   0  0.1640035E-03  0.8002376E+03  0.7818609E-02  0.9559673E-01
       -1   -1    0    0    0  501  0.00000000000E+00  0.00000000000E+00  0.14005160792E+04  0.14005160792E+04  0.50400001928E-02 0.  1.
        1   -1    0    0  501    0  0.00000000000E+00  0.00000000000E+00 -0.11431147288E+03  0.11431147299E+03  0.50400001928E-02 0. -1.
    10030    2    1    2    0    0  0.00000000000E+00  0.00000000000E+00  0.12862046063E+04  0.15148275522E+04  0.80023760445E+03 0.  0.
        5    1    3    3  502    0  0.39326487248E+02  0.21579403443E+03  0.12764969396E+04  0.12952143316E+04  0.46999998093E+01 0.  1.
       -5    1    3    3    0  502 -0.39326487248E+02 -0.21579403443E+03  0.97076667464E+01  0.21961322065E+03  0.46999998093E+01 0. -1.
</event>
<event>
 5   0  0.2768834E-03  0.7995913E+03  0.7818609E-02  0.9560609E-01
        2   -1    0    0  501    0  0.00000000000E+00  0.00000000000E+00  0.79819992914E+03  0.79819992915E+03  0.25500000920E-02 0. -1.
       -2   -1    0    0    0  501  0.00000000000E+00  0.00000000000E+00 -0.20024627833E+03  0.20024627834E+03  0.25500000920E-02 0.  1.
    10030    2    1    2    0    0  0.00000000000E+00  0.00000000000E+00  0.59795365082E+03  0.99844620749E+03  0.79959130856E+03 0.  0.
        4    1    3    3  502    0 -0.45059883737E+02 -0.34760845925E+03  0.53908031500E+03  0.64301728825E+03  0.12699999809E+01 0. -1.
       -4    1    3    3    0  502  0.45059883737E+02  0.34760845925E+03  0.58873335813E+02  0.35542891924E+03  0.12699999809E+01 0.  1.
</event>
<event>
 5   0  0.1640035E-03  0.7984724E+03  0.7818609E-02  0.9562231E-01
        1   -1    0    0  501    0  0.00000000000E+00  0.00000000000E+00  0.17814007002E+04  0.17814007002E+04  0.50400001928E-02 0.  1.
       -1   -1    0    0    0  501  0.00000000000E+00  0.00000000000E+00 -0.89474287542E+02  0.89474287684E+02  0.50400001928E-02 0. -1.
    10030    2    1    2    0    0  0.00000000000E+00  0.00000000000E+00  0.16919264126E+04  0.18708749879E+04  0.79847243814E+03 0.  0.
        5    1    3    3  502    0  0.31018024484E+03  0.54072102088E+02  0.14210032551E+04  0.14554751518E+04  0.46999998093E+01 0.  1.
       -5    1    3    3    0  502 -0.31018024484E+03 -0.54072102088E+02  0.27092315752E+03  0.41539983606E+03  0.46999998093E+01 0. -1.
</event>
<event>
 5   0  0.2768834E-03  0.8000474E+03  0.7818609E-02  0.9559948E-01
       -2   -1    0    0    0  501  0.00000000000E+00  0.00000000000E+00  0.43440967220E+03  0.43440967221E+03  0.25500000920E-02 0.  1.
        2   -1    0    0  501    0  0.00000000000E+00  0.00000000000E+00 -0.36835959322E+03  0.36835959323E+03  0.25500000920E-02 0. -1.
    10030    2    1    2    0    0  0.00000000000E+00  0.00000000000E+00  0.66050078983E+02  0.80276926543E+03  0.80004742396E+03 0.  0.
        4    1    3    3  502    0  0.54533330359E+01 -0.23657076370E+03  0.35664654981E+03  0.42801149455E+03  0.12699999809E+01 0. -1.
       -4    1    3    3    0  502 -0.54533330359E+01  0.23657076370E+03 -0.29059647082E+03  0.37475777088E+03  0.12699999809E+01 0.  1.
</event>
<event>
 5   0  0.1617491E-03  0.7996494E+03  0.7818609E-02  0.9560525E-01
        1   -1    0    0  501    0  0.00000000000E+00  0.00000000000E+00  0.17640532420E+04  0.17640532420E+04  0.50400001928E-02 0. -1.
       -1   -1    0    0    0  501  0.00000000000E+00  0.00000000000E+00 -0.90620727322E+02  0.90620727462E+02  0.50400001928E-02 0.  1.
    10030    2    1    2    0    0  0.00000000000E+00  0.00000000000E+00  0.16734325146E+04  0.18546739694E+04  0.79964939306E+03 0.  0.
        1    1    3    3  502    0  0.38550089817E+03  0.68943612754E+02  0.64978652088E+03  0.75867429571E+03  0.50400001928E-02 0.  1.
       -1    1    3    3    0  502 -0.38550089817E+03 -0.68943612754E+02  0.10236459937E+04  0.10959996737E+04  0.50400001928E-02 0. -1.
</event>
<event>
 5   0  0.1095350E-03  0.8014887E+03  0.7818609E-02  0.9557865E-01
        3   -1    0    0  501    0  0.00000000000E+00  0.00000000000E+00  0.21907007990E+03  0.21907010319E+03  0.10100000352E+00 0. -1.
       -3   -1    0    0    0  501  0.00000000000E+00  0.00000000000E+00 -0.73308057839E+03  0.73308058534E+03  0.10100000352E+00 0.  1.
    10030    2    1    2    0    0  0.00000000000E+00  0.00000000000E+00 -0.51401049848E+03  0.95215068853E+03  0.80148870305E+03 0.  0.
        3    1    3    3  502    0 -0.22230559504E+03  0.15570002235E+03  0.93264384867E+02  0.28698524393E+03  0.10100000352E+00 0. -1.
       -3    1    3    3    0  502  0.22230559504E+03 -0.15570002235E+03 -0.60727488335E+03  0.66516544460E+03  0.10100000352E+00 0.  1.
</event>
<event>
 5   0  0.2910501E-03  0.8010186E+03  0.7818609E-02  0.9558544E-01
       -2   -1    0    0    0  501  0.00000000000E+00  0.00000000000E+00  0.12840812273E+03  0.12840812275E+03  0.25500000920E-02 0.  1.
        2   -1    0    0  501    0  0.00000000000E+00  0.00000000000E+00 -0.12492020798E+04  0.12492020798E+04  0.25500000920E-02 0. -1.
    10030    2    1    2    0    0  0.00000000000E+00  0.00000000000E+00 -0.11207939571E+04  0.13776102026E+04  0.80101858655E+03 0.  0.
        1    1    3    3  502    0 -0.44544347130E+01 -0.20902393885E+03  0.27110385205E+02  0.21082177784E+03  0.50400001928E-02 0.  1.
       -1    1    3    3    0  502  0.44544347130E+01  0.20902393885E+03 -0.11479043423E+04  0.11667884247E+04  0.50400001928E-02 0. -1.
</event>
<event>
 5   0  0.1656051E-03  0.7980218E+03  0.7818609E-02  0.9562885E-01
        1   -1    0    0  501    0  0.00000000000E+00  0.00000000000E+00  0.45801405071E+03  0.45801405074E+03  0.50400001928E-02 0.  1.
       -1   -1    0    0    0  501  0.00000000000E+00  0.00000000000E+00 -0.34760880188E+03  0.34760880191E+03  0.50400001928E-02 0. -1.
    10030    2    1    2    0    0  0.00000000000E+00  0.00000000000E+00  0.11040524883E+03  0.80562285266E+03  0.79802184290E+03 0.  0.
        3    1    3    3  502    0  0.26945144623E+03  0.29193656251E+03  0.17718561166E+02  0.39767448499E+03  0.10100000352E+00 0. -1.
       -3    1    3    3    0  502 -0.26945144623E+03 -0.29193656251E+03  0.92686687669E+02  0.40794836766E+03  0.10100000352E+00 0.  1.
</event>
<event>
 5   0  0.2873212E-03  0.7993616E+03  0.7818609E-02  0.9560942E-01
        2   -1    0    0  501    0  0.00000000000E+00  0.00000000000E+00  0.81876498899E+03  0.81876498900E+03  0.25500000920E-02 0.  1.
       -2   -1    0    0    0  501  0.00000000000E+00  0.00000000000E+00 -0.19510449560E+03  0.19510449562E+03  0.25500000920E-02 0. -1.
    10030    2    1    2    0    0  0.00000000000E+00  0.00000000000E+00  0.62366049339E+03  0.10138694846E+04  0.79936157076E+03 0.  0.
        2    1    3    3  502    0 -0.30810479456E+03  0.21267780298E+03  0.48932806161E+03  0.61611879065E+03  0.25500000920E-02 0.  1.
       -2    1    3    3    0  502  0.30810479456E+03 -0.21267780298E+03  0.13433243179E+03  0.39775069396E+03  0.25500000920E-02 0. -1.
</event>
<event>
 5   0  0.1617491E-03  0.7994684E+03  0.7818609E-02  0.9560787E-01
        1   -1    0    0  501    0  0.00000000000E+00  0.00000000000E+00  0.82314112935E+03  0.82314112936E+03  0.50400001928E-02 0.  1.
       -1   -1    0    0    0  501  0.00000000000E+00  0.00000000000E+00 -0.19411909718E+03  0.19411909725E+03  0.50400001928E-02 0. -1.
    10030    2    1    2    0    0  0.00000000000E+00  0.00000000000E+00  0.62902203217E+03  0.10172602266E+04  0.79946835565E+03 0.  0.
        1    1    3    3  502    0  0.50156239306E+02 -0.10790884399E+03 -0.17105960534E+03  0.20837791523E+03  0.50400001928E-02 0. -1.
       -1    1    3    3    0  502 -0.50156239306E+02  0.10790884399E+03  0.80008163751E+03  0.80888231138E+03  0.50400001928E-02 0.  1.
</event>
<event>
 5   0  0.1656051E-03  0.8034988E+03  0.7818609E-02  0.9554967E-01
        1   -1    0    0  501    0  0.00000000000E+00  0.00000000000E+00  0.76487812103E+03  0.76487812104E+03  0.50400001928E-02 0.  1.
       -1   -1    0    0    0  501  0.00000000000E+00  0.00000000000E+00 -0.21101736206E+03  0.21101736212E+03  0.50400001928E-02 0. -1.
    10030    2    1    2    0    0  0.00000000000E+00  0.00000000000E+00  0.55386075896E+03  0.97589548316E+03  0.80349875777E+03 0.  0.
        3    1    3    3  502    0 -0.22564010220E+03  0.16137462290E+03 -0.76017889356E+02  0.28763510624E+03  0.10100000352E+00 0. -1.
       -3    1    3    3    0  502  0.22564010220E+03 -0.16137462290E+03  0.62987864832E+03  0.68826037693E+03  0.10100000352E+00 0.  1.
</event>
<event>
 5   0  0.1617491E-03  0.7991251E+03  0.7818609E-02  0.9561284E-01
       -1   -1    0    0    0  501  0.00000000000E+00  0.00000000000E+00  0.14464358537E+03  0.14464358545E+03  0.50400001928E-02 0. -1.
        1   -1    0    0  501    0  0.00000000000E+00  0.00000000000E+00 -0.11037492121E+04  0.11037492121E+04  0.50400001928E-02 0.  1.
    10030    2    1    2    0    0  0.00000000000E+00  0.00000000000E+00 -0.95910562669E+03  0.12483927975E+04  0.79912513022E+03 0.  0.
        1    1    3    3  502    0  0.29880800842E+03  0.15801761619E+03 -0.14671102423E+03  0.36848326635E+03  0.50400001928E-02 0. -1.
       -1    1    3    3    0  502 -0.29880800842E+03 -0.15801761619E+03 -0.81239460246E+03  0.87990953118E+03  0.50400001928E-02 0.  1.
</event>
<event>
 5   0  0.2690809E-03  0.8006418E+03  0.7818609E-02  0.9559089E-01
        2   -1    0    0  501    0  0.00000000000E+00  0.00000000000E+00  0.28367260233E+03  0.28367260234E+03  0.25500000920E-02 0.  1.
       -2   -1    0    0    0  501  0.00000000000E+00  0.00000000000E+00 -0.56493591407E+03  0.56493591408E+03  0.25500000920E-02 0. -1.
    10030    2    1    2    0    0  0.00000000000E+00  0.00000000000E+00 -0.28126331174E+03  0.84860851642E+03  0.80064184478E+03 0.  0.
        5    1    3    3  502    0 -0.37487012640E+03 -0.77914090155E+01 -0.28919475802E+03  0.47354410121E+03  0.46999998093E+01 0. -1.
       -5    1    3    3    0  502  0.37487012640E+03  0.77914090155E+01  0.79314462867E+01  0.37506441521E+03  0.46999998093E+01 0.  1.
</event>
<event>
 5   0  0.2763587E-03  0.8003048E+03  0.7818609E-02  0.9559576E-01
       -2   -1    0    0    0  501  0.00000000000E+00  0.00000000000E+00  0.62695018238E+03  0.62695018239E+03  0.25500000920E-02 0.  1.
        2   -1    0    0  501    0  0.00000000000E+00  0.00000000000E+00 -0.25539818715E+03  0.25539818716E+03  0.25500000920E-02 0. -1.
    10030    2    1    2    0    0  0.00000000000E+00  0.00000000000E+00  0.37155199523E+03  0.88234836955E+03  0.80030479199E+03 0.  0.
        3    1    3    3  502    0 -0.18223622170E+03 -0.10891177088E+03 -0.18818662742E+03  0.28370060147E+03  0.10100000352E+00 0. -1.
       -3    1    3    3    0  502  0.18223622170E+03  0.10891177088E+03  0.55973862265E+03  0.59864776808E+03  0.10100000352E+00 0.  1.
</event>
<event>
 5   0  0.2910501E-03  0.7944430E+03  0.7818609E-02  0.9568096E-01
       -2   -1    0    0    0  501  0.00000000000E+00  0.00000000000E+00  0.11608749648E+03  0.11608749651E+03  0.25500000920E-02 0. -1.
        2   -1    0    0  501    0  0.00000000000E+00  0.00000000000E+00 -0.13591896009E+04  0.13591896009E+04  0.25500000920E-02 0.  1.
    10030    2    1    2    0    0  0.00000000000E+00  0.00000000000E+00 -0.12431021044E+04  0.14752770974E+04  0.79444299490E+03 0.  0.
        1    1    3    3  502    0  0.34829753458E+03 -0.83525003519E+02 -0.30261608677E+03  0.46889667817E+03  0.50400001928E-02 0. -1.
       -1    1    3    3    0  502 -0.34829753458E+03  0.83525003519E+02 -0.94048601768E+03  0.10063804193E+04  0.50400001928E-02 0.  1.
</event>
<event>
 5   0  0.1637228E-03  0.8002557E+03  0.7818609E-02  0.9559647E-01
        1   -1    0    0  501    0  0.00000000000E+00  0.00000000000E+00  0.32815248056E+03  0.32815248060E+03  0.50400001928E-02 0. -1.
       -1   -1    0    0    0  501  0.00000000000E+00  0.00000000000E+00 -0.48788994434E+03  0.48788994437E+03  0.50400001928E-02 0.  1.
    10030    2    1    2    0    0  0.00000000000E+00  0.00000000000E+00 -0.15973746378E+03  0.81604242497E+03  0.80025569790E+03 0.  0.
        2    1    3    3  502    0 -0.15099093205E+03  0.78428504641E+02 -0.44916343900E+03  0.48030936577E+03  0.25500000920E-02 0.  1.
       -2    1    3    3    0  502  0.15099093205E+03 -0.78428504641E+02  0.28942597522E+03  0.33573305920E+03  0.25500000920E-02 0. -1.
</event>
<event>
 5   0  0.1617491E-03  0.7998915E+03  0.7818609E-02  0.9560174E-01
       -1   -1    0    0    0  501  0.00000000000E+00  0.00000000000E+00  0.11406722441E+04  0.11406722441E+04  0.50400001928E-02 0.  1.
        1   -1    0    0  501    0  0.00000000000E+00  0.00000000000E+00 -0.14023012826E+03  0.14023012835E+03  0.50400001928E-02 0. -1.
    10030    2    1    2    0    0  0.00000000000E+00  0.00000000000E+00  0.10004421158E+04  0.12809023725E+04  0.79989153055E+03 0.  0.
        1    1    3    3  502    0 -0.24397138306E+02  0.24471040870E+03  0.10052879655E+04  0.10349310596E+04  0.50400001928E-02 0.  1.
       -1    1    3    3    0  502  0.24397138306E+02 -0.24471040870E+03 -0.48458496458E+01  0.24597131290E+03  0.50400001928E-02 0. -1.
</event>
<event>
 5   0  0.2690809E-03  0.8003156E+03  0.7818609E-02  0.9559560E-01
        2   -1    0    0  501    0  0.00000000000E+00  0.00000000000E+00  0.21057332298E+03  0.21057332300E+03  0.25500000920E-02 0.  1.
       -2   -1    0    0    0  501  0.00000000000E+00  0.00000000000E+00 -0.76043001949E+03  0.76043001950E+03  0.25500000920E-02 0. -1.
    10030    2    1    2    0    0  0.00000000000E+00  0.00000000000E+00 -0.54985669651E+03  0.97100334249E+03  0.80031562801E+03 0.  0.
        5    1    3    3  502    0  0.35909793456E+03 -0.16855227815E+03 -0.33847189664E+03  0.52148491051E+03  0.46999998093E+01 0.  1.
       -5    1    3    3    0  502 -0.35909793456E+03  0.16855227815E+03 -0.21138479988E+03  0.44951843198E+03  0.46999998093E+01 0. -1.
</event>
<event>
 5   0  0.1656051E-03  0.8003241E+03  0.7818609E-02  0.9559548E-01
        1   -1    0    0  501    0  0.00000000000E+00  0.00000000000E+00  0.82436324206E+03  0.82436324207E+03  0.50400001928E-02 0. -1.
       -1   -1    0    0    0  501  0.00000000000E+00  0.00000000000E+00 -0.19424648570E+03  0.19424648576E+03  0.50400001928E-02 0.  1.
    10030    2    1    2    0    0  0.00000000000E+00  0.00000000000E+00  0.63011675636E+03  0.10186097278E+04  0.80032409122E+03 0.  0.
        3    1    3    3  502    0 -0.18408918708E+03  0.22524799063E+02 -0.13624372539E+03  0.23012726540E+03  0.10100000352E+00 0.  1.
       -3    1    3    3    0  502  0.18408918708E+03 -0.22524799063E+02  0.76636048175E+03  0.78848246243E+03  0.10100000352E+00 0. -1.
</event>
<event>
 5   0  0.1712793E-03  0.8020187E+03  0.7818609E-02  0.9557100E-01
       -1   -1    0    0    0  501  0.00000000000E+00  0.00000000000E+00  0.12326361756E+03  0.12326361767E+03  0.50400001928E-02 0.  1.
        1   -1    0    0  501    0  0.00000000000E+00  0.00000000000E+00 -0.13045899715E+04  0.13045899715E+04  0.50400001928E-02 0. -1.
    10030    2    1    2    0    0  0.00000000000E+00  0.00000000000E+00 -0.11813263539E+04  0.14278535891E+04  0.80201865166E+03 0.  0.
        4    1    3    3  502    0  0.18029094910E+03  0.31591056987E+02 -0.12258775427E+04  0.12394677018E+04  0.12699999809E+01 0. -1.
       -4    1    3    3    0  502 -0.18029094910E+03 -0.31591056987E+02  0.44551188835E+02  0.18838588731E+03  0.12699999809E+01 0.  1.
</event>
<event>
 5   0  0.2690809E-03  0.7950609E+03  0.7818609E-02  0.9567194E-01
       -2   -1    0    0    0  501  0.00000000000E+00  0.00000000000E+00  0.18190737062E+03  0.18190737064E+03  0.25500000920E-02 0. -1.
        2   -1    0    0  501    0  0.00000000000E+00  0.00000000000E+00 -0.86874142939E+03  0.86874142939E+03  0.25500000920E-02 0.  1.
    10030    2    1    2    0    0  0.00000000000E+00  0.00000000000E+00 -0.68683405877E+03  0.10506488000E+04  0.79506092642E+03 0.  0.
        5    1    3    3  502    0 -0.25486910485E+03 -0.26118153309E+03 -0.55166622933E+03  0.66146184502E+03  0.46999998093E+01 0.  1.
       -5    1    3    3    0  502  0.25486910485E+03  0.26118153309E+03 -0.13516782944E+03  0.38918695501E+03  0.46999998093E+01 0. -1.
</event>
<event>
 5   0  0.1640035E-03  0.7993061E+03  0.7818609E-02  0.9561022E-01
       -1   -1    0    0    0  501  0.00000000000E+00  0.00000000000E+00  0.12521252266E+03  0.12521252276E+03  0.50400001928E-02 0.  1.
        1   -1    0    0  501    0  0.00000000000E+00  0.00000000000E+00 -0.12756115703E+04  0.12756115703E+04  0.50400001928E-02 0. -1.
    10030    2    1    2    0    0  0.00000000000E+00  0.00000000000E+00 -0.11503990477E+04  0.14008240931E+04  0.79930605584E+03 0.  0.
        5    1    3    3  502    0  0.30252480958E+03 -0.24881338552E+02 -0.11967089392E+03  0.32631817949E+03  0.46999998093E+01 0.  1.
       -5    1    3    3    0  502 -0.30252480958E+03  0.24881338552E+02 -0.10307281537E+04  0.10745059136E+04  0.46999998093E+01 0. -1.
</event>
<event>
 5   0  0.2690809E-03  0.8019212E+03  0.7818609E-02  0.9557240E-01
       -2   -1    0    0    0  501  0.00000000000E+00  0.00000000000E+00  0.35792899954E+03  0.35792899955E+03  0.25500000920E-02 0.  1.
        2   -1    0    0  501    0  0.00000000000E+00  0.00000000000E+00 -0.44916567329E+03  0.44916567330E+03  0.25500000920E-02 0. -1.
    10030    2    1    2    0    0  0.00000000000E+00  0.00000000000E+00 -0.91236673749E+02  0.80709467284E+03  0.80192124320E+03 0.  0.
        5    1    3    3  502    0 -0.85767370873E+02 -0.33674647729E+03 -0.24689122909E+03  0.42629989547E+03  0.46999998093E+01 0. -1.
       -5    1    3    3    0  502  0.85767370873E+02  0.33674647729E+03  0.15565455535E+03  0.38079477737E+03  0.46999998093E+01 0.  1.
</event>
<event>
 5   0  0.2768834E-03  0.7998360E+03  0.7818609E-02  0.9560254E-01
        2   -1    0    0  501    0  0.00000000000E+00  0.00000000000E+00  0.10785128053E+04  0.10785128053E+04  0.25500000920E-02 0. -1.
       -2   -1    0    0    0  501  0.00000000000E+00  0.00000000000E+00 -0.14829162728E+03  0.14829162730E+03  0.25500000920E-02 0.  1.
    10030    2    1    2    0    0  0.00000000000E+00  0.00000000000E+00  0.93022117804E+03  0.12268044326E+04  0.79983603058E+03 0.  0.
        4    1    3    3  502    0  0.23146653667E+02 -0.24217574996E+02 -0.14613261553E+03  0.14992869217E+03  0.12699999809E+01 0.  1.
       -4    1    3    3    0  502 -0.23146653667E+02  0.24217574996E+02  0.10763537936E+04  0.10768757404E+04  0.12699999809E+01 0. -1.
</event>
<event>
 5   0  0.2910501E-03  0.8005202E+03  0.7818609E-02  0.9559264E-01
        2   -1    0    0  501    0  0.00000000000E+00  0.00000000000E+00  0.32594485555E+03  0.32594485556E+03  0.25500000920E-02 0. -1.
       -2   -1    0    0    0  501  0.00000000000E+00  0.00000000000E+00 -0.49151923333E+03  0.49151923334E+03  0.25500000920E-02 0.  1.
    10030    2    1    2    0    0  0.00000000000E+00  0.00000000000E+00 -0.16557437778E+03  0.81746408890E+03  0.80052024463E+03 0.  0.
        1    1    3    3  502    0  0.20781553076E+03  0.75709304356E+00  0.26653563535E+03  0.33797797702E+03  0.50400001928E-02 0. -1.
       -1    1    3    3    0  502 -0.20781553076E+03 -0.75709304356E+00 -0.43211001313E+03  0.47948611188E+03  0.50400001928E-02 0.  1.
</event>
<event>
 5   0  0.2910501E-03  0.7997369E+03  0.7818609E-02  0.9560398E-01
       -2   -1    0    0    0  501  0.00000000000E+00  0.00000000000E+00  0.45918474661E+03  0.45918474662E+03  0.25500000920E-02 0. -1.
        2   -1    0    0  501    0  0.00000000000E+00  0.00000000000E+00 -0.34821444714E+03  0.34821444715E+03  0.25500000920E-02 0.  1.
    10030    2    1    2    0    0  0.00000000000E+00  0.00000000000E+00  0.11097029947E+03  0.80739919377E+03  0.79973686344E+03 0.  0.
        1    1    3    3  502    0 -0.31960684113E+03  0.45363344119E+00  0.29809154211E+03  0.43704382639E+03  0.50400001928E-02 0. -1.
       -1    1    3    3    0  502  0.31960684113E+03 -0.45363344119E+00 -0.18712124264E+03  0.37035536739E+03  0.50400001928E-02 0.  1.
</event>
<event>
 5   0  0.1637228E-03  0.8006859E+03  0.7818609E-02  0.9559025E-01
        1   -1    0    0  501    0  0.00000000000E+00  0.00000000000E+00  0.11603896701E+04  0.11603896702E+04  0.50400001928E-02 0. -1.
       -1   -1    0    0    0  501  0.00000000000E+00  0.00000000000E+00 -0.13812125323E+03  0.13812125332E+03  0.50400001928E-02 0.  1.
    10030    2    1    2    0    0  0.00000000000E+00  0.00000000000E+00  0.10222684169E+04  0.12985109235E+04  0.80068589482E+03 0.  0.
        2    1    3    3  502    0 -0.11509467720E+03 -0.22143328616E+03  0.34596879522E+01  0.24958256026E+03  0.25500000920E-02 0.  1.
       -2    1    3    3    0  502  0.11509467720E+03  0.22143328616E+03  0.10188087290E+04  0.10489283632E+04  0.25500000920E-02 0. -1.
</event>
<event>
 5   0  0.2910501E-03  0.8022308E+03  0.7818609E-02  0.9556794E-01
        2   -1    0    0  501    0  0.00000000000E+00  0.00000000000E+00  0.74073360885E+03  0.74073360885E+03  0.25500000920E-02 0. -1.
       -2   -1    0    0    0  501  0.00000000000E+00  0.00000000000E+00 -0.21720842039E+03  0.21720842040E+03  0.25500000920E-02 0.  1.
    10030    2    1    2    0    0  0.00000000000E+00  0.00000000000E+00  0.52352518846E+03  0.95794202926E+03  0.80223083241E+03 0.  0.
        1    1    3    3  502    0 -0.21200859474E+03  0.28194847168E+03  0.33783745717E+02  0.35437822510E+03  0.50400001928E-02 0.  1.
       -1    1    3    3    0  502  0.21200859474E+03 -0.28194847168E+03  0.48974144274E+03  0.60356380416E+03  0.50400001928E-02 0. -1.
</event>
<event>
 5   0  0.1640035E-03  0.8020805E+03  0.7818609E-02  0.9557011E-01
        1   -1    0    0  501    0  0.00000000000E+00  0.00000000000E+00  0.41430173168E+03  0.41430173171E+03  0.50400001928E-02 0.  1.
       -1   -1    0    0    0  501  0.00000000000E+00  0.00000000000E+00 -0.38820327510E+03  0.38820327513E+03  0.50400001928E-02 0. -1.
    10030    2    1    2    0    0  0.00000000000E+00  0.00000000000E+00  0.26098456578E+02  0.80250500684E+03  0.80208051751E+03 0.  0.
        5    1    3    3  502    0 -0.12851519913E+02  0.39273037842E+03  0.93147123788E+02  0.40385738617E+03  0.46999998093E+01 0. -1.
       -5    1    3    3    0  502  0.12851519913E+02 -0.39273037842E+03 -0.67048667210E+02  0.39864762067E+03  0.46999998093E+01 0.  1.
</event>
<event>
 5   0  0.1656051E-03  0.7984432E+03  0.7818609E-02  0.9562273E-01
        1   -1    0    0  501    0  0.00000000000E+00  0.00000000000E+00  0.22792836057E+03  0.22792836062E+03  0.50400001928E-02 0. -1.
       -1   -1    0    0    0  501  0.00000000000E+00  0.00000000000E+00 -0.69924547938E+03  0.69924547939E+03  0.50400001928E-02 0.  1.
    10030    2    1    2    0    0  0.00000000000E+00  0.00000000000E+00 -0.47131711881E+03  0.92717384002E+03  0.79844317464E+03 0.  0.
        3    1    3    3  502    0 -0.54793281256E+02 -0.33365495194E+02 -0.69322079415E+03  0.69618290670E+03  0.10100000352E+00 0.  1.
       -3    1    3    3    0  502  0.54793281256E+02  0.33365495194E+02  0.22190367534E+03  0.23099093331E+03  0.10100000352E+00 0. -1.
</event>
<event>
 5   0  0.2768834E-03  0.8002514E+03  0.7818609E-02  0.9559653E-01
       -2   -1    0    0    0  501  0.00000000000E+00  0.00000000000E+00  0.18038326770E+03  0.18038326772E+03  0.25500000920E-02 0.  1.
        2   -1    0    0  501    0  0.00000000000E+00  0.00000000000E+00 -0.88755783367E+03  0.88755783367E+03  0.25500000920E-02 0. -1.
    10030    2    1    2    0    0  0.00000000000E+00  0.00000000000E+00 -0.70717456597E+03  0.10679411014E+04  0.80025141630E+03 0.  0.
        4    1    3    3  502    0  0.25873124138E+03 -0.23198284586E+03 -0.88893371077E+02  0.35869421568E+03  0.12699999809E+01 0.  1.
       -4    1    3    3    0  502 -0.25873124138E+03  0.23198284586E+03 -0.61828119489E+03  0.70924688571E+03  0.12699999809E+01 0. -1.
</event>
<event>
 5   0  0.1712793E-03  0.8011248E+03  0.7818609E-02  0.9558390E-01
        1   -1    0    0  501    0  0.00000000000E+00  0.00000000000E+00  0.81572827891E+03  0.81572827892E+03  0.50400001928E-02 0. -1.
       -1   -1    0    0    0  501  0.00000000000E+00  0.00000000000E+00 -0.19669569119E+03  0.19669569126E+03  0.50400001928E-02 0.  1.
    10030    2    1    2    0    0  0.00000000000E+00  0.00000000000E+00  0.61903258772E+03  0.10124239702E+04  0.80112480348E+03 0.  0.
        4    1    3    3  502    0  0.24118211828E+03 -0.31572930321E+03  0.24514152734E+03  0.46685092740E+03  0.12699999809E+01 0.  1.
       -4    1    3    3    0  502 -0.24118211828E+03  0.31572930321E+03  0.37389106038E+03  0.54557304279E+03  0.12699999809E+01 0. -1.
</event>
<event>
 5   0  0.2763587E-03  0.8009381E+03  0.7818609E-02  0.9558660E-01
        2   -1    0    0  501    0  0.00000000000E+00  0.00000000000E+00  0.15717591791E+04  0.15717591791E+04  0.25500000920E-02 0.  1.
       -2   -1    0    0    0  501  0.00000000000E+00  0.00000000000E+00 -0.10203563349E+03  0.10203563352E+03  0.25500000920E-02 0. -1.
    10030    2    1    2    0    0  0.00000000000E+00  0.00000000000E+00  0.14697235456E+04  0.16737948126E+04  0.80093805894E+03 0.  0.
        3    1    3    3  502    0  0.31926736055E+03  0.22991575209E+02  0.12377824212E+04  0.12785013072E+04  0.10100000352E+00 0.  1.
       -3    1    3    3    0  502 -0.31926736055E+03 -0.22991575209E+02  0.23194112439E+03  0.39529350542E+03  0.10100000352E+00 0. -1.
</event>
<event>
 5   0  0.2763587E-03  0.8002947E+03  0.7818609E-02  0.9559591E-01
        2   -1    0    0  501    0  0.00000000000E+00  0.00000000000E+00  0.58213894125E+03  0.58213894125E+03  0.25500000920E-02 0. -1.
       -2   -1    0    0    0  501  0.00000000000E+00  0.00000000000E+00 -0.27505098079E+03  0.27505098080E+03  0.25500000920E-02 0.  1.
    10030    2    1    2    0    0  0.00000000000E+00  0.00000000000E+00  0.30708796046E+03  0.85718992205E+03  0.80029466261E+03 0.  0.
        3    1    3    3  502    0 -0.20492198871E+03  0.47875469780E+02  0.51808206111E+03  0.55919058854E+03  0.10100000352E+00 0. -1.
       -3    1    3    3    0  502  0.20492198871E+03 -0.47875469780E+02 -0.21099410065E+03  0.29799933351E+03  0.10100000352E+00 0.  1.
</event>
<event>
 5   0  0.2763587E-03  0.8018129E+03  0.7818609E-02  0.9557397E-01
       -2   -1    0    0    0  501  0.00000000000E+00  0.00000000000E+00  0.19409371445E+03  0.19409371446E+03  0.25500000920E-02 0.  1.
        2   -1    0    0  501    0  0.00000000000E+00  0.00000000000E+00 -0.82808444740E+03  0.82808444741E+03  0.25500000920E-02 0. -1.
    10030    2    1    2    0    0  0.00000000000E+00  0.00000000000E+00 -0.63399073296E+03  0.10221781619E+04  0.80181291155E+03 0.  0.
        3    1    3    3  502    0 -0.23832176275E+03 -0.31691702362E+03 -0.24165804562E+03  0.46436223326E+03  0.10100000352E+00 0. -1.
       -3    1    3    3    0  502  0.23832176275E+03  0.31691702362E+03 -0.39233268734E+03  0.55781592862E+03  0.10100000352E+00 0.  1.
</event>
<event>
 5   0  0.1637228E-03  0.8067224E+03  0.7818609E-02  0.9550337E-01
       -1   -1    0    0    0  501  0.00000000000E+00  0.00000000000E+00  0.18271431017E+03  0.18271431023E+03  0.50400001928E-02 0.  1.
        1   -1    0    0  501    0  0.00000000000E+00  0.00000000000E+00 -0.89046263955E+03  0.89046263956E+03  0.50400001928E-02 0. -1.
    10030    2    1    2    0    0  0.00000000000E+00  0.00000000000E+00 -0.70774832938E+03  0.10731769498E+04  0.80672242304E+03 0.  0.
        2    1    3    3  502    0 -0.12306770709E+03  0.22692752909E+03  0.58427525077E+02  0.26468007043E+03  0.25500000920E-02 0.  1.
       -2    1    3    3    0  502  0.12306770709E+03 -0.22692752909E+03 -0.76617585446E+03  0.80849687937E+03  0.25500000920E-02 0. -1.
</event>
<event>
 5   0  0.2690809E-03  0.7996452E+03  0.7818609E-02  0.9560531E-01
        2   -1    0    0  501    0  0.00000000000E+00  0.00000000000E+00  0.38841895308E+03  0.38841895309E+03  0.25500000920E-02 0.  1.
       -2   -1    0    0    0  501  0.00000000000E+00  0.00000000000E+00 -0.41156100351E+03  0.41156100352E+03  0.25500000920E-02 0. -1.
    10030    2    1    2    0    0  0.00000000000E+00  0.00000000000E+00 -0.23142050427E+02  0.79997995661E+03  0.79964515660E+03 0.  0.
        5    1    3    3  502    0 -0.19506250626E+02  0.36828053514E+03 -0.16598900429E+03  0.40445702605E+03  0.46999998093E+01 0. -1.
       -5    1    3    3    0  502  0.19506250626E+02 -0.36828053514E+03  0.14284695387E+03  0.39552293056E+03  0.46999998093E+01 0.  1.
</event>
<event>
 5   0  0.2690809E-03  0.8006798E+03  0.7818609E-02  0.9559034E-01
       -2   -1    0    0    0  501  0.00000000000E+00  0.00000000000E+00  0.26238835926E+03  0.26238835928E+03  0.25500000920E-02 0. -1.
        2   -1    0    0  501    0  0.00000000000E+00  0.00000000000E+00 -0.61081998164E+03  0.61081998164E+03  0.25500000920E-02 0.  1.
    10030    2    1    2    0    0  0.00000000000E+00  0.00000000000E+00 -0.34843162237E+03  0.87320834092E+03  0.80067984312E+03 0.  0.
        5    1    3    3  502    0  0.22208169815E+03  0.61612674532E+02  0.18274599407E+03  0.29416762341E+03  0.46999998093E+01 0. -1.
       -5    1    3    3    0  502 -0.22208169815E+03 -0.61612674532E+02 -0.53117761645E+03  0.57904071751E+03  0.46999998093E+01 0.  1.
</event>
<event>
 5   0  0.2768834E-03  0.8000914E+03  0.7818609E-02  0.9559885E-01
        2   -1    0    0  501    0  0.00000000000E+00  0.00000000000E+00  0.44218325031E+03  0.44218325032E+03  0.25500000920E-02 0.  1.
       -2   -1    0    0    0  501  0.00000000000E+00  0.00000000000E+00 -0.36192364544E+03  0.36192364545E+03  0.25500000920E-02 0. -1.
    10030    2    1    2    0    0  0.00000000000E+00  0.00000000000E+00  0.80259604872E+02  0.80410689577E+03  0.80009142956E+03 0.  0.
        4    1    3    3  502    0  0.78097591805E+02 -0.12780633013E+03 -0.33267833898E+03  0.36484268116E+03  0.12699999809E+01 0. -1.
       -4    1    3    3    0  502 -0.78097591805E+02  0.12780633013E+03  0.41293794385E+03  0.43926421461E+03  0.12699999809E+01 0.  1.
</event>
<event>
 5   0  0.2768834E-03  0.7994451E+03  0.7818609E-02  0.9560821E-01
       -2   -1    0    0    0  501  0.00000000000E+00  0.00000000000E+00  0.57696161684E+02  0.57696161740E+02  0.25500000920E-02 0.  1.
        2   -1    0    0  501    0  0.00000000000E+00  0.00000000000E+00 -0.27693022623E+04  0.27693022623E+04  0.25500000920E-02 0. -1.
    10030    2    1    2    0    0  0.00000000000E+00  0.00000000000E+00 -0.27116061006E+04  0.28269984240E+04  0.79944508544E+03 0.  0.
        4    1    3    3  502    0  0.31850391108E+03  0.11805991607E+03 -0.61073288098E+03  0.69884129097E+03  0.12699999809E+01 0.  1.
       -4    1    3    3    0  502 -0.31850391108E+03 -0.11805991607E+03 -0.21008732196E+04  0.21281571331E+04  0.12699999809E+01 0. -1.
</event>
<event>
 5   0  0.1637228E-03  0.8035467E+03  0.7818609E-02  0.9554898E-01
        1   -1    0    0  501    0  0.00000000000E+00  0.00000000000E+00  0.22404478847E+03  0.22404478853E+03  0.50400001928E-02 0. -1.
       -1   -1    0    0    0  501  0.00000000000E+00  0.00000000000E+00 -0.72048899651E+03  0.72048899653E+03  0.50400001928E-02 0.  1.
    10030    2    1    2    0    0  0.00000000000E+00  0.00000000000E+00 -0.49644420803E+03  0.94453378506E+03  0.80354665043E+03 0.  0.
        2    1    3    3  502    0  0.42102603269E+02  0.12174610202E+03  0.19911123070E+03  0.23714979392E+03  0.25500000920E-02 0. -1.
       -2    1    3    3    0  502 -0.42102603269E+02 -0.12174610202E+03 -0.69555543873E+03  0.70738399114E+03  0.25500000920E-02 0.  1.
</event>
<event>
 5   0  0.2763587E-03  0.8063298E+03  0.7818609E-02  0.9550900E-01
       -2   -1    0    0    0  501  0.00000000000E+00  0.00000000000E+00  0.17146429179E+04  0.17146429179E+04  0.25500000920E-02 0. -1.
        2   -1    0    0  501    0  0.00000000000E+00  0.00000000000E+00 -0.94796365395E+02  0.94796365429E+02  0.25500000920E-02 0.  1.
    10030    2    1    2    0    0  0.00000000000E+00  0.00000000000E+00  0.16198465525E+04  0.18094392834E+04  0.80632975042E+03 0.  0.
        3    1    3    3  502    0 -0.12706864482E+03 -0.91643413559E+02  0.16435393417E+04  0.16509895620E+04  0.10100000352E+00 0. -1.
       -3    1    3    3    0  502  0.12706864482E+03  0.91643413559E+02 -0.23692789192E+02  0.15844972139E+03  0.10100000352E+00 0.  1.
</event>
<event>
 5   0  0.1712793E-03  0.7983993E+03  0.7818609E-02  0.9562337E-01
        1   -1    0    0  501    0  0.00000000000E+00  0.00000000000E+00  0.55444581935E+03  0.55444581937E+03  0.50400001928E-02 0. -1.
       -1   -1    0    0    0  501  0.00000000000E+00  0.00000000000E+00 -0.28742276041E+03  0.28742276045E+03  0.50400001928E-02 0.  1.
    10030    2    1    2    0    0  0.00000000000E+00  0.00000000000E+00  0.26702305895E+03  0.84186857982E+03  0.79839926834E+03 0.  0.
        4    1    3    3  502    0 -0.20974981844E+03  0.23945985256E+03 -0.12048234420E+03  0.34037275961E+03  0.12699999809E+01 0.  1.
       -4    1    3    3    0  502  0.20974981844E+03 -0.23945985256E+03  0.38750540315E+03  0.50149582021E+03  0.12699999809E+01 0. -1.
</event>
<event>
 5   0  0.2910501E-03  0.8000118E+03  0.7818609E-02  0.9560000E-01
       -2   -1    0    0    0  501  0.00000000000E+00  0.00000000000E+00  0.95768208991E+02  0.95768209025E+02  0.25500000920E-02 0. -1.
        2   -1    0    0  501    0  0.00000000000E+00  0.00000000000E+00 -0.16707499059E+04  0.16707499059E+04  0.25500000920E-02 0.  1.
    10030    2    1    2    0    0  0.00000000000E+00  0.00000000000E+00 -0.15749816969E+04  0.17665181149E+04  0.80001181538E+03 0.  0.
        1    1    3    3  502    0  0.18583832574E+03 -0.82928466836E+02 -0.15479026770E+04  0.15612225054E+04  0.50400001928E-02 0.  1.
       -1    1    3    3    0  502 -0.18583832574E+03  0.82928466836E+02 -0.27079019868E+02  0.20529560947E+03  0.50400001928E-02 0. -1.
</event>
<event>
 5   0  0.2873212E-03  0.7957870E+03  0.7818609E-02  0.9566135E-01
        2   -1    0    0  501    0  0.00000000000E+00  0.00000000000E+00  0.12092828467E+04  0.12092828467E+04  0.25500000920E-02 0.  1.
       -2   -1    0    0    0  501  0.00000000000E+00  0.00000000000E+00 -0.13091993898E+03  0.13091993901E+03  0.25500000920E-02 0. -1.
    10030    2    1    2    0    0  0.00000000000E+00  0.00000000000E+00  0.10783629077E+04  0.13402027857E+04  0.79578699793E+03 0.  0.
        2    1    3    3  502    0  0.38842639527E+03  0.11763263786E+02  0.68313007031E+03  0.78592628910E+03  0.25500000920E-02 0. -1.
       -2    1    3    3    0  502 -0.38842639527E+03 -0.11763263786E+02  0.39523283736E+03  0.55427649657E+03  0.25500000920E-02 0.  1.
</event>
<event>
 5   0  0.1712793E-03  0.7984408E+03  0.7818609E-02  0.9562277E-01
        1   -1    0    0  501    0  0.00000000000E+00  0.00000000000E+00  0.11311979532E+04  0.11311979532E+04  0.50400001928E-02 0.  1.
       -1   -1    0    0    0  501  0.00000000000E+00  0.00000000000E+00 -0.14089217920E+03  0.14089217929E+03  0.50400001928E-02 0. -1.
    10030    2    1    2    0    0  0.00000000000E+00  0.00000000000E+00  0.99030577399E+03  0.12720901325E+04  0.79844084264E+03 0.  0.
        4    1    3    3  502    0  0.12337487108E+03 -0.37050665163E+02  0.10971725631E+04  0.11047096255E+04  0.12699999809E+01 0.  1.
       -4    1    3    3    0  502 -0.12337487108E+03  0.37050665163E+02 -0.10686678910E+03  0.16738050698E+03  0.12699999809E+01 0. -1.
</event>
<event>
 5   0  0.1637228E-03  0.7989626E+03  0.7818609E-02  0.9561520E-01
        1   -1    0    0  501    0  0.00000000000E+00  0.00000000000E+00  0.10032798402E+04  0.10032798402E+04  0.50400001928E-02 0. -1.
       -1   -1    0    0    0  501  0.00000000000E+00  0.00000000000E+00 -0.15906360662E+03  0.15906360670E+03  0.50400001928E-02 0.  1.
    10030    2    1    2    0    0  0.00000000000E+00  0.00000000000E+00  0.84421623356E+03  0.11623434469E+04  0.79896260210E+03 0.  0.
        2    1    3    3  502    0  0.34553999171E+02  0.10358615653E+03  0.98114604595E+03  0.98720394761E+03  0.25500000920E-02 0. -1.
       -2    1    3    3    0  502 -0.34553999171E+02 -0.10358615653E+03 -0.13692981239E+03  0.17513949929E+03  0.25500000920E-02 0.  1.
</event>
<event>
 5   0  0.2768834E-03  0.7937879E+03  0.7818609E-02  0.9569053E-01
       -2   -1    0    0    0  501  0.00000000000E+00  0.00000000000E+00  0.53256429087E+03  0.53256429087E+03  0.25500000920E-02 0.  1.
        2   -1    0    0  501    0  0.00000000000E+00  0.00000000000E+00 -0.29578552100E+03  0.29578552101E+03  0.25500000920E-02 0. -1.
    10030    2    1    2    0    0  0.00000000000E+00  0.00000000000E+00  0.23677876987E+03  0.82834981188E+03  0.79378789672E+03 0.  0.
        4    1    3    3  502    0  0.10830442115E+03 -0.15899628402E+03 -0.24387630521E+03  0.31062345552E+03  0.12699999809E+01 0. -1.
       -4    1    3    3    0  502 -0.10830442115E+03  0.15899628402E+03  0.48065507508E+03  0.51772635637E+03  0.12699999809E+01 0.  1.
</event>
<event>
 5   0  0.2768834E-03  0.7998294E+03  0.7818609E-02  0.9560264E-01
        2   -1    0    0  501    0  0.00000000000E+00  0.00000000000E+00  0.65586277836E+03  0.65586277836E+03  0.25500000920E-02 0.  1.
       -2   -1    0    0    0  501  0.00000000000E+00  0.00000000000E+00 -0.24384945130E+03  0.24384945132E+03  0.25500000920E-02 0. -1.
    10030    2    1    2    0    0  0.00000000000E+00  0.00000000000E+00  0.41201332705E+03  0.89971222968E+03  0.79982942842E+03 0.  0.
        4    1    3    3  502    0 -0.97453210834E+01  0.37637402014E+03  0.35766867181E+03  0.51930806465E+03  0.12699999809E+01 0. -1.
       -4    1    3    3    0  502  0.97453210834E+01 -0.37637402014E+03  0.54344655244E+02  0.38040416503E+03  0.12699999809E+01 0.  1.
</event>
<event>
 5   0  0.1712793E-03  0.7994348E+03  0.7818609E-02  0.9560836E-01
        1   -1    0    0  501    0  0.00000000000E+00  0.00000000000E+00  0.12851874853E+04  0.12851874853E+04  0.50400001928E-02 0. -1.
       -1   -1    0    0    0  501  0.00000000000E+00  0.00000000000E+00 -0.12431959325E+03  0.12431959335E+03  0.50400001928E-02 0.  1.
    10030    2    1    2    0    0  0.00000000000E+00  0.00000000000E+00  0.11608678920E+04  0.14095070786E+04  0.79943476405E+03 0.  0.
        4    1    3    3  502    0 -0.97318253772E+02  0.15732133171E+03  0.12051680776E+04  0.12192836225E+04  0.12699999809E+01 0. -1.
       -4    1    3    3    0  502  0.97318253772E+02 -0.15732133171E+03 -0.44300185559E+02  0.19022345615E+03  0.12699999809E+01 0.  1.
</event>
<event>
 5   0  0.1637228E-03  0.8014988E+03  0.7818609E-02  0.9557850E-01
       -1   -1    0    0    0  501  0.00000000000E+00  0.00000000000E+00  0.53858245996E+03  0.53858245998E+03  0.50400001928E-02 0. -1.
        1   -1    0    0  501    0  0.00000000000E+00  0.00000000000E+00 -0.29819030858E+03  0.29819030862E+03  0.50400001928E-02 0.  1.
    10030    2    1    2    0    0  0.00000000000E+00  0.00000000000E+00  0.24039215138E+03  0.83677276860E+03  0.80149877095E+03 0.  0.
        2    1    3    3  502    0 -0.56927960592E+02  0.39428237572E+03  0.16571162650E+03  0.43146231314E+03  0.25500000920E-02 0. -1.
       -2    1    3    3    0  502  0.56927960592E+02 -0.39428237572E+03  0.74680524880E+02  0.40531045546E+03  0.25500000920E-02 0.  1.
</event>
<event>
 5   0  0.2690809E-03  0.7997418E+03  0.7818609E-02  0.9560391E-01
       -2   -1    0    0    0  501  0.00000000000E+00  0.00000000000E+00  0.35831392257E+03  0.35831392258E+03  0.25500000920E-02 0. -1.
        2   -1    0    0  501    0  0.00000000000E+00  0.00000000000E+00 -0.44624766157E+03  0.44624766157E+03  0.25500000920E-02 0.  1.
    10030    2    1    2    0    0  0.00000000000E+00  0.00000000000E+00 -0.87933738994E+02  0.80456158415E+03  0.79974183350E+03 0.  0.
        5    1    3    3  502    0 -0.29939710691E+03 -0.10664738845E+03  0.20011096370E+03  0.37560455386E+03  0.46999998093E+01 0. -1.
       -5    1    3    3    0  502  0.29939710691E+03  0.10664738845E+03 -0.28804470270E+03  0.42895703029E+03  0.46999998093E+01 0.  1.
</event>
<event>
 5   0  0.2690809E-03  0.7991006E+03  0.7818609E-02  0.9561320E-01
        2   -1    0    0  501    0  0.00000000000E+00  0.00000000000E+00  0.72886738453E+03  0.72886738453E+03  0.25500000920E-02 0.  1.
       -2   -1    0    0    0  501  0.00000000000E+00  0.00000000000E+00 -0.21902533427E+03  0.21902533428E+03  0.25500000920E-02 0. -1.
    10030    2    1    2    0    0  0.00000000000E+00  0.00000000000E+00  0.50984205026E+03  0.94789271882E+03  0.79910055073E+03 0.  0.
        5    1    3    3  502    0  0.56286378717E+02 -0.38395484106E+03  0.14220799535E+03  0.41332152175E+03  0.46999998093E+01 0. -1.
       -5    1    3    3    0  502 -0.56286378717E+02  0.38395484106E+03  0.36763405490E+03  0.53457119706E+03  0.46999998093E+01 0.  1.
</event>
<event>
 5   0  0.1640035E-03  0.7997315E+03  0.7818609E-02  0.9560406E-01
       -1   -1    0    0    0  501  0.00000000000E+00  0.00000000000E+00  0.33401636126E+03  0.33401636129E+03  0.50400001928E-02 0. -1.
        1   -1    0    0  501    0  0.00000000000E+00  0.00000000000E+00 -0.47869701453E+03  0.47869701456E+03  0.50400001928E-02 0.  1.
    10030    2    1    2    0    0  0.00000000000E+00  0.00000000000E+00 -0.14468065327E+03  0.81271337585E+03  0.79973154237E+03 0.  0.
        5    1    3    3  502    0 -0.47520711672E+02  0.97738166338E+02 -0.46337154884E+03  0.47596874841E+03  0.46999998093E+01 0.  1.
       -5    1    3    3    0  502  0.47520711672E+02 -0.97738166338E+02  0.31869089556E+03  0.33674462744E+03  0.46999998093E+01 0. -1.
</event>
<event>
 5   0  0.2873212E-03  0.8004932E+03  0.7818609E-02  0.9559304E-01
        2   -1    0    0  501    0  0.00000000000E+00  0.00000000000E+00  0.17204545139E+04  0.17204545139E+04  0.25500000920E-02 0. -1.
       -2   -1    0    0    0  501  0.00000000000E+00  0.00000000000E+00 -0.93113381242E+02  0.93113381277E+02  0.25500000920E-02 0.  1.
    10030    2    1    2    0    0  0.00000000000E+00  0.00000000000E+00  0.16273411327E+04  0.18135678952E+04  0.80049319072E+03 0.  0.
        2    1    3    3  502    0 -0.27621206828E+03 -0.12510259338E+03  0.22178347551E+03  0.37567495998E+03  0.25500000920E-02 0.  1.
       -2    1    3    3    0  502  0.27621206828E+03  0.12510259338E+03  0.14055576572E+04  0.14378929352E+04  0.25500000920E-02 0. -1.
</event>
<event>
 5   0  0.1712793E-03  0.7974330E+03  0.7818609E-02  0.9563740E-01
        1   -1    0    0  501    0  0.00000000000E+00  0.00000000000E+00  0.39530375563E+03  0.39530375566E+03  0.50400001928E-02 0. -1.
       -1   -1    0    0    0  501  0.00000000000E+00  0.00000000000E+00 -0.40215868109E+03  0.40215868112E+03  0.50400001928E-02 0.  1.
    10030    2    1    2    0    0  0.00000000000E+00  0.00000000000E+00 -0.68549254634E+01  0.79746243679E+03  0.79743297404E+03 0.  0.
        4    1    3    3  502    0 -0.75614972593E+02 -0.27479379992E+03 -0.28226381704E+03  0.40112807414E+03  0.12699999809E+01 0.  1.
       -4    1    3    3    0  502  0.75614972593E+02  0.27479379992E+03  0.27540889158E+03  0.39633436265E+03  0.12699999809E+01 0. -1.
</event>
<event>
 5   0  0.2763587E-03  0.7995721E+03  0.7818609E-02  0.9560637E-01
       -2   -1    0    0    0  501  0.00000000000E+00  0.00000000000E+00  0.98990201383E+02  0.98990201416E+02  0.25500000920E-02 0. -1.
        2   -1    0    0  501    0  0.00000000000E+00  0.00000000000E+00 -0.16145930182E+04  0.16145930182E+04  0.25500000920E-02 0.  1.
    10030    2    1    2    0    0  0.00000000000E+00  0.00000000000E+00 -0.15156028168E+04  0.17135832196E+04  0.79957210569E+03 0.  0.
        3    1    3    3  502    0  0.92977057285E+02 -0.11055705705E+03 -0.15567051805E+04  0.15633933047E+04  0.10100000352E+00 0.  1.
       -3    1    3    3    0  502 -0.92977057285E+02  0.11055705705E+03  0.41102363660E+02  0.15018991492E+03  0.10100000352E+00 0. -1.
</event>
<event>
 5   0  0.1095350E-03  0.8000884E+03  0.7818609E-02  0.9559889E-01
       -4   -1    0    0    0  501  0.00000000000E+00  0.00000000000E+00  0.58629842209E+03  0.58629979758E+03  0.12699999809E+01 0. -1.
        4   -1    0    0  501    0  0.00000000000E+00  0.00000000000E+00 -0.27295571986E+03  0.27295867436E+03  0.12699999809E+01 0.  1.
    10030    2    1    2    0    0  0.00000000000E+00  0.00000000000E+00  0.31334270223E+03  0.85925847194E+03  0.80008841546E+03 0.  0.
        2    1    3    3  502    0  0.14414173540E+03  0.30641574062E+03  0.38542092042E+03  0.51304652020E+03  0.25500000920E-02 0. -1.
       -2    1    3    3    0  502 -0.14414173540E+03 -0.30641574062E+03 -0.72078218187E+02  0.34621195174E+03  0.25500000920E-02 0.  1.
</event>
<event>
 5   0  0.2873212E-03  0.8018915E+03  0.7818609E-02  0.9557283E-01
       -2   -1    0    0    0  501  0.00000000000E+00  0.00000000000E+00  0.16715674689E+03  0.16715674691E+03  0.25500000920E-02 0. -1.
        2   -1    0    0  501    0  0.00000000000E+00  0.00000000000E+00 -0.96171699525E+03  0.96171699526E+03  0.25500000920E-02 0.  1.
    10030    2    1    2    0    0  0.00000000000E+00  0.00000000000E+00 -0.79456024837E+03  0.11288737422E+04  0.80189147487E+03 0.  0.
        2    1    3    3  502    0  0.73362888823E+02 -0.24853595579E+03 -0.82798508879E+03  0.86758950088E+03  0.25500000920E-02 0.  1.
       -2    1    3    3    0  502 -0.73362888823E+02  0.24853595579E+03  0.33424840421E+02  0.26128424128E+03  0.25500000920E-02 0. -1.
</event>
<event>
 5   0  0.1656051E-03  0.8081800E+03  0.7818609E-02  0.9548252E-01
       -1   -1    0    0    0  501  0.00000000000E+00  0.00000000000E+00  0.20756857852E+03  0.20756857859E+03  0.50400001928E-02 0. -1.
        1   -1    0    0  501    0  0.00000000000E+00  0.00000000000E+00 -0.78667353787E+03  0.78667353788E+03  0.50400001928E-02 0.  1.
    10030    2    1    2    0    0  0.00000000000E+00  0.00000000000E+00 -0.57910495934E+03  0.99424211647E+03  0.80817995040E+03 0.  0.
        3    1    3    3  502    0  0.80262481805E+02  0.21155012226E+03 -0.70143529667E+03  0.73702578369E+03  0.10100000352E+00 0.  1.
       -3    1    3    3    0  502 -0.80262481805E+02 -0.21155012226E+03  0.12233033733E+03  0.25721633277E+03  0.10100000352E+00 0. -1.
</event>
<event>
 5   0  0.2873212E-03  0.7969601E+03  0.7818609E-02  0.9564428E-01
        2   -1    0    0  501    0  0.00000000000E+00  0.00000000000E+00  0.46501712313E+03  0.46501712314E+03  0.25500000920E-02 0.  1.
       -2   -1    0    0    0  501  0.00000000000E+00  0.00000000000E+00 -0.34146346532E+03  0.34146346533E+03  0.25500000920E-02 0. -1.
    10030    2    1    2    0    0  0.00000000000E+00  0.00000000000E+00  0.12355365781E+03  0.80648058846E+03  0.79696012021E+03 0.  0.
        2    1    3    3  502    0  0.26318517683E+03 -0.26937747595E+03 -0.69992746075E+02  0.38305305946E+03  0.25500000920E-02 0. -1.
       -2    1    3    3    0  502 -0.26318517683E+03  0.26937747595E+03  0.19354640389E+03  0.42342752900E+03  0.25500000920E-02 0.  1.
</event>
<event>
 5   0  0.1640035E-03  0.8000666E+03  0.7818609E-02  0.9559921E-01
        1   -1    0    0  501    0  0.00000000000E+00  0.00000000000E+00  0.99134377730E+03  0.99134377732E+03  0.50400001928E-02 0.  1.
       -1   -1    0    0    0  501  0.00000000000E+00  0.00000000000E+00 -0.16142396179E+03  0.16142396187E+03  0.50400001928E-02 0. -1.
    10030    2    1    2    0    0  0.00000000000E+00  0.00000000000E+00  0.82991981551E+03  0.11527677392E+04  0.80006659743E+03 0.  0.
        5    1    3    3  502    0  0.28738213769E+03 -0.15595131214E+03  0.74696404108E+03  0.81540583361E+03  0.46999998093E+01 0.  1.
       -5    1    3    3    0  502 -0.28738213769E+03  0.15595131214E+03  0.82955774440E+02  0.33736190558E+03  0.46999998093E+01 0. -1.
</event>
<event>
 5   0  0.1712793E-03  0.8002785E+03  0.7818609E-02  0.9559614E-01
        1   -1    0    0  501    0  0.00000000000E+00  0.00000000000E+00  0.89149087287E+03  0.89149087288E+03  0.50400001928E-02 0. -1.
       -1   -1    0    0    0  501  0.00000000000E+00  0.00000000000E+00 -0.17959960760E+03  0.17959960767E+03  0.50400001928E-02 0.  1.
    10030    2    1    2    0    0  0.00000000000E+00  0.00000000000E+00  0.71189126526E+03  0.10710904806E+04  0.80027847901E+03 0.  0.
        4    1    3    3  502    0  0.31897632358E+03  0.96198320676E+02  0.59347069285E+02  0.33841350363E+03  0.12699999809E+01 0.  1.
       -4    1    3    3    0  502 -0.31897632358E+03 -0.96198320676E+02  0.65254419598E+03  0.73267697692E+03  0.12699999809E+01 0. -1.
</event>
<event>
 5   0  0.2763587E-03  0.7973393E+03  0.7818609E-02  0.9563876E-01
        2   -1    0    0  501    0  0.00000000000E+00  0.00000000000E+00  0.19211771913E+04  0.19211771913E+04  0.25500000920E-02 0. -1.
       -2   -1    0    0    0  501  0.00000000000E+00  0.00000000000E+00 -0.82729221047E+02  0.82729221087E+02  0.25500000920E-02 0.  1.
    10030    2    1    2    0    0  0.00000000000E+00  0.00000000000E+00  0.18384479703E+04  0.20039064124E+04  0.79733930688E+03 0.  0.
        3    1    3    3  502    0 -0.27069348075E+03  0.10266980774E+03  0.16080605479E+04  0.16339139469E+04  0.10100000352E+00 0. -1.
       -3    1    3    3    0  502  0.27069348075E+03 -0.10266980774E+03  0.23038742236E+03  0.36999246550E+03  0.10100000352E+00 0.  1.
</event>
<event>
 5   0  0.1656051E-03  0.8011649E+03  0.7818609E-02  0.9558332E-01
        1   -1    0    0  501    0  0.00000000000E+00  0.00000000000E+00  0.59515970148E+03  0.59515970150E+03  0.50400001928E-02 0.  1.
       -1   -1    0    0    0  501  0.00000000000E+00  0.00000000000E+00 -0.26961889912E+03  0.26961889917E+03  0.50400001928E-02 0. -1.
    10030    2    1    2    0    0  0.00000000000E+00  0.00000000000E+00  0.32554080236E+03  0.86477860067E+03  0.80116491072E+03 0.  0.
        3    1    3    3  502    0 -0.14366844482E+03 -0.34265815590E+03  0.32436029987E+03  0.49321886438E+03  0.10100000352E+00 0.  1.
       -3    1    3    3    0  502  0.14366844482E+03  0.34265815590E+03  0.11805024886E+01  0.37155973629E+03  0.10100000352E+00 0. -1.
</event>
<event>
 5   0  0.1637228E-03  0.8000307E+03  0.7818609E-02  0.9559973E-01
       -1   -1    0    0    0  501  0.00000000000E+00  0.00000000000E+00  0.42787789556E+03  0.42787789559E+03  0.50400001928E-02 0. -1.
        1   -1    0    0  501    0  0.00000000000E+00  0.00000000000E+00 -0.37396713641E+03  0.37396713645E+03  0.50400001928E-02 0.  1.
    10030    2    1    2    0    0  0.00000000000E+00  0.00000000000E+00  0.53910759146E+02  0.80184503203E+03  0.80003067781E+03 0.  0.
        2    1    3    3  502    0  0.25196424653E+03  0.57672810830E+02  0.33293470078E+03  0.42149454282E+03  0.25500000920E-02 0. -1.
       -2    1    3    3    0  502 -0.25196424653E+03 -0.57672810830E+02 -0.27902394163E+03  0.38035048922E+03  0.25500000920E-02 0.  1.
</event>
<event>
 5   0  0.1637228E-03  0.8000699E+03  0.7818609E-02  0.9559916E-01
       -1   -1    0    0    0  501  0.00000000000E+00  0.00000000000E+00  0.16471118164E+03  0.16471118171E+03  0.50400001928E-02 0.  1.
        1   -1    0    0  501    0  0.00000000000E+00  0.00000000000E+00 -0.97156699887E+03  0.97156699888E+03  0.50400001928E-02 0. -1.
    10030    2    1    2    0    0  0.00000000000E+00  0.00000000000E+00 -0.80685581723E+03  0.11362781806E+04  0.80006986814E+03 0.  0.
        2    1    3    3  502    0 -0.24990654153E+03  0.24752684145E+03 -0.67403598939E+03  0.76029424024E+03  0.25500000920E-02 0. -1.
       -2    1    3    3    0  502  0.24990654153E+03 -0.24752684145E+03 -0.13281982784E+03  0.37598394036E+03  0.25500000920E-02 0.  1.
</event>
<event>
 5   0  0.2768834E-03  0.8027658E+03  0.7818609E-02  0.9556022E-01
        2   -1    0    0  501    0  0.00000000000E+00  0.00000000000E+00  0.25179547141E+03  0.25179547142E+03  0.25500000920E-02 0.  1.
       -2   -1    0    0    0  501  0.00000000000E+00  0.00000000000E+00 -0.63983768360E+03  0.63983768361E+03  0.25500000920E-02 0. -1.
    10030    2    1    2    0    0  0.00000000000E+00  0.00000000000E+00 -0.38804221220E+03  0.89163315502E+03  0.80276579691E+03 0.  0.
        4    1    3    3  502    0  0.18849830598E+03 -0.12516943084E+03  0.17420218177E+03  0.28556437244E+03  0.12699999809E+01 0.  1.
       -4    1    3    3    0  502 -0.18849830598E+03  0.12516943084E+03 -0.56224439397E+03  0.60606878258E+03  0.12699999809E+01 0. -1.
</event>
<event>
 5   0  0.1712793E-03  0.8028830E+03  0.7818609E-02  0.9555853E-01
       -1   -1    0    0    0  501  0.00000000000E+00  0.00000000000E+00  0.86091484930E+02  0.86091485078E+02  0.50400001928E-02 0.  1.
        1   -1    0    0  501    0  0.00000000000E+00  0.00000000000E+00 -0.18719073067E+04  0.18719073067E+04  0.50400001928E-02 0. -1.
    10030    2    1    2    0    0  0.00000000000E+00  0.00000000000E+00 -0.17858158217E+04  0.19579987918E+04  0.80288300476E+03 0.  0.
        4    1    3    3  502    0  0.35632333381E+03 -0.12047779708E+03 -0.55085808794E+03  0.66702883277E+03  0.12699999809E+01 0. -1.
       -4    1    3    3    0  502 -0.35632333381E+03  0.12047779708E+03 -0.12349577338E+04  0.12909699590E+04  0.12699999809E+01 0.  1.
</event>
<event>
 5   0  0.1617491E-03  0.8075272E+03  0.7818609E-02  0.9549185E-01
        1   -1    0    0  501    0  0.00000000000E+00  0.00000000000E+00  0.16453505664E+03  0.16453505671E+03  0.50400001928E-02 0. -1.
       -1   -1    0    0    0  501  0.00000000000E+00  0.00000000000E+00 -0.99082242915E+03  0.99082242916E+03  0.50400001928E-02 0.  1.
    10030    2    1    2    0    0  0.00000000000E+00  0.00000000000E+00 -0.82628737251E+03  0.11553574859E+04  0.80752715013E+03 0.  0.
        1    1    3    3  502    0  0.35883834959E+02  0.26859321971E+03  0.15110163214E+02  0.27140059754E+03  0.50400001928E-02 0. -1.
       -1    1    3    3    0  502 -0.35883834959E+02 -0.26859321971E+03 -0.84139753572E+03  0.88395688833E+03  0.50400001928E-02 0.  1.
</event>
<event>
 5   0  0.2690809E-03  0.8053510E+03  0.7818609E-02  0.9552304E-01
        2   -1    0    0  501    0  0.00000000000E+00  0.00000000000E+00  0.84621607536E+03  0.84621607537E+03  0.25500000920E-02 0. -1.
       -2   -1    0    0    0  501  0.00000000000E+00  0.00000000000E+00 -0.19161483647E+03  0.19161483649E+03  0.25500000920E-02 0.  1.
    10030    2    1    2    0    0  0.00000000000E+00  0.00000000000E+00  0.65460123889E+03  0.10378309119E+04  0.80535099159E+03 0.  0.
        5    1    3    3  502    0  0.22993269379E+03 -0.24396664167E+03  0.61469606620E+03  0.70018719620E+03  0.46999998093E+01 0. -1.
       -5    1    3    3    0  502 -0.22993269379E+03  0.24396664167E+03  0.39905172691E+02  0.33764371566E+03  0.46999998093E+01 0.  1.
</event>
<event>
 5   0  0.2910501E-03  0.8013434E+03  0.7818609E-02  0.9558075E-01
        2   -1    0    0  501    0  0.00000000000E+00  0.00000000000E+00  0.60894879674E+03  0.60894879675E+03  0.25500000920E-02 0.  1.
       -2   -1    0    0    0  501  0.00000000000E+00  0.00000000000E+00 -0.26363105801E+03  0.26363105802E+03  0.25500000920E-02 0. -1.
    10030    2    1    2    0    0  0.00000000000E+00  0.00000000000E+00  0.34531773873E+03  0.87257985477E+03  0.80134341095E+03 0.  0.
        1    1    3    3  502    0  0.37793708180E+03 -0.13278507623E+03  0.18173671702E+03  0.43988242589E+03  0.50400001928E-02 0.  1.
       -1    1    3    3    0  502 -0.37793708180E+03  0.13278507623E+03  0.16358102171E+03  0.43269742888E+03  0.50400001928E-02 0. -1.
</event>
<event>
 5   0  0.2910501E-03  0.8024684E+03  0.7818609E-02  0.9556451E-01
        2   -1    0    0  501    0  0.00000000000E+00  0.00000000000E+00  0.79458401043E+03  0.79458401044E+03  0.25500000920E-02 0. -1.
       -2   -1    0    0    0  501  0.00000000000E+00  0.00000000000E+00 -0.20260775398E+03  0.20260775400E+03  0.25500000920E-02 0.  1.
    10030    2    1    2    0    0  0.00000000000E+00  0.00000000000E+00  0.59197625646E+03  0.99719176443E+03  0.80246839617E+03 0.  0.
        1    1    3    3  502    0 -0.87967968169E+02 -0.11993430865E+02  0.78222491125E+03  0.78724711343E+03  0.50400001928E-02 0. -1.
       -1    1    3    3    0  502  0.87967968169E+02  0.11993430865E+02 -0.19024865479E+03  0.20994465100E+03  0.50400001928E-02 0.  1.
</event>
<event>
 5   0  0.1095350E-03  0.7979528E+03  0.7818609E-02  0.9562985E-01
       -3   -1    0    0    0  501  0.00000000000E+00  0.00000000000E+00  0.14432434500E+04  0.14432434535E+04  0.10100000352E+00 0.  1.
        3   -1    0    0  501    0  0.00000000000E+00  0.00000000000E+00 -0.11029471262E+03  0.11029475886E+03  0.10100000352E+00 0. -1.
    10030    2    1    2    0    0  0.00000000000E+00  0.00000000000E+00  0.13329487374E+04  0.15535382124E+04  0.79795278112E+03 0.  0.
        5    1    3    3  502    0  0.21933571579E+03  0.29832084879E+03  0.95561816923E+03  0.10248568975E+04  0.46999998093E+01 0.  1.
       -5    1    3    3    0  502 -0.21933571579E+03 -0.29832084879E+03  0.37733056816E+03  0.52868131488E+03  0.46999998093E+01 0. -1.
</event>
<event>
 5   0  0.1656051E-03  0.8125556E+03  0.7818609E-02  0.9542019E-01
       -1   -1    0    0    0  501  0.00000000000E+00  0.00000000000E+00  0.30290878163E+03  0.30290878167E+03  0.50400001928E-02 0. -1.
        1   -1    0    0  501    0  0.00000000000E+00  0.00000000000E+00 -0.54492199270E+03  0.54492199272E+03  0.50400001928E-02 0.  1.
    10030    2    1    2    0    0  0.00000000000E+00  0.00000000000E+00 -0.24201321107E+03  0.84783077439E+03  0.81255561512E+03 0.  0.
        3    1    3    3  502    0 -0.39779422241E+03  0.42486534257E+02 -0.47106044817E+02  0.40282047941E+03  0.10100000352E+00 0. -1.
       -3    1    3    3    0  502  0.39779422241E+03 -0.42486534257E+02 -0.19490716625E+03  0.44501029497E+03  0.10100000352E+00 0.  1.
</event>
<event>
 5   0  0.2690809E-03  0.7987733E+03  0.7818609E-02  0.9561794E-01
        2   -1    0    0  501    0  0.00000000000E+00  0.00000000000E+00  0.47963413281E+03  0.47963413282E+03  0.25500000920E-02 0.  1.
       -2   -1    0    0    0  501  0.00000000000E+00  0.00000000000E+00 -0.33256531701E+03  0.33256531702E+03  0.25500000920E-02 0. -1.
    10030    2    1    2    0    0  0.00000000000E+00  0.00000000000E+00  0.14706881580E+03  0.81219944984E+03  0.79877325302E+03 0.  0.
        5    1    3    3  502    0  0.34189129092E+03 -0.17608011288E+03 -0.35949603696E+02  0.38627493442E+03  0.46999998093E+01 0.  1.
       -5    1    3    3    0  502 -0.34189129092E+03  0.17608011288E+03  0.18301841950E+03  0.42592451542E+03  0.46999998093E+01 0. -1.
</event>
<event>
 5   0  0.2873212E-03  0.8031643E+03  0.7818609E-02  0.9555448E-01
        2   -1    0    0  501    0  0.00000000000E+00  0.00000000000E+00  0.43096391987E+03  0.43096391988E+03  0.25500000920E-02 0. -1.
       -2   -1    0    0    0  501  0.00000000000E+00  0.00000000000E+00 -0.37420350785E+03  0.37420350786E+03  0.25500000920E-02 0.  1.
    10030    2    1    2    0    0  0.00000000000E+00  0.00000000000E+00  0.56760412026E+02  0.80516742774E+03  0.80316426858E+03 0.  0.
        2    1    3    3  502    0 -0.16907619535E+03 -0.22856008632E+03  0.31271011117E+03  0.42262759793E+03  0.25500000920E-02 0. -1.
       -2    1    3    3    0  502  0.16907619535E+03  0.22856008632E+03 -0.25594969914E+03  0.38253982981E+03  0.25500000920E-02 0.  1.
</event>
<event>
 5   0  0.1640035E-03  0.7998185E+03  0.7818609E-02  0.9560280E-01
       -1   -1    0    0    0  501  0.00000000000E+00  0.00000000000E+00  0.21213320506E+03  0.21213320512E+03  0.50400001928E-02 0.  1.
        1   -1    0    0  501    0  0.00000000000E+00  0.00000000000E+00 -0.75390095839E+03  0.75390095841E+03  0.50400001928E-02 0. -1.
    10030    2    1    2    0    0  0.00000000000E+00  0.00000000000E+00 -0.54176775334E+03  0.96603416353E+03  0.79981854601E+03 0.  0.
        5    1    3    3  502    0 -0.24832607582E+03  0.21115542081E+03  0.88838119648E+01  0.32611878784E+03  0.46999998093E+01 0.  1.
       -5    1    3    3    0  502  0.24832607582E+03 -0.21115542081E+03 -0.55065156530E+03  0.63991537568E+03  0.46999998093E+01 0. -1.
</event>
<event>
 5   0  0.2910501E-03  0.7998468E+03  0.7818609E-02  0.9560239E-01
        2   -1    0    0  501    0  0.00000000000E+00  0.00000000000E+00  0.18900485200E+04  0.18900485200E+04  0.25500000920E-02 0.  1.
       -2   -1    0    0    0  501  0.00000000000E+00  0.00000000000E+00 -0.84621488002E+02  0.84621488040E+02  0.25500000920E-02 0. -1.
    10030    2    1    2    0    0  0.00000000000E+00  0.00000000000E+00  0.18054270320E+04  0.19746700080E+04  0.79984678082E+03 0.  0.
        1    1    3    3  502    0 -0.33585592046E+03  0.12750540875E+03  0.13365635760E+04  0.13840010915E+04  0.50400001928E-02 0.  1.
       -1    1    3    3    0  502  0.33585592046E+03 -0.12750540875E+03  0.46886345599E+03  0.59066891653E+03  0.50400001928E-02 0. -1.
</event>
<event>
 5   0  0.2768834E-03  0.7998925E+03  0.7818609E-02  0.9560173E-01
        2   -1    0    0  501    0  0.00000000000E+00  0.00000000000E+00  0.34714915435E+03  0.34714915436E+03  0.25500000920E-02 0.  1.
       -2   -1    0    0    0  501  0.00000000000E+00  0.00000000000E+00 -0.46077311294E+03  0.46077311295E+03  0.25500000920E-02 0. -1.
    10030    2    1    2    0    0  0.00000000000E+00  0.00000000000E+00 -0.11362395859E+03  0.80792226731E+03  0.79989248405E+03 0.  0.
        4    1    3    3  502    0  0.33804757285E+03 -0.14805886519E+03  0.98870960175E+02  0.38206631458E+03  0.12699999809E+01 0.  1.
       -4    1    3    3    0  502 -0.33804757285E+03  0.14805886519E+03 -0.21249491877E+03  0.42585595273E+03  0.12699999809E+01 0. -1.
</event>
<event>
 5   0  0.2910501E-03  0.7987495E+03  0.7818609E-02  0.9561829E-01
       -2   -1    0    0    0  501  0.00000000000E+00  0.00000000000E+00  0.26676822884E+03  0.26676822886E+03  0.25500000920E-02 0. -1.
        2   -1    0    0  501    0  0.00000000000E+00  0.00000000000E+00 -0.59789801261E+03  0.59789801262E+03  0.25500000920E-02 0.  1.
    10030    2    1    2    0    0  0.00000000000E+00  0.00000000000E+00 -0.33112978377E+03  0.86466624148E+03  0.79874950732E+03 0.  0.
        1    1    3    3  502    0 -0.10752999932E+02 -0.36166020214E+03 -0.34859314187E+03  0.50242502665E+03  0.50400001928E-02 0.  1.
       -1    1    3    3    0  502  0.10752999932E+02  0.36166020214E+03  0.17463358102E+02  0.36224121483E+03  0.50400001928E-02 0. -1.
</event>
<event>
 5   0  0.2873212E-03  0.8006575E+03  0.7818609E-02  0.9559066E-01
       -2   -1    0    0    0  501  0.00000000000E+00  0.00000000000E+00  0.24043868858E+03  0.24043868859E+03  0.25500000920E-02 0.  1.
        2   -1    0    0  501    0  0.00000000000E+00  0.00000000000E+00 -0.66654454368E+03  0.66654454369E+03  0.25500000920E-02 0. -1.
    10030    2    1    2    0    0  0.00000000000E+00  0.00000000000E+00 -0.42610585511E+03  0.90698323228E+03  0.80065746976E+03 0.  0.
        2    1    3    3  502    0  0.31338817690E+03 -0.23031081000E+03 -0.10553924679E+03  0.40298108050E+03  0.25500000920E-02 0.  1.
       -2    1    3    3    0  502 -0.31338817690E+03  0.23031081000E+03 -0.32056660832E+03  0.50400215178E+03  0.25500000920E-02 0. -1.
</event>
<event>
 5   0  0.1637228E-03  0.7987172E+03  0.7818609E-02  0.9561876E-01
       -1   -1    0    0    0  501  0.00000000000E+00  0.00000000000E+00  0.10678187041E+03  0.10678187053E+03  0.50400001928E-02 0.  1.
        1   -1    0    0  501    0  0.00000000000E+00  0.00000000000E+00 -0.14935801171E+04  0.14935801171E+04  0.50400001928E-02 0. -1.
    10030    2    1    2    0    0  0.00000000000E+00  0.00000000000E+00 -0.13867982467E+04  0.16003619876E+04  0.79871716801E+03 0.  0.
        2    1    3    3  502    0 -0.26713401030E+03  0.84921581452E+02 -0.12344514174E+03  0.30628574482E+03  0.25500000920E-02 0.  1.
       -2    1    3    3    0  502  0.26713401030E+03 -0.84921581452E+02 -0.12633531049E+04  0.12940762428E+04  0.25500000920E-02 0. -1.
</event>
<event>
 5   0  0.1637228E-03  0.8019777E+03  0.7818609E-02  0.9557159E-01
        1   -1    0    0  501    0  0.00000000000E+00  0.00000000000E+00  0.11908473866E+04  0.11908473866E+04  0.50400001928E-02 0.  1.
       -1   -1    0    0    0  501  0.00000000000E+00  0.00000000000E+00 -0.13502321812E+03  0.13502321822E+03  0.50400001928E-02 0. -1.
    10030    2    1    2    0    0  0.00000000000E+00  0.00000000000E+00  0.10558241685E+04  0.13258706049E+04  0.80197767177E+03 0.  0.
        2    1    3    3  502    0  0.11124243986E+02 -0.15870298450E+03  0.11364380586E+04  0.11475198679E+04  0.25500000920E-02 0.  1.
       -2    1    3    3    0  502 -0.11124243986E+02  0.15870298450E+03 -0.80613890114E+02  0.17835073697E+03  0.25500000920E-02 0. -1.
</event>
<event>
 5   0  0.2910501E-03  0.8001646E+03  0.7818609E-02  0.9559779E-01
        2   -1    0    0  501    0  0.00000000000E+00  0.00000000000E+00  0.12154381405E+04  0.12154381405E+04  0.25500000920E-02 0. -1.
       -2   -1    0    0    0  501  0.00000000000E+00  0.00000000000E+00 -0.13169395934E+03  0.13169395936E+03  0.25500000920E-02 0.  1.
    10030    2    1    2    0    0  0.00000000000E+00  0.00000000000E+00  0.10837441811E+04  0.13471320998E+04  0.80016463573E+03 0.  0.
        1    1    3    3  502    0  0.29187264864E+03 -0.31568088489E+01  0.81219116903E+02  0.30297880031E+03  0.50400001928E-02 0.  1.
       -1    1    3    3    0  502 -0.29187264864E+03  0.31568088489E+01  0.10025250642E+04  0.10441532995E+04  0.50400001928E-02 0. -1.
</event>
<event>
 5   0  0.1617491E-03  0.8005049E+03  0.7818609E-02  0.9559287E-01
       -1   -1    0    0    0  501  0.00000000000E+00  0.00000000000E+00  0.86869285721E+03  0.86869285722E+03  0.50400001928E-02 0.  1.
        1   -1    0    0  501    0  0.00000000000E+00  0.00000000000E+00 -0.18441734361E+03  0.18441734368E+03  0.50400001928E-02 0. -1.
    10030    2    1    2    0    0  0.00000000000E+00  0.00000000000E+00  0.68427551360E+03  0.10531102009E+04  0.80050491362E+03 0.  0.
        1    1    3    3  502    0  0.15623181199E+02  0.38731400006E+03  0.47333657181E+03  0.61180366841E+03  0.50400001928E-02 0.  1.
       -1    1    3    3    0  502 -0.15623181199E+02 -0.38731400006E+03  0.21093894178E+03  0.44130653249E+03  0.50400001928E-02 0. -1.
</event>
<event>
 5   0  0.1640035E-03  0.7994525E+03  0.7818609E-02  0.9560810E-01
       -1   -1    0    0    0  501  0.00000000000E+00  0.00000000000E+00  0.71521363146E+03  0.71521363148E+03  0.50400001928E-02 0.  1.
        1   -1    0    0  501    0  0.00000000000E+00  0.00000000000E+00 -0.22340330441E+03  0.22340330446E+03  0.50400001928E-02 0. -1.
    10030    2    1    2    0    0  0.00000000000E+00  0.00000000000E+00  0.49181032705E+03  0.93861693594E+03  0.79945253433E+03 0.  0.
        5    1    3    3  502    0  0.54139552864E+02  0.39311862412E+03  0.30203593700E+03  0.49871950138E+03  0.46999998093E+01 0. -1.
       -5    1    3    3    0  502 -0.54139552864E+02 -0.39311862412E+03  0.18977439005E+03  0.43989743456E+03  0.46999998093E+01 0.  1.
</event>
<event>
 5   0  0.2763587E-03  0.8010978E+03  0.7818609E-02  0.9558429E-01
       -2   -1    0    0    0  501  0.00000000000E+00  0.00000000000E+00  0.18235540790E+03  0.18235540792E+03  0.25500000920E-02 0.  1.
        2   -1    0    0  501    0  0.00000000000E+00  0.00000000000E+00 -0.87981725788E+03  0.87981725788E+03  0.25500000920E-02 0. -1.
    10030    2    1    2    0    0  0.00000000000E+00  0.00000000000E+00 -0.69746184997E+03  0.10621726658E+04  0.80109783411E+03 0.  0.
        3    1    3    3  502    0 -0.32254995256E+03  0.44393735085E+02 -0.39395736853E+02  0.32796540960E+03  0.10100000352E+00 0.  1.
       -3    1    3    3    0  502  0.32254995256E+03 -0.44393735085E+02 -0.65806611312E+03  0.73420725620E+03  0.10100000352E+00 0. -1.
</event>
<event>
 5   0  0.1712793E-03  0.8001566E+03  0.7818609E-02  0.9559790E-01
       -1   -1    0    0    0  501  0.00000000000E+00  0.00000000000E+00  0.34381617980E+03  0.34381617983E+03  0.50400001928E-02 0.  1.
        1   -1    0    0  501    0  0.00000000000E+00  0.00000000000E+00 -0.46554721465E+03  0.46554721468E+03  0.50400001928E-02 0. -1.
    10030    2    1    2    0    0  0.00000000000E+00  0.00000000000E+00 -0.12173103485E+03  0.80936339451E+03  0.80015664687E+03 0.  0.
        4    1    3    3  502    0  0.10350063215E+03 -0.29717629214E+03  0.18902958229E+03  0.36709661582E+03  0.12699999809E+01 0.  1.
       -4    1    3    3    0  502 -0.10350063215E+03  0.29717629214E+03 -0.31076061714E+03  0.44226677869E+03  0.12699999809E+01 0. -1.
</event>
<event>
 5   0  0.2873212E-03  0.8003812E+03  0.7818609E-02  0.9559465E-01
        2   -1    0    0  501    0  0.00000000000E+00  0.00000000000E+00  0.21605013240E+04  0.21605013240E+04  0.25500000920E-02 0.  1.
       -2   -1    0    0    0  501  0.00000000000E+00  0.00000000000E+00 -0.74127485996E+02  0.74127486040E+02  0.25500000920E-02 0. -1.
    10030    2    1    2    0    0  0.00000000000E+00  0.00000000000E+00  0.20863738380E+04  0.22346288100E+04  0.80038123838E+03 0.  0.
        2    1    3    3  502    0 -0.96954727669E+01 -0.35780828766E+03  0.15428748803E+04  0.15838508987E+04  0.25500000920E-02 0.  1.
       -2    1    3    3    0  502  0.96954727669E+01  0.35780828766E+03  0.54349895771E+03  0.65077791139E+03  0.25500000920E-02 0. -1.
</event>
<event>
 5   0  0.1712793E-03  0.7999728E+03  0.7818609E-02  0.9560056E-01
        1   -1    0    0  501    0  0.00000000000E+00  0.00000000000E+00  0.61136381558E+03  0.61136381560E+03  0.50400001928E-02 0.  1.
       -1   -1    0    0    0  501  0.00000000000E+00  0.00000000000E+00 -0.26169216571E+03  0.26169216576E+03  0.50400001928E-02 0. -1.
    10030    2    1    2    0    0  0.00000000000E+00  0.00000000000E+00  0.34967164987E+03  0.87305598136E+03  0.79997280195E+03 0.  0.
        4    1    3    3  502    0 -0.29887633570E+03  0.16729708891E+03  0.40028000129E+03  0.52682167033E+03  0.12699999809E+01 0.  1.
       -4    1    3    3    0  502  0.29887633570E+03 -0.16729708891E+03 -0.50608351416E+02  0.34623431103E+03  0.12699999809E+01 0. -1.
</event>
<event>
 5   0  0.1617491E-03  0.7998352E+03  0.7818609E-02  0.9560256E-01
        1   -1    0    0  501    0  0.00000000000E+00  0.00000000000E+00  0.30115698575E+03  0.30115698579E+03  0.50400001928E-02 0. -1.
       -1   -1    0    0    0  501  0.00000000000E+00  0.00000000000E+00 -0.53106549249E+03  0.53106549252E+03  0.50400001928E-02 0.  1.
    10030    2    1    2    0    0  0.00000000000E+00  0.00000000000E+00 -0.22990850674E+03  0.83222247831E+03  0.79983519048E+03 0.  0.
        1    1    3    3  502    0  0.91472545113E+02  0.36789326871E+03  0.17566254377E+02  0.37950132673E+03  0.50400001928E-02 0. -1.
       -1    1    3    3    0  502 -0.91472545113E+02 -0.36789326871E+03 -0.24747476112E+03  0.45272115158E+03  0.50400001928E-02 0.  1.
</event>
<event>
 5   0  0.2690809E-03  0.7995047E+03  0.7818609E-02  0.9560734E-01
       -2   -1    0    0    0  501  0.00000000000E+00  0.00000000000E+00  0.56687746994E+03  0.56687746995E+03  0.25500000920E-02 0.  1.
        2   -1    0    0  501    0  0.00000000000E+00  0.00000000000E+00 -0.28189858101E+03  0.28189858102E+03  0.25500000920E-02 0. -1.
    10030    2    1    2    0    0  0.00000000000E+00  0.00000000000E+00  0.28497888894E+03  0.84877605097E+03  0.79950473267E+03 0.  0.
        5    1    3    3  502    0 -0.32504529752E+03 -0.27595378352E+02  0.38773204693E+03  0.50672890243E+03  0.46999998093E+01 0.  1.
       -5    1    3    3    0  502  0.32504529752E+03  0.27595378352E+02 -0.10275315799E+03  0.34204714854E+03  0.46999998093E+01 0. -1.
</event>
<event>
 5   0  0.1656051E-03  0.8004616E+03  0.7818609E-02  0.9559349E-01
       -1   -1    0    0    0  501  0.00000000000E+00  0.00000000000E+00  0.14548266405E+03  0.14548266414E+03  0.50400001928E-02 0. -1.
        1   -1    0    0  501    0  0.00000000000E+00  0.00000000000E+00 -0.11010570307E+04  0.11010570307E+04  0.50400001928E-02 0.  1.
    10030    2    1    2    0    0  0.00000000000E+00  0.00000000000E+00 -0.95557436665E+03  0.12465396949E+04  0.80046164222E+03 0.  0.
        3    1    3    3  502    0 -0.38177553253E+03 -0.40189287230E+02 -0.30148480620E+03  0.48811969292E+03  0.10100000352E+00 0. -1.
       -3    1    3    3    0  502  0.38177553253E+03  0.40189287230E+02 -0.65408956046E+03  0.75842000194E+03  0.10100000352E+00 0.  1.
</event>
<event>
 5   0  0.1656051E-03  0.7972900E+03  0.7818609E-02  0.9563948E-01
        1   -1    0    0  501    0  0.00000000000E+00  0.00000000000E+00  0.27448945060E+03  0.27448945065E+03  0.50400001928E-02 0. -1.
       -1   -1    0    0    0  501  0.00000000000E+00  0.00000000000E+00 -0.57895792946E+03  0.57895792948E+03  0.50400001928E-02 0.  1.
    10030    2    1    2    0    0  0.00000000000E+00  0.00000000000E+00 -0.30446847886E+03  0.85344738013E+03  0.79729002003E+03 0.  0.
        3    1    3    3  502    0  0.39068824761E+03  0.24987038948E+02 -0.23273905061E+03  0.45544388767E+03  0.10100000352E+00 0.  1.
       -3    1    3    3    0  502 -0.39068824761E+03 -0.24987038948E+02 -0.71729428252E+02  0.39800349246E+03  0.10100000352E+00 0. -1.
</event>
<event>
 5   0  0.2873212E-03  0.8039011E+03  0.7818609E-02  0.9554388E-01
        2   -1    0    0  501    0  0.00000000000E+00  0.00000000000E+00  0.17087680393E+03  0.17087680395E+03  0.25500000920E-02 0. -1.
       -2   -1    0    0    0  501  0.00000000000E+00  0.00000000000E+00 -0.94550132834E+03  0.94550132835E+03  0.25500000920E-02 0.  1.
    10030    2    1    2    0    0  0.00000000000E+00  0.00000000000E+00 -0.77462452441E+03  0.11163781323E+04  0.80390110117E+03 0.  0.
        2    1    3    3  502    0 -0.12817568711E+03  0.34529979143E+03 -0.16380780874E+03  0.40310538441E+03  0.25500000920E-02 0. -1.
       -2    1    3    3    0  502  0.12817568711E+03 -0.34529979143E+03 -0.61081671567E+03  0.71327274788E+03  0.25500000920E-02 0.  1.
</event>
<event>
 5   0  0.2768834E-03  0.7996576E+03  0.7818609E-02  0.9560513E-01
        2   -1    0    0  501    0  0.00000000000E+00  0.00000000000E+00  0.93953943892E+03  0.93953943892E+03  0.25500000920E-02 0. -1.
       -2   -1    0    0    0  501  0.00000000000E+00  0.00000000000E+00 -0.17015047185E+03  0.17015047187E+03  0.25500000920E-02 0.  1.
    10030    2    1    2    0    0  0.00000000000E+00  0.00000000000E+00  0.76938896707E+03  0.11096899108E+04  0.79965762390E+03 0.  0.
        4    1    3    3  502    0 -0.29542442747E+03  0.50083906265E+02  0.75205018183E+03  0.80954621789E+03  0.12699999809E+01 0. -1.
       -4    1    3    3    0  502  0.29542442747E+03 -0.50083906265E+02  0.17338785238E+02  0.30014369290E+03  0.12699999809E+01 0.  1.
</event>
<event>
 5   0  0.1656051E-03  0.8001919E+03  0.7818609E-02  0.9559739E-01
       -1   -1    0    0    0  501  0.00000000000E+00  0.00000000000E+00  0.45748497638E+03  0.45748497640E+03  0.50400001928E-02 0. -1.
        1   -1    0    0  501    0  0.00000000000E+00  0.00000000000E+00 -0.34990603272E+03  0.34990603275E+03  0.50400001928E-02 0.  1.
    10030    2    1    2    0    0  0.00000000000E+00  0.00000000000E+00  0.10757894366E+03  0.80739100916E+03  0.80019185984E+03 0.  0.
        3    1    3    3  502    0  0.17451520309E+03  0.10248579481E+03  0.40202910807E+03  0.45009588777E+03  0.10100000352E+00 0. -1.
       -3    1    3    3    0  502 -0.17451520309E+03 -0.10248579481E+03 -0.29445016441E+03  0.35729512139E+03  0.10100000352E+00 0.  1.
</event>
<event>
 5   0  0.2873212E-03  0.7989264E+03  0.7818609E-02  0.9561572E-01
        2   -1    0    0  501    0  0.00000000000E+00  0.00000000000E+00  0.10654171054E+04  0.10654171054E+04  0.25500000920E-02 0. -1.
       -2   -1    0    0    0  501  0.00000000000E+00  0.00000000000E+00 -0.14977313556E+03  0.14977313558E+03  0.25500000920E-02 0.  1.
    10030    2    1    2    0    0  0.00000000000E+00  0.00000000000E+00  0.91564396987E+03  0.12151902410E+04  0.79892643110E+03 0.  0.
        2    1    3    3  502    0  0.46591808764E+02 -0.55289363017E+02 -0.13973752716E+03  0.15733495102E+03  0.25500000920E-02 0.  1.
       -2    1    3    3    0  502 -0.46591808764E+02  0.55289363017E+02  0.10553814970E+04  0.10578552900E+04  0.25500000920E-02 0. -1.
</event>
<event>
 5   0  0.2768834E-03  0.8005500E+03  0.7818609E-02  0.9559221E-01
       -2   -1    0    0    0  501  0.00000000000E+00  0.00000000000E+00  0.33070713386E+03  0.33070713387E+03  0.25500000920E-02 0. -1.
        2   -1    0    0  501    0  0.00000000000E+00  0.00000000000E+00 -0.48447722583E+03  0.48447722584E+03  0.25500000920E-02 0.  1.
    10030    2    1    2    0    0  0.00000000000E+00  0.00000000000E+00 -0.15377009198E+03  0.81518435971E+03  0.80054999789E+03 0.  0.
        4    1    3    3  502    0 -0.38635823830E+03  0.70157515276E+02  0.21462172353E+01  0.39268433175E+03  0.12699999809E+01 0. -1.
       -4    1    3    3    0  502  0.38635823830E+03 -0.70157515276E+02 -0.15591630921E+03  0.42250002796E+03  0.12699999809E+01 0.  1.
</event>
<event>
 5   0  0.2763587E-03  0.8008226E+03  0.7818609E-02  0.9558827E-01
       -2   -1    0    0    0  501  0.00000000000E+00  0.00000000000E+00  0.33109077022E+03  0.33109077023E+03  0.25500000920E-02 0.  1.
        2   -1    0    0  501    0  0.00000000000E+00  0.00000000000E+00 -0.48424545744E+03  0.48424545745E+03  0.25500000920E-02 0. -1.
    10030    2    1    2    0    0  0.00000000000E+00  0.00000000000E+00 -0.15315468722E+03  0.81533622768E+03  0.80082258082E+03 0.  0.
        3    1    3    3  502    0  0.11392579088E+03  0.37277931886E+03  0.16655664919E+02  0.39015500480E+03  0.10100000352E+00 0.  1.
       -3    1    3    3    0  502 -0.11392579088E+03 -0.37277931886E+03 -0.16981035214E+03  0.42518122288E+03  0.10100000352E+00 0. -1.
</event>
<event>
 5   0  0.1656051E-03  0.7997267E+03  0.7818609E-02  0.9560413E-01
       -1   -1    0    0    0  501  0.00000000000E+00  0.00000000000E+00  0.25738349939E+03  0.25738349944E+03  0.50400001928E-02 0. -1.
        1   -1    0    0  501    0  0.00000000000E+00  0.00000000000E+00 -0.62121582826E+03  0.62121582828E+03  0.50400001928E-02 0.  1.
    10030    2    1    2    0    0  0.00000000000E+00  0.00000000000E+00 -0.36383232888E+03  0.87859932772E+03  0.79972671278E+03 0.  0.
        3    1    3    3  502    0 -0.17923637933E+03  0.30363857859E+03 -0.38911285648E+03  0.52510083923E+03  0.10100000352E+00 0.  1.
       -3    1    3    3    0  502  0.17923637933E+03 -0.30363857859E+03  0.25280527598E+02  0.35349848849E+03  0.10100000352E+00 0. -1.
</event>
<event>
 5   0  0.2873212E-03  0.8026584E+03  0.7818609E-02  0.9556177E-01
       -2   -1    0    0    0  501  0.00000000000E+00  0.00000000000E+00  0.28353777366E+03  0.28353777367E+03  0.25500000920E-02 0. -1.
        2   -1    0    0  501    0  0.00000000000E+00  0.00000000000E+00 -0.56805523130E+03  0.56805523131E+03  0.25500000920E-02 0.  1.
    10030    2    1    2    0    0  0.00000000000E+00  0.00000000000E+00 -0.28451745764E+03  0.85159300498E+03  0.80265837218E+03 0.  0.
        2    1    3    3  502    0 -0.11696877352E+03 -0.22491840372E+03 -0.47234549014E+03  0.53607858041E+03  0.25500000920E-02 0.  1.
       -2    1    3    3    0  502  0.11696877352E+03  0.22491840372E+03  0.18782803250E+03  0.31551442457E+03  0.25500000920E-02 0. -1.
</event>
<event>
 5   0  0.1640035E-03  0.8003187E+03  0.7818609E-02  0.9559556E-01
        1   -1    0    0  501    0  0.00000000000E+00  0.00000000000E+00  0.14378432621E+03  0.14378432630E+03  0.50400001928E-02 0.  1.
       -1   -1    0    0    0  501  0.00000000000E+00  0.00000000000E+00 -0.11136644865E+04  0.11136644865E+04  0.50400001928E-02 0. -1.
    10030    2    1    2    0    0  0.00000000000E+00  0.00000000000E+00 -0.96988016032E+03  0.12574488128E+04  0.80031868124E+03 0.  0.
        5    1    3    3  502    0 -0.18017723440E+03 -0.18511643823E+03 -0.48318786326E+01  0.25841317410E+03  0.46999998093E+01 0.  1.
       -5    1    3    3    0  502  0.18017723440E+03  0.18511643823E+03 -0.96504828169E+03  0.99903563875E+03  0.46999998093E+01 0. -1.
</event>
<event>
 5   0  0.1712793E-03  0.7997747E+03  0.7818609E-02  0.9560343E-01
        1   -1    0    0  501    0  0.00000000000E+00  0.00000000000E+00  0.45273574563E+03  0.45273574566E+03  0.50400001928E-02 0. -1.
       -1   -1    0    0    0  501  0.00000000000E+00  0.00000000000E+00 -0.35320804823E+03  0.35320804826E+03  0.50400001928E-02 0.  1.
    10030    2    1    2    0    0  0.00000000000E+00  0.00000000000E+00  0.99527697407E+02  0.80594379392E+03  0.79977474104E+03 0.  0.
        4    1    3    3  502    0  0.40723937606E+02 -0.15280954478E+03  0.41988303428E+03  0.44867869511E+03  0.12699999809E+01 0. -1.
       -4    1    3    3    0  502 -0.40723937606E+02  0.15280954478E+03 -0.32035533687E+03  0.35726509882E+03  0.12699999809E+01 0.  1.
</event>
<event>
 5   0  0.2873212E-03  0.7996985E+03  0.7818609E-02  0.9560454E-01
       -2   -1    0    0    0  501  0.00000000000E+00  0.00000000000E+00  0.33884875106E+03  0.33884875107E+03  0.25500000920E-02 0.  1.
        2   -1    0    0  501    0  0.00000000000E+00  0.00000000000E+00 -0.47183128625E+03  0.47183128626E+03  0.25500000920E-02 0. -1.
    10030    2    1    2    0    0  0.00000000000E+00  0.00000000000E+00 -0.13298253519E+03  0.81068003732E+03  0.79969854836E+03 0.  0.
        2    1    3    3  502    0 -0.14029545872E+03  0.20261791865E+03  0.25270171501E+03  0.35298016016E+03  0.25500000920E-02 0.  1.
       -2    1    3    3    0  502  0.14029545872E+03 -0.20261791865E+03 -0.38568425020E+03  0.45769987716E+03  0.25500000920E-02 0. -1.
</event>
<event>
 5   0  0.1640035E-03  0.7970889E+03  0.7818609E-02  0.9564240E-01
        1   -1    0    0  501    0  0.00000000000E+00  0.00000000000E+00  0.13653546836E+04  0.13653546836E+04  0.50400001928E-02 0.  1.
       -1   -1    0    0    0  501  0.00000000000E+00  0.00000000000E+00 -0.11633437919E+03  0.11633437930E+03  0.50400001928E-02 0. -1.
    10030    2    1    2    0    0  0.00000000000E+00  0.00000000000E+00  0.12490203044E+04  0.14816890629E+04  0.79708892749E+03 0.  0.
        5    1    3    3  502    0  0.23885985673E+03 -0.31787748060E+03  0.67423205708E+03  0.78275863498E+03  0.46999998093E+01 0.  1.
       -5    1    3    3    0  502 -0.23885985673E+03  0.31787748060E+03  0.57478824733E+03  0.69893042794E+03  0.46999998093E+01 0. -1.
</event>
<event>
 5   0  0.1656051E-03  0.8003063E+03  0.7818609E-02  0.9559574E-01
        1   -1    0    0  501    0  0.00000000000E+00  0.00000000000E+00  0.36410010294E+03  0.36410010297E+03  0.50400001928E-02 0.  1.
       -1   -1    0    0    0  501  0.00000000000E+00  0.00000000000E+00 -0.43977615799E+03  0.43977615802E+03  0.50400001928E-02 0. -1.
    10030    2    1    2    0    0  0.00000000000E+00  0.00000000000E+00 -0.75676055049E+02  0.80387626099E+03  0.80030630241E+03 0.  0.
        3    1    3    3  502    0  0.14020240075E+03  0.14429416131E+03 -0.38527839286E+03  0.43464579645E+03  0.10100000352E+00 0. -1.
       -3    1    3    3    0  502 -0.14020240075E+03 -0.14429416131E+03  0.30960233781E+03  0.36923046454E+03  0.10100000352E+00 0.  1.
</event>
<event>
 5   0  0.1656051E-03  0.8017591E+03  0.7818609E-02  0.9557474E-01
        1   -1    0    0  501    0  0.00000000000E+00  0.00000000000E+00  0.45491250915E+03  0.45491250917E+03  0.50400001928E-02 0.  1.
       -1   -1    0    0    0  501  0.00000000000E+00  0.00000000000E+00 -0.35326443145E+03  0.35326443148E+03  0.50400001928E-02 0. -1.
    10030    2    1    2    0    0  0.00000000000E+00  0.00000000000E+00  0.10164807770E+03  0.80817694066E+03  0.80175908832E+03 0.  0.
        3    1    3    3  502    0  0.21080813972E+03 -0.30914108242E+03  0.19583706326E+03  0.42232741583E+03  0.10100000352E+00 0. -1.
       -3    1    3    3    0  502 -0.21080813972E+03  0.30914108242E+03 -0.94188985560E+02  0.38584952483E+03  0.10100000352E+00 0.  1.
</event>
<event>
 5   0  0.1637228E-03  0.7995035E+03  0.7818609E-02  0.9560736E-01
        1   -1    0    0  501    0  0.00000000000E+00  0.00000000000E+00  0.26506993859E+03  0.26506993863E+03  0.50400001928E-02 0.  1.
       -1   -1    0    0    0  501  0.00000000000E+00  0.00000000000E+00 -0.60286532428E+03  0.60286532430E+03  0.50400001928E-02 0. -1.
    10030    2    1    2    0    0  0.00000000000E+00  0.00000000000E+00 -0.33779538570E+03  0.86793526294E+03  0.79950353223E+03 0.  0.
        2    1    3    3  502    0 -0.21912265389E+03 -0.28799257822E+03  0.15483815696E+02  0.36220741449E+03  0.25500000920E-02 0.  1.
       -2    1    3    3    0  502  0.21912265389E+03  0.28799257822E+03 -0.35327920139E+03  0.50572784845E+03  0.25500000920E-02 0. -1.
</event>
<event>
 5   0  0.2690809E-03  0.7989396E+03  0.7818609E-02  0.9561553E-01
       -2   -1    0    0    0  501  0.00000000000E+00  0.00000000000E+00  0.13827474657E+03  0.13827474660E+03  0.25500000920E-02 0.  1.
        2   -1    0    0  501    0  0.00000000000E+00  0.00000000000E+00 -0.11540510263E+04  0.11540510263E+04  0.25500000920E-02 0. -1.
    10030    2    1    2    0    0  0.00000000000E+00  0.00000000000E+00 -0.10157762797E+04  0.12923257729E+04  0.79893958022E+03 0.  0.
        5    1    3    3  502    0 -0.79838132778E+02  0.36287652565E+03 -0.74507060560E+03  0.83258981356E+03  0.46999998093E+01 0. -1.
       -5    1    3    3    0  502  0.79838132778E+02 -0.36287652565E+03 -0.27070567413E+03  0.45973595935E+03  0.46999998093E+01 0.  1.
</event>
<event>
 5   0  0.1712793E-03  0.7989203E+03  0.7818609E-02  0.9561581E-01
        1   -1    0    0  501    0  0.00000000000E+00  0.00000000000E+00  0.12367848663E+04  0.12367848664E+04  0.50400001928E-02 0. -1.
       -1   -1    0    0    0  501  0.00000000000E+00  0.00000000000E+00 -0.12901873751E+03  0.12901873761E+03  0.50400001928E-02 0.  1.
    10030    2    1    2    0    0  0.00000000000E+00  0.00000000000E+00  0.11077661288E+04  0.13658036040E+04  0.79892032669E+03 0.  0.
        4    1    3    3  502    0  0.32130161773E+03  0.18998960366E+03  0.79707403293E+03  0.88014737739E+03  0.12699999809E+01 0. -1.
       -4    1    3    3    0  502 -0.32130161773E+03 -0.18998960366E+03  0.31069209591E+03  0.48565622658E+03  0.12699999809E+01 0.  1.
</event>
<event>
 5   0  0.1656051E-03  0.8005099E+03  0.7818609E-02  0.9559279E-01
       -1   -1    0    0    0  501  0.00000000000E+00  0.00000000000E+00  0.31242172095E+03  0.31242172099E+03  0.50400001928E-02 0. -1.
        1   -1    0    0  501    0  0.00000000000E+00  0.00000000000E+00 -0.51278130849E+03  0.51278130851E+03  0.50400001928E-02 0.  1.
    10030    2    1    2    0    0  0.00000000000E+00  0.00000000000E+00 -0.20035958754E+03  0.82520302951E+03  0.80050988475E+03 0.  0.
        3    1    3    3  502    0 -0.17169219248E+03 -0.71347389293E+01 -0.47282041483E+03  0.50307878939E+03  0.10100000352E+00 0.  1.
       -3    1    3    3    0  502  0.17169219248E+03  0.71347389293E+01  0.27246082729E+03  0.32212424011E+03  0.10100000352E+00 0. -1.
</event>
<event>
 5   0  0.2873212E-03  0.8043985E+03  0.7818609E-02  0.9553672E-01
       -2   -1    0    0    0  501  0.00000000000E+00  0.00000000000E+00  0.68613558389E+03  0.68613558390E+03  0.25500000920E-02 0. -1.
        2   -1    0    0  501    0  0.00000000000E+00  0.00000000000E+00 -0.23576134695E+03  0.23576134697E+03  0.25500000920E-02 0.  1.
    10030    2    1    2    0    0  0.00000000000E+00  0.00000000000E+00  0.45037423694E+03  0.92189693086E+03  0.80439853172E+03 0.  0.
        2    1    3    3  502    0  0.24363315019E+03  0.57758672237E+02  0.58591900587E+03  0.63717678672E+03  0.25500000920E-02 0. -1.
       -2    1    3    3    0  502 -0.24363315019E+03 -0.57758672237E+02 -0.13554476893E+03  0.28472014414E+03  0.25500000920E-02 0.  1.
</event>
<event>
 5   0  0.1095350E-03  0.8013437E+03  0.7818609E-02  0.9558074E-01
       -4   -1    0    0    0  501  0.00000000000E+00  0.00000000000E+00  0.29008833370E+03  0.29009111370E+03  0.12699999809E+01 0.  1.
        4   -1    0    0  501    0  0.00000000000E+00  0.00000000000E+00 -0.55340429350E+03  0.55340575075E+03  0.12699999809E+01 0. -1.
    10030    2    1    2    0    0  0.00000000000E+00  0.00000000000E+00 -0.26331595980E+03  0.84349686445E+03  0.80134366264E+03 0.  0.
        3    1    3    3  502    0  0.14827710619E+03 -0.15287828479E+03 -0.48889237833E+03  0.53326694813E+03  0.10100000352E+00 0. -1.
       -3    1    3    3    0  502 -0.14827710619E+03  0.15287828479E+03  0.22557641853E+03  0.31022991632E+03  0.10100000352E+00 0.  1.
</event>
<event>
 5   0  0.2690809E-03  0.8001683E+03  0.7818609E-02  0.9559774E-01
       -2   -1    0    0    0  501  0.00000000000E+00  0.00000000000E+00  0.14042027970E+03  0.14042027972E+03  0.25500000920E-02 0.  1.
        2   -1    0    0  501    0  0.00000000000E+00  0.00000000000E+00 -0.11399160151E+04  0.11399160151E+04  0.25500000920E-02 0. -1.
    10030    2    1    2    0    0  0.00000000000E+00  0.00000000000E+00 -0.99949573541E+03  0.12803362948E+04  0.80016829652E+03 0.  0.
        5    1    3    3  502    0  0.17473648214E+03 -0.86095727929E+02  0.59366190363E+02  0.20369523096E+03  0.46999998093E+01 0.  1.
       -5    1    3    3    0  502 -0.17473648214E+03  0.86095727929E+02 -0.10588619258E+04  0.10766410639E+04  0.46999998093E+01 0. -1.
</event>
<event>
 5   0  0.1617491E-03  0.7994961E+03  0.7818609E-02  0.9560747E-01
       -1   -1    0    0    0  501  0.00000000000E+00  0.00000000000E+00  0.15781422482E+03  0.15781422490E+03  0.50400001928E-02 0.  1.
        1   -1    0    0  501    0  0.00000000000E+00  0.00000000000E+00 -0.10125734569E+04  0.10125734569E+04  0.50400001928E-02 0. -1.
    10030    2    1    2    0    0  0.00000000000E+00  0.00000000000E+00 -0.85475923204E+03  0.11703876818E+04  0.79949607935E+03 0.  0.
        1    1    3    3  502    0 -0.29894330382E+03  0.20703660880E+03 -0.67043768260E+03  0.76270436117E+03  0.50400001928E-02 0.  1.
       -1    1    3    3    0  502  0.29894330382E+03 -0.20703660880E+03 -0.18432154944E+03  0.40768332060E+03  0.50400001928E-02 0. -1.
</event>
<event>
 5   0  0.2763587E-03  0.8016715E+03  0.7818609E-02  0.9557601E-01
        2   -1    0    0  501    0  0.00000000000E+00  0.00000000000E+00  0.77933519676E+03  0.77933519677E+03  0.25500000920E-02 0.  1.
       -2   -1    0    0    0  501  0.00000000000E+00  0.00000000000E+00 -0.20616197398E+03  0.20616197400E+03  0.25500000920E-02 0. -1.
    10030    2    1    2    0    0  0.00000000000E+00  0.00000000000E+00  0.57317322278E+03  0.98549717077E+03  0.80167146031E+03 0.  0.
        3    1    3    3  502    0 -0.25177087612E+03 -0.63881906871E+02 -0.88702919768E+02  0.27447712157E+03  0.10100000352E+00 0. -1.
       -3    1    3    3    0  502  0.25177087612E+03  0.63881906871E+02  0.66187614254E+03  0.71102004920E+03  0.10100000352E+00 0.  1.
</event>
<event>
 5   0  0.2690809E-03  0.7988247E+03  0.7818609E-02  0.9561720E-01
       -2   -1    0    0    0  501  0.00000000000E+00  0.00000000000E+00  0.83820799675E+03  0.83820799675E+03  0.25500000920E-02 0.  1.
        2   -1    0    0  501    0  0.00000000000E+00  0.00000000000E+00 -0.19032295276E+03  0.19032295278E+03  0.25500000920E-02 0. -1.
    10030    2    1    2    0    0  0.00000000000E+00  0.00000000000E+00  0.64788504399E+03  0.10285309495E+04  0.79882468910E+03 0.  0.
        5    1    3    3  502    0  0.27031444602E+03 -0.54601050005E+02  0.69590330837E+03  0.74856841971E+03  0.46999998093E+01 0.  1.
       -5    1    3    3    0  502 -0.27031444602E+03  0.54601050005E+02 -0.48018264381E+02  0.27996252982E+03  0.46999998093E+01 0. -1.
</event>
<event>
 5   0  0.1617491E-03  0.8005371E+03  0.7818609E-02  0.9559240E-01
       -1   -1    0    0    0  501  0.00000000000E+00  0.00000000000E+00  0.31417267965E+03  0.31417267969E+03  0.50400001928E-02 0.  1.
        1   -1    0    0  501    0  0.00000000000E+00  0.00000000000E+00 -0.50995811093E+03  0.50995811095E+03  0.50400001928E-02 0. -1.
    10030    2    1    2    0    0  0.00000000000E+00  0.00000000000E+00 -0.19578543128E+03  0.82413079065E+03  0.80053708533E+03 0.  0.
        1    1    3    3  502    0  0.17989322848E+03 -0.27321654282E+03  0.13956987811E+03  0.35565236373E+03  0.50400001928E-02 0.  1.
       -1    1    3    3    0  502 -0.17989322848E+03  0.27321654282E+03 -0.33535530939E+03  0.46847842692E+03  0.50400001928E-02 0. -1.
</event>
<event>
 5   0  0.2873212E-03  0.8006478E+03  0.7818609E-02  0.9559080E-01
        2   -1    0    0  501    0  0.00000000000E+00  0.00000000000E+00  0.35790331606E+03  0.35790331607E+03  0.25500000920E-02 0. -1.
       -2   -1    0    0    0  501  0.00000000000E+00  0.00000000000E+00 -0.44777234565E+03  0.44777234566E+03  0.25500000920E-02 0.  1.
    10030    2    1    2    0    0  0.00000000000E+00  0.00000000000E+00 -0.89869029595E+02  0.80567566173E+03  0.80064775615E+03 0.  0.
        2    1    3    3  502    0 -0.27529099986E+03  0.24297568734E+03  0.11555650748E+03  0.38493587215E+03  0.25500000920E-02 0. -1.
       -2    1    3    3    0  502  0.27529099986E+03 -0.24297568734E+03 -0.20542553707E+03  0.42073978958E+03  0.25500000920E-02 0.  1.
</event>
<event>
 5   0  0.2690809E-03  0.7995095E+03  0.7818609E-02  0.9560727E-01
       -2   -1    0    0    0  501  0.00000000000E+00  0.00000000000E+00  0.26362734735E+03  0.26362734737E+03  0.25500000920E-02 0.  1.
        2   -1    0    0  501    0  0.00000000000E+00  0.00000000000E+00 -0.60617330819E+03  0.60617330820E+03  0.25500000920E-02 0. -1.
    10030    2    1    2    0    0  0.00000000000E+00  0.00000000000E+00 -0.34254596084E+03  0.86980065556E+03  0.79950950284E+03 0.  0.
        5    1    3    3  502    0 -0.16907594526E+03  0.20096347828E+03  0.15656556379E+03  0.30579055026E+03  0.46999998093E+01 0.  1.
       -5    1    3    3    0  502  0.16907594526E+03 -0.20096347828E+03 -0.49911152463E+03  0.56401010530E+03  0.46999998093E+01 0. -1.
</event>
<event>
 5   0  0.1637228E-03  0.8010340E+03  0.7818609E-02  0.9558522E-01
       -1   -1    0    0    0  501  0.00000000000E+00  0.00000000000E+00  0.30906386512E+03  0.30906386516E+03  0.50400001928E-02 0.  1.
        1   -1    0    0  501    0  0.00000000000E+00  0.00000000000E+00 -0.51903145085E+03  0.51903145087E+03  0.50400001928E-02 0. -1.
    10030    2    1    2    0    0  0.00000000000E+00  0.00000000000E+00 -0.20996758573E+03  0.82809531603E+03  0.80103399764E+03 0.  0.
        2    1    3    3  502    0  0.71651085044E+02 -0.74711279975E+02  0.29499566486E+03  0.31263092560E+03  0.25500000920E-02 0.  1.
       -2    1    3    3    0  502 -0.71651085044E+02  0.74711279975E+02 -0.50496325059E+03  0.51546439043E+03  0.25500000920E-02 0. -1.
</event>
<event>
 5   0  0.2690809E-03  0.8019107E+03  0.7818609E-02  0.9557256E-01
       -2   -1    0    0    0  501  0.00000000000E+00  0.00000000000E+00  0.14909201685E+03  0.14909201687E+03  0.25500000920E-02 0.  1.
        2   -1    0    0  501    0  0.00000000000E+00  0.00000000000E+00 -0.10782951149E+04  0.10782951149E+04  0.25500000920E-02 0. -1.
    10030    2    1    2    0    0  0.00000000000E+00  0.00000000000E+00 -0.92920309807E+03  0.12273871318E+04  0.80191070191E+03 0.  0.
        5    1    3    3  502    0 -0.27760075994E+03  0.29064637749E+01 -0.21863485212E+02  0.27851522658E+03  0.46999998093E+01 0.  1.
       -5    1    3    3    0  502  0.27760075994E+03 -0.29064637749E+01 -0.90733961286E+03  0.94887190522E+03  0.46999998093E+01 0. -1.
</event>
<event>
 5   0  0.1712793E-03  0.8012180E+03  0.7818609E-02  0.9558256E-01
        1   -1    0    0  501    0  0.00000000000E+00  0.00000000000E+00  0.18532774593E+04  0.18532774593E+04  0.50400001928E-02 0.  1.
       -1   -1    0    0    0  501  0.00000000000E+00  0.00000000000E+00 -0.86596630894E+02  0.86596631041E+02  0.50400001928E-02 0. -1.
    10030    2    1    2    0    0  0.00000000000E+00  0.00000000000E+00  0.17666808284E+04  0.19398740903E+04  0.80121803334E+03 0.  0.
        4    1    3    3  502    0  0.29910580784E+03 -0.10820597288E+03  0.14729958927E+04  0.15069476864E+04  0.12699999809E+01 0.  1.
       -4    1    3    3    0  502 -0.29910580784E+03  0.10820597288E+03  0.29368493575E+03  0.43292640395E+03  0.12699999809E+01 0. -1.
</event>
<event>
 5   0  0.1640035E-03  0.8016895E+03  0.7818609E-02  0.9557575E-01
        1   -1    0    0  501    0  0.00000000000E+00  0.00000000000E+00  0.63507572555E+03  0.63507572557E+03  0.50400001928E-02 0.  1.
       -1   -1    0    0    0  501  0.00000000000E+00  0.00000000000E+00 -0.25300367976E+03  0.25300367981E+03  0.50400001928E-02 0. -1.
    10030    2    1    2    0    0  0.00000000000E+00  0.00000000000E+00  0.38207204578E+03  0.88807940538E+03  0.80168945490E+03 0.  0.
        5    1    3    3  502    0 -0.93025845220E+02  0.11493125088E+03  0.60372884392E+03  0.62158958106E+03  0.46999998093E+01 0.  1.
       -5    1    3    3    0  502  0.93025845220E+02 -0.11493125088E+03 -0.22165679814E+03  0.26648982432E+03  0.46999998093E+01 0. -1.
</event>
<event>
 5   0  0.1640035E-03  0.8047142E+03  0.7818609E-02  0.9553218E-01
        1   -1    0    0  501    0  0.00000000000E+00  0.00000000000E+00  0.28268962662E+03  0.28268962666E+03  0.50400001928E-02 0. -1.
       -1   -1    0    0    0  501  0.00000000000E+00  0.00000000000E+00 -0.57268193040E+03  0.57268193042E+03  0.50400001928E-02 0.  1.
    10030    2    1    2    0    0  0.00000000000E+00  0.00000000000E+00 -0.28999230378E+03  0.85537155709E+03  0.80471421289E+03 0.  0.
        5    1    3    3  502    0  0.89721864063E+02 -0.39205974627E+03 -0.15605766333E+03  0.43143590697E+03  0.46999998093E+01 0.  1.
       -5    1    3    3    0  502 -0.89721864063E+02  0.39205974627E+03 -0.13393464045E+03  0.42393565012E+03  0.46999998093E+01 0. -1.
</event>
<event>
 5   0  0.1640035E-03  0.7915050E+03  0.7818609E-02  0.9572395E-01
       -1   -1    0    0    0  501  0.00000000000E+00  0.00000000000E+00  0.77551527863E+03  0.77551527864E+03  0.50400001928E-02 0. -1.
        1   -1    0    0  501    0  0.00000000000E+00  0.00000000000E+00 -0.20195611187E+03  0.20195611193E+03  0.50400001928E-02 0.  1.
    10030    2    1    2    0    0  0.00000000000E+00  0.00000000000E+00  0.57355916676E+03  0.97747139057E+03  0.79150502311E+03 0.  0.
        5    1    3    3  502    0  0.30145364179E+03  0.16140760221E+03  0.40806088267E+02  0.34440374423E+03  0.46999998093E+01 0.  1.
       -5    1    3    3    0  502 -0.30145364179E+03 -0.16140760221E+03  0.53275307849E+03  0.63306764634E+03  0.46999998093E+01 0. -1.
</event>
<event>
 5   0  0.2763587E-03  0.7975822E+03  0.7818609E-02  0.9563523E-01
        2   -1    0    0  501    0  0.00000000000E+00  0.00000000000E+00  0.53690229225E+03  0.53690229226E+03  0.25500000920E-02 0.  1.
       -2   -1    0    0    0  501  0.00000000000E+00  0.00000000000E+00 -0.29620725929E+03  0.29620725930E+03  0.25500000920E-02 0. -1.
    10030    2    1    2    0    0  0.00000000000E+00  0.00000000000E+00  0.24069503297E+03  0.83310955156E+03  0.79758223777E+03 0.  0.
        3    1    3    3  502    0 -0.18019271086E+03  0.15710364284E+03  0.45375727682E+03  0.51288073088E+03  0.10100000352E+00 0.  1.
       -3    1    3    3    0  502  0.18019271086E+03 -0.15710364284E+03 -0.21306224385E+03  0.32022882068E+03  0.10100000352E+00 0. -1.
</event>
<event>
 5   0  0.1640035E-03  0.7998982E+03  0.7818609E-02  0.9560164E-01
       -1   -1    0    0    0  501  0.00000000000E+00  0.00000000000E+00  0.32026729239E+03  0.32026729243E+03  0.50400001928E-02 0.  1.
        1   -1    0    0  501    0  0.00000000000E+00  0.00000000000E+00 -0.49945559430E+03  0.49945559433E+03  0.50400001928E-02 0. -1.
    10030    2    1    2    0    0  0.00000000000E+00  0.00000000000E+00 -0.17918830191E+03  0.81972288676E+03  0.79989822074E+03 0.  0.
        5    1    3    3  502    0 -0.83283589108E+02 -0.38755341621E+03 -0.35334821814E+02  0.39800056063E+03  0.46999998093E+01 0.  1.
       -5    1    3    3    0  502  0.83283589108E+02  0.38755341621E+03 -0.14385348010E+03  0.42172232614E+03  0.46999998093E+01 0. -1.
</event>
<event>
 5   0  0.1640035E-03  0.7999601E+03  0.7818609E-02  0.9560075E-01
       -1   -1    0    0    0  501  0.00000000000E+00  0.00000000000E+00  0.58030133096E+03  0.58030133099E+03  0.50400001928E-02 0.  1.
        1   -1    0    0  501    0  0.00000000000E+00  0.00000000000E+00 -0.27569130312E+03  0.27569130317E+03  0.50400001928E-02 0. -1.
    10030    2    1    2    0    0  0.00000000000E+00  0.00000000000E+00  0.30461002784E+03  0.85599263416E+03  0.79996007442E+03 0.  0.
        5    1    3    3  502    0 -0.13744464309E+03 -0.12811725580E+03 -0.22549314760E+03  0.29355461290E+03  0.46999998093E+01 0. -1.
       -5    1    3    3    0  502  0.13744464309E+03  0.12811725580E+03  0.53010317544E+03  0.56243802125E+03  0.46999998093E+01 0.  1.
</event>
<event>
 5   0  0.2763587E-03  0.8001275E+03  0.7818609E-02  0.9559833E-01
        2   -1    0    0  501    0  0.00000000000E+00  0.00000000000E+00  0.84384358542E+03  0.84384358542E+03  0.25500000920E-02 0.  1.
       -2   -1    0    0    0  501  0.00000000000E+00  0.00000000000E+00 -0.18966905285E+03  0.18966905287E+03  0.25500000920E-02 0. -1.
    10030    2    1    2    0    0  0.00000000000E+00  0.00000000000E+00  0.65417453257E+03  0.10335126383E+04  0.80012752386E+03 0.  0.
        3    1    3    3  502    0 -0.56489292108E+02  0.38782500023E+03  0.43083885539E+03  0.58242716321E+03  0.10100000352E+00 0. -1.
       -3    1    3    3    0  502  0.56489292108E+02 -0.38782500023E+03  0.22333567717E+03  0.45108547508E+03  0.10100000352E+00 0.  1.
</event>
<event>
 5   0  0.2910501E-03  0.7997830E+03  0.7818609E-02  0.9560331E-01
       -2   -1    0    0    0  501  0.00000000000E+00  0.00000000000E+00  0.31831955319E+03  0.31831955320E+03  0.25500000920E-02 0.  1.
        2   -1    0    0  501    0  0.00000000000E+00  0.00000000000E+00 -0.50236691494E+03  0.50236691494E+03  0.25500000920E-02 0. -1.
    10030    2    1    2    0    0  0.00000000000E+00  0.00000000000E+00 -0.18404736174E+03  0.82068646814E+03  0.79978300034E+03 0.  0.
        1    1    3    3  502    0 -0.12911524207E+02  0.39174062263E+03 -0.17337882211E+03  0.42858795930E+03  0.50400001928E-02 0. -1.
       -1    1    3    3    0  502  0.12911524207E+02 -0.39174062263E+03 -0.10668539634E+02  0.39209850884E+03  0.50400001928E-02 0.  1.
</event>
<event>
 5   0  0.2768834E-03  0.8013174E+03  0.7818609E-02  0.9558112E-01
        2   -1    0    0  501    0  0.00000000000E+00  0.00000000000E+00  0.22213603636E+03  0.22213603638E+03  0.25500000920E-02 0. -1.
       -2   -1    0    0    0  501  0.00000000000E+00  0.00000000000E+00 -0.72265360764E+03  0.72265360765E+03  0.25500000920E-02 0.  1.
    10030    2    1    2    0    0  0.00000000000E+00  0.00000000000E+00 -0.50051757128E+03  0.94478964402E+03  0.80131743541E+03 0.  0.
        4    1    3    3  502    0  0.23412385244E+03 -0.59563854681E+02 -0.62711822679E+03  0.67204219685E+03  0.12699999809E+01 0.  1.
       -4    1    3    3    0  502 -0.23412385244E+03  0.59563854681E+02  0.12660065551E+03  0.27274744718E+03  0.12699999809E+01 0. -1.
</event>
<event>
 5   0  0.1637228E-03  0.7939428E+03  0.7818609E-02  0.9568826E-01
       -1   -1    0    0    0  501  0.00000000000E+00  0.00000000000E+00  0.25949490323E+03  0.25949490328E+03  0.50400001928E-02 0. -1.
        1   -1    0    0  501    0  0.00000000000E+00  0.00000000000E+00 -0.60728083821E+03  0.60728083823E+03  0.50400001928E-02 0.  1.
    10030    2    1    2    0    0  0.00000000000E+00  0.00000000000E+00 -0.34778593498E+03  0.86677574151E+03  0.79394277470E+03 0.  0.
        2    1    3    3  502    0  0.11411870577E+03 -0.11431956981E+03  0.22199373188E+03  0.27454190946E+03  0.25500000920E-02 0. -1.
       -2    1    3    3    0  502 -0.11411870577E+03  0.11431956981E+03 -0.56977966686E+03  0.59223383205E+03  0.25500000920E-02 0.  1.
</event>
<event>
 5   0  0.2690809E-03  0.7999941E+03  0.7818609E-02  0.9560026E-01
        2   -1    0    0  501    0  0.00000000000E+00  0.00000000000E+00  0.14546331771E+04  0.14546331771E+04  0.25500000920E-02 0.  1.
       -2   -1    0    0    0  501  0.00000000000E+00  0.00000000000E+00 -0.10999174268E+03  0.10999174271E+03  0.25500000920E-02 0. -1.
    10030    2    1    2    0    0  0.00000000000E+00  0.00000000000E+00  0.13446414345E+04  0.15646249199E+04  0.79999409534E+03 0.  0.
        5    1    3    3  502    0 -0.17761610645E+03 -0.87264814056E+02 -0.74777021367E+01  0.19809249120E+03  0.46999998093E+01 0. -1.
       -5    1    3    3    0  502  0.17761610645E+03  0.87264814056E+02  0.13521191366E+04  0.13665324287E+04  0.46999998093E+01 0.  1.
</event>
<event>
 5   0  0.1712793E-03  0.8026999E+03  0.7818609E-02  0.9556117E-01
        1   -1    0    0  501    0  0.00000000000E+00  0.00000000000E+00  0.75366518427E+03  0.75366518429E+03  0.50400001928E-02 0. -1.
       -1   -1    0    0    0  501  0.00000000000E+00  0.00000000000E+00 -0.21373121155E+03  0.21373121161E+03  0.50400001928E-02 0.  1.
    10030    2    1    2    0    0  0.00000000000E+00  0.00000000000E+00  0.53993397272E+03  0.96739639589E+03  0.80269987659E+03 0.  0.
        4    1    3    3  502    0 -0.11693353560E+02  0.19451848716E+03 -0.15288741001E+03  0.24769002685E+03  0.12699999809E+01 0.  1.
       -4    1    3    3    0  502  0.11693353560E+02 -0.19451848716E+03  0.69282138273E+03  0.71970636904E+03  0.12699999809E+01 0. -1.
</event>
<event>
 5   0  0.2910501E-03  0.7908496E+03  0.7818609E-02  0.9573357E-01
        2   -1    0    0  501    0  0.00000000000E+00  0.00000000000E+00  0.11663413828E+04  0.11663413828E+04  0.25500000920E-02 0.  1.
       -2   -1    0    0    0  501  0.00000000000E+00  0.00000000000E+00 -0.13406091336E+03  0.13406091338E+03  0.25500000920E-02 0. -1.
    10030    2    1    2    0    0  0.00000000000E+00  0.00000000000E+00  0.10322804695E+04  0.13004022962E+04  0.79084964711E+03 0.  0.
        1    1    3    3  502    0  0.37503194737E+03 -0.10369856289E+03  0.40035418772E+03  0.55828830289E+03  0.50400001928E-02 0. -1.
       -1    1    3    3    0  502 -0.37503194737E+03  0.10369856289E+03  0.63192628174E+03  0.74211399332E+03  0.50400001928E-02 0.  1.
</event>
<event>
 5   0  0.2690809E-03  0.7986550E+03  0.7818609E-02  0.9561966E-01
        2   -1    0    0  501    0  0.00000000000E+00  0.00000000000E+00  0.64651044295E+03  0.64651044295E+03  0.25500000920E-02 0.  1.
       -2   -1    0    0    0  501  0.00000000000E+00  0.00000000000E+00 -0.24665099109E+03  0.24665099110E+03  0.25500000920E-02 0. -1.
    10030    2    1    2    0    0  0.00000000000E+00  0.00000000000E+00  0.39985945186E+03  0.89316143405E+03  0.79865497308E+03 0.  0.
        5    1    3    3  502    0  0.10965238509E+03 -0.38012333140E+03  0.26039167103E+03  0.47364892587E+03  0.46999998093E+01 0.  1.
       -5    1    3    3    0  502 -0.10965238509E+03  0.38012333140E+03  0.13946778083E+03  0.41951250818E+03  0.46999998093E+01 0. -1.
</event>
<event>
 5   0  0.2873212E-03  0.7999135E+03  0.7818609E-02  0.9560142E-01
        2   -1    0    0  501    0  0.00000000000E+00  0.00000000000E+00  0.61170170060E+03  0.61170170061E+03  0.25500000920E-02 0.  1.
       -2   -1    0    0    0  501  0.00000000000E+00  0.00000000000E+00 -0.26150883557E+03  0.26150883559E+03  0.25500000920E-02 0. -1.
    10030    2    1    2    0    0  0.00000000000E+00  0.00000000000E+00  0.35019286503E+03  0.87321053620E+03  0.79991349395E+03 0.  0.
        2    1    3    3  502    0 -0.82131231203E+02  0.71833905935E+02  0.59514010844E+03  0.60505982999E+03  0.25500000920E-02 0.  1.
       -2    1    3    3    0  502  0.82131231203E+02 -0.71833905935E+02 -0.24494724341E+03  0.26815070621E+03  0.25500000920E-02 0. -1.
</event>
<event>
 5   0  0.1617491E-03  0.7986724E+03  0.7818609E-02  0.9561941E-01
       -1   -1    0    0    0  501  0.00000000000E+00  0.00000000000E+00  0.78858532927E+03  0.78858532929E+03  0.50400001928E-02 0. -1.
        1   -1    0    0  501    0  0.00000000000E+00  0.00000000000E+00 -0.20222212538E+03  0.20222212544E+03  0.50400001928E-02 0.  1.
    10030    2    1    2    0    0  0.00000000000E+00  0.00000000000E+00  0.58636320389E+03  0.99080745473E+03  0.79867240185E+03 0.  0.
        1    1    3    3  502    0 -0.24541745673E+03 -0.30061340980E+03  0.41002737994E+03  0.56455345410E+03  0.50400001928E-02 0. -1.
       -1    1    3    3    0  502  0.24541745673E+03  0.30061340980E+03  0.17633582395E+03  0.42625400063E+03  0.50400001928E-02 0.  1.
</event>
<event>
 5   0  0.1712793E-03  0.7995723E+03  0.7818609E-02  0.9560636E-01
       -1   -1    0    0    0  501  0.00000000000E+00  0.00000000000E+00  0.39218417531E+03  0.39218417534E+03  0.50400001928E-02 0.  1.
        1   -1    0    0  501    0  0.00000000000E+00  0.00000000000E+00 -0.40753544501E+03  0.40753544504E+03  0.50400001928E-02 0. -1.
    10030    2    1    2    0    0  0.00000000000E+00  0.00000000000E+00 -0.15351269703E+02  0.79971962038E+03  0.79957226674E+03 0.  0.
        4    1    3    3  502    0 -0.36809866569E+03 -0.90832520143E+02  0.11915532561E+03  0.39742518656E+03  0.12699999809E+01 0.  1.
       -4    1    3    3    0  502  0.36809866569E+03  0.90832520143E+02 -0.13450659531E+03  0.40229443381E+03  0.12699999809E+01 0. -1.
</event>
<event>
 5   0  0.2873212E-03  0.8012705E+03  0.7818609E-02  0.9558180E-01
       -2   -1    0    0    0  501  0.00000000000E+00  0.00000000000E+00  0.40769882531E+03  0.40769882531E+03  0.25500000920E-02 0. -1.
        2   -1    0    0  501    0  0.00000000000E+00  0.00000000000E+00 -0.39369404794E+03  0.39369404795E+03  0.25500000920E-02 0.  1.
    10030    2    1    2    0    0  0.00000000000E+00  0.00000000000E+00  0.14004777362E+02  0.80139287326E+03  0.80127049336E+03 0.  0.
        2    1    3    3  502    0 -0.15871727501E+03 -0.29944394504E+03 -0.20669060845E+03  0.39696203501E+03  0.25500000920E-02 0.  1.
       -2    1    3    3    0  502  0.15871727501E+03  0.29944394504E+03  0.22069538581E+03  0.40443083826E+03  0.25500000920E-02 0. -1.
</event>
<event>
 5   0  0.2690809E-03  0.8003354E+03  0.7818609E-02  0.9559532E-01
       -2   -1    0    0    0  501  0.00000000000E+00  0.00000000000E+00  0.12662746807E+03  0.12662746810E+03  0.25500000920E-02 0. -1.
        2   -1    0    0  501    0  0.00000000000E+00  0.00000000000E+00 -0.12646085669E+04  0.12646085669E+04  0.25500000920E-02 0.  1.
    10030    2    1    2    0    0  0.00000000000E+00  0.00000000000E+00 -0.11379810989E+04  0.13912360350E+04  0.80033538209E+03 0.  0.
        5    1    3    3  502    0  0.34550111943E+01  0.14312778143E+03  0.80531960661E+02  0.16433193726E+03  0.46999998093E+01 0. -1.
       -5    1    3    3    0  502 -0.34550111943E+01 -0.14312778143E+03 -0.12185130595E+04  0.12269040978E+04  0.46999998093E+01 0.  1.
</event>
<event>
 5   0  0.1712793E-03  0.8025820E+03  0.7818609E-02  0.9556287E-01
        1   -1    0    0  501    0  0.00000000000E+00  0.00000000000E+00  0.87650135815E+03  0.87650135816E+03  0.50400001928E-02 0. -1.
       -1   -1    0    0    0  501  0.00000000000E+00  0.00000000000E+00 -0.18372415080E+03  0.18372415087E+03  0.50400001928E-02 0.  1.
    10030    2    1    2    0    0  0.00000000000E+00  0.00000000000E+00  0.69277720735E+03  0.10602255090E+04  0.80258200264E+03 0.  0.
        4    1    3    3  502    0 -0.99546468925E+02 -0.35397075187E+03  0.13408628172E+03  0.39138923913E+03  0.12699999809E+01 0.  1.
       -4    1    3    3    0  502  0.99546468925E+02  0.35397075187E+03  0.55869092563E+03  0.66883626990E+03  0.12699999809E+01 0. -1.
</event>
<event>
 5   0  0.1637228E-03  0.7924650E+03  0.7818609E-02  0.9570988E-01
       -1   -1    0    0    0  501  0.00000000000E+00  0.00000000000E+00  0.32724800161E+03  0.32724800165E+03  0.50400001928E-02 0.  1.
        1   -1    0    0  501    0  0.00000000000E+00  0.00000000000E+00 -0.47975902413E+03  0.47975902416E+03  0.50400001928E-02 0. -1.
    10030    2    1    2    0    0  0.00000000000E+00  0.00000000000E+00 -0.15251102252E+03  0.80700702581E+03  0.79246496939E+03 0.  0.
        2    1    3    3  502    0  0.30803458535E+03 -0.21872601392E+03  0.45409906602E+02  0.38051075486E+03  0.25500000920E-02 0.  1.
       -2    1    3    3    0  502 -0.30803458535E+03  0.21872601392E+03 -0.19792092912E+03  0.42649627095E+03  0.25500000920E-02 0. -1.
</event>
<event>
 5   0  0.1095350E-03  0.8004807E+03  0.7818609E-02  0.9559322E-01
       -3   -1    0    0    0  501  0.00000000000E+00  0.00000000000E+00  0.43162649065E+03  0.43162650247E+03  0.10100000352E+00 0.  1.
        3   -1    0    0  501    0  0.00000000000E+00  0.00000000000E+00 -0.37113641564E+03  0.37113642938E+03  0.10100000352E+00 0. -1.
    10030    2    1    2    0    0  0.00000000000E+00  0.00000000000E+00  0.60490075010E+02  0.80276293185E+03  0.80048065285E+03 0.  0.
        3    1    3    3  502    0 -0.30860012697E+03 -0.67534844390E+02  0.27670438096E+03  0.41995275713E+03  0.10100000352E+00 0.  1.
       -3    1    3    3    0  502  0.30860012697E+03  0.67534844390E+02 -0.21621430595E+03  0.38281017472E+03  0.10100000352E+00 0. -1.
</event>
<event>
 5   0  0.2768834E-03  0.8030026E+03  0.7818609E-02  0.9555681E-01
       -2   -1    0    0    0  501  0.00000000000E+00  0.00000000000E+00  0.10063027761E+03  0.10063027764E+03  0.25500000920E-02 0.  1.
        2   -1    0    0  501    0  0.00000000000E+00  0.00000000000E+00 -0.16019363139E+04  0.16019363139E+04  0.25500000920E-02 0. -1.
    10030    2    1    2    0    0  0.00000000000E+00  0.00000000000E+00 -0.15013060363E+04  0.17025665916E+04  0.80300260525E+03 0.  0.
        4    1    3    3  502    0  0.26402091762E+03 -0.23956709677E+03 -0.35911076685E+03  0.50602529044E+03  0.12699999809E+01 0.  1.
       -4    1    3    3    0  502 -0.26402091762E+03  0.23956709677E+03 -0.11421952695E+04  0.11965413011E+04  0.12699999809E+01 0. -1.
</event>
<event>
 5   0  0.1640035E-03  0.8033188E+03  0.7818609E-02  0.9555226E-01
        1   -1    0    0  501    0  0.00000000000E+00  0.00000000000E+00  0.23529454588E+04  0.23529454588E+04  0.50400001928E-02 0. -1.
       -1   -1    0    0    0  501  0.00000000000E+00  0.00000000000E+00 -0.68565243558E+02  0.68565243743E+02  0.50400001928E-02 0.  1.
    10030    2    1    2    0    0  0.00000000000E+00  0.00000000000E+00  0.22843802152E+04  0.24215107025E+04  0.80331881265E+03 0.  0.
        5    1    3    3  502    0  0.17160695338E+03 -0.23593694039E+03  0.31012751271E+03  0.42581257664E+03  0.46999998093E+01 0.  1.
       -5    1    3    3    0  502 -0.17160695338E+03  0.23593694039E+03  0.19742527025E+04  0.19956981259E+04  0.46999998093E+01 0. -1.
</event>
<event>
 5   0  0.2768834E-03  0.7998243E+03  0.7818609E-02  0.9560272E-01
       -2   -1    0    0    0  501  0.00000000000E+00  0.00000000000E+00  0.30807087658E+03  0.30807087659E+03  0.25500000920E-02 0.  1.
        2   -1    0    0  501    0  0.00000000000E+00  0.00000000000E+00 -0.51913284369E+03  0.51913284370E+03  0.25500000920E-02 0. -1.
    10030    2    1    2    0    0  0.00000000000E+00  0.00000000000E+00 -0.21106196711E+03  0.82720372028E+03  0.79982425625E+03 0.  0.
        4    1    3    3  502    0  0.19461298072E+02  0.39674397859E+03 -0.15341458526E+03  0.42581941541E+03  0.12699999809E+01 0. -1.
       -4    1    3    3    0  502 -0.19461298072E+02 -0.39674397859E+03 -0.57647381850E+02  0.40138430488E+03  0.12699999809E+01 0.  1.
</event>
<event>
 5   0  0.2768834E-03  0.7997975E+03  0.7818609E-02  0.9560310E-01
        2   -1    0    0  501    0  0.00000000000E+00  0.00000000000E+00  0.15394691721E+03  0.15394691723E+03  0.25500000920E-02 0.  1.
       -2   -1    0    0    0  501  0.00000000000E+00  0.00000000000E+00 -0.10387933184E+04  0.10387933184E+04  0.25500000920E-02 0. -1.
    10030    2    1    2    0    0  0.00000000000E+00  0.00000000000E+00 -0.88484640123E+03  0.11927402357E+04  0.79979754690E+03 0.  0.
        4    1    3    3  502    0 -0.20389968386E+03 -0.27600138365E+03 -0.74865112901E+03  0.82354840217E+03  0.12699999809E+01 0. -1.
       -4    1    3    3    0  502  0.20389968386E+03  0.27600138365E+03 -0.13619527222E+03  0.36919183351E+03  0.12699999809E+01 0.  1.
</event>
<event>
 5   0  0.2690809E-03  0.8027963E+03  0.7818609E-02  0.9555978E-01
       -2   -1    0    0    0  501  0.00000000000E+00  0.00000000000E+00  0.24101223561E+03  0.24101223562E+03  0.25500000920E-02 0.  1.
        2   -1    0    0  501    0  0.00000000000E+00  0.00000000000E+00 -0.66851574530E+03  0.66851574530E+03  0.25500000920E-02 0. -1.
    10030    2    1    2    0    0  0.00000000000E+00  0.00000000000E+00 -0.42750350969E+03  0.90952798092E+03  0.80279629875E+03 0.  0.
        5    1    3    3  502    0 -0.29569646782E+02  0.77983656106E+02 -0.65855915123E+03  0.66383586849E+03  0.46999998093E+01 0. -1.
       -5    1    3    3    0  502  0.29569646782E+02 -0.77983656106E+02  0.23105564153E+03  0.24569211244E+03  0.46999998093E+01 0.  1.
</event>
<event>
 5   0  0.1637228E-03  0.8001614E+03  0.7818609E-02  0.9559784E-01
        1   -1    0    0  501    0  0.00000000000E+00  0.00000000000E+00  0.23443388829E+03  0.23443388835E+03  0.50400001928E-02 0.  1.
       -1   -1    0    0    0  501  0.00000000000E+00  0.00000000000E+00 -0.68277057232E+03  0.68277057234E+03  0.50400001928E-02 0. -1.
    10030    2    1    2    0    0  0.00000000000E+00  0.00000000000E+00 -0.44833668403E+03  0.91720446068E+03  0.80016138401E+03 0.  0.
        2    1    3    3  502    0 -0.25136992230E+03  0.23712994095E+03 -0.45527019315E+03  0.57156661512E+03  0.25500000920E-02 0. -1.
       -2    1    3    3    0  502  0.25136992230E+03 -0.23712994095E+03  0.69335091248E+01  0.34563784557E+03  0.25500000920E-02 0.  1.
</event>
<event>
 5   0  0.1712793E-03  0.8011529E+03  0.7818609E-02  0.9558350E-01
       -1   -1    0    0    0  501  0.00000000000E+00  0.00000000000E+00  0.29594084930E+03  0.29594084935E+03  0.50400001928E-02 0.  1.
        1   -1    0    0  501    0  0.00000000000E+00  0.00000000000E+00 -0.54220801280E+03  0.54220801283E+03  0.50400001928E-02 0. -1.
    10030    2    1    2    0    0  0.00000000000E+00  0.00000000000E+00 -0.24626716350E+03  0.83814886218E+03  0.80115291883E+03 0.  0.
        4    1    3    3  502    0 -0.61119654561E+02  0.38272719616E+03 -0.22902093387E+03  0.45018653901E+03  0.12699999809E+01 0. -1.
       -4    1    3    3    0  502  0.61119654561E+02 -0.38272719616E+03 -0.17246229627E+02  0.38796232316E+03  0.12699999809E+01 0.  1.
</event>
<event>
 5   0  0.1640035E-03  0.7994571E+03  0.7818609E-02  0.9560803E-01
        1   -1    0    0  501    0  0.00000000000E+00  0.00000000000E+00  0.42944523957E+03  0.42944523960E+03  0.50400001928E-02 0.  1.
       -1   -1    0    0    0  501  0.00000000000E+00  0.00000000000E+00 -0.37206817206E+03  0.37206817210E+03  0.50400001928E-02 0. -1.
    10030    2    1    2    0    0  0.00000000000E+00  0.00000000000E+00  0.57377067505E+02  0.80151341169E+03  0.79945707905E+03 0.  0.
        5    1    3    3  502    0 -0.30108809498E+03  0.24846578707E+02 -0.23368945070E+03  0.38197413888E+03  0.46999998093E+01 0. -1.
       -5    1    3    3    0  502  0.30108809498E+03 -0.24846578707E+02  0.29106651821E+03  0.41953927281E+03  0.46999998093E+01 0.  1.
</event>
<event>
 5   0  0.2910501E-03  0.7990695E+03  0.7818609E-02  0.9561365E-01
       -2   -1    0    0    0  501  0.00000000000E+00  0.00000000000E+00  0.30945025157E+03  0.30945025158E+03  0.25500000920E-02 0.  1.
        2   -1    0    0  501    0  0.00000000000E+00  0.00000000000E+00 -0.51584385826E+03  0.51584385827E+03  0.25500000920E-02 0. -1.
    10030    2    1    2    0    0  0.00000000000E+00  0.00000000000E+00 -0.20639360670E+03  0.82529410985E+03  0.79906948813E+03 0.  0.
        1    1    3    3  502    0  0.12067779511E+02  0.16220402583E+03  0.27370745221E+03  0.31838898649E+03  0.50400001928E-02 0.  1.
       -1    1    3    3    0  502 -0.12067779511E+02 -0.16220402583E+03 -0.48010105890E+03  0.50690512336E+03  0.50400001928E-02 0. -1.
</event>
<event>
 5   0  0.2690809E-03  0.7984961E+03  0.7818609E-02  0.9562196E-01
       -2   -1    0    0    0  501  0.00000000000E+00  0.00000000000E+00  0.15346172599E+03  0.15346172601E+03  0.25500000920E-02 0. -1.
        2   -1    0    0  501    0  0.00000000000E+00  0.00000000000E+00 -0.10386890898E+04  0.10386890898E+04  0.25500000920E-02 0.  1.
    10030    2    1    2    0    0  0.00000000000E+00  0.00000000000E+00 -0.88522736376E+03  0.11921508158E+04  0.79849613773E+03 0.  0.
        5    1    3    3  502    0  0.88063708430E+02  0.25971696019E+03 -0.87575935978E+03  0.91770619612E+03  0.46999998093E+01 0.  1.
       -5    1    3    3    0  502 -0.88063708430E+02 -0.25971696019E+03 -0.94680039788E+01  0.27444461964E+03  0.46999998093E+01 0. -1.
</event>
<event>
 5   0  0.2768834E-03  0.8006037E+03  0.7818609E-02  0.9559144E-01
       -2   -1    0    0    0  501  0.00000000000E+00  0.00000000000E+00  0.15223858181E+03  0.15223858183E+03  0.25500000920E-02 0.  1.
        2   -1    0    0  501    0  0.00000000000E+00  0.00000000000E+00 -0.10525686636E+04  0.10525686636E+04  0.25500000920E-02 0. -1.
    10030    2    1    2    0    0  0.00000000000E+00  0.00000000000E+00 -0.90033008182E+03  0.12048072455E+04  0.80060367380E+03 0.  0.
        4    1    3    3  502    0 -0.79357474548E+02 -0.15253872989E+03  0.93830126086E+02  0.19588613618E+03  0.12699999809E+01 0.  1.
       -4    1    3    3    0  502  0.79357474548E+02  0.15253872989E+03 -0.99416020791E+03  0.10089211093E+04  0.12699999809E+01 0. -1.
</event>
<event>
 5   0  0.1640035E-03  0.8014224E+03  0.7818609E-02  0.9557961E-01
        1   -1    0    0  501    0  0.00000000000E+00  0.00000000000E+00  0.77380197362E+03  0.77380197364E+03  0.50400001928E-02 0.  1.
       -1   -1    0    0    0  501  0.00000000000E+00  0.00000000000E+00 -0.20750715679E+03  0.20750715685E+03  0.50400001928E-02 0. -1.
    10030    2    1    2    0    0  0.00000000000E+00  0.00000000000E+00  0.56629481683E+03  0.98130913049E+03  0.80142235433E+03 0.  0.
        5    1    3    3  502    0 -0.40968072205E+02 -0.27238059809E+03  0.63945832672E+03  0.69627481267E+03  0.46999998093E+01 0.  1.
       -5    1    3    3    0  502  0.40968072205E+02  0.27238059809E+03 -0.73163509886E+02  0.28503431782E+03  0.46999998093E+01 0. -1.
</event>
<event>
 5   0  0.1617491E-03  0.8001989E+03  0.7818609E-02  0.9559729E-01
        1   -1    0    0  501    0  0.00000000000E+00  0.00000000000E+00  0.51810508841E+03  0.51810508844E+03  0.50400001928E-02 0. -1.
       -1   -1    0    0    0  501  0.00000000000E+00  0.00000000000E+00 -0.30897125857E+03  0.30897125861E+03  0.50400001928E-02 0.  1.
    10030    2    1    2    0    0  0.00000000000E+00  0.00000000000E+00  0.20913382984E+03  0.82707634705E+03  0.80019892844E+03 0.  0.
        1    1    3    3  502    0  0.11449701542E+03 -0.68246551241E+00  0.50080965310E+03  0.51373177920E+03  0.50400001928E-02 0. -1.
       -1    1    3    3    0  502 -0.11449701542E+03  0.68246551241E+00 -0.29167582326E+03  0.31334456785E+03  0.50400001928E-02 0.  1.
</event>
<event>
 5   0  0.1095350E-03  0.8009586E+03  0.7818609E-02  0.9558631E-01
        4   -1    0    0  501    0  0.00000000000E+00  0.00000000000E+00  0.92992619779E+03  0.92992706501E+03  0.12699999809E+01 0. -1.
       -4   -1    0    0    0  501  0.00000000000E+00  0.00000000000E+00 -0.17246594178E+03  0.17247061771E+03  0.12699999809E+01 0.  1.
    10030    2    1    2    0    0  0.00000000000E+00  0.00000000000E+00  0.75746025601E+03  0.11023976827E+04  0.80095855787E+03 0.  0.
        5    1    3    3  502    0 -0.31835788250E+03  0.24158266983E+03  0.41375636249E+03  0.57526545630E+03  0.46999998093E+01 0.  1.
       -5    1    3    3    0  502  0.31835788250E+03 -0.24158266983E+03  0.34370389352E+03  0.52713222642E+03  0.46999998093E+01 0. -1.
</event>
<event>
 5   0  0.1637228E-03  0.8002082E+03  0.7818609E-02  0.9559716E-01
        1   -1    0    0  501    0  0.00000000000E+00  0.00000000000E+00  0.45234768000E+03  0.45234768003E+03  0.50400001928E-02 0.  1.
       -1   -1    0    0    0  501  0.00000000000E+00  0.00000000000E+00 -0.35389439727E+03  0.35389439731E+03  0.50400001928E-02 0. -1.
    10030    2    1    2    0    0  0.00000000000E+00  0.00000000000E+00  0.98453282731E+02  0.80624207734E+03  0.80020824689E+03 0.  0.
        2    1    3    3  502    0  0.32283870573E+03  0.25501594139E+02 -0.18750920742E+03  0.37421232489E+03  0.25500000920E-02 0. -1.
       -2    1    3    3    0  502 -0.32283870573E+03 -0.25501594139E+02  0.28596249015E+03  0.43202975245E+03  0.25500000920E-02 0.  1.
</event>
<event>
 5   0  0.1656051E-03  0.7995013E+03  0.7818609E-02  0.9560739E-01
        1   -1    0    0  501    0  0.00000000000E+00  0.00000000000E+00  0.50945298540E+03  0.50945298543E+03  0.50400001928E-02 0.  1.
       -1   -1    0    0    0  501  0.00000000000E+00  0.00000000000E+00 -0.31367088184E+03  0.31367088188E+03  0.50400001928E-02 0. -1.
    10030    2    1    2    0    0  0.00000000000E+00  0.00000000000E+00  0.19578210356E+03  0.82312386731E+03  0.79950126257E+03 0.  0.
        3    1    3    3  502    0  0.39236628515E+02  0.39261761298E+03  0.16391425121E+03  0.42726571942E+03  0.10100000352E+00 0.  1.
       -3    1    3    3    0  502 -0.39236628515E+02 -0.39261761298E+03  0.31867852354E+02  0.39585814789E+03  0.10100000352E+00 0. -1.
</event>
<event>
 5   0  0.2910501E-03  0.7996313E+03  0.7818609E-02  0.9560551E-01
       -2   -1    0    0    0  501  0.00000000000E+00  0.00000000000E+00  0.13167602670E+03  0.13167602673E+03  0.25500000920E-02 0. -1.
        2   -1    0    0  501    0  0.00000000000E+00  0.00000000000E+00 -0.12139836096E+04  0.12139836096E+04  0.25500000920E-02 0.  1.
    10030    2    1    2    0    0  0.00000000000E+00  0.00000000000E+00 -0.10823075829E+04  0.13456596364E+04  0.79963126056E+03 0.  0.
        1    1    3    3  502    0  0.16013208994E+03 -0.88015186992E+02 -0.11396042385E+04  0.11541606386E+04  0.50400001928E-02 0.  1.
       -1    1    3    3    0  502 -0.16013208994E+03  0.88015186992E+02  0.57296655547E+02  0.19149899773E+03  0.50400001928E-02 0. -1.
</event>
<event>
 5   0  0.1637228E-03  0.8012662E+03  0.7818609E-02  0.9558186E-01
       -1   -1    0    0    0  501  0.00000000000E+00  0.00000000000E+00  0.11432873047E+03  0.11432873058E+03  0.50400001928E-02 0. -1.
        1   -1    0    0  501    0  0.00000000000E+00  0.00000000000E+00 -0.14039069532E+04  0.14039069532E+04  0.50400001928E-02 0.  1.
    10030    2    1    2    0    0  0.00000000000E+00  0.00000000000E+00 -0.12895782227E+04  0.15182356838E+04  0.80126624725E+03 0.  0.
        2    1    3    3  502    0  0.24755790504E+03  0.58729405910E+02 -0.12311750256E+04  0.12571897244E+04  0.25500000920E-02 0.  1.
       -2    1    3    3    0  502 -0.24755790504E+03 -0.58729405910E+02 -0.58403197120E+02  0.26104595938E+03  0.25500000920E-02 0. -1.
</event>
<event>
 5   0  0.1712793E-03  0.8032121E+03  0.7818609E-02  0.9555379E-01
        1   -1    0    0  501    0  0.00000000000E+00  0.00000000000E+00  0.91844463276E+03  0.91844463277E+03  0.50400001928E-02 0. -1.
       -1   -1    0    0    0  501  0.00000000000E+00  0.00000000000E+00 -0.17560929899E+03  0.17560929906E+03  0.50400001928E-02 0.  1.
    10030    2    1    2    0    0  0.00000000000E+00  0.00000000000E+00  0.74283533377E+03  0.10940539318E+04  0.80321209694E+03 0.  0.
        4    1    3    3  502    0 -0.26723630116E+03 -0.28385812646E+03  0.50273927526E+03  0.63619106282E+03  0.12699999809E+01 0.  1.
       -4    1    3    3    0  502  0.26723630116E+03  0.28385812646E+03  0.24009605850E+03  0.45786286902E+03  0.12699999809E+01 0. -1.
</event>
<event>
 5   0  0.2768834E-03  0.7931677E+03  0.7818609E-02  0.9569960E-01
        2   -1    0    0  501    0  0.00000000000E+00  0.00000000000E+00  0.14201530294E+03  0.14201530296E+03  0.25500000920E-02 0. -1.
       -2   -1    0    0    0  501  0.00000000000E+00  0.00000000000E+00 -0.11074775325E+04  0.11074775325E+04  0.25500000920E-02 0.  1.
    10030    2    1    2    0    0  0.00000000000E+00  0.00000000000E+00 -0.96546222961E+03  0.12494928355E+04  0.79316771820E+03 0.  0.
        4    1    3    3  502    0 -0.38052184162E+03  0.36979778157E+02 -0.31666544063E+03  0.49643024699E+03  0.12699999809E+01 0. -1.
       -4    1    3    3    0  502  0.38052184162E+03 -0.36979778157E+02 -0.64879678898E+03  0.75306258852E+03  0.12699999809E+01 0.  1.
</event>
<event>
 5   0  0.1640035E-03  0.8004699E+03  0.7818609E-02  0.9559337E-01
       -1   -1    0    0    0  501  0.00000000000E+00  0.00000000000E+00  0.30890932138E+03  0.30890932142E+03  0.50400001928E-02 0.  1.
        1   -1    0    0  501    0  0.00000000000E+00  0.00000000000E+00 -0.51856005350E+03  0.51856005352E+03  0.50400001928E-02 0. -1.
    10030    2    1    2    0    0  0.00000000000E+00  0.00000000000E+00 -0.20965073212E+03  0.82746937494E+03  0.80046994758E+03 0.  0.
        5    1    3    3  502    0 -0.22569294808E+03  0.15315359198E+03 -0.40757332390E+03  0.49044004108E+03  0.46999998093E+01 0. -1.
       -5    1    3    3    0  502  0.22569294808E+03 -0.15315359198E+03  0.19792259178E+03  0.33702933386E+03  0.46999998093E+01 0.  1.
</event>
<event>
 5   0  0.1640035E-03  0.8014142E+03  0.7818609E-02  0.9557972E-01
       -1   -1    0    0    0  501  0.00000000000E+00  0.00000000000E+00  0.20289388809E+03  0.20289388815E+03  0.50400001928E-02 0. -1.
        1   -1    0    0  501    0  0.00000000000E+00  0.00000000000E+00 -0.79138007498E+03  0.79138007500E+03  0.50400001928E-02 0.  1.
    10030    2    1    2    0    0  0.00000000000E+00  0.00000000000E+00 -0.58848618689E+03  0.99427396315E+03  0.80141420104E+03 0.  0.
        5    1    3    3  502    0 -0.14843584524E+03 -0.11883040573E+03  0.14332148660E+03  0.23815332036E+03  0.46999998093E+01 0. -1.
       -5    1    3    3    0  502  0.14843584524E+03  0.11883040573E+03 -0.73180767349E+03  0.75612064279E+03  0.46999998093E+01 0.  1.
</event>
<event>
 5   0  0.1095350E-03  0.8000502E+03  0.7818609E-02  0.9559944E-01
       -3   -1    0    0    0  501  0.00000000000E+00  0.00000000000E+00  0.48237490259E+03  0.48237491316E+03  0.10100000352E+00 0. -1.
        3   -1    0    0  501    0  0.00000000000E+00  0.00000000000E+00 -0.33173385788E+03  0.33173387325E+03  0.10100000352E+00 0.  1.
    10030    2    1    2    0    0  0.00000000000E+00  0.00000000000E+00  0.15064104471E+03  0.81410878642E+03  0.80005024328E+03 0.  0.
        5    1    3    3  502    0  0.32407026737E+03 -0.17369492712E+03 -0.84948022907E+02  0.37739862546E+03  0.46999998093E+01 0.  1.
       -5    1    3    3    0  502 -0.32407026737E+03  0.17369492712E+03  0.23558906762E+03  0.43671016096E+03  0.46999998093E+01 0. -1.
</event>
<event>
 5   0  0.1637228E-03  0.7982158E+03  0.7818609E-02  0.9562603E-01
       -1   -1    0    0    0  501  0.00000000000E+00  0.00000000000E+00  0.14251864591E+03  0.14251864600E+03  0.50400001928E-02 0.  1.
        1   -1    0    0  501    0  0.00000000000E+00  0.00000000000E+00 -0.11176580360E+04  0.11176580360E+04  0.50400001928E-02 0. -1.
    10030    2    1    2    0    0  0.00000000000E+00  0.00000000000E+00 -0.97513939006E+03  0.12601766820E+04  0.79821578522E+03 0.  0.
        2    1    3    3  502    0 -0.25139251798E+03 -0.61829582862E+02 -0.80217790029E+01  0.25900857970E+03  0.25500000920E-02 0.  1.
       -2    1    3    3    0  502  0.25139251798E+03  0.61829582862E+02 -0.96711761106E+03  0.10011681023E+04  0.25500000920E-02 0. -1.
</event>
<event>
 5   0  0.2910501E-03  0.8007830E+03  0.7818609E-02  0.9558884E-01
        2   -1    0    0  501    0  0.00000000000E+00  0.00000000000E+00  0.11250978143E+04  0.11250978143E+04  0.25500000920E-02 0.  1.
       -2   -1    0    0    0  501  0.00000000000E+00  0.00000000000E+00 -0.14248836551E+03  0.14248836553E+03  0.25500000920E-02 0. -1.
    10030    2    1    2    0    0  0.00000000000E+00  0.00000000000E+00  0.98260944882E+03  0.12675861799E+04  0.80078298837E+03 0.  0.
        1    1    3    3  502    0 -0.32802162037E+03 -0.22957038108E+03  0.49692476032E+03  0.63814963821E+03  0.50400001928E-02 0.  1.
       -1    1    3    3    0  502  0.32802162037E+03  0.22957038108E+03  0.48568468850E+03  0.62943654165E+03  0.50400001928E-02 0. -1.
</event>
<event>
 5   0  0.1637228E-03  0.7961035E+03  0.7818609E-02  0.9565674E-01
       -1   -1    0    0    0  501  0.00000000000E+00  0.00000000000E+00  0.25479528351E+03  0.25479528356E+03  0.50400001928E-02 0. -1.
        1   -1    0    0  501    0  0.00000000000E+00  0.00000000000E+00 -0.62185296166E+03  0.62185296168E+03  0.50400001928E-02 0.  1.
    10030    2    1    2    0    0  0.00000000000E+00  0.00000000000E+00 -0.36705767815E+03  0.87664824525E+03  0.79610351513E+03 0.  0.
        2    1    3    3  502    0 -0.30464103225E+03  0.25214077121E+03 -0.23355745955E+03  0.45927139466E+03  0.25500000920E-02 0.  1.
       -2    1    3    3    0  502  0.30464103225E+03 -0.25214077121E+03 -0.13350021860E+03  0.41737685059E+03  0.25500000920E-02 0. -1.
</event>
<event>
 5   0  0.2910501E-03  0.7996364E+03  0.7818609E-02  0.9560544E-01
       -2   -1    0    0    0  501  0.00000000000E+00  0.00000000000E+00  0.12883150125E+03  0.12883150127E+03  0.25500000920E-02 0. -1.
        2   -1    0    0  501    0  0.00000000000E+00  0.00000000000E+00 -0.12408036538E+04  0.12408036538E+04  0.25500000920E-02 0.  1.
    10030    2    1    2    0    0  0.00000000000E+00  0.00000000000E+00 -0.11119721525E+04  0.13696351550E+04  0.79963641109E+03 0.  0.
        1    1    3    3  502    0 -0.12056789620E+03  0.15402339243E+03  0.41282669267E+02  0.19991018437E+03  0.50400001928E-02 0. -1.
       -1    1    3    3    0  502  0.12056789620E+03 -0.15402339243E+03 -0.11532548218E+04  0.11697249707E+04  0.50400001928E-02 0.  1.
</event>
<event>
 5   0  0.2763587E-03  0.7998360E+03  0.7818609E-02  0.9560255E-01
        2   -1    0    0  501    0  0.00000000000E+00  0.00000000000E+00  0.20417514661E+04  0.20417514661E+04  0.25500000920E-02 0. -1.
       -2   -1    0    0    0  501  0.00000000000E+00  0.00000000000E+00 -0.78331964202E+02  0.78331964244E+02  0.25500000920E-02 0.  1.
    10030    2    1    2    0    0  0.00000000000E+00  0.00000000000E+00  0.19634195019E+04  0.21200834304E+04  0.79983599019E+03 0.  0.
        3    1    3    3  502    0  0.20489959321E+03 -0.10715041013E+02  0.71816337620E+02  0.21738503157E+03  0.10100000352E+00 0.  1.
       -3    1    3    3    0  502 -0.20489959321E+03  0.10715041013E+02  0.18916031643E+04  0.19026983988E+04  0.10100000352E+00 0. -1.
</event>
<event>
 5   0  0.2763587E-03  0.7984246E+03  0.7818609E-02  0.9562300E-01
        2   -1    0    0  501    0  0.00000000000E+00  0.00000000000E+00  0.15149061331E+03  0.15149061333E+03  0.25500000920E-02 0.  1.
       -2   -1    0    0    0  501  0.00000000000E+00  0.00000000000E+00 -0.10520153123E+04  0.10520153123E+04  0.25500000920E-02 0. -1.
    10030    2    1    2    0    0  0.00000000000E+00  0.00000000000E+00 -0.90052469897E+03  0.12035059256E+04  0.79842456096E+03 0.  0.
        3    1    3    3  502    0 -0.18682239197E+03  0.21463219358E+03 -0.28201828745E+02  0.28594569066E+03  0.10100000352E+00 0.  1.
       -3    1    3    3    0  502  0.18682239197E+03 -0.21463219358E+03 -0.87232287022E+03  0.91756023496E+03  0.10100000352E+00 0. -1.
</event>
<event>
 5   0  0.1617491E-03  0.8059216E+03  0.7818609E-02  0.9551485E-01
        1   -1    0    0  501    0  0.00000000000E+00  0.00000000000E+00  0.13961125062E+04  0.13961125062E+04  0.50400001928E-02 0.  1.
       -1   -1    0    0    0  501  0.00000000000E+00  0.00000000000E+00 -0.11630682506E+03  0.11630682517E+03  0.50400001928E-02 0. -1.
    10030    2    1    2    0    0  0.00000000000E+00  0.00000000000E+00  0.12798056811E+04  0.15124193313E+04  0.80592161680E+03 0.  0.
        1    1    3    3  502    0 -0.91041904577E+00  0.38609770693E+03  0.42343707603E+03  0.57303684484E+03  0.50400001928E-02 0.  1.
       -1    1    3    3    0  502  0.91041904577E+00 -0.38609770693E+03  0.85636860507E+03  0.93938248650E+03  0.50400001928E-02 0. -1.
</event>
<event>
 5   0  0.1640035E-03  0.8015233E+03  0.7818609E-02  0.9557815E-01
        1   -1    0    0  501    0  0.00000000000E+00  0.00000000000E+00  0.23305119576E+03  0.23305119582E+03  0.50400001928E-02 0.  1.
       -1   -1    0    0    0  501  0.00000000000E+00  0.00000000000E+00 -0.68916142759E+03  0.68916142761E+03  0.50400001928E-02 0. -1.
    10030    2    1    2    0    0  0.00000000000E+00  0.00000000000E+00 -0.45611023182E+03  0.92221262343E+03  0.80152328677E+03 0.  0.
        5    1    3    3  502    0 -0.16483740018E+02  0.25748607524E+03 -0.58084663861E+03  0.63559082767E+03  0.46999998093E+01 0. -1.
       -5    1    3    3    0  502  0.16483740018E+02 -0.25748607524E+03  0.12473640679E+03  0.28662179576E+03  0.46999998093E+01 0.  1.
</event>
<event>
 5   0  0.2763587E-03  0.7983598E+03  0.7818609E-02  0.9562394E-01
       -2   -1    0    0    0  501  0.00000000000E+00  0.00000000000E+00  0.13316703864E+03  0.13316703866E+03  0.25500000920E-02 0.  1.
        2   -1    0    0  501    0  0.00000000000E+00  0.00000000000E+00 -0.11965768861E+04  0.11965768861E+04  0.25500000920E-02 0. -1.
    10030    2    1    2    0    0  0.00000000000E+00  0.00000000000E+00 -0.10634098474E+04  0.13297439247E+04  0.79835981973E+03 0.  0.
        3    1    3    3  502    0  0.21010556559E+03 -0.24888647888E+03 -0.91607772218E+03  0.97225882939E+03  0.10100000352E+00 0. -1.
       -3    1    3    3    0  502 -0.21010556559E+03  0.24888647888E+03 -0.14733212524E+03  0.35748509534E+03  0.10100000352E+00 0.  1.
</event>
<event>
 5   0  0.1640035E-03  0.8001141E+03  0.7818609E-02  0.9559852E-01
        1   -1    0    0  501    0  0.00000000000E+00  0.00000000000E+00  0.23622115551E+03  0.23622115556E+03  0.50400001928E-02 0.  1.
       -1   -1    0    0    0  501  0.00000000000E+00  0.00000000000E+00 -0.67752465572E+03  0.67752465574E+03  0.50400001928E-02 0. -1.
    10030    2    1    2    0    0  0.00000000000E+00  0.00000000000E+00 -0.44130350021E+03  0.91374581130E+03  0.80011413459E+03 0.  0.
        5    1    3    3  502    0  0.38288906017E+03 -0.10699685424E+03 -0.16994804804E+03  0.43238500002E+03  0.46999998093E+01 0.  1.
       -5    1    3    3    0  502 -0.38288906017E+03  0.10699685424E+03 -0.27135545217E+03  0.48136081128E+03  0.46999998093E+01 0. -1.
</event>
<event>
 5   0  0.2873212E-03  0.7999892E+03  0.7818609E-02  0.9560033E-01
        2   -1    0    0  501    0  0.00000000000E+00  0.00000000000E+00  0.93932429571E+03  0.93932429571E+03  0.25500000920E-02 0. -1.
       -2   -1    0    0    0  501  0.00000000000E+00  0.00000000000E+00 -0.17033061994E+03  0.17033061996E+03  0.25500000920E-02 0.  1.
    10030    2    1    2    0    0  0.00000000000E+00  0.00000000000E+00  0.76899367576E+03  0.11096549157E+04  0.79998922400E+03 0.  0.
        2    1    3    3  502    0 -0.51596329371E+02 -0.18501233825E+03 -0.10217900122E+03  0.21755986488E+03  0.25500000920E-02 0.  1.
       -2    1    3    3    0  502  0.51596329371E+02  0.18501233825E+03  0.87117267699E+03  0.89209505079E+03  0.25500000920E-02 0. -1.
</event>
<event>
 5   0  0.1617491E-03  0.7978696E+03  0.7818609E-02  0.9563106E-01
       -1   -1    0    0    0  501  0.00000000000E+00  0.00000000000E+00  0.30992033843E+03  0.30992033847E+03  0.50400001928E-02 0. -1.
        1   -1    0    0  501    0  0.00000000000E+00  0.00000000000E+00 -0.51351570612E+03  0.51351570615E+03  0.50400001928E-02 0.  1.
    10030    2    1    2    0    0  0.00000000000E+00  0.00000000000E+00 -0.20359536769E+03  0.82343604462E+03  0.79786956693E+03 0.  0.
        1    1    3    3  502    0 -0.22324104260E+03 -0.26719038268E+03  0.99177233918E+02  0.36202677726E+03  0.50400001928E-02 0. -1.
       -1    1    3    3    0  502  0.22324104260E+03  0.26719038268E+03 -0.30277260161E+03  0.46140926736E+03  0.50400001928E-02 0.  1.
</event>
<event>
 5   0  0.1617491E-03  0.8005781E+03  0.7818609E-02  0.9559181E-01
       -1   -1    0    0    0  501  0.00000000000E+00  0.00000000000E+00  0.15525088353E+03  0.15525088361E+03  0.50400001928E-02 0. -1.
        1   -1    0    0  501    0  0.00000000000E+00  0.00000000000E+00 -0.10320800235E+04  0.10320800235E+04  0.50400001928E-02 0.  1.
    10030    2    1    2    0    0  0.00000000000E+00  0.00000000000E+00 -0.87682914000E+03  0.11873309072E+04  0.80057813006E+03 0.  0.
        1    1    3    3  502    0  0.18921984672E+03 -0.23976593792E+03 -0.82212996048E+03  0.87703450748E+03  0.50400001928E-02 0.  1.
       -1    1    3    3    0  502 -0.18921984672E+03  0.23976593792E+03 -0.54699179526E+02  0.31029639967E+03  0.50400001928E-02 0. -1.
</event>
<event>
 5   0  0.1637228E-03  0.7997173E+03  0.7818609E-02  0.9560426E-01
       -1   -1    0    0    0  501  0.00000000000E+00  0.00000000000E+00  0.29723321634E+03  0.29723321638E+03  0.50400001928E-02 0.  1.
        1   -1    0    0  501    0  0.00000000000E+00  0.00000000000E+00 -0.53791748228E+03  0.53791748231E+03  0.50400001928E-02 0. -1.
    10030    2    1    2    0    0  0.00000000000E+00  0.00000000000E+00 -0.24068426595E+03  0.83515069869E+03  0.79971730858E+03 0.  0.
        2    1    3    3  502    0  0.14375270627E+03  0.26257236866E+03  0.15650345010E+03  0.33779049609E+03  0.25500000920E-02 0.  1.
       -2    1    3    3    0  502 -0.14375270627E+03 -0.26257236866E+03 -0.39718771604E+03  0.49736020260E+03  0.25500000920E-02 0. -1.
</event>
<event>
 5   0  0.2768834E-03  0.8002590E+03  0.7818609E-02  0.9559642E-01
       -2   -1    0    0    0  501  0.00000000000E+00  0.00000000000E+00  0.41890232203E+03  0.41890232204E+03  0.25500000920E-02 0.  1.
        2   -1    0    0  501    0  0.00000000000E+00  0.00000000000E+00 -0.38219799775E+03  0.38219799776E+03  0.25500000920E-02 0. -1.
    10030    2    1    2    0    0  0.00000000000E+00  0.00000000000E+00  0.36704324284E+02  0.80110031980E+03  0.80025902992E+03 0.  0.
        4    1    3    3  502    0  0.32967223983E+02 -0.11053348056E+03  0.40189660304E+03  0.41812316442E+03  0.12699999809E+01 0.  1.
       -4    1    3    3    0  502 -0.32967223983E+02  0.11053348056E+03 -0.36519227876E+03  0.38297715539E+03  0.12699999809E+01 0. -1.
</event>
<event>
 5   0  0.1656051E-03  0.7986643E+03  0.7818609E-02  0.9561952E-01
        1   -1    0    0  501    0  0.00000000000E+00  0.00000000000E+00  0.49479249115E+03  0.49479249118E+03  0.50400001928E-02 0. -1.
       -1   -1    0    0    0  501  0.00000000000E+00  0.00000000000E+00 -0.32228898777E+03  0.32228898781E+03  0.50400001928E-02 0.  1.
    10030    2    1    2    0    0  0.00000000000E+00  0.00000000000E+00  0.17250350338E+03  0.81708147899E+03  0.79866431286E+03 0.  0.
        3    1    3    3  502    0 -0.22373216928E+03  0.77872852165E+02  0.41513950745E+03  0.47797603028E+03  0.10100000352E+00 0. -1.
       -3    1    3    3    0  502  0.22373216928E+03 -0.77872852165E+02 -0.24263600407E+03  0.33910544871E+03  0.10100000352E+00 0.  1.
</event>
<event>
 5   0  0.1640035E-03  0.7991223E+03  0.7818609E-02  0.9561288E-01
        1   -1    0    0  501    0  0.00000000000E+00  0.00000000000E+00  0.48155557567E+03  0.48155557570E+03  0.50400001928E-02 0.  1.
       -1   -1    0    0    0  501  0.00000000000E+00  0.00000000000E+00 -0.33152790931E+03  0.33152790935E+03  0.50400001928E-02 0. -1.
    10030    2    1    2    0    0  0.00000000000E+00  0.00000000000E+00  0.15002766636E+03  0.81308348505E+03  0.79912230164E+03 0.  0.
        5    1    3    3  502    0  0.61558316149E+02  0.37212817662E+03  0.20906618794E+03  0.43127667113E+03  0.46999998093E+01 0.  1.
       -5    1    3    3    0  502 -0.61558316149E+02 -0.37212817662E+03 -0.59038521586E+02  0.38180681391E+03  0.46999998093E+01 0. -1.
</event>
<event>
 5   0  0.1637228E-03  0.7994003E+03  0.7818609E-02  0.9560886E-01
        1   -1    0    0  501    0  0.00000000000E+00  0.00000000000E+00  0.88504792057E+03  0.88504792058E+03  0.50400001928E-02 0.  1.
       -1   -1    0    0    0  501  0.00000000000E+00  0.00000000000E+00 -0.18051024334E+03  0.18051024341E+03  0.50400001928E-02 0. -1.
    10030    2    1    2    0    0  0.00000000000E+00  0.00000000000E+00  0.70453767723E+03  0.10655581640E+04  0.79940031412E+03 0.  0.
        2    1    3    3  502    0 -0.16085712878E+03 -0.35179848436E+03  0.21815671980E+03  0.44410532971E+03  0.25500000920E-02 0. -1.
       -2    1    3    3    0  502  0.16085712878E+03  0.35179848436E+03  0.48638095742E+03  0.62145283428E+03  0.25500000920E-02 0.  1.
</event>
<event>
 5   0  0.2873212E-03  0.8000514E+03  0.7818609E-02  0.9559943E-01
       -2   -1    0    0    0  501  0.00000000000E+00  0.00000000000E+00  0.45185159495E+03  0.45185159496E+03  0.25500000920E-02 0. -1.
        2   -1    0    0  501    0  0.00000000000E+00  0.00000000000E+00 -0.35414407575E+03  0.35414407576E+03  0.25500000920E-02 0.  1.
    10030    2    1    2    0    0  0.00000000000E+00  0.00000000000E+00  0.97707519200E+02  0.80599567073E+03  0.80005141205E+03 0.  0.
        2    1    3    3  502    0  0.79035171089E+02  0.27626451900E+03  0.32922335494E+03  0.43698588097E+03  0.25500000920E-02 0. -1.
       -2    1    3    3    0  502 -0.79035171089E+02 -0.27626451900E+03 -0.23151583573E+03  0.36900978975E+03  0.25500000920E-02 0.  1.
</event>
<event>
 5   0  0.1095350E-03  0.8006989E+03  0.7818609E-02  0.9559006E-01
       -3   -1    0    0    0  501  0.00000000000E+00  0.00000000000E+00  0.11395629372E+04  0.11395629416E+04  0.10100000352E+00 0.  1.
        3   -1    0    0  501    0  0.00000000000E+00  0.00000000000E+00 -0.14065013003E+03  0.14065016629E+03  0.10100000352E+00 0. -1.
    10030    2    1    2    0    0  0.00000000000E+00  0.00000000000E+00  0.99891280712E+03  0.12802131079E+04  0.80069894808E+03 0.  0.
        1    1    3    3  502    0  0.25351081052E+03 -0.11366888157E+03  0.96033966331E+03  0.99972026819E+03  0.50400001928E-02 0.  1.
       -1    1    3    3    0  502 -0.25351081052E+03  0.11366888157E+03  0.38573143818E+02  0.28049283973E+03  0.50400001928E-02 0. -1.
</event>
<event>
 5   0  0.2768834E-03  0.8002115E+03  0.7818609E-02  0.9559711E-01
        2   -1    0    0  501    0  0.00000000000E+00  0.00000000000E+00  0.11860223393E+04  0.11860223393E+04  0.25500000920E-02 0.  1.
       -2   -1    0    0    0  501  0.00000000000E+00  0.00000000000E+00 -0.13497606133E+03  0.13497606135E+03  0.25500000920E-02 0. -1.
    10030    2    1    2    0    0  0.00000000000E+00  0.00000000000E+00  0.10510462779E+04  0.13209984006E+04  0.80021153207E+03 0.  0.
        4    1    3    3  502    0  0.29511148739E+02 -0.12427436564E+03 -0.10041091398E+03  0.16247766124E+03  0.12699999809E+01 0. -1.
       -4    1    3    3    0  502 -0.29511148739E+02  0.12427436564E+03  0.11514571919E+04  0.11585207394E+04  0.12699999809E+01 0.  1.
</event>
<event>
 5   0  0.2768834E-03  0.7941576E+03  0.7818609E-02  0.9568512E-01
       -2   -1    0    0    0  501  0.00000000000E+00  0.00000000000E+00  0.98814466125E+02  0.98814466158E+02  0.25500000920E-02 0.  1.
        2   -1    0    0  501    0  0.00000000000E+00  0.00000000000E+00 -0.15956324890E+04  0.15956324890E+04  0.25500000920E-02 0. -1.
    10030    2    1    2    0    0  0.00000000000E+00  0.00000000000E+00 -0.14968180228E+04  0.16944469551E+04  0.79415759786E+03 0.  0.
        4    1    3    3  502    0 -0.80266551270E+01  0.39549584107E+03 -0.82196771381E+03  0.91220278608E+03  0.12699999809E+01 0.  1.
       -4    1    3    3    0  502  0.80266551270E+01 -0.39549584107E+03 -0.67485030904E+03  0.78224416905E+03  0.12699999809E+01 0. -1.
</event>
<event>
 5   0  0.1712793E-03  0.8004169E+03  0.7818609E-02  0.9559414E-01
        1   -1    0    0  501    0  0.00000000000E+00  0.00000000000E+00  0.20412651078E+04  0.20412651078E+04  0.50400001928E-02 0.  1.
       -1   -1    0    0    0  501  0.00000000000E+00  0.00000000000E+00 -0.78464487308E+02  0.78464487470E+02  0.50400001928E-02 0. -1.
    10030    2    1    2    0    0  0.00000000000E+00  0.00000000000E+00  0.19628006205E+04  0.21197295953E+04  0.80041694216E+03 0.  0.
        4    1    3    3  502    0  0.21748940702E+03  0.29841302621E+03  0.57272974958E+03  0.68144915828E+03  0.12699999809E+01 0. -1.
       -4    1    3    3    0  502 -0.21748940702E+03 -0.29841302621E+03  0.13900708709E+04  0.14382804370E+04  0.12699999809E+01 0.  1.
</event>
<event>
 5   0  0.2873212E-03  0.8005156E+03  0.7818609E-02  0.9559271E-01
        2   -1    0    0  501    0  0.00000000000E+00  0.00000000000E+00  0.22692002099E+04  0.22692002099E+04  0.25500000920E-02 0.  1.
       -2   -1    0    0    0  501  0.00000000000E+00  0.00000000000E+00 -0.70600347554E+02  0.70600347600E+02  0.25500000920E-02 0. -1.
    10030    2    1    2    0    0  0.00000000000E+00  0.00000000000E+00  0.21985998624E+04  0.23398005575E+04  0.80051564269E+03 0.  0.
        2    1    3    3  502    0  0.14588755115E+03  0.15755079291E+03  0.11198992117E+03  0.24217178278E+03  0.25500000920E-02 0. -1.
       -2    1    3    3    0  502 -0.14588755115E+03 -0.15755079291E+03  0.20866099412E+04  0.20976287748E+04  0.25500000920E-02 0.  1.
</event>
<event>
 5   0  0.1095350E-03  0.7981710E+03  0.7818609E-02  0.9562668E-01
        3   -1    0    0  501    0  0.00000000000E+00  0.00000000000E+00  0.90359822406E+03  0.90359822971E+03  0.10100000352E+00 0.  1.
       -3   -1    0    0    0  501  0.00000000000E+00  0.00000000000E+00 -0.17626110926E+03  0.17626113820E+03  0.10100000352E+00 0. -1.
    10030    2    1    2    0    0  0.00000000000E+00  0.00000000000E+00  0.72733711480E+03  0.10798593679E+04  0.79817101919E+03 0.  0.
        3    1    3    3  502    0  0.62585827499E+02 -0.32782206876E+03  0.65972240892E+03  0.73933616279E+03  0.10100000352E+00 0.  1.
       -3    1    3    3    0  502 -0.62585827499E+02  0.32782206876E+03  0.67614705884E+02  0.34052320512E+03  0.10100000352E+00 0. -1.
</event>
<event>
 5   0  0.2768834E-03  0.7994748E+03  0.7818609E-02  0.9560778E-01
       -2   -1    0    0    0  501  0.00000000000E+00  0.00000000000E+00  0.17880862899E+03  0.17880862901E+03  0.25500000920E-02 0.  1.
        2   -1    0    0  501    0  0.00000000000E+00  0.00000000000E+00 -0.89363683962E+03  0.89363683962E+03  0.25500000920E-02 0. -1.
    10030    2    1    2    0    0  0.00000000000E+00  0.00000000000E+00 -0.71482821063E+03  0.10724454686E+04  0.79947477288E+03 0.  0.
        4    1    3    3  502    0  0.18997041366E+03 -0.29159793904E+03 -0.62120447656E+03  0.71204966871E+03  0.12699999809E+01 0. -1.
       -4    1    3    3    0  502 -0.18997041366E+03  0.29159793904E+03 -0.93623734071E+02  0.36039579992E+03  0.12699999809E+01 0.  1.
</event>
<event>
 5   0  0.2690809E-03  0.7984847E+03  0.7818609E-02  0.9562213E-01
        2   -1    0    0  501    0  0.00000000000E+00  0.00000000000E+00  0.25244624244E+04  0.25244624244E+04  0.25500000920E-02 0.  1.
       -2   -1    0    0    0  501  0.00000000000E+00  0.00000000000E+00 -0.63139953156E+02  0.63139953208E+02  0.25500000920E-02 0. -1.
    10030    2    1    2    0    0  0.00000000000E+00  0.00000000000E+00  0.24613224713E+04  0.25876023776E+04  0.79848466307E+03 0.  0.
        5    1    3    3  502    0  0.23946818340E+03 -0.31885650614E+03  0.11693568219E+04  0.12354885468E+04  0.46999998093E+01 0. -1.
       -5    1    3    3    0  502 -0.23946818340E+03  0.31885650614E+03  0.12919656494E+04  0.13521138308E+04  0.46999998093E+01 0.  1.
</event>
<event>
 5   0  0.1095350E-03  0.7991372E+03  0.7818609E-02  0.9561267E-01
        4   -1    0    0  501    0  0.00000000000E+00  0.00000000000E+00  0.15034806087E+03  0.15035342466E+03  0.12699999809E+01 0.  1.
       -4   -1    0    0    0  501  0.00000000000E+00  0.00000000000E+00 -0.10618784948E+04  0.10618792542E+04  0.12699999809E+01 0. -1.
    10030    2    1    2    0    0  0.00000000000E+00  0.00000000000E+00 -0.91153043391E+03  0.12122326789E+04  0.79913724469E+03 0.  0.
        4    1    3    3  502    0  0.15830878450E+03  0.21367912375E+03 -0.90813768430E+03  0.94627485739E+03  0.12699999809E+01 0. -1.
       -4    1    3    3    0  502 -0.15830878450E+03 -0.21367912375E+03 -0.33927496125E+01  0.26595782152E+03  0.12699999809E+01 0.  1.
</event>
<event>
 5   0  0.2690809E-03  0.8028038E+03  0.7818609E-02  0.9555968E-01
        2   -1    0    0  501    0  0.00000000000E+00  0.00000000000E+00  0.20500912671E+04  0.20500912671E+04  0.25500000920E-02 0. -1.
       -2   -1    0    0    0  501  0.00000000000E+00  0.00000000000E+00 -0.78593322305E+02  0.78593322347E+02  0.25500000920E-02 0.  1.
    10030    2    1    2    0    0  0.00000000000E+00  0.00000000000E+00  0.19714979448E+04  0.21286845894E+04  0.80280379610E+03 0.  0.
        5    1    3    3  502    0  0.13128572607E+03  0.19344665770E+03  0.18508407228E+04  0.18655538112E+04  0.46999998093E+01 0. -1.
       -5    1    3    3    0  502 -0.13128572607E+03 -0.19344665770E+03  0.12065722196E+03  0.26313077823E+03  0.46999998093E+01 0.  1.
</event>
<event>
 5   0  0.1640035E-03  0.8009253E+03  0.7818609E-02  0.9558679E-01
       -1   -1    0    0    0  501  0.00000000000E+00  0.00000000000E+00  0.25179021670E+03  0.25179021675E+03  0.50400001928E-02 0. -1.
        1   -1    0    0  501    0  0.00000000000E+00  0.00000000000E+00 -0.63692044063E+03  0.63692044065E+03  0.50400001928E-02 0.  1.
    10030    2    1    2    0    0  0.00000000000E+00  0.00000000000E+00 -0.38513022393E+03  0.88871065740E+03  0.80092530437E+03 0.  0.
        5    1    3    3  502    0  0.29918922969E+03  0.37435940468E+01 -0.48785355187E+03  0.57232105302E+03  0.46999998093E+01 0.  1.
       -5    1    3    3    0  502 -0.29918922969E+03 -0.37435940468E+01  0.10272332794E+03  0.31638960438E+03  0.46999998093E+01 0. -1.
</event>
<event>
 5   0  0.1637228E-03  0.8005033E+03  0.7818609E-02  0.9559289E-01
        1   -1    0    0  501    0  0.00000000000E+00  0.00000000000E+00  0.11704357749E+04  0.11704357749E+04  0.50400001928E-02 0. -1.
       -1   -1    0    0    0  501  0.00000000000E+00  0.00000000000E+00 -0.13687327982E+03  0.13687327991E+03  0.50400001928E-02 0.  1.
    10030    2    1    2    0    0  0.00000000000E+00  0.00000000000E+00  0.10335624951E+04  0.13073090548E+04  0.80050330015E+03 0.  0.
        2    1    3    3  502    0  0.33386161895E+03  0.17719055056E+03  0.73183950033E+03  0.82368023290E+03  0.25500000920E-02 0. -1.
       -2    1    3    3    0  502 -0.33386161895E+03 -0.17719055056E+03  0.30172299472E+03  0.48362882189E+03  0.25500000920E-02 0.  1.
</event>
<event>
 5   0  0.2910501E-03  0.8075458E+03  0.7818609E-02  0.9549159E-01
        2   -1    0    0  501    0  0.00000000000E+00  0.00000000000E+00  0.38926290792E+03  0.38926290793E+03  0.25500000920E-02 0.  1.
       -2   -1    0    0    0  501  0.00000000000E+00  0.00000000000E+00 -0.41882376461E+03  0.41882376462E+03  0.25500000920E-02 0. -1.
    10030    2    1    2    0    0  0.00000000000E+00  0.00000000000E+00 -0.29560856683E+02  0.80808667255E+03  0.80754580434E+03 0.  0.
        1    1    3    3  502    0  0.27949829232E+03  0.48576871542E+02  0.27273334367E+03  0.39352571026E+03  0.50400001928E-02 0.  1.
       -1    1    3    3    0  502 -0.27949829232E+03 -0.48576871542E+02 -0.30229420036E+03  0.41456096229E+03  0.50400001928E-02 0. -1.
</event>
<event>
 5   0  0.1712793E-03  0.8049181E+03  0.7818609E-02  0.9552925E-01
       -1   -1    0    0    0  501  0.00000000000E+00  0.00000000000E+00  0.69215557414E+02  0.69215557597E+02  0.50400001928E-02 0.  1.
        1   -1    0    0  501    0  0.00000000000E+00  0.00000000000E+00 -0.23401285468E+04  0.23401285468E+04  0.50400001928E-02 0. -1.
    10030    2    1    2    0    0  0.00000000000E+00  0.00000000000E+00 -0.22709129893E+04  0.24093441044E+04  0.80491813748E+03 0.  0.
        4    1    3    3  502    0  0.23267012156E+03  0.31457634942E+03 -0.14174929679E+04  0.14705038565E+04  0.12699999809E+01 0.  1.
       -4    1    3    3    0  502 -0.23267012156E+03 -0.31457634942E+03 -0.85342002149E+03  0.93884024789E+03  0.12699999809E+01 0. -1.
</event>
<event>
 5   0  0.2763587E-03  0.8015924E+03  0.7818609E-02  0.9557715E-01
        2   -1    0    0  501    0  0.00000000000E+00  0.00000000000E+00  0.16764217314E+04  0.16764217314E+04  0.25500000920E-02 0. -1.
       -2   -1    0    0    0  501  0.00000000000E+00  0.00000000000E+00 -0.95821704456E+02  0.95821704490E+02  0.25500000920E-02 0.  1.
    10030    2    1    2    0    0  0.00000000000E+00  0.00000000000E+00  0.15806000269E+04  0.17722434359E+04  0.80159238450E+03 0.  0.
        3    1    3    3  502    0 -0.32721007569E+03  0.22551831112E+03  0.67514960221E+03  0.78342321758E+03  0.10100000352E+00 0.  1.
       -3    1    3    3    0  502  0.32721007569E+03 -0.22551831112E+03  0.90545042474E+03  0.98882021831E+03  0.10100000352E+00 0. -1.
</event>
<event>
 5   0  0.1640035E-03  0.8000391E+03  0.7818609E-02  0.9559961E-01
        1   -1    0    0  501    0  0.00000000000E+00  0.00000000000E+00  0.10140472701E+04  0.10140472702E+04  0.50400001928E-02 0.  1.
       -1   -1    0    0    0  501  0.00000000000E+00  0.00000000000E+00 -0.15779898995E+03  0.15779899004E+03  0.50400001928E-02 0. -1.
    10030    2    1    2    0    0  0.00000000000E+00  0.00000000000E+00  0.85624828019E+03  0.11718462602E+04  0.80003908667E+03 0.  0.
        5    1    3    3  502    0  0.26431224786E+03  0.42450861494E+02  0.86345032399E+03  0.90400862385E+03  0.46999998093E+01 0.  1.
       -5    1    3    3    0  502 -0.26431224786E+03 -0.42450861494E+02 -0.72020437938E+01  0.26783763634E+03  0.46999998093E+01 0. -1.
</event>
<event>
 5   0  0.1656051E-03  0.8007027E+03  0.7818609E-02  0.9559001E-01
        1   -1    0    0  501    0  0.00000000000E+00  0.00000000000E+00  0.15763313510E+04  0.15763313510E+04  0.50400001928E-02 0. -1.
       -1   -1    0    0    0  501  0.00000000000E+00  0.00000000000E+00 -0.10167988456E+03  0.10167988469E+03  0.50400001928E-02 0.  1.
    10030    2    1    2    0    0  0.00000000000E+00  0.00000000000E+00  0.14746514664E+04  0.16780112357E+04  0.80070266619E+03 0.  0.
        3    1    3    3  502    0  0.21684256338E+03 -0.31776160092E+03  0.50501727164E+03  0.63485083851E+03  0.10100000352E+00 0.  1.
       -3    1    3    3    0  502 -0.21684256338E+03  0.31776160092E+03  0.96963419479E+03  0.10431603972E+04  0.10100000352E+00 0. -1.
</event>
<event>
 5   0  0.1640035E-03  0.7994794E+03  0.7818609E-02  0.9560771E-01
        1   -1    0    0  501    0  0.00000000000E+00  0.00000000000E+00  0.13099615622E+04  0.13099615622E+04  0.50400001928E-02 0. -1.
       -1   -1    0    0    0  501  0.00000000000E+00  0.00000000000E+00 -0.12198208637E+03  0.12198208647E+03  0.50400001928E-02 0.  1.
    10030    2    1    2    0    0  0.00000000000E+00  0.00000000000E+00  0.11879794758E+04  0.14319436486E+04  0.79947944188E+03 0.  0.
        5    1    3    3  502    0 -0.20155833406E+02  0.28091556046E+03  0.85968928582E+02  0.29450391578E+03  0.46999998093E+01 0.  1.
       -5    1    3    3    0  502  0.20155833406E+02 -0.28091556046E+03  0.11020105472E+04  0.11374397329E+04  0.46999998093E+01 0. -1.
</event>
<event>
 5   0  0.2873212E-03  0.7988533E+03  0.7818609E-02  0.9561678E-01
       -2   -1    0    0    0  501  0.00000000000E+00  0.00000000000E+00  0.13294322624E+03  0.13294322626E+03  0.25500000920E-02 0.  1.
        2   -1    0    0  501    0  0.00000000000E+00  0.00000000000E+00 -0.12000734411E+04  0.12000734411E+04  0.25500000920E-02 0. -1.
    10030    2    1    2    0    0  0.00000000000E+00  0.00000000000E+00 -0.10671302149E+04  0.13330166674E+04  0.79885326563E+03 0.  0.
        2    1    3    3  502    0 -0.71066945894E+02  0.38350781141E+03 -0.67723379726E+03  0.78152054891E+03  0.25500000920E-02 0. -1.
       -2    1    3    3    0  502  0.71066945894E+02 -0.38350781141E+03 -0.38989641764E+03  0.55149611848E+03  0.25500000920E-02 0.  1.
</event>
<event>
 5   0  0.2690809E-03  0.8028711E+03  0.7818609E-02  0.9555871E-01
        2   -1    0    0  501    0  0.00000000000E+00  0.00000000000E+00  0.66418431689E+03  0.66418431689E+03  0.25500000920E-02 0. -1.
       -2   -1    0    0    0  501  0.00000000000E+00  0.00000000000E+00 -0.24262917584E+03  0.24262917586E+03  0.25500000920E-02 0.  1.
    10030    2    1    2    0    0  0.00000000000E+00  0.00000000000E+00  0.42155514105E+03  0.90681349275E+03  0.80287108161E+03 0.  0.
        5    1    3    3  502    0  0.72819492895E+02  0.71176464953E+02 -0.22776796859E+03  0.24953778316E+03  0.46999998093E+01 0.  1.
       -5    1    3    3    0  502 -0.72819492895E+02 -0.71176464953E+02  0.64932310964E+03  0.65727570959E+03  0.46999998093E+01 0. -1.
</event>
<event>
 5   0  0.1712793E-03  0.7970752E+03  0.7818609E-02  0.9564260E-01
        1   -1    0    0  501    0  0.00000000000E+00  0.00000000000E+00  0.67837516098E+03  0.67837516100E+03  0.50400001928E-02 0. -1.
       -1   -1    0    0    0  501  0.00000000000E+00  0.00000000000E+00 -0.23413624057E+03  0.23413624063E+03  0.50400001928E-02 0.  1.
    10030    2    1    2    0    0  0.00000000000E+00  0.00000000000E+00  0.44423892041E+03  0.91251140163E+03  0.79707517819E+03 0.  0.
        4    1    3    3  502    0 -0.16650826655E+03  0.47995821515E+02  0.63298556056E+03  0.65627809235E+03  0.12699999809E+01 0. -1.
       -4    1    3    3    0  502  0.16650826655E+03 -0.47995821515E+02 -0.18874664016E+03  0.25623330928E+03  0.12699999809E+01 0.  1.
</event>
<event>
 5   0  0.2768834E-03  0.8000672E+03  0.7818609E-02  0.9559920E-01
        2   -1    0    0  501    0  0.00000000000E+00  0.00000000000E+00  0.49709362565E+03  0.49709362565E+03  0.25500000920E-02 0. -1.
       -2   -1    0    0    0  501  0.00000000000E+00  0.00000000000E+00 -0.32192505165E+03  0.32192505166E+03  0.25500000920E-02 0.  1.
    10030    2    1    2    0    0  0.00000000000E+00  0.00000000000E+00  0.17516857400E+03  0.81901867731E+03  0.80006722496E+03 0.  0.
        4    1    3    3  502    0 -0.10180666508E+03  0.17521215762E+03 -0.26549344201E+03  0.33399442792E+03  0.12699999809E+01 0.  1.
       -4    1    3    3    0  502  0.10180666508E+03 -0.17521215762E+03  0.44066201601E+03  0.48502424938E+03  0.12699999809E+01 0. -1.
</event>
<event>
 5   0  0.1640035E-03  0.7996666E+03  0.7818609E-02  0.9560500E-01
       -1   -1    0    0    0  501  0.00000000000E+00  0.00000000000E+00  0.13471412882E+03  0.13471412892E+03  0.50400001928E-02 0.  1.
        1   -1    0    0  501    0  0.00000000000E+00  0.00000000000E+00 -0.11867103430E+04  0.11867103430E+04  0.50400001928E-02 0. -1.
    10030    2    1    2    0    0  0.00000000000E+00  0.00000000000E+00 -0.10519962141E+04  0.13214244719E+04  0.79966655573E+03 0.  0.
        5    1    3    3  502    0 -0.19768546150E+03 -0.26137951119E+03 -0.90443079587E+03  0.96198541833E+03  0.46999998093E+01 0. -1.
       -5    1    3    3    0  502  0.19768546150E+03  0.26137951119E+03 -0.14756541826E+03  0.35943905356E+03  0.46999998093E+01 0.  1.
</event>
<event>
 5   0  0.2873212E-03  0.8001618E+03  0.7818609E-02  0.9559783E-01
       -2   -1    0    0    0  501  0.00000000000E+00  0.00000000000E+00  0.83145180611E+02  0.83145180650E+02  0.25500000920E-02 0.  1.
        2   -1    0    0  501    0  0.00000000000E+00  0.00000000000E+00 -0.19251231840E+04  0.19251231840E+04  0.25500000920E-02 0. -1.
    10030    2    1    2    0    0  0.00000000000E+00  0.00000000000E+00 -0.18419780034E+04  0.20082683647E+04  0.80016177083E+03 0.  0.
        2    1    3    3  502    0 -0.51556021460E+02 -0.39187179499E+03 -0.76539610980E+03  0.86142482665E+03  0.25500000920E-02 0.  1.
       -2    1    3    3    0  502  0.51556021460E+02  0.39187179499E+03 -0.10765818936E+04  0.11468435380E+04  0.25500000920E-02 0. -1.
</event>
<event>
 5   0  0.2763587E-03  0.7946332E+03  0.7818609E-02  0.9567818E-01
        2   -1    0    0  501    0  0.00000000000E+00  0.00000000000E+00  0.21198951090E+03  0.21198951092E+03  0.25500000920E-02 0.  1.
       -2   -1    0    0    0  501  0.00000000000E+00  0.00000000000E+00 -0.74466182692E+03  0.74466182692E+03  0.25500000920E-02 0. -1.
    10030    2    1    2    0    0  0.00000000000E+00  0.00000000000E+00 -0.53267231602E+03  0.95665133784E+03  0.79463323989E+03 0.  0.
        3    1    3    3  502    0 -0.30632979463E+03  0.14835167723E+03 -0.51310233942E+03  0.61572736185E+03  0.10100000352E+00 0. -1.
       -3    1    3    3    0  502  0.30632979463E+03 -0.14835167723E+03 -0.19569976605E+02  0.34092397599E+03  0.10100000352E+00 0.  1.
</event>
<event>
 5   0  0.1637228E-03  0.8015621E+03  0.7818609E-02  0.9557759E-01
        1   -1    0    0  501    0  0.00000000000E+00  0.00000000000E+00  0.24665391927E+03  0.24665391932E+03  0.50400001928E-02 0. -1.
       -1   -1    0    0    0  501  0.00000000000E+00  0.00000000000E+00 -0.65121794442E+03  0.65121794444E+03  0.50400001928E-02 0.  1.
    10030    2    1    2    0    0  0.00000000000E+00  0.00000000000E+00 -0.40456402516E+03  0.89787186376E+03  0.80156212066E+03 0.  0.
        2    1    3    3  502    0 -0.47166242640E+02 -0.38203347453E+03 -0.32727431653E+03  0.50525509238E+03  0.25500000920E-02 0.  1.
       -2    1    3    3    0  502  0.47166242640E+02  0.38203347453E+03 -0.77289708626E+02  0.39261677138E+03  0.25500000920E-02 0. -1.
</event>
<event>
 5   0  0.1640035E-03  0.8035616E+03  0.7818609E-02  0.9554876E-01
       -1   -1    0    0    0  501  0.00000000000E+00  0.00000000000E+00  0.10829494765E+03  0.10829494777E+03  0.50400001928E-02 0. -1.
        1   -1    0    0  501    0  0.00000000000E+00  0.00000000000E+00 -0.14906311681E+04  0.14906311681E+04  0.50400001928E-02 0.  1.
    10030    2    1    2    0    0  0.00000000000E+00  0.00000000000E+00 -0.13823362205E+04  0.15989261159E+04  0.80356163279E+03 0.  0.
        5    1    3    3  502    0  0.67310451849E+02  0.54942229499E+02 -0.14716574418E+04  0.14742276152E+04  0.46999998093E+01 0.  1.
       -5    1    3    3    0  502 -0.67310451849E+02 -0.54942229499E+02  0.89321221285E+02  0.12469850071E+03  0.46999998093E+01 0. -1.
</event>
<event>
 5   0  0.2763587E-03  0.8034205E+03  0.7818609E-02  0.9555079E-01
        2   -1    0    0  501    0  0.00000000000E+00  0.00000000000E+00  0.16948846532E+04  0.16948846532E+04  0.25500000920E-02 0.  1.
       -2   -1    0    0    0  501  0.00000000000E+00  0.00000000000E+00 -0.95210683685E+02  0.95210683719E+02  0.25500000920E-02 0. -1.
    10030    2    1    2    0    0  0.00000000000E+00  0.00000000000E+00  0.15996739695E+04  0.17900953369E+04  0.80342050416E+03 0.  0.
        3    1    3    3  502    0 -0.38825129556E+03 -0.86359267411E+02  0.92536632683E+03  0.10072238285E+04  0.10100000352E+00 0.  1.
       -3    1    3    3    0  502  0.38825129556E+03  0.86359267411E+02  0.67430764265E+03  0.78287150843E+03  0.10100000352E+00 0. -1.
</event>
<event>
 5   0  0.2763587E-03  0.7989822E+03  0.7818609E-02  0.9561492E-01
       -2   -1    0    0    0  501  0.00000000000E+00  0.00000000000E+00  0.37161262285E+03  0.37161262286E+03  0.25500000920E-02 0.  1.
        2   -1    0    0  501    0  0.00000000000E+00  0.00000000000E+00 -0.42946101255E+03  0.42946101256E+03  0.25500000920E-02 0. -1.
    10030    2    1    2    0    0  0.00000000000E+00  0.00000000000E+00 -0.57848389698E+02  0.80107363542E+03  0.79898218576E+03 0.  0.
        3    1    3    3  502    0 -0.18720045685E+03 -0.30038370556E+03 -0.21466230354E+03  0.41394963024E+03  0.10100000352E+00 0. -1.
       -3    1    3    3    0  502  0.18720045685E+03  0.30038370556E+03  0.15681391384E+03  0.38712400518E+03  0.10100000352E+00 0.  1.
</event>
<event>
 5   0  0.2873212E-03  0.8023829E+03  0.7818609E-02  0.9556574E-01
       -2   -1    0    0    0  501  0.00000000000E+00  0.00000000000E+00  0.11809386295E+03  0.11809386298E+03  0.25500000920E-02 0. -1.
        2   -1    0    0  501    0  0.00000000000E+00  0.00000000000E+00 -0.13629376592E+04  0.13629376592E+04  0.25500000920E-02 0.  1.
    10030    2    1    2    0    0  0.00000000000E+00  0.00000000000E+00 -0.12448437962E+04  0.14810315222E+04  0.80238288406E+03 0.  0.
        2    1    3    3  502    0  0.24617144870E+03  0.30129109295E+03 -0.80306320923E+03  0.89234927180E+03  0.25500000920E-02 0.  1.
       -2    1    3    3    0  502 -0.24617144870E+03 -0.30129109295E+03 -0.44178058700E+03  0.58868225037E+03  0.25500000920E-02 0. -1.
</event>
<event>
 5   0  0.1617491E-03  0.7994806E+03  0.7818609E-02  0.9560769E-01
       -1   -1    0    0    0  501  0.00000000000E+00  0.00000000000E+00  0.16127788583E+04  0.16127788583E+04  0.50400001928E-02 0. -1.
        1   -1    0    0  501    0  0.00000000000E+00  0.00000000000E+00 -0.99078881316E+02  0.99078881444E+02  0.50400001928E-02 0.  1.
    10030    2    1    2    0    0  0.00000000000E+00  0.00000000000E+00  0.15136999770E+04  0.17118577398E+04  0.79948064444E+03 0.  0.
        1    1    3    3  502    0  0.24950540035E+03  0.30625709048E+03  0.88790153460E+03  0.97181041641E+03  0.50400001928E-02 0. -1.
       -1    1    3    3    0  502 -0.24950540035E+03 -0.30625709048E+03  0.62579844241E+03  0.74004732337E+03  0.50400001928E-02 0.  1.
</event>
<event>
 5   0  0.2768834E-03  0.8006850E+03  0.7818609E-02  0.9559026E-01
        2   -1    0    0  501    0  0.00000000000E+00  0.00000000000E+00  0.66585887849E+03  0.66585887850E+03  0.25500000920E-02 0.  1.
       -2   -1    0    0    0  501  0.00000000000E+00  0.00000000000E+00 -0.24070284056E+03  0.24070284058E+03  0.25500000920E-02 0. -1.
    10030    2    1    2    0    0  0.00000000000E+00  0.00000000000E+00  0.42515603793E+03  0.90656171907E+03  0.80068501541E+03 0.  0.
        4    1    3    3  502    0  0.49197660015E+02 -0.12043896071E+03 -0.21609811905E+03  0.25224187393E+03  0.12699999809E+01 0. -1.
       -4    1    3    3    0  502 -0.49197660015E+02  0.12043896071E+03  0.64125415698E+03  0.65431984515E+03  0.12699999809E+01 0.  1.
</event>
<event>
 5   0  0.2763587E-03  0.7994773E+03  0.7818609E-02  0.9560774E-01
       -2   -1    0    0    0  501  0.00000000000E+00  0.00000000000E+00  0.25867440552E+03  0.25867440553E+03  0.25500000920E-02 0.  1.
        2   -1    0    0  501    0  0.00000000000E+00  0.00000000000E+00 -0.61773015987E+03  0.61773015987E+03  0.25500000920E-02 0. -1.
    10030    2    1    2    0    0  0.00000000000E+00  0.00000000000E+00 -0.35905575435E+03  0.87640456540E+03  0.79947728393E+03 0.  0.
        3    1    3    3  502    0 -0.32064071284E+03  0.33715732414E+02 -0.43857919553E+03  0.54433348078E+03  0.10100000352E+00 0. -1.
       -3    1    3    3    0  502  0.32064071284E+03 -0.33715732414E+02  0.79523441178E+02  0.33207108462E+03  0.10100000352E+00 0.  1.
</event>
<event>
 5   0  0.1095350E-03  0.8003975E+03  0.7818609E-02  0.9559442E-01
        4   -1    0    0  501    0  0.00000000000E+00  0.00000000000E+00  0.43935225498E+03  0.43935409052E+03  0.12699999809E+01 0. -1.
       -4   -1    0    0    0  501  0.00000000000E+00  0.00000000000E+00 -0.36453078403E+03  0.36453299632E+03  0.12699999809E+01 0.  1.
    10030    2    1    2    0    0  0.00000000000E+00  0.00000000000E+00  0.74821470945E+02  0.80388708684E+03  0.80039752365E+03 0.  0.
        5    1    3    3  502    0 -0.17875479604E+01  0.37948285860E+03 -0.90133165340E+02  0.39007244557E+03  0.46999998093E+01 0.  1.
       -5    1    3    3    0  502  0.17875479604E+01 -0.37948285860E+03  0.16495463628E+03  0.41381464127E+03  0.46999998093E+01 0. -1.
</event>
<event>
 5   0  0.1617491E-03  0.8012818E+03  0.7818609E-02  0.9558164E-01
       -1   -1    0    0    0  501  0.00000000000E+00  0.00000000000E+00  0.44550074881E+03  0.44550074884E+03  0.50400001928E-02 0. -1.
        1   -1    0    0  501    0  0.00000000000E+00  0.00000000000E+00 -0.36029820158E+03  0.36029820161E+03  0.50400001928E-02 0.  1.
    10030    2    1    2    0    0  0.00000000000E+00  0.00000000000E+00  0.85202547233E+02  0.80579895045E+03  0.80128176973E+03 0.  0.
        1    1    3    3  502    0 -0.10769823869E+03  0.24618260595E+03 -0.25624116897E+03  0.37130085213E+03  0.50400001928E-02 0.  1.
       -1    1    3    3    0  502  0.10769823869E+03 -0.24618260595E+03  0.34144371620E+03  0.43449809833E+03  0.50400001928E-02 0. -1.
</event>
<event>
 5   0  0.2910501E-03  0.7998287E+03  0.7818609E-02  0.9560265E-01
       -2   -1    0    0    0  501  0.00000000000E+00  0.00000000000E+00  0.13317311377E+03  0.13317311379E+03  0.25500000920E-02 0. -1.
        2   -1    0    0  501    0  0.00000000000E+00  0.00000000000E+00 -0.12009293289E+04  0.12009293289E+04  0.25500000920E-02 0.  1.
    10030    2    1    2    0    0  0.00000000000E+00  0.00000000000E+00 -0.10677562151E+04  0.13341024427E+04  0.79982872707E+03 0.  0.
        1    1    3    3  502    0  0.35431469651E+03 -0.18340801272E+03 -0.48807392181E+03  0.63039158978E+03  0.50400001928E-02 0.  1.
       -1    1    3    3    0  502 -0.35431469651E+03  0.18340801272E+03 -0.57968229331E+03  0.70371085290E+03  0.50400001928E-02 0. -1.
</event>
<event>
 5   0  0.1640035E-03  0.8000028E+03  0.7818609E-02  0.9560013E-01
        1   -1    0    0  501    0  0.00000000000E+00  0.00000000000E+00  0.14197318612E+04  0.14197318612E+04  0.50400001928E-02 0. -1.
       -1   -1    0    0    0  501  0.00000000000E+00  0.00000000000E+00 -0.11269811885E+03  0.11269811896E+03  0.50400001928E-02 0.  1.
    10030    2    1    2    0    0  0.00000000000E+00  0.00000000000E+00  0.13070337423E+04  0.15324299802E+04  0.80000277529E+03 0.  0.
        5    1    3    3  502    0 -0.74596909996E+01  0.89926160378E+02 -0.92893156762E+02  0.12959008404E+03  0.46999998093E+01 0.  1.
       -5    1    3    3    0  502  0.74596909996E+01 -0.89926160378E+02  0.13999268991E+04  0.14028398961E+04  0.46999998093E+01 0. -1.
</event>
<event>
 5   0  0.1712793E-03  0.7929891E+03  0.7818609E-02  0.9570221E-01
       -1   -1    0    0    0  501  0.00000000000E+00  0.00000000000E+00  0.16061147917E+03  0.16061147925E+03  0.50400001928E-02 0.  1.
        1   -1    0    0  501    0  0.00000000000E+00  0.00000000000E+00 -0.97880882340E+03  0.97880882342E+03  0.50400001928E-02 0. -1.
    10030    2    1    2    0    0  0.00000000000E+00  0.00000000000E+00 -0.81819734423E+03  0.11394203027E+04  0.79298911218E+03 0.  0.
        4    1    3    3  502    0  0.29470328208E+03 -0.10346434834E+03 -0.76003403884E+03  0.82171056275E+03  0.12699999809E+01 0. -1.
       -4    1    3    3    0  502 -0.29470328208E+03  0.10346434834E+03 -0.58163305393E+02  0.31770973992E+03  0.12699999809E+01 0.  1.
</event>
<event>
 5   0  0.2763587E-03  0.7984643E+03  0.7818609E-02  0.9562243E-01
        2   -1    0    0  501    0  0.00000000000E+00  0.00000000000E+00  0.18245970520E+04  0.18245970520E+04  0.25500000920E-02 0.  1.
       -2   -1    0    0    0  501  0.00000000000E+00  0.00000000000E+00 -0.87354243289E+02  0.87354243326E+02  0.25500000920E-02 0. -1.
    10030    2    1    2    0    0  0.00000000000E+00  0.00000000000E+00  0.17372428088E+04  0.19119512954E+04  0.79846426301E+03 0.  0.
        3    1    3    3  502    0  0.28983241062E+03 -0.14948153035E+03  0.14200863381E+04  0.14570493375E+04  0.10100000352E+00 0.  1.
       -3    1    3    3    0  502 -0.28983241062E+03  0.14948153035E+03  0.31715647065E+03  0.45490195782E+03  0.10100000352E+00 0. -1.
</event>
<event>
 5   0  0.1712793E-03  0.7998229E+03  0.7818609E-02  0.9560273E-01
        1   -1    0    0  501    0  0.00000000000E+00  0.00000000000E+00  0.50912161621E+03  0.50912161624E+03  0.50400001928E-02 0. -1.
       -1   -1    0    0    0  501  0.00000000000E+00  0.00000000000E+00 -0.31412765480E+03  0.31412765484E+03  0.50400001928E-02 0.  1.
    10030    2    1    2    0    0  0.00000000000E+00  0.00000000000E+00  0.19499396142E+03  0.82324927108E+03  0.79982292874E+03 0.  0.
        4    1    3    3  502    0 -0.20554756598E+03 -0.19567860868E+03  0.38750764551E+03  0.48031625832E+03  0.12699999809E+01 0. -1.
       -4    1    3    3    0  502  0.20554756598E+03  0.19567860868E+03 -0.19251368409E+03  0.34293301276E+03  0.12699999809E+01 0.  1.
</event>
<event>
 5   0  0.1617491E-03  0.8113796E+03  0.7818609E-02  0.9543690E-01
        1   -1    0    0  501    0  0.00000000000E+00  0.00000000000E+00  0.79039859493E+03  0.79039859494E+03  0.50400001928E-02 0. -1.
       -1   -1    0    0    0  501  0.00000000000E+00  0.00000000000E+00 -0.20822939814E+03  0.20822939820E+03  0.50400001928E-02 0.  1.
    10030    2    1    2    0    0  0.00000000000E+00  0.00000000000E+00  0.58216919679E+03  0.99862799315E+03  0.81137962447E+03 0.  0.
        1    1    3    3  502    0 -0.35600715349E+03 -0.19199822429E+03  0.25255885098E+03  0.47685467881E+03  0.50400001928E-02 0.  1.
       -1    1    3    3    0  502  0.35600715349E+03  0.19199822429E+03  0.32961034581E+03  0.52177331434E+03  0.50400001928E-02 0. -1.
</event>
<event>
 5   0  0.1637228E-03  0.7989798E+03  0.7818609E-02  0.9561495E-01
        1   -1    0    0  501    0  0.00000000000E+00  0.00000000000E+00  0.18231144681E+04  0.18231144681E+04  0.50400001928E-02 0. -1.
       -1   -1    0    0    0  501  0.00000000000E+00  0.00000000000E+00 -0.87538206485E+02  0.87538206630E+02  0.50400001928E-02 0.  1.
    10030    2    1    2    0    0  0.00000000000E+00  0.00000000000E+00  0.17355762616E+04  0.19106526747E+04  0.79897977672E+03 0.  0.
        2    1    3    3  502    0 -0.22204091973E+03 -0.30915240011E+03  0.11578716520E+04  0.12188290032E+04  0.25500000920E-02 0. -1.
       -2    1    3    3    0  502  0.22204091973E+03  0.30915240011E+03  0.57770460965E+03  0.69182367157E+03  0.25500000920E-02 0.  1.
</event>
<event>
 5   0  0.2910501E-03  0.7985922E+03  0.7818609E-02  0.9562057E-01
        2   -1    0    0  501    0  0.00000000000E+00  0.00000000000E+00  0.47966906014E+03  0.47966906014E+03  0.25500000920E-02 0. -1.
       -2   -1    0    0    0  501  0.00000000000E+00  0.00000000000E+00 -0.33239039687E+03  0.33239039688E+03  0.25500000920E-02 0.  1.
    10030    2    1    2    0    0  0.00000000000E+00  0.00000000000E+00  0.14727866326E+03  0.81205945703E+03  0.79859223456E+03 0.  0.
        1    1    3    3  502    0 -0.33830802317E+03 -0.11080574062E+03 -0.11026169499E+03  0.37267663209E+03  0.50400001928E-02 0.  1.
       -1    1    3    3    0  502  0.33830802317E+03  0.11080574062E+03  0.25754035825E+03  0.43938282494E+03  0.50400001928E-02 0. -1.
</event>
<event>
 5   0  0.1640035E-03  0.8005272E+03  0.7818609E-02  0.9559254E-01
       -1   -1    0    0    0  501  0.00000000000E+00  0.00000000000E+00  0.19523588766E+03  0.19523588773E+03  0.50400001928E-02 0.  1.
        1   -1    0    0  501    0  0.00000000000E+00  0.00000000000E+00 -0.82060202555E+03  0.82060202557E+03  0.50400001928E-02 0. -1.
    10030    2    1    2    0    0  0.00000000000E+00  0.00000000000E+00 -0.62536613789E+03  0.10158379133E+04  0.80052723855E+03 0.  0.
        5    1    3    3  502    0  0.24689057074E+03  0.31285048866E+03 -0.35945410237E+03  0.53671195615E+03  0.46999998093E+01 0.  1.
       -5    1    3    3    0  502 -0.24689057074E+03 -0.31285048866E+03 -0.26591203552E+03  0.47912595714E+03  0.46999998093E+01 0. -1.
</event>
<event>
 5   0  0.2763587E-03  0.7995394E+03  0.7818609E-02  0.9560684E-01
       -2   -1    0    0    0  501  0.00000000000E+00  0.00000000000E+00  0.52640384084E+03  0.52640384084E+03  0.25500000920E-02 0.  1.
        2   -1    0    0  501    0  0.00000000000E+00  0.00000000000E+00 -0.30359926966E+03  0.30359926967E+03  0.25500000920E-02 0. -1.
    10030    2    1    2    0    0  0.00000000000E+00  0.00000000000E+00  0.22280457118E+03  0.83000311051E+03  0.79953942150E+03 0.  0.
        3    1    3    3  502    0  0.84334201902E+02 -0.19795932525E+03 -0.23835577039E+03  0.32111311955E+03  0.10100000352E+00 0. -1.
       -3    1    3    3    0  502 -0.84334201902E+02  0.19795932525E+03  0.46116034157E+03  0.50888999097E+03  0.10100000352E+00 0.  1.
</event>
<event>
 5   0  0.2873212E-03  0.7996975E+03  0.7818609E-02  0.9560455E-01
       -2   -1    0    0    0  501  0.00000000000E+00  0.00000000000E+00  0.95786466538E+02  0.95786466572E+02  0.25500000920E-02 0. -1.
        2   -1    0    0  501    0  0.00000000000E+00  0.00000000000E+00 -0.16691189970E+04  0.16691189970E+04  0.25500000920E-02 0.  1.
    10030    2    1    2    0    0  0.00000000000E+00  0.00000000000E+00 -0.15733325304E+04  0.17649054635E+04  0.79969747025E+03 0.  0.
        2    1    3    3  502    0  0.20807456387E+03  0.24769057726E+03 -0.13053426509E+04  0.13448290160E+04  0.25500000920E-02 0.  1.
       -2    1    3    3    0  502 -0.20807456387E+03 -0.24769057726E+03 -0.26798987956E+03  0.42007644751E+03  0.25500000920E-02 0. -1.
</event>
<event>
 5   0  0.2910501E-03  0.7997796E+03  0.7818609E-02  0.9560336E-01
       -2   -1    0    0    0  501  0.00000000000E+00  0.00000000000E+00  0.17395918844E+03  0.17395918845E+03  0.25500000920E-02 0.  1.
        2   -1    0    0  501    0  0.00000000000E+00  0.00000000000E+00 -0.91924917419E+03  0.91924917419E+03  0.25500000920E-02 0. -1.
    10030    2    1    2    0    0  0.00000000000E+00  0.00000000000E+00 -0.74528998575E+03  0.10932083626E+04  0.79977957044E+03 0.  0.
        1    1    3    3  502    0 -0.17498507705E+03 -0.16697938347E+03  0.62639224003E+02  0.24985108385E+03  0.50400001928E-02 0.  1.
       -1    1    3    3    0  502  0.17498507705E+03  0.16697938347E+03 -0.80792920975E+03  0.84335727879E+03  0.50400001928E-02 0. -1.
</event>
<event>
 5   0  0.2763587E-03  0.8015671E+03  0.7818609E-02  0.9557752E-01
        2   -1    0    0  501    0  0.00000000000E+00  0.00000000000E+00  0.60150186668E+03  0.60150186668E+03  0.25500000920E-02 0. -1.
       -2   -1    0    0    0  501  0.00000000000E+00  0.00000000000E+00 -0.26704400156E+03  0.26704400157E+03  0.25500000920E-02 0.  1.
    10030    2    1    2    0    0  0.00000000000E+00  0.00000000000E+00  0.33445786512E+03  0.86854586825E+03  0.80156712864E+03 0.  0.
        3    1    3    3  502    0  0.75563310802E+02  0.39064804089E+03  0.11513067004E+03  0.41421104184E+03  0.10100000352E+00 0. -1.
       -3    1    3    3    0  502 -0.75563310802E+02 -0.39064804089E+03  0.21932719508E+03  0.45433482642E+03  0.10100000352E+00 0.  1.
</event>
<event>
 5   0  0.1617491E-03  0.8020962E+03  0.7818609E-02  0.9556988E-01
       -1   -1    0    0    0  501  0.00000000000E+00  0.00000000000E+00  0.16324700170E+03  0.16324700177E+03  0.50400001928E-02 0.  1.
        1   -1    0    0  501    0  0.00000000000E+00  0.00000000000E+00 -0.98525284998E+03  0.98525284999E+03  0.50400001928E-02 0. -1.
    10030    2    1    2    0    0  0.00000000000E+00  0.00000000000E+00 -0.82200584828E+03  0.11484998518E+04  0.80209618806E+03 0.  0.
        1    1    3    3  502    0 -0.68475219686E+01  0.12888342014E+03  0.13269745526E+03  0.18511196396E+03  0.50400001928E-02 0.  1.
       -1    1    3    3    0  502  0.68475219686E+01 -0.12888342014E+03 -0.95470330354E+03  0.96338788780E+03  0.50400001928E-02 0. -1.
</event>
<event>
 5   0  0.1640035E-03  0.8000432E+03  0.7818609E-02  0.9559955E-01
       -1   -1    0    0    0  501  0.00000000000E+00  0.00000000000E+00  0.14002121950E+03  0.14002121959E+03  0.50400001928E-02 0.  1.
        1   -1    0    0  501    0  0.00000000000E+00  0.00000000000E+00 -0.11428074962E+04  0.11428074962E+04  0.50400001928E-02 0. -1.
    10030    2    1    2    0    0  0.00000000000E+00  0.00000000000E+00 -0.10027862767E+04  0.12828287158E+04  0.80004324715E+03 0.  0.
        5    1    3    3  502    0  0.92030513466E+02  0.10898469403E+03  0.97807767103E+02  0.17301944470E+03  0.46999998093E+01 0.  1.
       -5    1    3    3    0  502 -0.92030513466E+02 -0.10898469403E+03 -0.11005940438E+04  0.11098092711E+04  0.46999998093E+01 0. -1.
</event>
<event>
 5   0  0.1095350E-03  0.7991937E+03  0.7818609E-02  0.9561185E-01
       -3   -1    0    0    0  501  0.00000000000E+00  0.00000000000E+00  0.89646627502E+02  0.89646684398E+02  0.10100000352E+00 0.  1.
        3   -1    0    0  501    0  0.00000000000E+00  0.00000000000E+00 -0.17811887987E+04  0.17811888016E+04  0.10100000352E+00 0. -1.
    10030    2    1    2    0    0  0.00000000000E+00  0.00000000000E+00 -0.16915421712E+04  0.18708354860E+04  0.79919365525E+03 0.  0.
        2    1    3    3  502    0  0.23555097263E+03  0.30641517071E+03 -0.10833827074E+04  0.11502576269E+04  0.25500000920E-02 0. -1.
       -2    1    3    3    0  502 -0.23555097263E+03 -0.30641517071E+03 -0.60815946377E+03  0.72057785903E+03  0.25500000920E-02 0.  1.
</event>
<event>
 5   0  0.2768834E-03  0.8005009E+03  0.7818609E-02  0.9559292E-01
        2   -1    0    0  501    0  0.00000000000E+00  0.00000000000E+00  0.14856229865E+03  0.14856229867E+03  0.25500000920E-02 0.  1.
       -2   -1    0    0    0  501  0.00000000000E+00  0.00000000000E+00 -0.10783383666E+04  0.10783383666E+04  0.25500000920E-02 0. -1.
    10030    2    1    2    0    0  0.00000000000E+00  0.00000000000E+00 -0.92977606796E+03  0.12269006653E+04  0.80050090938E+03 0.  0.
        4    1    3    3  502    0  0.10558800011E+03 -0.32431499600E+03 -0.78590667872E+03  0.85672630574E+03  0.12699999809E+01 0. -1.
       -4    1    3    3    0  502 -0.10558800011E+03  0.32431499600E+03 -0.14386938924E+03  0.37017435954E+03  0.12699999809E+01 0.  1.
</event>
<event>
 5   0  0.2873212E-03  0.7876560E+03  0.7818609E-02  0.9578058E-01
       -2   -1    0    0    0  501  0.00000000000E+00  0.00000000000E+00  0.14640229698E+03  0.14640229700E+03  0.25500000920E-02 0.  1.
        2   -1    0    0  501    0  0.00000000000E+00  0.00000000000E+00 -0.10594130409E+04  0.10594130409E+04  0.25500000920E-02 0. -1.
    10030    2    1    2    0    0  0.00000000000E+00  0.00000000000E+00 -0.91301074391E+03  0.12058153379E+04  0.78765602303E+03 0.  0.
        2    1    3    3  502    0  0.38008688954E+03  0.56129650440E+02 -0.58894221324E+03  0.70318526137E+03  0.25500000920E-02 0.  1.
       -2    1    3    3    0  502 -0.38008688954E+03 -0.56129650440E+02 -0.32406853067E+03  0.50263007653E+03  0.25500000920E-02 0. -1.
</event>
<event>
 5   0  0.1637228E-03  0.8002538E+03  0.7818609E-02  0.9559650E-01
        1   -1    0    0  501    0  0.00000000000E+00  0.00000000000E+00  0.60874392521E+03  0.60874392523E+03  0.50400001928E-02 0.  1.
       -1   -1    0    0    0  501  0.00000000000E+00  0.00000000000E+00 -0.26300307529E+03  0.26300307534E+03  0.50400001928E-02 0. -1.
    10030    2    1    2    0    0  0.00000000000E+00  0.00000000000E+00  0.34574084992E+03  0.87174700057E+03  0.80025377082E+03 0.  0.
        2    1    3    3  502    0  0.33684130415E+03 -0.20510443399E+03  0.24652476388E+03  0.46508531716E+03  0.25500000920E-02 0.  1.
       -2    1    3    3    0  502 -0.33684130415E+03  0.20510443399E+03  0.99216086037E+02  0.40666168342E+03  0.25500000920E-02 0. -1.
</event>
<event>
 5   0  0.1095350E-03  0.7998733E+03  0.7818609E-02  0.9560201E-01
        4   -1    0    0  501    0  0.00000000000E+00  0.00000000000E+00  0.19450325543E+03  0.19450740159E+03  0.12699999809E+01 0.  1.
       -4   -1    0    0    0  501  0.00000000000E+00  0.00000000000E+00 -0.82233431653E+03  0.82233529721E+03  0.12699999809E+01 0. -1.
    10030    2    1    2    0    0  0.00000000000E+00  0.00000000000E+00 -0.62783106110E+03  0.10168426988E+04  0.79987326047E+03 0.  0.
        1    1    3    3  502    0  0.11342361219E+03  0.16817164124E+03 -0.75208865436E+03  0.77896338858E+03  0.50400001928E-02 0. -1.
       -1    1    3    3    0  502 -0.11342361219E+03 -0.16817164124E+03  0.12425759326E+03  0.23787931021E+03  0.50400001928E-02 0.  1.
</event>
<event>
 5   0  0.2910501E-03  0.7996428E+03  0.7818609E-02  0.9560534E-01
       -2   -1    0    0    0  501  0.00000000000E+00  0.00000000000E+00  0.13609818014E+03  0.13609818017E+03  0.25500000920E-02 0.  1.
        2   -1    0    0  501    0  0.00000000000E+00  0.00000000000E+00 -0.11745722170E+04  0.11745722170E+04  0.25500000920E-02 0. -1.
    10030    2    1    2    0    0  0.00000000000E+00  0.00000000000E+00 -0.10384740369E+04  0.13106703972E+04  0.79964277324E+03 0.  0.
        1    1    3    3  502    0 -0.22978155355E+03 -0.21664655958E+02 -0.10543581259E+04  0.10793238520E+04  0.50400001928E-02 0. -1.
       -1    1    3    3    0  502  0.22978155355E+03  0.21664655958E+02  0.15884089072E+02  0.23134654521E+03  0.50400001928E-02 0.  1.
</event>
<event>
 5   0  0.1712793E-03  0.8005029E+03  0.7818609E-02  0.9559289E-01
        1   -1    0    0  501    0  0.00000000000E+00  0.00000000000E+00  0.18483689994E+03  0.18483690001E+03  0.50400001928E-02 0.  1.
       -1   -1    0    0    0  501  0.00000000000E+00  0.00000000000E+00 -0.86671676213E+03  0.86671676215E+03  0.50400001928E-02 0. -1.
    10030    2    1    2    0    0  0.00000000000E+00  0.00000000000E+00 -0.68187986219E+03  0.10515536622E+04  0.80050294061E+03 0.  0.
        4    1    3    3  502    0  0.37812030495E+01  0.24199957580E+03 -0.75969625884E+03  0.79731932799E+03  0.12699999809E+01 0. -1.
       -4    1    3    3    0  502 -0.37812030495E+01 -0.24199957580E+03  0.77816396650E+02  0.25423433417E+03  0.12699999809E+01 0.  1.
</event>
<event>
 5   0  0.1640035E-03  0.8080853E+03  0.7818609E-02  0.9548387E-01
       -1   -1    0    0    0  501  0.00000000000E+00  0.00000000000E+00  0.49597845051E+03  0.49597845053E+03  0.50400001928E-02 0.  1.
        1   -1    0    0  501    0  0.00000000000E+00  0.00000000000E+00 -0.32914833188E+03  0.32914833192E+03  0.50400001928E-02 0. -1.
    10030    2    1    2    0    0  0.00000000000E+00  0.00000000000E+00  0.16683011863E+03  0.82512678245E+03  0.80808534119E+03 0.  0.
        5    1    3    3  502    0  0.12257708726E+03  0.32970566305E+03 -0.11951567942E+03  0.37153338234E+03  0.46999998093E+01 0. -1.
       -5    1    3    3    0  502 -0.12257708726E+03 -0.32970566305E+03  0.28634579805E+03  0.45359340011E+03  0.46999998093E+01 0.  1.
</event>
<event>
 5   0  0.1617491E-03  0.8027518E+03  0.7818609E-02  0.9556042E-01
        1   -1    0    0  501    0  0.00000000000E+00  0.00000000000E+00  0.56551080153E+03  0.56551080156E+03  0.50400001928E-02 0. -1.
       -1   -1    0    0    0  501  0.00000000000E+00  0.00000000000E+00 -0.28487982583E+03  0.28487982587E+03  0.50400001928E-02 0.  1.
    10030    2    1    2    0    0  0.00000000000E+00  0.00000000000E+00  0.28063097571E+03  0.85039062743E+03  0.80275181388E+03 0.  0.
        1    1    3    3  502    0  0.83564490484E+02 -0.77565706427E+02  0.54799541214E+03  0.55973068045E+03  0.50400001928E-02 0. -1.
       -1    1    3    3    0  502 -0.83564490484E+02  0.77565706427E+02 -0.26736443643E+03  0.29065994698E+03  0.50400001928E-02 0.  1.
</event>
<event>
 5   0  0.1656051E-03  0.7985875E+03  0.7818609E-02  0.9562064E-01
       -1   -1    0    0    0  501  0.00000000000E+00  0.00000000000E+00  0.60911433428E+03  0.60911433430E+03  0.50400001928E-02 0.  1.
        1   -1    0    0  501    0  0.00000000000E+00  0.00000000000E+00 -0.26174973155E+03  0.26174973160E+03  0.50400001928E-02 0. -1.
    10030    2    1    2    0    0  0.00000000000E+00  0.00000000000E+00  0.34736460273E+03  0.87086406590E+03  0.79858753688E+03 0.  0.
        3    1    3    3  502    0  0.97354564752E+02 -0.35052554681E+03  0.35316715315E+03  0.50702378496E+03  0.10100000352E+00 0.  1.
       -3    1    3    3    0  502 -0.97354564752E+02  0.35052554681E+03 -0.58025504188E+01  0.36384028095E+03  0.10100000352E+00 0. -1.
</event>
<event>
 5   0  0.2763587E-03  0.8004016E+03  0.7818609E-02  0.9559436E-01
       -2   -1    0    0    0  501  0.00000000000E+00  0.00000000000E+00  0.77239702999E+03  0.77239703000E+03  0.25500000920E-02 0. -1.
        2   -1    0    0  501    0  0.00000000000E+00  0.00000000000E+00 -0.20735536080E+03  0.20735536082E+03  0.25500000920E-02 0.  1.
    10030    2    1    2    0    0  0.00000000000E+00  0.00000000000E+00  0.56504166919E+03  0.97975239081E+03  0.80040156133E+03 0.  0.
        3    1    3    3  502    0  0.19453778651E+03 -0.19842184041E+03  0.63505575509E+03  0.69318972829E+03  0.10100000352E+00 0. -1.
       -3    1    3    3    0  502 -0.19453778651E+03  0.19842184041E+03 -0.70014085893E+02  0.28656266253E+03  0.10100000352E+00 0.  1.
</event>
<event>
 5   0  0.2910501E-03  0.7997446E+03  0.7818609E-02  0.9560387E-01
       -2   -1    0    0    0  501  0.00000000000E+00  0.00000000000E+00  0.15418332054E+03  0.15418332056E+03  0.25500000920E-02 0.  1.
        2   -1    0    0  501    0  0.00000000000E+00  0.00000000000E+00 -0.10370633308E+04  0.10370633308E+04  0.25500000920E-02 0. -1.
    10030    2    1    2    0    0  0.00000000000E+00  0.00000000000E+00 -0.88288001030E+03  0.11912466514E+04  0.79974462916E+03 0.  0.
        1    1    3    3  502    0 -0.65323906455E+02  0.33451828786E+03 -0.12995939740E+03  0.36477272741E+03  0.50400001928E-02 0.  1.
       -1    1    3    3    0  502  0.65323906455E+02 -0.33451828786E+03 -0.75292061290E+03  0.82647392398E+03  0.50400001928E-02 0. -1.
</event>
<event>
 5   0  0.1640035E-03  0.8025685E+03  0.7818609E-02  0.9556307E-01
       -1   -1    0    0    0  501  0.00000000000E+00  0.00000000000E+00  0.38565789900E+03  0.38565789903E+03  0.50400001928E-02 0. -1.
        1   -1    0    0  501    0  0.00000000000E+00  0.00000000000E+00 -0.41754378381E+03  0.41754378384E+03  0.50400001928E-02 0.  1.
    10030    2    1    2    0    0  0.00000000000E+00  0.00000000000E+00 -0.31885884808E+02  0.80320168287E+03  0.80256852276E+03 0.  0.
        5    1    3    3  502    0 -0.12093277067E+03 -0.35933509846E+03  0.11554000482E+03  0.39638116847E+03  0.46999998093E+01 0. -1.
       -5    1    3    3    0  502  0.12093277067E+03  0.35933509846E+03 -0.14742588962E+03  0.40682051440E+03  0.46999998093E+01 0.  1.
</event>
<event>
 5   0  0.2768834E-03  0.7983142E+03  0.7818609E-02  0.9562460E-01
        2   -1    0    0  501    0  0.00000000000E+00  0.00000000000E+00  0.19455775366E+04  0.19455775366E+04  0.25500000920E-02 0. -1.
       -2   -1    0    0    0  501  0.00000000000E+00  0.00000000000E+00 -0.81891562497E+02  0.81891562537E+02  0.25500000920E-02 0.  1.
    10030    2    1    2    0    0  0.00000000000E+00  0.00000000000E+00  0.18636859741E+04  0.20274690992E+04  0.79831418495E+03 0.  0.
        4    1    3    3  502    0  0.18248293850E+03 -0.10267633055E+03  0.68788633817E+02  0.22039950259E+03  0.12699999809E+01 0.  1.
       -4    1    3    3    0  502 -0.18248293850E+03  0.10267633055E+03  0.17948973403E+04  0.18070695966E+04  0.12699999809E+01 0. -1.
</event>
<event>
 5   0  0.1637228E-03  0.8000692E+03  0.7818609E-02  0.9559917E-01
       -1   -1    0    0    0  501  0.00000000000E+00  0.00000000000E+00  0.16530634390E+03  0.16530634398E+03  0.50400001928E-02 0.  1.
        1   -1    0    0  501    0  0.00000000000E+00  0.00000000000E+00 -0.96806743362E+03  0.96806743364E+03  0.50400001928E-02 0. -1.
    10030    2    1    2    0    0  0.00000000000E+00  0.00000000000E+00 -0.80276108973E+03  0.11333737776E+04  0.80006921738E+03 0.  0.
        2    1    3    3  502    0  0.92925820221E+02 -0.37066942798E+03 -0.56897426133E+03  0.68539240072E+03  0.25500000920E-02 0.  1.
       -2    1    3    3    0  502 -0.92925820221E+02  0.37066942798E+03 -0.23378682840E+03  0.44798137689E+03  0.25500000920E-02 0. -1.
</event>
<event>
 5   0  0.2690809E-03  0.8009189E+03  0.7818609E-02  0.9558688E-01
        2   -1    0    0  501    0  0.00000000000E+00  0.00000000000E+00  0.82128363131E+03  0.82128363132E+03  0.25500000920E-02 0.  1.
       -2   -1    0    0    0  501  0.00000000000E+00  0.00000000000E+00 -0.19526478119E+03  0.19526478120E+03  0.25500000920E-02 0. -1.
    10030    2    1    2    0    0  0.00000000000E+00  0.00000000000E+00  0.62601885013E+03  0.10165484125E+04  0.80091889370E+03 0.  0.
        5    1    3    3  502    0  0.44154494462E+02  0.15471893543E+02 -0.19174867521E+03  0.19743009728E+03  0.46999998093E+01 0. -1.
       -5    1    3    3    0  502 -0.44154494462E+02 -0.15471893543E+02  0.81776752533E+03  0.81911831524E+03  0.46999998093E+01 0.  1.
</event>
<event>
 5   0  0.2690809E-03  0.8073094E+03  0.7818609E-02  0.9549497E-01
        2   -1    0    0  501    0  0.00000000000E+00  0.00000000000E+00  0.51088404322E+03  0.51088404323E+03  0.25500000920E-02 0. -1.
       -2   -1    0    0    0  501  0.00000000000E+00  0.00000000000E+00 -0.31893172650E+03  0.31893172651E+03  0.25500000920E-02 0.  1.
    10030    2    1    2    0    0  0.00000000000E+00  0.00000000000E+00  0.19195231672E+03  0.82981576973E+03  0.80730943250E+03 0.  0.
        5    1    3    3  502    0  0.87168404199E+02 -0.76608869601E+02  0.49333822546E+03  0.50682535877E+03  0.46999998093E+01 0. -1.
       -5    1    3    3    0  502 -0.87168404199E+02  0.76608869601E+02 -0.30138590874E+03  0.32299041097E+03  0.46999998093E+01 0.  1.
</event>
<event>
 5   0  0.2763587E-03  0.8016089E+03  0.7818609E-02  0.9557691E-01
        2   -1    0    0  501    0  0.00000000000E+00  0.00000000000E+00  0.13064953408E+04  0.13064953408E+04  0.25500000920E-02 0.  1.
       -2   -1    0    0    0  501  0.00000000000E+00  0.00000000000E+00 -0.12295813021E+03  0.12295813024E+03  0.25500000920E-02 0. -1.
    10030    2    1    2    0    0  0.00000000000E+00  0.00000000000E+00  0.11835372106E+04  0.14294534711E+04  0.80160894271E+03 0.  0.
        3    1    3    3  502    0  0.13284419019E+03  0.19599389715E+02  0.12651890005E+04  0.12722951435E+04  0.10100000352E+00 0.  1.
       -3    1    3    3    0  502 -0.13284419019E+03 -0.19599389715E+02 -0.81651789871E+02  0.15715832760E+03  0.10100000352E+00 0. -1.
</event>
<event>
 5   0  0.2690809E-03  0.8002559E+03  0.7818609E-02  0.9559647E-01
       -2   -1    0    0    0  501  0.00000000000E+00  0.00000000000E+00  0.10029239915E+04  0.10029239915E+04  0.25500000920E-02 0.  1.
        2   -1    0    0  501    0  0.00000000000E+00  0.00000000000E+00 -0.15963559290E+03  0.15963559292E+03  0.25500000920E-02 0. -1.
    10030    2    1    2    0    0  0.00000000000E+00  0.00000000000E+00  0.84328839858E+03  0.11625595844E+04  0.80025587414E+03 0.  0.
        5    1    3    3  502    0  0.39030624883E+03 -0.84064478201E+02  0.38391581552E+03  0.55391267162E+03  0.46999998093E+01 0.  1.
       -5    1    3    3    0  502 -0.39030624883E+03  0.84064478201E+02  0.45937258305E+03  0.60864691278E+03  0.46999998093E+01 0. -1.
</event>
<event>
 5   0  0.2873212E-03  0.7977770E+03  0.7818609E-02  0.9563240E-01
       -2   -1    0    0    0  501  0.00000000000E+00  0.00000000000E+00  0.97418758609E+02  0.97418758643E+02  0.25500000920E-02 0.  1.
        2   -1    0    0  501    0  0.00000000000E+00  0.00000000000E+00 -0.16332792360E+04  0.16332792360E+04  0.25500000920E-02 0. -1.
    10030    2    1    2    0    0  0.00000000000E+00  0.00000000000E+00 -0.15358604774E+04  0.17306979947E+04  0.79777700059E+03 0.  0.
        2    1    3    3  502    0  0.34331558382E+03 -0.97065557324E+02 -0.38092031986E+03  0.52190765716E+03  0.25500000920E-02 0. -1.
       -2    1    3    3    0  502 -0.34331558382E+03  0.97065557324E+02 -0.11549401576E+04  0.12087903375E+04  0.25500000920E-02 0.  1.
</event>
<event>
 5   0  0.2690809E-03  0.8001438E+03  0.7818609E-02  0.9559809E-01
        2   -1    0    0  501    0  0.00000000000E+00  0.00000000000E+00  0.10709034154E+04  0.10709034154E+04  0.25500000920E-02 0. -1.
       -2   -1    0    0    0  501  0.00000000000E+00  0.00000000000E+00 -0.14946026484E+03  0.14946026486E+03  0.25500000920E-02 0.  1.
    10030    2    1    2    0    0  0.00000000000E+00  0.00000000000E+00  0.92144315052E+03  0.12203636802E+04  0.80014375731E+03 0.  0.
        5    1    3    3  502    0  0.16782800694E+03  0.21324514395E+03  0.90902007274E+03  0.94867239549E+03  0.46999998093E+01 0. -1.
       -5    1    3    3    0  502 -0.16782800694E+03 -0.21324514395E+03  0.12423077776E+02  0.27169128472E+03  0.46999998093E+01 0.  1.
</event>
<event>
 5   0  0.2873212E-03  0.7913515E+03  0.7818609E-02  0.9572620E-01
        2   -1    0    0  501    0  0.00000000000E+00  0.00000000000E+00  0.37086574967E+03  0.37086574968E+03  0.25500000920E-02 0. -1.
       -2   -1    0    0    0  501  0.00000000000E+00  0.00000000000E+00 -0.42214550664E+03  0.42214550665E+03  0.25500000920E-02 0.  1.
    10030    2    1    2    0    0  0.00000000000E+00  0.00000000000E+00 -0.51279756975E+02  0.79301125633E+03  0.79135152694E+03 0.  0.
        2    1    3    3  502    0 -0.27705223527E+03 -0.15990510998E+03 -0.25900535855E+03  0.41159611397E+03  0.25500000920E-02 0.  1.
       -2    1    3    3    0  502  0.27705223527E+03  0.15990510998E+03  0.20772560158E+03  0.38141514236E+03  0.25500000920E-02 0. -1.
</event>
<event>
 5   0  0.2768834E-03  0.8000272E+03  0.7818609E-02  0.9559978E-01
       -2   -1    0    0    0  501  0.00000000000E+00  0.00000000000E+00  0.64277637867E+02  0.64277637918E+02  0.25500000920E-02 0.  1.
        2   -1    0    0  501    0  0.00000000000E+00  0.00000000000E+00 -0.24893707538E+04  0.24893707538E+04  0.25500000920E-02 0. -1.
    10030    2    1    2    0    0  0.00000000000E+00  0.00000000000E+00 -0.24250931159E+04  0.25536483917E+04  0.80002717928E+03 0.  0.
        4    1    3    3  502    0 -0.75988373020E+02 -0.26758382615E+03 -0.29498429997E+03  0.40545368044E+03  0.12699999809E+01 0.  1.
       -4    1    3    3    0  502  0.75988373020E+02  0.26758382615E+03 -0.21301088160E+04  0.21481947113E+04  0.12699999809E+01 0. -1.
</event>
<event>
 5   0  0.2910501E-03  0.8001181E+03  0.7818609E-02  0.9559846E-01
       -2   -1    0    0    0  501  0.00000000000E+00  0.00000000000E+00  0.11549733794E+03  0.11549733797E+03  0.25500000920E-02 0. -1.
        2   -1    0    0  501    0  0.00000000000E+00  0.00000000000E+00 -0.13857222612E+04  0.13857222612E+04  0.25500000920E-02 0.  1.
    10030    2    1    2    0    0  0.00000000000E+00  0.00000000000E+00 -0.12702249232E+04  0.15012195991E+04  0.80011807206E+03 0.  0.
        1    1    3    3  502    0  0.21628276269E+03  0.67872848363E+01 -0.37811289402E+01  0.21642226695E+03  0.50400001928E-02 0. -1.
       -1    1    3    3    0  502 -0.21628276269E+03 -0.67872848363E+01 -0.12664437943E+04  0.12847973322E+04  0.50400001928E-02 0.  1.
</event>
<event>
 5   0  0.1617491E-03  0.8073569E+03  0.7818609E-02  0.9549429E-01
       -1   -1    0    0    0  501  0.00000000000E+00  0.00000000000E+00  0.22186823704E+03  0.22186823710E+03  0.50400001928E-02 0.  1.
        1   -1    0    0  501    0  0.00000000000E+00  0.00000000000E+00 -0.73447328186E+03  0.73447328188E+03  0.50400001928E-02 0. -1.
    10030    2    1    2    0    0  0.00000000000E+00  0.00000000000E+00 -0.51260504482E+03  0.95634151897E+03  0.80735690307E+03 0.  0.
        1    1    3    3  502    0 -0.12637486179E+03 -0.30145234525E+03  0.24289927029E+02  0.32777144892E+03  0.50400001928E-02 0.  1.
       -1    1    3    3    0  502  0.12637486179E+03  0.30145234525E+03 -0.53689497185E+03  0.62857007005E+03  0.50400001928E-02 0. -1.
</event>
<event>
 5   0  0.1640035E-03  0.8037204E+03  0.7818609E-02  0.9554648E-01
        1   -1    0    0  501    0  0.00000000000E+00  0.00000000000E+00  0.44572883300E+03  0.44572883303E+03  0.50400001928E-02 0. -1.
       -1   -1    0    0    0  501  0.00000000000E+00  0.00000000000E+00 -0.36230912098E+03  0.36230912101E+03  0.50400001928E-02 0.  1.
    10030    2    1    2    0    0  0.00000000000E+00  0.00000000000E+00  0.83419712029E+02  0.80803795404E+03  0.80372040339E+03 0.  0.
        5    1    3    3  502    0 -0.16128624468E+03  0.26172897131E+03 -0.21843530926E+03  0.37716227473E+03  0.46999998093E+01 0.  1.
       -5    1    3    3    0  502  0.16128624468E+03 -0.26172897131E+03  0.30185502129E+03  0.43087567932E+03  0.46999998093E+01 0. -1.
</event>
<event>
 5   0  0.1637228E-03  0.7996774E+03  0.7818609E-02  0.9560484E-01
        1   -1    0    0  501    0  0.00000000000E+00  0.00000000000E+00  0.36630273733E+03  0.36630273736E+03  0.50400001928E-02 0. -1.
       -1   -1    0    0    0  501  0.00000000000E+00  0.00000000000E+00 -0.43644500714E+03  0.43644500717E+03  0.50400001928E-02 0.  1.
    10030    2    1    2    0    0  0.00000000000E+00  0.00000000000E+00 -0.70142269812E+02  0.80274774453E+03  0.79967743705E+03 0.  0.
        2    1    3    3  502    0  0.30806505796E+02  0.39836338775E+03 -0.50247757144E+02  0.40269997095E+03  0.25500000920E-02 0.  1.
       -2    1    3    3    0  502 -0.30806505796E+02 -0.39836338775E+03 -0.19894512668E+02  0.40004777357E+03  0.25500000920E-02 0. -1.
</event>
<event>
 5   0  0.1640035E-03  0.7996069E+03  0.7818609E-02  0.9560586E-01
       -1   -1    0    0    0  501  0.00000000000E+00  0.00000000000E+00  0.12357857289E+03  0.12357857299E+03  0.50400001928E-02 0. -1.
        1   -1    0    0  501    0  0.00000000000E+00  0.00000000000E+00 -0.12934507293E+04  0.12934507293E+04  0.50400001928E-02 0.  1.
    10030    2    1    2    0    0  0.00000000000E+00  0.00000000000E+00 -0.11698721564E+04  0.14170293023E+04  0.79960689171E+03 0.  0.
        5    1    3    3  502    0  0.54424714717E+01 -0.38651008737E+03 -0.40420175926E+03  0.55930387118E+03  0.46999998093E+01 0. -1.
       -5    1    3    3    0  502 -0.54424714717E+01  0.38651008737E+03 -0.76567039718E+03  0.85772543115E+03  0.46999998093E+01 0.  1.
</event>
<event>
 5   0  0.2763587E-03  0.7856351E+03  0.7818609E-02  0.9581046E-01
        2   -1    0    0  501    0  0.00000000000E+00  0.00000000000E+00  0.68788987935E+03  0.68788987936E+03  0.25500000920E-02 0.  1.
       -2   -1    0    0    0  501  0.00000000000E+00  0.00000000000E+00 -0.22431735346E+03  0.22431735348E+03  0.25500000920E-02 0. -1.
    10030    2    1    2    0    0  0.00000000000E+00  0.00000000000E+00  0.46357252589E+03  0.91220723283E+03  0.78563512452E+03 0.  0.
        3    1    3    3  502    0 -0.22952210147E+03 -0.30174972621E+03  0.35117354659E+03  0.51677476947E+03  0.10100000352E+00 0.  1.
       -3    1    3    3    0  502  0.22952210147E+03  0.30174972621E+03  0.11239897930E+03  0.39543246336E+03  0.10100000352E+00 0. -1.
</event>
<event>
 5   0  0.2768834E-03  0.7978739E+03  0.7818609E-02  0.9563100E-01
        2   -1    0    0  501    0  0.00000000000E+00  0.00000000000E+00  0.10104916779E+04  0.10104916780E+04  0.25500000920E-02 0. -1.
       -2   -1    0    0    0  501  0.00000000000E+00  0.00000000000E+00 -0.15749825140E+03  0.15749825142E+03  0.25500000920E-02 0.  1.
    10030    2    1    2    0    0  0.00000000000E+00  0.00000000000E+00  0.85299342655E+03  0.11679899294E+04  0.79787385555E+03 0.  0.
        4    1    3    3  502    0 -0.48174375699E+01  0.43327331948E+02 -0.15399797384E+03  0.16005453523E+03  0.12699999809E+01 0.  1.
       -4    1    3    3    0  502  0.48174375699E+01 -0.43327331948E+02  0.10069914004E+04  0.10079353941E+04  0.12699999809E+01 0. -1.
</event>
<event>
 5   0  0.1712793E-03  0.8013848E+03  0.7818609E-02  0.9558015E-01
        1   -1    0    0  501    0  0.00000000000E+00  0.00000000000E+00  0.37273249117E+03  0.37273249121E+03  0.50400001928E-02 0.  1.
       -1   -1    0    0    0  501  0.00000000000E+00  0.00000000000E+00 -0.43074969771E+03  0.43074969774E+03  0.50400001928E-02 0. -1.
    10030    2    1    2    0    0  0.00000000000E+00  0.00000000000E+00 -0.58017206540E+02  0.80348218895E+03  0.80138482123E+03 0.  0.
        4    1    3    3  502    0 -0.65091968679E+02  0.26003110255E+03  0.26959573311E+03  0.38017970868E+03  0.12699999809E+01 0.  1.
       -4    1    3    3    0  502  0.65091968679E+02 -0.26003110255E+03 -0.32761293965E+03  0.42330248027E+03  0.12699999809E+01 0. -1.
</event>
<event>
 5   0  0.1637228E-03  0.8004008E+03  0.7818609E-02  0.9559437E-01
        1   -1    0    0  501    0  0.00000000000E+00  0.00000000000E+00  0.15507649705E+04  0.15507649705E+04  0.50400001928E-02 0. -1.
       -1   -1    0    0    0  501  0.00000000000E+00  0.00000000000E+00 -0.10327830234E+03  0.10327830246E+03  0.50400001928E-02 0.  1.
    10030    2    1    2    0    0  0.00000000000E+00  0.00000000000E+00  0.14474866681E+04  0.16540432729E+04  0.80040083353E+03 0.  0.
        2    1    3    3  502    0 -0.38889739120E+03  0.94438697571E+02  0.72524080013E+03  0.82833209926E+03  0.25500000920E-02 0.  1.
       -2    1    3    3    0  502  0.38889739120E+03 -0.94438697571E+02  0.72224586799E+03  0.82571117367E+03  0.25500000920E-02 0. -1.
</event>
<event>
 5   0  0.1637228E-03  0.8002116E+03  0.7818609E-02  0.9559711E-01
        1   -1    0    0  501    0  0.00000000000E+00  0.00000000000E+00  0.43388372740E+03  0.43388372743E+03  0.50400001928E-02 0. -1.
       -1   -1    0    0    0  501  0.00000000000E+00  0.00000000000E+00 -0.36895747149E+03  0.36895747152E+03  0.50400001928E-02 0.  1.
    10030    2    1    2    0    0  0.00000000000E+00  0.00000000000E+00  0.64926255916E+02  0.80284119896E+03  0.80021157954E+03 0.  0.
        2    1    3    3  502    0  0.13332019330E+03 -0.12794971304E+03 -0.32358225083E+03  0.37262699321E+03  0.25500000920E-02 0.  1.
       -2    1    3    3    0  502 -0.13332019330E+03  0.12794971304E+03  0.38850850674E+03  0.43021420575E+03  0.25500000920E-02 0. -1.
</event>
<event>
 5   0  0.2873212E-03  0.7992279E+03  0.7818609E-02  0.9561135E-01
        2   -1    0    0  501    0  0.00000000000E+00  0.00000000000E+00  0.73673894795E+03  0.73673894796E+03  0.25500000920E-02 0.  1.
       -2   -1    0    0    0  501  0.00000000000E+00  0.00000000000E+00 -0.21675424127E+03  0.21675424128E+03  0.25500000920E-02 0. -1.
    10030    2    1    2    0    0  0.00000000000E+00  0.00000000000E+00  0.51998470669E+03  0.95349318924E+03  0.79922785658E+03 0.  0.
        2    1    3    3  502    0  0.92757019380E+02 -0.46752999640E+02 -0.20036665053E+03  0.22569116569E+03  0.25500000920E-02 0. -1.
       -2    1    3    3    0  502 -0.92757019380E+02  0.46752999640E+02  0.72035135722E+03  0.72780202354E+03  0.25500000920E-02 0.  1.
</event>
<event>
 5   0  0.1617491E-03  0.7989955E+03  0.7818609E-02  0.9561472E-01
        1   -1    0    0  501    0  0.00000000000E+00  0.00000000000E+00  0.89956567338E+03  0.89956567339E+03  0.50400001928E-02 0. -1.
       -1   -1    0    0    0  501  0.00000000000E+00  0.00000000000E+00 -0.17741725221E+03  0.17741725228E+03  0.50400001928E-02 0.  1.
    10030    2    1    2    0    0  0.00000000000E+00  0.00000000000E+00  0.72214842117E+03  0.10769829257E+04  0.79899554441E+03 0.  0.
        1    1    3    3  502    0  0.34168362603E+03  0.19276817699E+03  0.46276142949E+03  0.60667570498E+03  0.50400001928E-02 0. -1.
       -1    1    3    3    0  502 -0.34168362603E+03 -0.19276817699E+03  0.25938699168E+03  0.47030722070E+03  0.50400001928E-02 0.  1.
</event>
<event>
 5   0  0.1637228E-03  0.7971448E+03  0.7818609E-02  0.9564159E-01
        1   -1    0    0  501    0  0.00000000000E+00  0.00000000000E+00  0.10362642065E+04  0.10362642065E+04  0.50400001928E-02 0.  1.
       -1   -1    0    0    0  501  0.00000000000E+00  0.00000000000E+00 -0.15330064815E+03  0.15330064823E+03  0.50400001928E-02 0. -1.
    10030    2    1    2    0    0  0.00000000000E+00  0.00000000000E+00  0.88296355831E+03  0.11895648547E+04  0.79714484145E+03 0.  0.
        2    1    3    3  502    0  0.19425845024E+03 -0.21073803765E+03  0.85480106980E+03  0.90157181353E+03  0.25500000920E-02 0.  1.
       -2    1    3    3    0  502 -0.19425845024E+03  0.21073803765E+03  0.28162488511E+02  0.28799304118E+03  0.25500000920E-02 0. -1.
</event>
<event>
 5   0  0.1656051E-03  0.8001735E+03  0.7818609E-02  0.9559766E-01
       -1   -1    0    0    0  501  0.00000000000E+00  0.00000000000E+00  0.12658774461E+03  0.12658774471E+03  0.50400001928E-02 0. -1.
        1   -1    0    0  501    0  0.00000000000E+00  0.00000000000E+00 -0.12644938110E+04  0.12644938110E+04  0.50400001928E-02 0.  1.
    10030    2    1    2    0    0  0.00000000000E+00  0.00000000000E+00 -0.11379060664E+04  0.13910815557E+04  0.80017353039E+03 0.  0.
        3    1    3    3  502    0  0.27447557923E+03  0.12309012941E+03 -0.10275328631E+04  0.10706595250E+04  0.10100000352E+00 0.  1.
       -3    1    3    3    0  502 -0.27447557923E+03 -0.12309012941E+03 -0.11037320327E+03  0.32042203069E+03  0.10100000352E+00 0. -1.
</event>
<event>
 5   0  0.1712793E-03  0.7995412E+03  0.7818609E-02  0.9560681E-01
       -1   -1    0    0    0  501  0.00000000000E+00  0.00000000000E+00  0.11796694086E+04  0.11796694086E+04  0.50400001928E-02 0. -1.
        1   -1    0    0  501    0  0.00000000000E+00  0.00000000000E+00 -0.13547571112E+03  0.13547571122E+03  0.50400001928E-02 0.  1.
    10030    2    1    2    0    0  0.00000000000E+00  0.00000000000E+00  0.10441936975E+04  0.13151451199E+04  0.79954124870E+03 0.  0.
        4    1    3    3  502    0 -0.24089953409E+03  0.24695946362E+03  0.18987542649E+03  0.39379671491E+03  0.12699999809E+01 0.  1.
       -4    1    3    3    0  502  0.24089953409E+03 -0.24695946362E+03  0.85431827103E+03  0.92134840495E+03  0.12699999809E+01 0. -1.
</event>
<event>
 5   0  0.2768834E-03  0.8010658E+03  0.7818609E-02  0.9558476E-01
       -2   -1    0    0    0  501  0.00000000000E+00  0.00000000000E+00  0.13408209364E+03  0.13408209367E+03  0.25500000920E-02 0. -1.
        2   -1    0    0  501    0  0.00000000000E+00  0.00000000000E+00 -0.11964804095E+04  0.11964804095E+04  0.25500000920E-02 0.  1.
    10030    2    1    2    0    0  0.00000000000E+00  0.00000000000E+00 -0.10623983158E+04  0.13305625031E+04  0.80106578587E+03 0.  0.
        4    1    3    3  502    0 -0.35126608344E+03  0.11264979854E+03 -0.79037298131E+03  0.87222067218E+03  0.12699999809E+01 0.  1.
       -4    1    3    3    0  502  0.35126608344E+03 -0.11264979854E+03 -0.27202533452E+03  0.45834183096E+03  0.12699999809E+01 0. -1.
</event>
<event>
 5   0  0.2873212E-03  0.8003677E+03  0.7818609E-02  0.9559485E-01
        2   -1    0    0  501    0  0.00000000000E+00  0.00000000000E+00  0.35245578917E+03  0.35245578918E+03  0.25500000920E-02 0.  1.
       -2   -1    0    0    0  501  0.00000000000E+00  0.00000000000E+00 -0.45437502876E+03  0.45437502877E+03  0.25500000920E-02 0. -1.
    10030    2    1    2    0    0  0.00000000000E+00  0.00000000000E+00 -0.10191923959E+03  0.80683081795E+03  0.80036768887E+03 0.  0.
        2    1    3    3  502    0  0.39629729838E+02 -0.13583632679E+02  0.35023921213E+03  0.35273578821E+03  0.25500000920E-02 0.  1.
       -2    1    3    3    0  502 -0.39629729838E+02  0.13583632679E+02 -0.45215845172E+03  0.45409502974E+03  0.25500000920E-02 0. -1.
</event>
<event>
 5   0  0.2690809E-03  0.7989284E+03  0.7818609E-02  0.9561570E-01
        2   -1    0    0  501    0  0.00000000000E+00  0.00000000000E+00  0.11184170878E+04  0.11184170878E+04  0.25500000920E-02 0.  1.
       -2   -1    0    0    0  501  0.00000000000E+00  0.00000000000E+00 -0.14267631866E+03  0.14267631869E+03  0.25500000920E-02 0. -1.
    10030    2    1    2    0    0  0.00000000000E+00  0.00000000000E+00  0.97574076913E+03  0.12610934065E+04  0.79892836433E+03 0.  0.
        5    1    3    3  502    0 -0.32857087878E+03 -0.37564491142E+02  0.84146296206E+03  0.90413047725E+03  0.46999998093E+01 0.  1.
       -5    1    3    3    0  502  0.32857087878E+03  0.37564491142E+02  0.13427780707E+03  0.35696292923E+03  0.46999998093E+01 0. -1.
</event>
<event>
 5   0  0.2763587E-03  0.7974155E+03  0.7818609E-02  0.9563766E-01
       -2   -1    0    0    0  501  0.00000000000E+00  0.00000000000E+00  0.26774383065E+03  0.26774383066E+03  0.25500000920E-02 0.  1.
        2   -1    0    0  501    0  0.00000000000E+00  0.00000000000E+00 -0.59373118470E+03  0.59373118471E+03  0.25500000920E-02 0. -1.
    10030    2    1    2    0    0  0.00000000000E+00  0.00000000000E+00 -0.32598735405E+03  0.86147501537E+03  0.79741547960E+03 0.  0.
        3    1    3    3  502    0  0.40412099327E+01  0.33309211238E+03 -0.39968585877E+03  0.52030326023E+03  0.10100000352E+00 0. -1.
       -3    1    3    3    0  502 -0.40412099327E+01 -0.33309211238E+03  0.73698504716E+02  0.34117175514E+03  0.10100000352E+00 0.  1.
</event>
<event>
 5   0  0.2910501E-03  0.7997162E+03  0.7818609E-02  0.9560428E-01
       -2   -1    0    0    0  501  0.00000000000E+00  0.00000000000E+00  0.34417119360E+03  0.34417119361E+03  0.25500000920E-02 0.  1.
        2   -1    0    0  501    0  0.00000000000E+00  0.00000000000E+00 -0.46455520683E+03  0.46455520684E+03  0.25500000920E-02 0. -1.
    10030    2    1    2    0    0  0.00000000000E+00  0.00000000000E+00 -0.12038401323E+03  0.80872640044E+03  0.79971624976E+03 0.  0.
        1    1    3    3  502    0 -0.35395861182E+02 -0.22662255285E+03  0.27102812526E+03  0.35505899955E+03  0.50400001928E-02 0.  1.
       -1    1    3    3    0  502  0.35395861182E+02  0.22662255285E+03 -0.39141213849E+03  0.45366740090E+03  0.50400001928E-02 0. -1.
</event>
<event>
 5   0  0.1656051E-03  0.8007239E+03  0.7818609E-02  0.9558970E-01
        1   -1    0    0  501    0  0.00000000000E+00  0.00000000000E+00  0.15967938285E+04  0.15967938285E+04  0.50400001928E-02 0.  1.
       -1   -1    0    0    0  501  0.00000000000E+00  0.00000000000E+00 -0.10038220565E+03  0.10038220578E+03  0.50400001928E-02 0. -1.
    10030    2    1    2    0    0  0.00000000000E+00  0.00000000000E+00  0.14964116229E+04  0.16971760343E+04  0.80072388898E+03 0.  0.
        3    1    3    3  502    0  0.50261759179E+02  0.37247053804E+03  0.10405897920E+04  0.11063849563E+04  0.10100000352E+00 0. -1.
       -3    1    3    3    0  502 -0.50261759179E+02 -0.37247053804E+03  0.45582183085E+03  0.59079107798E+03  0.10100000352E+00 0.  1.
</event>
<event>
 5   0  0.1656051E-03  0.8009170E+03  0.7818609E-02  0.9558691E-01
        1   -1    0    0  501    0  0.00000000000E+00  0.00000000000E+00  0.64172331181E+03  0.64172331183E+03  0.50400001928E-02 0.  1.
       -1   -1    0    0    0  501  0.00000000000E+00  0.00000000000E+00 -0.24990055786E+03  0.24990055791E+03  0.50400001928E-02 0. -1.
    10030    2    1    2    0    0  0.00000000000E+00  0.00000000000E+00  0.39182275395E+03  0.89162386973E+03  0.80091700854E+03 0.  0.
        3    1    3    3  502    0 -0.34630062525E+02  0.15394269878E+03 -0.21383468274E+03  0.26574965189E+03  0.10100000352E+00 0. -1.
       -3    1    3    3    0  502  0.34630062525E+02 -0.15394269878E+03  0.60565743669E+03  0.62587421784E+03  0.10100000352E+00 0.  1.
</event>
<event>
 5   0  0.2690809E-03  0.7980366E+03  0.7818609E-02  0.9562863E-01
       -2   -1    0    0    0  501  0.00000000000E+00  0.00000000000E+00  0.32650656806E+03  0.32650656807E+03  0.25500000920E-02 0.  1.
        2   -1    0    0  501    0  0.00000000000E+00  0.00000000000E+00 -0.48763364776E+03  0.48763364776E+03  0.25500000920E-02 0. -1.
    10030    2    1    2    0    0  0.00000000000E+00  0.00000000000E+00 -0.16112707970E+03  0.81414021584E+03  0.79803656259E+03 0.  0.
        5    1    3    3  502    0  0.45296062014E+02  0.38533259334E+03  0.14376488742E+02  0.38828045811E+03  0.46999998093E+01 0.  1.
       -5    1    3    3    0  502 -0.45296062014E+02 -0.38533259334E+03 -0.17550356844E+03  0.42585975773E+03  0.46999998093E+01 0. -1.
</event>
<event>
 5   0  0.1712793E-03  0.7988180E+03  0.7818609E-02  0.9561730E-01
       -1   -1    0    0    0  501  0.00000000000E+00  0.00000000000E+00  0.11647814608E+03  0.11647814619E+03  0.50400001928E-02 0.  1.
        1   -1    0    0  501    0  0.00000000000E+00  0.00000000000E+00 -0.13695921519E+04  0.13695921520E+04  0.50400001928E-02 0. -1.
    10030    2    1    2    0    0  0.00000000000E+00  0.00000000000E+00 -0.12531140059E+04  0.14860702982E+04  0.79881801391E+03 0.  0.
        4    1    3    3  502    0  0.23361041165E+03  0.10197859281E+03 -0.11985990812E+04  0.12254039449E+04  0.12699999809E+01 0. -1.
       -4    1    3    3    0  502 -0.23361041165E+03 -0.10197859281E+03 -0.54514924712E+02  0.26066635330E+03  0.12699999809E+01 0.  1.
</event>
<event>
 5   0  0.2910501E-03  0.7995268E+03  0.7818609E-02  0.9560702E-01
        2   -1    0    0  501    0  0.00000000000E+00  0.00000000000E+00  0.10547584577E+04  0.10547584577E+04  0.25500000920E-02 0. -1.
       -2   -1    0    0    0  501  0.00000000000E+00  0.00000000000E+00 -0.15151411169E+03  0.15151411171E+03  0.25500000920E-02 0.  1.
    10030    2    1    2    0    0  0.00000000000E+00  0.00000000000E+00  0.90324434604E+03  0.12062725694E+04  0.79952683704E+03 0.  0.
        1    1    3    3  502    0 -0.26421269085E+03  0.52859028656E+02  0.89716708186E+03  0.93675567557E+03  0.50400001928E-02 0. -1.
       -1    1    3    3    0  502  0.26421269085E+03 -0.52859028656E+02  0.60772641763E+01  0.26951689387E+03  0.50400001928E-02 0.  1.
</event>
<event>
 5   0  0.2763587E-03  0.8052417E+03  0.7818609E-02  0.9552461E-01
        2   -1    0    0  501    0  0.00000000000E+00  0.00000000000E+00  0.15065241455E+04  0.15065241455E+04  0.25500000920E-02 0. -1.
       -2   -1    0    0    0  501  0.00000000000E+00  0.00000000000E+00 -0.10760103122E+03  0.10760103125E+03  0.25500000920E-02 0.  1.
    10030    2    1    2    0    0  0.00000000000E+00  0.00000000000E+00  0.13989231143E+04  0.16141251767E+04  0.80524170693E+03 0.  0.
        3    1    3    3  502    0  0.19869903809E+03 -0.23708892961E+03  0.18288915543E+03  0.35936182554E+03  0.10100000352E+00 0.  1.
       -3    1    3    3    0  502 -0.19869903809E+03  0.23708892961E+03  0.12160339588E+04  0.12547633512E+04  0.10100000352E+00 0. -1.
</event>
<event>
 5   0  0.1095350E-03  0.7990741E+03  0.7818609E-02  0.9561358E-01
        3   -1    0    0  501    0  0.00000000000E+00  0.00000000000E+00  0.15212623369E+03  0.15212626722E+03  0.10100000352E+00 0.  1.
       -3   -1    0    0    0  501  0.00000000000E+00  0.00000000000E+00 -0.10493247874E+04  0.10493247923E+04  0.10100000352E+00 0. -1.
    10030    2    1    2    0    0  0.00000000000E+00  0.00000000000E+00 -0.89719855374E+03  0.12014510595E+04  0.79907409140E+03 0.  0.
        3    1    3    3  502    0 -0.31514077330E+03  0.12081583048E+03 -0.12710697893E+03  0.36064714914E+03  0.10100000352E+00 0.  1.
       -3    1    3    3    0  502  0.31514077330E+03 -0.12081583048E+03 -0.77009157481E+03  0.84080391037E+03  0.10100000352E+00 0. -1.
</event>
<event>
 5   0  0.1617491E-03  0.8002633E+03  0.7818609E-02  0.9559636E-01
       -1   -1    0    0    0  501  0.00000000000E+00  0.00000000000E+00  0.19859523036E+03  0.19859523042E+03  0.50400001928E-02 0.  1.
        1   -1    0    0  501    0  0.00000000000E+00  0.00000000000E+00 -0.80618930350E+03  0.80618930352E+03  0.50400001928E-02 0. -1.
    10030    2    1    2    0    0  0.00000000000E+00  0.00000000000E+00 -0.60759407315E+03  0.10047845339E+04  0.80026333287E+03 0.  0.
        1    1    3    3  502    0 -0.17752803660E+03  0.51947114742E+02  0.14169172311E+03  0.23300483027E+03  0.50400001928E-02 0.  1.
       -1    1    3    3    0  502  0.17752803660E+03 -0.51947114742E+02 -0.74928579625E+03  0.77177970367E+03  0.50400001928E-02 0. -1.
</event>
<event>
 5   0  0.2763587E-03  0.8005352E+03  0.7818609E-02  0.9559243E-01
       -2   -1    0    0    0  501  0.00000000000E+00  0.00000000000E+00  0.26998786234E+03  0.26998786235E+03  0.25500000920E-02 0.  1.
        2   -1    0    0  501    0  0.00000000000E+00  0.00000000000E+00 -0.59341246233E+03  0.59341246234E+03  0.25500000920E-02 0. -1.
    10030    2    1    2    0    0  0.00000000000E+00  0.00000000000E+00 -0.32342459999E+03  0.86340032469E+03  0.80053522645E+03 0.  0.
        3    1    3    3  502    0  0.12432610456E+03  0.34411475121E+02 -0.57037799367E+03  0.58478388808E+03  0.10100000352E+00 0. -1.
       -3    1    3    3    0  502 -0.12432610456E+03 -0.34411475121E+02  0.24695339368E+03  0.27861643661E+03  0.10100000352E+00 0.  1.
</event>
<event>
 5   0  0.2910501E-03  0.8005971E+03  0.7818609E-02  0.9559153E-01
       -2   -1    0    0    0  501  0.00000000000E+00  0.00000000000E+00  0.29139404112E+03  0.29139404113E+03  0.25500000920E-02 0. -1.
        2   -1    0    0  501    0  0.00000000000E+00  0.00000000000E+00 -0.54990462140E+03  0.54990462140E+03  0.25500000920E-02 0.  1.
    10030    2    1    2    0    0  0.00000000000E+00  0.00000000000E+00 -0.25851058027E+03  0.84129866254E+03  0.80059710184E+03 0.  0.
        1    1    3    3  502    0  0.29197504846E+03  0.15969977608E+03 -0.36301792251E+03  0.49247889244E+03  0.50400001928E-02 0.  1.
       -1    1    3    3    0  502 -0.29197504846E+03 -0.15969977608E+03  0.10450734224E+03  0.34881977010E+03  0.50400001928E-02 0. -1.
</event>
<event>
 5   0  0.1637228E-03  0.8037626E+03  0.7818609E-02  0.9554587E-01
        1   -1    0    0  501    0  0.00000000000E+00  0.00000000000E+00  0.49023023599E+03  0.49023023602E+03  0.50400001928E-02 0. -1.
       -1   -1    0    0    0  501  0.00000000000E+00  0.00000000000E+00 -0.32945457708E+03  0.32945457712E+03  0.50400001928E-02 0.  1.
    10030    2    1    2    0    0  0.00000000000E+00  0.00000000000E+00  0.16077565891E+03  0.81968481313E+03  0.80376263933E+03 0.  0.
        2    1    3    3  502    0 -0.42896972144E+02 -0.14042338390E+03 -0.30112143384E+03  0.33501193246E+03  0.25500000920E-02 0.  1.
       -2    1    3    3    0  502  0.42896972144E+02  0.14042338390E+03  0.46189709275E+03  0.48467288068E+03  0.25500000920E-02 0. -1.
</event>
<event>
 5   0  0.2768834E-03  0.8015158E+03  0.7818609E-02  0.9557826E-01
       -2   -1    0    0    0  501  0.00000000000E+00  0.00000000000E+00  0.24293685512E+03  0.24293685513E+03  0.25500000920E-02 0.  1.
        2   -1    0    0  501    0  0.00000000000E+00  0.00000000000E+00 -0.66110550490E+03  0.66110550490E+03  0.25500000920E-02 0. -1.
    10030    2    1    2    0    0  0.00000000000E+00  0.00000000000E+00 -0.41816864978E+03  0.90404236004E+03  0.80151579465E+03 0.  0.
        4    1    3    3  502    0  0.85970034338E+02 -0.29554657949E+03  0.80389626600E+02  0.31812376902E+03  0.12699999809E+01 0.  1.
       -4    1    3    3    0  502 -0.85970034338E+02  0.29554657949E+03 -0.49855827638E+03  0.58591859102E+03  0.12699999809E+01 0. -1.
</event>
<event>
 5   0  0.2873212E-03  0.7999003E+03  0.7818609E-02  0.9560161E-01
       -2   -1    0    0    0  501  0.00000000000E+00  0.00000000000E+00  0.33679647160E+03  0.33679647161E+03  0.25500000920E-02 0. -1.
        2   -1    0    0  501    0  0.00000000000E+00  0.00000000000E+00 -0.47494593068E+03  0.47494593068E+03  0.25500000920E-02 0.  1.
    10030    2    1    2    0    0  0.00000000000E+00  0.00000000000E+00 -0.13814945908E+03  0.81174240229E+03  0.79990027793E+03 0.  0.
        2    1    3    3  502    0  0.23408605785E+03 -0.26872952316E+03 -0.25327858794E+03  0.43722063334E+03  0.25500000920E-02 0.  1.
       -2    1    3    3    0  502 -0.23408605785E+03  0.26872952316E+03  0.11512912886E+03  0.37452176895E+03  0.25500000920E-02 0. -1.
</event>
<event>
 5   0  0.1656051E-03  0.7939480E+03  0.7818609E-02  0.9568819E-01
        1   -1    0    0  501    0  0.00000000000E+00  0.00000000000E+00  0.20036779455E+03  0.20036779462E+03  0.50400001928E-02 0. -1.
       -1   -1    0    0    0  501  0.00000000000E+00  0.00000000000E+00 -0.78649549097E+03  0.78649549099E+03  0.50400001928E-02 0.  1.
    10030    2    1    2    0    0  0.00000000000E+00  0.00000000000E+00 -0.58612769642E+03  0.98686328561E+03  0.79394802599E+03 0.  0.
        3    1    3    3  502    0  0.24020067448E+03  0.31016973308E+03 -0.21759190134E+03  0.44860659053E+03  0.10100000352E+00 0. -1.
       -3    1    3    3    0  502 -0.24020067448E+03 -0.31016973308E+03 -0.36853579508E+03  0.53825669508E+03  0.10100000352E+00 0.  1.
</event>
<event>
 5   0  0.1712793E-03  0.8041270E+03  0.7818609E-02  0.9554063E-01
       -1   -1    0    0    0  501  0.00000000000E+00  0.00000000000E+00  0.21482797081E+03  0.21482797087E+03  0.50400001928E-02 0. -1.
        1   -1    0    0  501    0  0.00000000000E+00  0.00000000000E+00 -0.75248602387E+03  0.75248602388E+03  0.50400001928E-02 0.  1.
    10030    2    1    2    0    0  0.00000000000E+00  0.00000000000E+00 -0.53765805305E+03  0.96731399475E+03  0.80412696910E+03 0.  0.
        4    1    3    3  502    0  0.22501987460E+03  0.66004698118E+02 -0.66169957469E+03  0.70202457520E+03  0.12699999809E+01 0.  1.
       -4    1    3    3    0  502 -0.22501987460E+03 -0.66004698118E+02  0.12404152163E+03  0.26528941955E+03  0.12699999809E+01 0. -1.
</event>
<event>
 5   0  0.1640035E-03  0.8019156E+03  0.7818609E-02  0.9557248E-01
        1   -1    0    0  501    0  0.00000000000E+00  0.00000000000E+00  0.59461864365E+03  0.59461864367E+03  0.50400001928E-02 0.  1.
       -1   -1    0    0    0  501  0.00000000000E+00  0.00000000000E+00 -0.27037019285E+03  0.27037019290E+03  0.50400001928E-02 0. -1.
    10030    2    1    2    0    0  0.00000000000E+00  0.00000000000E+00  0.32424845080E+03  0.86498883657E+03  0.80191560001E+03 0.  0.
        5    1    3    3  502    0  0.13964895978E+03 -0.28106014643E+03  0.43124426618E+03  0.53337636336E+03  0.46999998093E+01 0.  1.
       -5    1    3    3    0  502 -0.13964895978E+03  0.28106014643E+03 -0.10699581538E+03  0.33161247321E+03  0.46999998093E+01 0. -1.
</event>
<event>
 5   0  0.1712793E-03  0.8001909E+03  0.7818609E-02  0.9559741E-01
        1   -1    0    0  501    0  0.00000000000E+00  0.00000000000E+00  0.30970623085E+03  0.30970623089E+03  0.50400001928E-02 0. -1.
       -1   -1    0    0    0  501  0.00000000000E+00  0.00000000000E+00 -0.51686519314E+03  0.51686519316E+03  0.50400001928E-02 0.  1.
    10030    2    1    2    0    0  0.00000000000E+00  0.00000000000E+00 -0.20715896229E+03  0.82657142405E+03  0.80019090435E+03 0.  0.
        4    1    3    3  502    0 -0.38823011718E+03  0.90155157468E+02 -0.67437686968E+02  0.40422769676E+03  0.12699999809E+01 0. -1.
       -4    1    3    3    0  502  0.38823011718E+03 -0.90155157468E+02 -0.13972127532E+03  0.42234372729E+03  0.12699999809E+01 0.  1.
</event>
<event>
 5   0  0.1617491E-03  0.7992159E+03  0.7818609E-02  0.9561153E-01
        1   -1    0    0  501    0  0.00000000000E+00  0.00000000000E+00  0.27094930168E+03  0.27094930172E+03  0.50400001928E-02 0. -1.
       -1   -1    0    0    0  501  0.00000000000E+00  0.00000000000E+00 -0.58935944619E+03  0.58935944621E+03  0.50400001928E-02 0.  1.
    10030    2    1    2    0    0  0.00000000000E+00  0.00000000000E+00 -0.31841014452E+03  0.86030874793E+03  0.79921594181E+03 0.  0.
        1    1    3    3  502    0  0.22854831387E+03 -0.11440005951E+02 -0.51184640452E+03  0.56067097959E+03  0.50400001928E-02 0.  1.
       -1    1    3    3    0  502 -0.22854831387E+03  0.11440005951E+02  0.19343626000E+03  0.29963776835E+03  0.50400001928E-02 0. -1.
</event>
<event>
 5   0  0.2690809E-03  0.8053940E+03  0.7818609E-02  0.9552242E-01
        2   -1    0    0  501    0  0.00000000000E+00  0.00000000000E+00  0.43911252138E+03  0.43911252139E+03  0.25500000920E-02 0.  1.
       -2   -1    0    0    0  501  0.00000000000E+00  0.00000000000E+00 -0.36930140339E+03  0.36930140340E+03  0.25500000920E-02 0. -1.
    10030    2    1    2    0    0  0.00000000000E+00  0.00000000000E+00  0.69811117984E+02  0.80841392479E+03  0.80539399153E+03 0.  0.
        5    1    3    3  502    0 -0.21037447815E+03 -0.34334396607E+03  0.35436985281E+02  0.40425285406E+03  0.46999998093E+01 0. -1.
       -5    1    3    3    0  502  0.21037447815E+03  0.34334396607E+03  0.34374132703E+02  0.40416107073E+03  0.46999998093E+01 0.  1.
</event>
<event>
 5   0  0.1712793E-03  0.8086288E+03  0.7818609E-02  0.9547611E-01
        1   -1    0    0  501    0  0.00000000000E+00  0.00000000000E+00  0.76805540193E+03  0.76805540194E+03  0.50400001928E-02 0.  1.
       -1   -1    0    0    0  501  0.00000000000E+00  0.00000000000E+00 -0.21283637525E+03  0.21283637531E+03  0.50400001928E-02 0. -1.
    10030    2    1    2    0    0  0.00000000000E+00  0.00000000000E+00  0.55521902667E+03  0.98089177726E+03  0.80862878449E+03 0.  0.
        4    1    3    3  502    0 -0.27114874449E+03  0.28394956656E+03  0.16050635808E+03  0.42416141017E+03  0.12699999809E+01 0.  1.
       -4    1    3    3    0  502  0.27114874449E+03 -0.28394956656E+03  0.39471266859E+03  0.55673036709E+03  0.12699999809E+01 0. -1.
</event>
<event>
 5   0  0.1095350E-03  0.8056886E+03  0.7818609E-02  0.9551819E-01
       -4   -1    0    0    0  501  0.00000000000E+00  0.00000000000E+00  0.17710343116E+03  0.17710798466E+03  0.12699999809E+01 0.  1.
        4   -1    0    0  501    0  0.00000000000E+00  0.00000000000E+00 -0.91630376160E+03  0.91630464171E+03  0.12699999809E+01 0. -1.
    10030    2    1    2    0    0  0.00000000000E+00  0.00000000000E+00 -0.73920033043E+03  0.10934126264E+04  0.80568855209E+03 0.  0.
        4    1    3    3  502    0  0.51147506644E+02 -0.39611378084E+03 -0.44089335849E+03  0.59490399332E+03  0.12699999809E+01 0.  1.
       -4    1    3    3    0  502 -0.51147506644E+02  0.39611378084E+03 -0.29830697194E+03  0.49850863304E+03  0.12699999809E+01 0. -1.
</event>
<event>
 5   0  0.2763587E-03  0.7989971E+03  0.7818609E-02  0.9561470E-01
       -2   -1    0    0    0  501  0.00000000000E+00  0.00000000000E+00  0.50927729375E+03  0.50927729376E+03  0.25500000920E-02 0. -1.
        2   -1    0    0  501    0  0.00000000000E+00  0.00000000000E+00 -0.31338345078E+03  0.31338345079E+03  0.25500000920E-02 0.  1.
    10030    2    1    2    0    0  0.00000000000E+00  0.00000000000E+00  0.19589384297E+03  0.82266074455E+03  0.79899706063E+03 0.  0.
        3    1    3    3  502    0  0.16417318318E+03  0.12137493024E+03  0.45150351234E+03  0.49552006985E+03  0.10100000352E+00 0. -1.
       -3    1    3    3    0  502 -0.16417318318E+03 -0.12137493024E+03 -0.25560966937E+03  0.32714067470E+03  0.10100000352E+00 0.  1.
</event>
<event>
 5   0  0.2763587E-03  0.8052681E+03  0.7818609E-02  0.9552423E-01
        2   -1    0    0  501    0  0.00000000000E+00  0.00000000000E+00  0.63607937238E+03  0.63607937239E+03  0.25500000920E-02 0. -1.
       -2   -1    0    0    0  501  0.00000000000E+00  0.00000000000E+00 -0.25486472916E+03  0.25486472917E+03  0.25500000920E-02 0.  1.
    10030    2    1    2    0    0  0.00000000000E+00  0.00000000000E+00  0.38121464322E+03  0.89094410156E+03  0.80526814658E+03 0.  0.
        3    1    3    3  502    0 -0.32379934775E+03  0.23639421105E+03  0.23179649862E+03  0.46309595938E+03  0.10100000352E+00 0. -1.
       -3    1    3    3    0  502  0.32379934775E+03 -0.23639421105E+03  0.14941814460E+03  0.42784814217E+03  0.10100000352E+00 0.  1.
</event>
<event>
 5   0  0.1640035E-03  0.7982921E+03  0.7818609E-02  0.9562493E-01
       -1   -1    0    0    0  501  0.00000000000E+00  0.00000000000E+00  0.11527110972E+03  0.11527110984E+03  0.50400001928E-02 0. -1.
        1   -1    0    0  501    0  0.00000000000E+00  0.00000000000E+00 -0.13821118909E+04  0.13821118909E+04  0.50400001928E-02 0.  1.
    10030    2    1    2    0    0  0.00000000000E+00  0.00000000000E+00 -0.12668407811E+04  0.14973830007E+04  0.79829210572E+03 0.  0.
        5    1    3    3  502    0 -0.17330441018E+03  0.34264250317E+03 -0.42917054697E+03  0.57588866281E+03  0.46999998093E+01 0. -1.
       -5    1    3    3    0  502  0.17330441018E+03 -0.34264250317E+03 -0.83767023417E+03  0.92149433790E+03  0.46999998093E+01 0.  1.
</event>
<event>
 5   0  0.2690809E-03  0.7908099E+03  0.7818609E-02  0.9573416E-01
       -2   -1    0    0    0  501  0.00000000000E+00  0.00000000000E+00  0.57804270648E+02  0.57804270705E+02  0.25500000920E-02 0. -1.
        2   -1    0    0  501    0  0.00000000000E+00  0.00000000000E+00 -0.27047319551E+04  0.27047319551E+04  0.25500000920E-02 0.  1.
    10030    2    1    2    0    0  0.00000000000E+00  0.00000000000E+00 -0.26469276844E+04  0.27625362258E+04  0.79080985841E+03 0.  0.
        5    1    3    3  502    0 -0.14451371265E+03  0.20354153366E+03 -0.23945440818E+04  0.24075250401E+04  0.46999998093E+01 0.  1.
       -5    1    3    3    0  502  0.14451371265E+03 -0.20354153366E+03 -0.25238360259E+03  0.35501118563E+03  0.46999998093E+01 0. -1.
</event>
<event>
 5   0  0.2763587E-03  0.8014430E+03  0.7818609E-02  0.9557931E-01
       -2   -1    0    0    0  501  0.00000000000E+00  0.00000000000E+00  0.94642153220E+02  0.94642153255E+02  0.25500000920E-02 0.  1.
        2   -1    0    0  501    0  0.00000000000E+00  0.00000000000E+00 -0.16966828331E+04  0.16966828331E+04  0.25500000920E-02 0. -1.
    10030    2    1    2    0    0  0.00000000000E+00  0.00000000000E+00 -0.16020406799E+04  0.17913249864E+04  0.80144299033E+03 0.  0.
        3    1    3    3  502    0 -0.25459527469E+03 -0.13504246236E+03 -0.17869770911E+03  0.33909895603E+03  0.10100000352E+00 0.  1.
       -3    1    3    3    0  502  0.25459527469E+03  0.13504246236E+03 -0.14233429708E+04  0.14522260303E+04  0.10100000352E+00 0. -1.
</event>
<event>
 5   0  0.1656051E-03  0.8005769E+03  0.7818609E-02  0.9559182E-01
        1   -1    0    0  501    0  0.00000000000E+00  0.00000000000E+00  0.41874397206E+03  0.41874397209E+03  0.50400001928E-02 0. -1.
       -1   -1    0    0    0  501  0.00000000000E+00  0.00000000000E+00 -0.38264632693E+03  0.38264632697E+03  0.50400001928E-02 0.  1.
    10030    2    1    2    0    0  0.00000000000E+00  0.00000000000E+00  0.36097645132E+02  0.80139029906E+03  0.80057689914E+03 0.  0.
        3    1    3    3  502    0 -0.12206954232E+03  0.66947011228E+02 -0.35762964432E+03  0.38377317281E+03  0.10100000352E+00 0.  1.
       -3    1    3    3    0  502  0.12206954232E+03 -0.66947011228E+02  0.39372728945E+03  0.41761712625E+03  0.10100000352E+00 0. -1.
</event>
<event>
 5   0  0.1656051E-03  0.7984801E+03  0.7818609E-02  0.9562220E-01
       -1   -1    0    0    0  501  0.00000000000E+00  0.00000000000E+00  0.11709859263E+03  0.11709859274E+03  0.50400001928E-02 0. -1.
        1   -1    0    0  501    0  0.00000000000E+00  0.00000000000E+00 -0.13611832021E+04  0.13611832021E+04  0.50400001928E-02 0.  1.
    10030    2    1    2    0    0  0.00000000000E+00  0.00000000000E+00 -0.12440846095E+04  0.14782817949E+04  0.79848014970E+03 0.  0.
        3    1    3    3  502    0 -0.30910641923E+03 -0.28663658355E+02 -0.10868217627E+04  0.11302875465E+04  0.10100000352E+00 0.  1.
       -3    1    3    3    0  502  0.30910641923E+03  0.28663658355E+02 -0.15726284682E+03  0.34799424839E+03  0.10100000352E+00 0. -1.
</event>
<event>
 5   0  0.1712793E-03  0.8004565E+03  0.7818609E-02  0.9559357E-01
        1   -1    0    0  501    0  0.00000000000E+00  0.00000000000E+00  0.20337558199E+03  0.20337558205E+03  0.50400001928E-02 0. -1.
       -1   -1    0    0    0  501  0.00000000000E+00  0.00000000000E+00 -0.78761980574E+03  0.78761980575E+03  0.50400001928E-02 0.  1.
    10030    2    1    2    0    0  0.00000000000E+00  0.00000000000E+00 -0.58424422375E+03  0.99099538780E+03  0.80045646081E+03 0.  0.
        4    1    3    3  502    0  0.27087113921E+03 -0.12924408827E+03  0.35679391074E+02  0.30224136093E+03  0.12699999809E+01 0. -1.
       -4    1    3    3    0  502 -0.27087113921E+03  0.12924408827E+03 -0.61992361482E+03  0.68875402687E+03  0.12699999809E+01 0.  1.
</event>
<event>
 5   0  0.1095350E-03  0.7807259E+03  0.7818609E-02  0.9588342E-01
       -3   -1    0    0    0  501  0.00000000000E+00  0.00000000000E+00  0.11955696303E+04  0.11955696346E+04  0.10100000352E+00 0.  1.
        3   -1    0    0  501    0  0.00000000000E+00  0.00000000000E+00 -0.12745658454E+03  0.12745662455E+03  0.10100000352E+00 0. -1.
    10030    2    1    2    0    0  0.00000000000E+00  0.00000000000E+00  0.10681130458E+04  0.13230262591E+04  0.78072594666E+03 0.  0.
        3    1    3    3  502    0 -0.28085002033E+03  0.25482987825E+03  0.69091776945E+03  0.78815123873E+03  0.10100000352E+00 0. -1.
       -3    1    3    3    0  502  0.28085002033E+03 -0.25482987825E+03  0.37719527631E+03  0.53487502039E+03  0.10100000352E+00 0.  1.
</event>
<event>
 5   0  0.2763587E-03  0.7995468E+03  0.7818609E-02  0.9560673E-01
       -2   -1    0    0    0  501  0.00000000000E+00  0.00000000000E+00  0.73043177371E+02  0.73043177415E+02  0.25500000920E-02 0. -1.
        2   -1    0    0  501    0  0.00000000000E+00  0.00000000000E+00 -0.21880041350E+04  0.21880041350E+04  0.25500000920E-02 0.  1.
    10030    2    1    2    0    0  0.00000000000E+00  0.00000000000E+00 -0.21149609577E+04  0.22610473124E+04  0.79954680707E+03 0.  0.
        3    1    3    3  502    0 -0.50510096259E+02  0.31547987862E+03 -0.37795785255E+03  0.49490501325E+03  0.10100000352E+00 0. -1.
       -3    1    3    3    0  502  0.50510096259E+02 -0.31547987862E+03 -0.17370031051E+04  0.17661422992E+04  0.10100000352E+00 0.  1.
</event>
<event>
 5   0  0.1095350E-03  0.8015073E+03  0.7818609E-02  0.9557838E-01
       -4   -1    0    0    0  501  0.00000000000E+00  0.00000000000E+00  0.89724035509E+03  0.89724125390E+03  0.12699999809E+01 0.  1.
        4   -1    0    0  501    0  0.00000000000E+00  0.00000000000E+00 -0.17899392006E+03  0.17899842546E+03  0.12699999809E+01 0. -1.
    10030    2    1    2    0    0  0.00000000000E+00  0.00000000000E+00  0.71824643503E+03  0.10762396794E+04  0.80150727134E+03 0.  0.
        2    1    3    3  502    0  0.17164115758E+03  0.27956795222E+03  0.50039478965E+02  0.33184767039E+03  0.25500000920E-02 0. -1.
       -2    1    3    3    0  502 -0.17164115758E+03 -0.27956795222E+03  0.66820695606E+03  0.74439200897E+03  0.25500000920E-02 0.  1.
</event>
<event>
 5   0  0.2873212E-03  0.8134943E+03  0.7818609E-02  0.9540688E-01
        2   -1    0    0  501    0  0.00000000000E+00  0.00000000000E+00  0.73775012156E+03  0.73775012157E+03  0.25500000920E-02 0. -1.
       -2   -1    0    0    0  501  0.00000000000E+00  0.00000000000E+00 -0.22425375550E+03  0.22425375552E+03  0.25500000920E-02 0.  1.
    10030    2    1    2    0    0  0.00000000000E+00  0.00000000000E+00  0.51349636606E+03  0.96200387708E+03  0.81349427876E+03 0.  0.
        2    1    3    3  502    0  0.34006978607E+03  0.20008991800E+03  0.13992129882E+03  0.41864233488E+03  0.25500000920E-02 0.  1.
       -2    1    3    3    0  502 -0.34006978607E+03 -0.20008991800E+03  0.37357506724E+03  0.54336154221E+03  0.25500000920E-02 0. -1.
</event>
<event>
 5   0  0.2763587E-03  0.7987491E+03  0.7818609E-02  0.9561830E-01
        2   -1    0    0  501    0  0.00000000000E+00  0.00000000000E+00  0.14076261322E+04  0.14076261322E+04  0.25500000920E-02 0. -1.
       -2   -1    0    0    0  501  0.00000000000E+00  0.00000000000E+00 -0.11331135359E+03  0.11331135361E+03  0.25500000920E-02 0.  1.
    10030    2    1    2    0    0  0.00000000000E+00  0.00000000000E+00  0.12943147786E+04  0.15209374858E+04  0.79874907801E+03 0.  0.
        3    1    3    3  502    0  0.33498314746E+03 -0.17846664293E+03  0.41058294804E+03  0.55914436342E+03  0.10100000352E+00 0.  1.
       -3    1    3    3    0  502 -0.33498314746E+03  0.17846664293E+03  0.88373183055E+03  0.96179312237E+03  0.10100000352E+00 0. -1.
</event>
<event>
 5   0  0.1637228E-03  0.7999971E+03  0.7818609E-02  0.9560021E-01
        1   -1    0    0  501    0  0.00000000000E+00  0.00000000000E+00  0.67710097782E+03  0.67710097784E+03  0.50400001928E-02 0.  1.
       -1   -1    0    0    0  501  0.00000000000E+00  0.00000000000E+00 -0.23629981354E+03  0.23629981360E+03  0.50400001928E-02 0. -1.
    10030    2    1    2    0    0  0.00000000000E+00  0.00000000000E+00  0.44080116427E+03  0.91340079144E+03  0.79999708710E+03 0.  0.
        2    1    3    3  502    0  0.33711233016E+03 -0.37294976580E+02 -0.21703195870E+02  0.33986271808E+03  0.25500000920E-02 0. -1.
       -2    1    3    3    0  502 -0.33711233016E+03  0.37294976580E+02  0.46250436014E+03  0.57353807335E+03  0.25500000920E-02 0.  1.
</event>
<event>
 5   0  0.1617491E-03  0.7929196E+03  0.7818609E-02  0.9570323E-01
       -1   -1    0    0    0  501  0.00000000000E+00  0.00000000000E+00  0.45226224244E+03  0.45226224247E+03  0.50400001928E-02 0.  1.
        1   -1    0    0  501    0  0.00000000000E+00  0.00000000000E+00 -0.34754252414E+03  0.34754252418E+03  0.50400001928E-02 0. -1.
    10030    2    1    2    0    0  0.00000000000E+00  0.00000000000E+00  0.10471971830E+03  0.79980476665E+03  0.79291957055E+03 0.  0.
        1    1    3    3  502    0 -0.21863437187E+03  0.50635696780E+01  0.38591808683E+03  0.44357569598E+03  0.50400001928E-02 0.  1.
       -1    1    3    3    0  502  0.21863437187E+03 -0.50635696780E+01 -0.28119836853E+03  0.35622907067E+03  0.50400001928E-02 0. -1.
</event>
<event>
 5   0  0.2763587E-03  0.7987773E+03  0.7818609E-02  0.9561789E-01
        2   -1    0    0  501    0  0.00000000000E+00  0.00000000000E+00  0.27611469159E+03  0.27611469160E+03  0.25500000920E-02 0.  1.
       -2   -1    0    0    0  501  0.00000000000E+00  0.00000000000E+00 -0.57769935568E+03  0.57769935568E+03  0.25500000920E-02 0. -1.
    10030    2    1    2    0    0  0.00000000000E+00  0.00000000000E+00 -0.30158466409E+03  0.85381404729E+03  0.79877726416E+03 0.  0.
        3    1    3    3  502    0 -0.73887844836E+01 -0.38295714159E+03 -0.27172708320E+03  0.46962366250E+03  0.10100000352E+00 0. -1.
       -3    1    3    3    0  502  0.73887844836E+01  0.38295714159E+03 -0.29857580883E+02  0.38419038479E+03  0.10100000352E+00 0.  1.
</event>
<event>
 5   0  0.2690809E-03  0.8013246E+03  0.7818609E-02  0.9558102E-01
       -2   -1    0    0    0  501  0.00000000000E+00  0.00000000000E+00  0.25576278420E+03  0.25576278421E+03  0.25500000920E-02 0. -1.
        2   -1    0    0  501    0  0.00000000000E+00  0.00000000000E+00 -0.62765295380E+03  0.62765295380E+03  0.25500000920E-02 0.  1.
    10030    2    1    2    0    0  0.00000000000E+00  0.00000000000E+00 -0.37189016960E+03  0.88341573801E+03  0.80132457090E+03 0.  0.
        5    1    3    3  502    0 -0.65494473532E+02 -0.50292849917E+02 -0.61813881322E+03  0.62364780062E+03  0.46999998093E+01 0.  1.
       -5    1    3    3    0  502  0.65494473532E+02  0.50292849917E+02  0.24624864362E+03  0.25976793739E+03  0.46999998093E+01 0. -1.
</event>
<event>
 5   0  0.1656051E-03  0.7910179E+03  0.7818609E-02  0.9573110E-01
       -1   -1    0    0    0  501  0.00000000000E+00  0.00000000000E+00  0.16923858549E+03  0.16923858556E+03  0.50400001928E-02 0.  1.
        1   -1    0    0  501    0  0.00000000000E+00  0.00000000000E+00 -0.92430056407E+03  0.92430056408E+03  0.50400001928E-02 0. -1.
    10030    2    1    2    0    0  0.00000000000E+00  0.00000000000E+00 -0.75506197858E+03  0.10935391496E+04  0.79101787610E+03 0.  0.
        3    1    3    3  502    0 -0.16370912511E+03  0.25148181329E+03 -0.21343871462E+02  0.30083110063E+03  0.10100000352E+00 0.  1.
       -3    1    3    3    0  502  0.16370912511E+03 -0.25148181329E+03 -0.73371810712E+03  0.79270804901E+03  0.10100000352E+00 0. -1.
</event>
<event>
 5   0  0.1637228E-03  0.8012747E+03  0.7818609E-02  0.9558174E-01
        1   -1    0    0  501    0  0.00000000000E+00  0.00000000000E+00  0.72728363567E+03  0.72728363569E+03  0.50400001928E-02 0.  1.
       -1   -1    0    0    0  501  0.00000000000E+00  0.00000000000E+00 -0.22069832231E+03  0.22069832237E+03  0.50400001928E-02 0. -1.
    10030    2    1    2    0    0  0.00000000000E+00  0.00000000000E+00  0.50658531336E+03  0.94798195806E+03  0.80127468018E+03 0.  0.
        2    1    3    3  502    0  0.27942360425E+03  0.19389523541E+03  0.50381051782E+03  0.60786343104E+03  0.25500000920E-02 0.  1.
       -2    1    3    3    0  502 -0.27942360425E+03 -0.19389523541E+03  0.27747955387E+01  0.34011852702E+03  0.25500000920E-02 0. -1.
</event>
<event>
 5   0  0.1637228E-03  0.8001992E+03  0.7818609E-02  0.9559729E-01
        1   -1    0    0  501    0  0.00000000000E+00  0.00000000000E+00  0.32883669763E+03  0.32883669767E+03  0.50400001928E-02 0. -1.
       -1   -1    0    0    0  501  0.00000000000E+00  0.00000000000E+00 -0.48680598368E+03  0.48680598370E+03  0.50400001928E-02 0.  1.
    10030    2    1    2    0    0  0.00000000000E+00  0.00000000000E+00 -0.15796928605E+03  0.81564268137E+03  0.80019915542E+03 0.  0.
        2    1    3    3  502    0  0.39084086748E+03 -0.74500731996E+02 -0.36068264398E+02  0.39950952738E+03  0.25500000920E-02 0. -1.
       -2    1    3    3    0  502 -0.39084086748E+03  0.74500731996E+02 -0.12190102165E+03  0.41613315399E+03  0.25500000920E-02 0.  1.
</event>
<event>
 5   0  0.2768834E-03  0.8000687E+03  0.7818609E-02  0.9559918E-01
        2   -1    0    0  501    0  0.00000000000E+00  0.00000000000E+00  0.96362904008E+03  0.96362904008E+03  0.25500000920E-02 0.  1.
       -2   -1    0    0    0  501  0.00000000000E+00  0.00000000000E+00 -0.16606753095E+03  0.16606753097E+03  0.25500000920E-02 0. -1.
    10030    2    1    2    0    0  0.00000000000E+00  0.00000000000E+00  0.79756150913E+03  0.11296965710E+04  0.80006873567E+03 0.  0.
        4    1    3    3  502    0  0.37531546031E+01 -0.73301441925E+02  0.95403718747E+03  0.95685722839E+03  0.12699999809E+01 0.  1.
       -4    1    3    3    0  502 -0.37531546031E+01  0.73301441925E+02 -0.15647567834E+03  0.17283934265E+03  0.12699999809E+01 0. -1.
</event>
<event>
 5   0  0.1640035E-03  0.7957566E+03  0.7818609E-02  0.9566180E-01
       -1   -1    0    0    0  501  0.00000000000E+00  0.00000000000E+00  0.39372304687E+03  0.39372304690E+03  0.50400001928E-02 0.  1.
        1   -1    0    0  501    0  0.00000000000E+00  0.00000000000E+00 -0.40207742935E+03  0.40207742938E+03  0.50400001928E-02 0. -1.
    10030    2    1    2    0    0  0.00000000000E+00  0.00000000000E+00 -0.83543824785E+01  0.79580047629E+03  0.79575662256E+03 0.  0.
        5    1    3    3  502    0 -0.21721823155E+03  0.13868824400E+02 -0.33722550723E+03  0.40139660827E+03  0.46999998093E+01 0. -1.
       -5    1    3    3    0  502  0.21721823155E+03 -0.13868824400E+02  0.32887112476E+03  0.39440386801E+03  0.46999998093E+01 0.  1.
</event>
<event>
 5   0  0.2690809E-03  0.7995074E+03  0.7818609E-02  0.9560730E-01
        2   -1    0    0  501    0  0.00000000000E+00  0.00000000000E+00  0.82533521557E+03  0.82533521558E+03  0.25500000920E-02 0. -1.
       -2   -1    0    0    0  501  0.00000000000E+00  0.00000000000E+00 -0.19362197560E+03  0.19362197562E+03  0.25500000920E-02 0.  1.
    10030    2    1    2    0    0  0.00000000000E+00  0.00000000000E+00  0.63171323997E+03  0.10189571912E+04  0.79950743583E+03 0.  0.
        5    1    3    3  502    0 -0.36816019540E+03  0.15512980684E+03  0.33265651281E+03  0.51989386605E+03  0.46999998093E+01 0.  1.
       -5    1    3    3    0  502  0.36816019540E+03 -0.15512980684E+03  0.29905672716E+03  0.49906332514E+03  0.46999998093E+01 0. -1.
</event>
<event>
 5   0  0.1637228E-03  0.7992123E+03  0.7818609E-02  0.9561158E-01
       -1   -1    0    0    0  501  0.00000000000E+00  0.00000000000E+00  0.10360459703E+03  0.10360459715E+03  0.50400001928E-02 0.  1.
        1   -1    0    0  501    0  0.00000000000E+00  0.00000000000E+00 -0.15412933136E+04  0.15412933136E+04  0.50400001928E-02 0. -1.
    10030    2    1    2    0    0  0.00000000000E+00  0.00000000000E+00 -0.14376887166E+04  0.16448979107E+04  0.79921229412E+03 0.  0.
        2    1    3    3  502    0  0.34416834284E+03  0.20233158063E+03 -0.75420357372E+03  0.85335394025E+03  0.25500000920E-02 0.  1.
       -2    1    3    3    0  502 -0.34416834284E+03 -0.20233158063E+03 -0.68348514284E+03  0.79154397049E+03  0.25500000920E-02 0. -1.
</event>
<event>
 5   0  0.2910501E-03  0.8006227E+03  0.7818609E-02  0.9559116E-01
        2   -1    0    0  501    0  0.00000000000E+00  0.00000000000E+00  0.34378312019E+03  0.34378312019E+03  0.25500000920E-02 0. -1.
       -2   -1    0    0    0  501  0.00000000000E+00  0.00000000000E+00 -0.46613452203E+03  0.46613452204E+03  0.25500000920E-02 0.  1.
    10030    2    1    2    0    0  0.00000000000E+00  0.00000000000E+00 -0.12235140184E+03  0.80991764223E+03  0.80062270869E+03 0.  0.
        1    1    3    3  502    0 -0.22047437993E+03 -0.31814230472E+03 -0.16446744521E+03  0.42056274064E+03  0.50400001928E-02 0.  1.
       -1    1    3    3    0  502  0.22047437993E+03  0.31814230472E+03  0.42116043370E+02  0.38935490159E+03  0.50400001928E-02 0. -1.
</event>
<event>
 5   0  0.1640035E-03  0.8012601E+03  0.7818609E-02  0.9558195E-01
        1   -1    0    0  501    0  0.00000000000E+00  0.00000000000E+00  0.31528977058E+03  0.31528977062E+03  0.50400001928E-02 0. -1.
       -1   -1    0    0    0  501  0.00000000000E+00  0.00000000000E+00 -0.50906960021E+03  0.50906960023E+03  0.50400001928E-02 0.  1.
    10030    2    1    2    0    0  0.00000000000E+00  0.00000000000E+00 -0.19377982963E+03  0.82435937086E+03  0.80126010131E+03 0.  0.
        5    1    3    3  502    0 -0.47443781034E+02  0.13861518331E+03 -0.48048888555E+03  0.50235121234E+03  0.46999998093E+01 0.  1.
       -5    1    3    3    0  502  0.47443781034E+02 -0.13861518331E+03  0.28670905593E+03  0.32200815852E+03  0.46999998093E+01 0. -1.
</event>
<event>
 5   0  0.1095350E-03  0.7954871E+03  0.7818609E-02  0.9566572E-01
       -4   -1    0    0    0  501  0.00000000000E+00  0.00000000000E+00  0.26788237309E+03  0.26788538354E+03  0.12699999809E+01 0. -1.
        4   -1    0    0  501    0  0.00000000000E+00  0.00000000000E+00 -0.59055049564E+03  0.59055186123E+03  0.12699999809E+01 0.  1.
    10030    2    1    2    0    0  0.00000000000E+00  0.00000000000E+00 -0.32266812255E+03  0.85843724477E+03  0.79548713748E+03 0.  0.
        3    1    3    3  502    0 -0.24655164936E+02 -0.39421121017E+03 -0.11083818802E+03  0.41023830819E+03  0.10100000352E+00 0. -1.
       -3    1    3    3    0  502  0.24655164936E+02  0.39421121017E+03 -0.21182993454E+03  0.44819893658E+03  0.10100000352E+00 0.  1.
</event>
<event>
 5   0  0.2873212E-03  0.7993544E+03  0.7818609E-02  0.9560952E-01
        2   -1    0    0  501    0  0.00000000000E+00  0.00000000000E+00  0.34826882547E+03  0.34826882548E+03  0.25500000920E-02 0. -1.
       -2   -1    0    0    0  501  0.00000000000E+00  0.00000000000E+00 -0.45867403975E+03  0.45867403976E+03  0.25500000920E-02 0.  1.
    10030    2    1    2    0    0  0.00000000000E+00  0.00000000000E+00 -0.11040521428E+03  0.80694286524E+03  0.79935441227E+03 0.  0.
        2    1    3    3  502    0  0.32653594696E+03  0.10785637767E+03 -0.26081024954E+03  0.43160248972E+03  0.25500000920E-02 0.  1.
       -2    1    3    3    0  502 -0.32653594696E+03 -0.10785637767E+03  0.15040503525E+03  0.37534037552E+03  0.25500000920E-02 0. -1.
</event>
<event>
 5   0  0.2873212E-03  0.7994409E+03  0.7818609E-02  0.9560827E-01
        2   -1    0    0  501    0  0.00000000000E+00  0.00000000000E+00  0.35286549781E+03  0.35286549782E+03  0.25500000920E-02 0.  1.
       -2   -1    0    0    0  501  0.00000000000E+00  0.00000000000E+00 -0.45279694712E+03  0.45279694712E+03  0.25500000920E-02 0. -1.
    10030    2    1    2    0    0  0.00000000000E+00  0.00000000000E+00 -0.99931449304E+02  0.80566244495E+03  0.79944085500E+03 0.  0.
        2    1    3    3  502    0 -0.10386652457E+03 -0.24976190699E+03 -0.34654695838E+03  0.43961808366E+03  0.25500000920E-02 0. -1.
       -2    1    3    3    0  502  0.10386652457E+03  0.24976190699E+03  0.24661550908E+03  0.36604436129E+03  0.25500000920E-02 0.  1.
</event>
<event>
 5   0  0.2768834E-03  0.7978089E+03  0.7818609E-02  0.9563194E-01
        2   -1    0    0  501    0  0.00000000000E+00  0.00000000000E+00  0.22922498563E+03  0.22922498565E+03  0.25500000920E-02 0. -1.
       -2   -1    0    0    0  501  0.00000000000E+00  0.00000000000E+00 -0.69418600568E+03  0.69418600568E+03  0.25500000920E-02 0.  1.
    10030    2    1    2    0    0  0.00000000000E+00  0.00000000000E+00 -0.46496102005E+03  0.92341099133E+03  0.79780894251E+03 0.  0.
        4    1    3    3  502    0 -0.71890332027E+02 -0.28328734832E+03 -0.54670452882E+03  0.61992531509E+03  0.12699999809E+01 0.  1.
       -4    1    3    3    0  502  0.71890332027E+02  0.28328734832E+03  0.81743508778E+02  0.30348567624E+03  0.12699999809E+01 0. -1.
</event>
<event>
 5   0  0.2873212E-03  0.8004309E+03  0.7818609E-02  0.9559394E-01
        2   -1    0    0  501    0  0.00000000000E+00  0.00000000000E+00  0.18255830252E+04  0.18255830252E+04  0.25500000920E-02 0.  1.
       -2   -1    0    0    0  501  0.00000000000E+00  0.00000000000E+00 -0.87737683774E+02  0.87737683811E+02  0.25500000920E-02 0. -1.
    10030    2    1    2    0    0  0.00000000000E+00  0.00000000000E+00  0.17378453414E+04  0.19133207090E+04  0.80043094943E+03 0.  0.
        2    1    3    3  502    0 -0.15555161765E+03  0.30360913992E+03  0.13691749873E+04  0.14110332956E+04  0.25500000920E-02 0.  1.
       -2    1    3    3    0  502  0.15555161765E+03 -0.30360913992E+03  0.36867035411E+03  0.50228741335E+03  0.25500000920E-02 0. -1.
</event>
<event>
 5   0  0.2873212E-03  0.8099440E+03  0.7818609E-02  0.9545734E-01
        2   -1    0    0  501    0  0.00000000000E+00  0.00000000000E+00  0.99887787686E+03  0.99887787686E+03  0.25500000920E-02 0.  1.
       -2   -1    0    0    0  501  0.00000000000E+00  0.00000000000E+00 -0.16418654436E+03  0.16418654438E+03  0.25500000920E-02 0. -1.
    10030    2    1    2    0    0  0.00000000000E+00  0.00000000000E+00  0.83469133249E+03  0.11630644212E+04  0.80994396561E+03 0.  0.
        2    1    3    3  502    0 -0.16975283365E+03  0.33010673525E+03  0.64984974000E+03  0.74839238757E+03  0.25500000920E-02 0.  1.
       -2    1    3    3    0  502  0.16975283365E+03 -0.33010673525E+03  0.18484159249E+03  0.41467203367E+03  0.25500000920E-02 0. -1.
</event>
<event>
 5   0  0.2763587E-03  0.7993994E+03  0.7818609E-02  0.9560887E-01
       -2   -1    0    0    0  501  0.00000000000E+00  0.00000000000E+00  0.60897632213E+03  0.60897632214E+03  0.25500000920E-02 0.  1.
        2   -1    0    0  501    0  0.00000000000E+00  0.00000000000E+00 -0.26234165266E+03  0.26234165267E+03  0.25500000920E-02 0. -1.
    10030    2    1    2    0    0  0.00000000000E+00  0.00000000000E+00  0.34663466947E+03  0.87131797481E+03  0.79939941153E+03 0.  0.
        3    1    3    3  502    0 -0.32517730312E+03 -0.22214277913E+03  0.98814753182E+02  0.40601977591E+03  0.10100000352E+00 0. -1.
       -3    1    3    3    0  502  0.32517730312E+03  0.22214277913E+03  0.24781991629E+03  0.46529819890E+03  0.10100000352E+00 0.  1.
</event>
<event>
 5   0  0.1637228E-03  0.7984550E+03  0.7818609E-02  0.9562256E-01
        1   -1    0    0  501    0  0.00000000000E+00  0.00000000000E+00  0.13444720378E+04  0.13444720378E+04  0.50400001928E-02 0. -1.
       -1   -1    0    0    0  501  0.00000000000E+00  0.00000000000E+00 -0.11854659368E+03  0.11854659379E+03  0.50400001928E-02 0.  1.
    10030    2    1    2    0    0  0.00000000000E+00  0.00000000000E+00  0.12259254441E+04  0.14630186316E+04  0.79845495920E+03 0.  0.
        2    1    3    3  502    0 -0.39688014392E+03  0.38167033703E+02  0.65015501683E+03  0.76267431910E+03  0.25500000920E-02 0. -1.
       -2    1    3    3    0  502  0.39688014392E+03 -0.38167033703E+02  0.57577042729E+03  0.70034431250E+03  0.25500000920E-02 0.  1.
</event>
<event>
 5   0  0.1617491E-03  0.8038798E+03  0.7818609E-02  0.9554418E-01
        1   -1    0    0  501    0  0.00000000000E+00  0.00000000000E+00  0.19520197495E+03  0.19520197502E+03  0.50400001928E-02 0.  1.
       -1   -1    0    0    0  501  0.00000000000E+00  0.00000000000E+00 -0.82763339538E+03  0.82763339539E+03  0.50400001928E-02 0. -1.
    10030    2    1    2    0    0  0.00000000000E+00  0.00000000000E+00 -0.63243142042E+03  0.10228353704E+04  0.80387977548E+03 0.  0.
        1    1    3    3  502    0 -0.25105119879E+02 -0.13945208003E+03  0.16237018490E+03  0.21550226597E+03  0.50400001928E-02 0.  1.
       -1    1    3    3    0  502  0.25105119879E+02  0.13945208003E+03 -0.79480160533E+03  0.80733310444E+03  0.50400001928E-02 0. -1.
</event>
<event>
 5   0  0.1656051E-03  0.8004656E+03  0.7818609E-02  0.9559343E-01
        1   -1    0    0  501    0  0.00000000000E+00  0.00000000000E+00  0.15652182222E+04  0.15652182222E+04  0.50400001928E-02 0.  1.
       -1   -1    0    0    0  501  0.00000000000E+00  0.00000000000E+00 -0.10234117825E+03  0.10234117837E+03  0.50400001928E-02 0. -1.
    10030    2    1    2    0    0  0.00000000000E+00  0.00000000000E+00  0.14628770439E+04  0.16675594005E+04  0.80046555749E+03 0.  0.
        3    1    3    3  502    0  0.11927563658E+03 -0.11361458012E+03  0.14913241866E+04  0.15003942115E+04  0.10100000352E+00 0.  1.
       -3    1    3    3    0  502 -0.11927563658E+03  0.11361458012E+03 -0.28447142652E+02  0.16716518903E+03  0.10100000352E+00 0. -1.
</event>
<event>
 5   0  0.1095350E-03  0.7988183E+03  0.7818609E-02  0.9561729E-01
        3   -1    0    0  501    0  0.00000000000E+00  0.00000000000E+00  0.64693034709E+03  0.64693035497E+03  0.10100000352E+00 0. -1.
       -3   -1    0    0    0  501  0.00000000000E+00  0.00000000000E+00 -0.24659170248E+03  0.24659172316E+03  0.10100000352E+00 0.  1.
    10030    2    1    2    0    0  0.00000000000E+00  0.00000000000E+00  0.40033864461E+03  0.89352207814E+03  0.79881829833E+03 0.  0.
        3    1    3    3  502    0  0.20873647575E+03  0.32240467518E+03  0.77576694358E+02  0.39183395029E+03  0.10100000352E+00 0.  1.
       -3    1    3    3    0  502 -0.20873647575E+03 -0.32240467518E+03  0.32276195025E+03  0.50168812785E+03  0.10100000352E+00 0. -1.
</event>
<event>
 5   0  0.1637228E-03  0.7961910E+03  0.7818609E-02  0.9565547E-01
       -1   -1    0    0    0  501  0.00000000000E+00  0.00000000000E+00  0.24022772812E+03  0.24022772818E+03  0.50400001928E-02 0. -1.
        1   -1    0    0  501    0  0.00000000000E+00  0.00000000000E+00 -0.65970742566E+03  0.65970742568E+03  0.50400001928E-02 0.  1.
    10030    2    1    2    0    0  0.00000000000E+00  0.00000000000E+00 -0.41947969754E+03  0.89993515386E+03  0.79619097238E+03 0.  0.
        2    1    3    3  502    0  0.15398736713E+03  0.36498470145E+03 -0.16518141699E+03  0.42919790547E+03  0.25500000920E-02 0.  1.
       -2    1    3    3    0  502 -0.15398736713E+03 -0.36498470145E+03 -0.25429828055E+03  0.47073724839E+03  0.25500000920E-02 0. -1.
</event>
<event>
 5   0  0.1617491E-03  0.7993241E+03  0.7818609E-02  0.9560996E-01
       -1   -1    0    0    0  501  0.00000000000E+00  0.00000000000E+00  0.87228551310E+03  0.87228551311E+03  0.50400001928E-02 0.  1.
        1   -1    0    0  501    0  0.00000000000E+00  0.00000000000E+00 -0.18311635763E+03  0.18311635770E+03  0.50400001928E-02 0. -1.
    10030    2    1    2    0    0  0.00000000000E+00  0.00000000000E+00  0.68916915547E+03  0.10554018708E+04  0.79932407950E+03 0.  0.
        1    1    3    3  502    0  0.21156937447E+03 -0.21308964010E+03  0.69282382792E+03  0.75509843828E+03  0.50400001928E-02 0.  1.
       -1    1    3    3    0  502 -0.21156937447E+03  0.21308964010E+03 -0.36546724522E+01  0.30030343253E+03  0.50400001928E-02 0. -1.
</event>
<event>
 5   0  0.2768834E-03  0.7976442E+03  0.7818609E-02  0.9563433E-01
       -2   -1    0    0    0  501  0.00000000000E+00  0.00000000000E+00  0.41808757602E+03  0.41808757603E+03  0.25500000920E-02 0.  1.
        2   -1    0    0  501    0  0.00000000000E+00  0.00000000000E+00 -0.38044439044E+03  0.38044439045E+03  0.25500000920E-02 0. -1.
    10030    2    1    2    0    0  0.00000000000E+00  0.00000000000E+00  0.37643185583E+02  0.79853196648E+03  0.79764421396E+03 0.  0.
        4    1    3    3  502    0  0.28421549910E+03 -0.36996028104E+02  0.29645731956E+03  0.41235386654E+03  0.12699999809E+01 0.  1.
       -4    1    3    3    0  502 -0.28421549910E+03  0.36996028104E+02 -0.25881413398E+03  0.38617809994E+03  0.12699999809E+01 0. -1.
</event>
<event>
 5   0  0.2768834E-03  0.8064108E+03  0.7818609E-02  0.9550784E-01
        2   -1    0    0  501    0  0.00000000000E+00  0.00000000000E+00  0.37126009083E+03  0.37126009083E+03  0.25500000920E-02 0. -1.
       -2   -1    0    0    0  501  0.00000000000E+00  0.00000000000E+00 -0.43789949356E+03  0.43789949356E+03  0.25500000920E-02 0.  1.
    10030    2    1    2    0    0  0.00000000000E+00  0.00000000000E+00 -0.66639402732E+02  0.80915958440E+03  0.80641082770E+03 0.  0.
        4    1    3    3  502    0  0.55956384989E+02 -0.30113003834E+03 -0.29643972575E+03  0.42624938817E+03  0.12699999809E+01 0.  1.
       -4    1    3    3    0  502 -0.55956384989E+02  0.30113003834E+03  0.22980032302E+03  0.38291019623E+03  0.12699999809E+01 0. -1.
</event>
<event>
 5   0  0.2873212E-03  0.7992551E+03  0.7818609E-02  0.9561096E-01
       -2   -1    0    0    0  501  0.00000000000E+00  0.00000000000E+00  0.31055438016E+03  0.31055438017E+03  0.25500000920E-02 0. -1.
        2   -1    0    0  501    0  0.00000000000E+00  0.00000000000E+00 -0.51424872120E+03  0.51424872121E+03  0.25500000920E-02 0.  1.
    10030    2    1    2    0    0  0.00000000000E+00  0.00000000000E+00 -0.20369434104E+03  0.82480310138E+03  0.79925513541E+03 0.  0.
        2    1    3    3  502    0  0.25539546920E+03  0.81512388592E+02 -0.40768341750E+03  0.48793122885E+03  0.25500000920E-02 0.  1.
       -2    1    3    3    0  502 -0.25539546920E+03 -0.81512388592E+02  0.20398907646E+03  0.33687187253E+03  0.25500000920E-02 0. -1.
</event>
<event>
 5   0  0.1640035E-03  0.8003815E+03  0.7818609E-02  0.9559465E-01
        1   -1    0    0  501    0  0.00000000000E+00  0.00000000000E+00  0.92510489067E+03  0.92510489069E+03  0.50400001928E-02 0. -1.
       -1   -1    0    0    0  501  0.00000000000E+00  0.00000000000E+00 -0.17311833897E+03  0.17311833904E+03  0.50400001928E-02 0.  1.
    10030    2    1    2    0    0  0.00000000000E+00  0.00000000000E+00  0.75198655171E+03  0.10982232297E+04  0.80038146428E+03 0.  0.
        5    1    3    3  502    0  0.10441255012E+03  0.23663430709E+03  0.79495839259E+03  0.83598966013E+03  0.46999998093E+01 0. -1.
       -5    1    3    3    0  502 -0.10441255012E+03 -0.23663430709E+03 -0.42971840878E+02  0.26223356959E+03  0.46999998093E+01 0.  1.
</event>
<event>
 5   0  0.1712793E-03  0.8011428E+03  0.7818609E-02  0.9558364E-01
        1   -1    0    0  501    0  0.00000000000E+00  0.00000000000E+00  0.28815787673E+03  0.28815787677E+03  0.50400001928E-02 0. -1.
       -1   -1    0    0    0  501  0.00000000000E+00  0.00000000000E+00 -0.55683869360E+03  0.55683869363E+03  0.50400001928E-02 0.  1.
    10030    2    1    2    0    0  0.00000000000E+00  0.00000000000E+00 -0.26868081687E+03  0.84499657040E+03  0.80114282287E+03 0.  0.
        4    1    3    3  502    0  0.19981616260E+03 -0.21356491552E+03  0.15435645170E+03  0.33070228161E+03  0.12699999809E+01 0. -1.
       -4    1    3    3    0  502 -0.19981616260E+03  0.21356491552E+03 -0.42303726857E+03  0.51429428879E+03  0.12699999809E+01 0.  1.
</event>
<event>
 5   0  0.1656051E-03  0.8002764E+03  0.7818609E-02  0.9559617E-01
        1   -1    0    0  501    0  0.00000000000E+00  0.00000000000E+00  0.15804063285E+04  0.15804063285E+04  0.50400001928E-02 0.  1.
       -1   -1    0    0    0  501  0.00000000000E+00  0.00000000000E+00 -0.10130976160E+03  0.10130976172E+03  0.50400001928E-02 0. -1.
    10030    2    1    2    0    0  0.00000000000E+00  0.00000000000E+00  0.14790965669E+04  0.16817160902E+04  0.80027642345E+03 0.  0.
        3    1    3    3  502    0  0.37132711328E+03  0.11933932704E+03  0.55176937679E+03  0.67570345226E+03  0.10100000352E+00 0. -1.
       -3    1    3    3    0  502 -0.37132711328E+03 -0.11933932704E+03  0.92732719013E+03  0.10060126380E+04  0.10100000352E+00 0.  1.
</event>
<event>
 5   0  0.1095350E-03  0.7984606E+03  0.7818609E-02  0.9562248E-01
       -3   -1    0    0    0  501  0.00000000000E+00  0.00000000000E+00  0.12876743310E+03  0.12876747271E+03  0.10100000352E+00 0. -1.
        3   -1    0    0  501    0  0.00000000000E+00  0.00000000000E+00 -0.12377726551E+04  0.12377726593E+04  0.10100000352E+00 0.  1.
    10030    2    1    2    0    0  0.00000000000E+00  0.00000000000E+00 -0.11090052220E+04  0.13665401320E+04  0.79846061255E+03 0.  0.
        1    1    3    3  502    0 -0.36858309920E+03  0.56581632168E+02 -0.79852857474E+03  0.88130747575E+03  0.50400001928E-02 0.  1.
       -1    1    3    3    0  502  0.36858309920E+03 -0.56581632168E+02 -0.31047664729E+03  0.48523265621E+03  0.50400001928E-02 0. -1.
</event>
<event>
 5   0  0.1712793E-03  0.7997855E+03  0.7818609E-02  0.9560328E-01
        1   -1    0    0  501    0  0.00000000000E+00  0.00000000000E+00  0.73782136792E+03  0.73782136794E+03  0.50400001928E-02 0. -1.
       -1   -1    0    0    0  501  0.00000000000E+00  0.00000000000E+00 -0.21673836890E+03  0.21673836896E+03  0.50400001928E-02 0.  1.
    10030    2    1    2    0    0  0.00000000000E+00  0.00000000000E+00  0.52108299902E+03  0.95455973690E+03  0.79978547089E+03 0.  0.
        4    1    3    3  502    0 -0.19270455739E+03 -0.33262250175E+03  0.39204447500E+03  0.54906580515E+03  0.12699999809E+01 0. -1.
       -4    1    3    3    0  502  0.19270455739E+03  0.33262250175E+03  0.12903852402E+03  0.40549393175E+03  0.12699999809E+01 0.  1.
</event>
<event>
 5   0  0.1637228E-03  0.8007311E+03  0.7818609E-02  0.9558960E-01
       -1   -1    0    0    0  501  0.00000000000E+00  0.00000000000E+00  0.21967210122E+03  0.21967210128E+03  0.50400001928E-02 0.  1.
        1   -1    0    0  501    0  0.00000000000E+00  0.00000000000E+00 -0.72969013600E+03  0.72969013602E+03  0.50400001928E-02 0. -1.
    10030    2    1    2    0    0  0.00000000000E+00  0.00000000000E+00 -0.51001803478E+03  0.94936223729E+03  0.80073107958E+03 0.  0.
        2    1    3    3  502    0  0.13595241671E+03  0.19516263940E+03 -0.63684664199E+03  0.67981259244E+03  0.25500000920E-02 0. -1.
       -2    1    3    3    0  502 -0.13595241671E+03 -0.19516263940E+03  0.12682860721E+03  0.26954964485E+03  0.25500000920E-02 0.  1.
</event>
<event>
 5   0  0.2763587E-03  0.7999988E+03  0.7818609E-02  0.9560019E-01
       -2   -1    0    0    0  501  0.00000000000E+00  0.00000000000E+00  0.96890714225E+02  0.96890714259E+02  0.25500000920E-02 0.  1.
        2   -1    0    0  501    0  0.00000000000E+00  0.00000000000E+00 -0.16513400003E+04  0.16513400003E+04  0.25500000920E-02 0. -1.
    10030    2    1    2    0    0  0.00000000000E+00  0.00000000000E+00 -0.15544492861E+04  0.17482307146E+04  0.79999878022E+03 0.  0.
        3    1    3    3  502    0  0.38005268210E+03 -0.19671602548E+02 -0.50804771428E+03  0.63477515964E+03  0.10100000352E+00 0.  1.
       -3    1    3    3    0  502 -0.38005268210E+03  0.19671602548E+02 -0.10464015718E+04  0.11134555549E+04  0.10100000352E+00 0. -1.
</event>
<event>
 5   0  0.2873212E-03  0.7949209E+03  0.7818609E-02  0.9567398E-01
       -2   -1    0    0    0  501  0.00000000000E+00  0.00000000000E+00  0.21984011902E+03  0.21984011903E+03  0.25500000920E-02 0. -1.
        2   -1    0    0  501    0  0.00000000000E+00  0.00000000000E+00 -0.71858962193E+03  0.71858962193E+03  0.25500000920E-02 0.  1.
    10030    2    1    2    0    0  0.00000000000E+00  0.00000000000E+00 -0.49874950291E+03  0.93842974096E+03  0.79492094706E+03 0.  0.
        2    1    3    3  502    0  0.17977937514E+03 -0.23610253037E+03  0.62763397020E+02  0.30332206083E+03  0.25500000920E-02 0. -1.
       -2    1    3    3    0  502 -0.17977937514E+03  0.23610253037E+03 -0.56151289993E+03  0.63510768014E+03  0.25500000920E-02 0.  1.
</event>
<event>
 5   0  0.2763587E-03  0.7982971E+03  0.7818609E-02  0.9562485E-01
       -2   -1    0    0    0  501  0.00000000000E+00  0.00000000000E+00  0.16145274848E+03  0.16145274850E+03  0.25500000920E-02 0.  1.
        2   -1    0    0  501    0  0.00000000000E+00  0.00000000000E+00 -0.98678745075E+03  0.98678745076E+03  0.25500000920E-02 0. -1.
    10030    2    1    2    0    0  0.00000000000E+00  0.00000000000E+00 -0.82533470227E+03  0.11482401993E+04  0.79829705273E+03 0.  0.
        3    1    3    3  502    0  0.43202897664E+02 -0.10304042115E+03  0.13850075104E+03  0.17795023742E+03  0.10100000352E+00 0.  1.
       -3    1    3    3    0  502 -0.43202897664E+02  0.10304042115E+03 -0.96383545332E+03  0.97028996183E+03  0.10100000352E+00 0. -1.
</event>
<event>
 5   0  0.2690809E-03  0.8000734E+03  0.7818609E-02  0.9559911E-01
        2   -1    0    0  501    0  0.00000000000E+00  0.00000000000E+00  0.20749755309E+04  0.20749755309E+04  0.25500000920E-02 0. -1.
       -2   -1    0    0    0  501  0.00000000000E+00  0.00000000000E+00 -0.77123500901E+02  0.77123500943E+02  0.25500000920E-02 0.  1.
    10030    2    1    2    0    0  0.00000000000E+00  0.00000000000E+00  0.19978520300E+04  0.21520990318E+04  0.80007343981E+03 0.  0.
        5    1    3    3  502    0  0.25062162728E+03  0.45993949931E+02  0.18283535631E+04  0.18460296544E+04  0.46999998093E+01 0. -1.
       -5    1    3    3    0  502 -0.25062162728E+03 -0.45993949931E+02  0.16949846691E+03  0.30606937739E+03  0.46999998093E+01 0.  1.
</event>
<event>
 5   0  0.1095350E-03  0.7994450E+03  0.7818609E-02  0.9560821E-01
        3   -1    0    0  501    0  0.00000000000E+00  0.00000000000E+00  0.25799749420E+03  0.25799751396E+03  0.10100000352E+00 0. -1.
       -3   -1    0    0    0  501  0.00000000000E+00  0.00000000000E+00 -0.61930087266E+03  0.61930088090E+03  0.10100000352E+00 0.  1.
    10030    2    1    2    0    0  0.00000000000E+00  0.00000000000E+00 -0.36130337847E+03  0.87729839486E+03  0.79944502146E+03 0.  0.
        5    1    3    3  502    0 -0.99108794678E+02  0.82032942857E+02 -0.59592724259E+03  0.60967477014E+03  0.46999998093E+01 0.  1.
       -5    1    3    3    0  502  0.99108794678E+02 -0.82032942857E+02  0.23462386412E+03  0.26762362472E+03  0.46999998093E+01 0. -1.
</event>
<event>
 5   0  0.1640035E-03  0.7996903E+03  0.7818609E-02  0.9560465E-01
        1   -1    0    0  501    0  0.00000000000E+00  0.00000000000E+00  0.36550795155E+03  0.36550795159E+03  0.50400001928E-02 0. -1.
       -1   -1    0    0    0  501  0.00000000000E+00  0.00000000000E+00 -0.43740815056E+03  0.43740815058E+03  0.50400001928E-02 0.  1.
    10030    2    1    2    0    0  0.00000000000E+00  0.00000000000E+00 -0.71900199004E+02  0.80291610217E+03  0.79969033288E+03 0.  0.
        5    1    3    3  502    0 -0.18926786648E+03  0.31673670701E+03 -0.19055043700E+03  0.41530233071E+03  0.46999998093E+01 0.  1.
       -5    1    3    3    0  502  0.18926786648E+03 -0.31673670701E+03  0.11865023800E+03  0.38761377146E+03  0.46999998093E+01 0. -1.
</event>
<event>
 5   0  0.1637228E-03  0.8005971E+03  0.7818609E-02  0.9559153E-01
       -1   -1    0    0    0  501  0.00000000000E+00  0.00000000000E+00  0.84333419837E+02  0.84333419988E+02  0.50400001928E-02 0.  1.
        1   -1    0    0  501    0  0.00000000000E+00  0.00000000000E+00 -0.19000644350E+04  0.19000644350E+04  0.50400001928E-02 0. -1.
    10030    2    1    2    0    0  0.00000000000E+00  0.00000000000E+00 -0.18157310152E+04  0.19843978550E+04  0.80059710684E+03 0.  0.
        2    1    3    3  502    0  0.83971819572E+02 -0.35643304513E+03 -0.13086341078E+04  0.13589036059E+04  0.25500000920E-02 0. -1.
       -2    1    3    3    0  502 -0.83971819572E+02  0.35643304513E+03 -0.50709690741E+03  0.62549424910E+03  0.25500000920E-02 0.  1.
</event>
<event>
 5   0  0.1640035E-03  0.8009955E+03  0.7818609E-02  0.9558577E-01
        1   -1    0    0  501    0  0.00000000000E+00  0.00000000000E+00  0.10121373250E+04  0.10121373250E+04  0.50400001928E-02 0. -1.
       -1   -1    0    0    0  501  0.00000000000E+00  0.00000000000E+00 -0.15847499228E+03  0.15847499236E+03  0.50400001928E-02 0.  1.
    10030    2    1    2    0    0  0.00000000000E+00  0.00000000000E+00  0.85366233275E+03  0.11706123174E+04  0.80099551765E+03 0.  0.
        5    1    3    3  502    0 -0.35046713113E+02  0.30656990010E+02 -0.15446512964E+03  0.16139916174E+03  0.46999998093E+01 0.  1.
       -5    1    3    3    0  502  0.35046713113E+02 -0.30656990010E+02  0.10081274624E+04  0.10092131557E+04  0.46999998093E+01 0. -1.
</event>
<event>
 5   0  0.2873212E-03  0.7997729E+03  0.7818609E-02  0.9560346E-01
       -2   -1    0    0    0  501  0.00000000000E+00  0.00000000000E+00  0.15023126714E+03  0.15023126716E+03  0.25500000920E-02 0. -1.
        2   -1    0    0  501    0  0.00000000000E+00  0.00000000000E+00 -0.10644199320E+04  0.10644199321E+04  0.25500000920E-02 0.  1.
    10030    2    1    2    0    0  0.00000000000E+00  0.00000000000E+00 -0.91418866491E+03  0.12146511992E+04  0.79977285568E+03 0.  0.
        2    1    3    3  502    0  0.18419184626E+03 -0.31641855159E+03 -0.21285564443E+03  0.42350308309E+03  0.25500000920E-02 0. -1.
       -2    1    3    3    0  502 -0.18419184626E+03  0.31641855159E+03 -0.70133302048E+03  0.79114811612E+03  0.25500000920E-02 0.  1.
</event>
<event>
 5   0  0.2910501E-03  0.8039548E+03  0.7818609E-02  0.9554310E-01
       -2   -1    0    0    0  501  0.00000000000E+00  0.00000000000E+00  0.13047963625E+03  0.13047963628E+03  0.25500000920E-02 0.  1.
        2   -1    0    0  501    0  0.00000000000E+00  0.00000000000E+00 -0.12383988711E+04  0.12383988711E+04  0.25500000920E-02 0. -1.
    10030    2    1    2    0    0  0.00000000000E+00  0.00000000000E+00 -0.11079192349E+04  0.13688785074E+04  0.80395481032E+03 0.  0.
        1    1    3    3  502    0 -0.10767642375E+03 -0.33306750276E+03 -0.89046063381E+03  0.95679063228E+03  0.50400001928E-02 0. -1.
       -1    1    3    3    0  502  0.10767642375E+03  0.33306750276E+03 -0.21745860106E+03  0.41208787512E+03  0.50400001928E-02 0.  1.
</event>
<event>
 5   0  0.2910501E-03  0.7996474E+03  0.7818609E-02  0.9560528E-01
        2   -1    0    0  501    0  0.00000000000E+00  0.00000000000E+00  0.17887545292E+03  0.17887545294E+03  0.25500000920E-02 0. -1.
       -2   -1    0    0    0  501  0.00000000000E+00  0.00000000000E+00 -0.89368871183E+03  0.89368871183E+03  0.25500000920E-02 0.  1.
    10030    2    1    2    0    0  0.00000000000E+00  0.00000000000E+00 -0.71481325890E+03  0.10725641648E+04  0.79964735505E+03 0.  0.
        1    1    3    3  502    0 -0.32600600576E+03 -0.64056561059E+02 -0.59059919516E+02  0.33744811886E+03  0.50400001928E-02 0. -1.
       -1    1    3    3    0  502  0.32600600576E+03  0.64056561059E+02 -0.65575333939E+03  0.73511604591E+03  0.50400001928E-02 0.  1.
</event>
<event>
 5   0  0.2763587E-03  0.8018013E+03  0.7818609E-02  0.9557413E-01
        2   -1    0    0  501    0  0.00000000000E+00  0.00000000000E+00  0.13080264206E+04  0.13080264206E+04  0.25500000920E-02 0.  1.
       -2   -1    0    0    0  501  0.00000000000E+00  0.00000000000E+00 -0.12287314946E+03  0.12287314949E+03  0.25500000920E-02 0. -1.
    10030    2    1    2    0    0  0.00000000000E+00  0.00000000000E+00  0.11851532711E+04  0.14308995701E+04  0.80180128686E+03 0.  0.
        3    1    3    3  502    0  0.22299769465E+02 -0.28407724383E+03  0.10958360839E+04  0.11322781872E+04  0.10100000352E+00 0. -1.
       -3    1    3    3    0  502 -0.22299769465E+02  0.28407724383E+03  0.89317187197E+02  0.29862138288E+03  0.10100000352E+00 0.  1.
</event>
<event>
 5   0  0.1712793E-03  0.8001116E+03  0.7818609E-02  0.9559856E-01
       -1   -1    0    0    0  501  0.00000000000E+00  0.00000000000E+00  0.12622994163E+03  0.12622994173E+03  0.50400001928E-02 0. -1.
        1   -1    0    0  501    0  0.00000000000E+00  0.00000000000E+00 -0.12678818120E+04  0.12678818120E+04  0.50400001928E-02 0.  1.
    10030    2    1    2    0    0  0.00000000000E+00  0.00000000000E+00 -0.11416518704E+04  0.13941117538E+04  0.80011161023E+03 0.  0.
        4    1    3    3  502    0  0.36925690382E+03  0.14419443173E+03 -0.47698951992E+03  0.62021231056E+03  0.12699999809E+01 0. -1.
       -4    1    3    3    0  502 -0.36925690382E+03 -0.14419443173E+03 -0.66466235047E+03  0.77389944320E+03  0.12699999809E+01 0.  1.
</event>
<event>
 5   0  0.2763587E-03  0.7990665E+03  0.7818609E-02  0.9561369E-01
        2   -1    0    0  501    0  0.00000000000E+00  0.00000000000E+00  0.42109957990E+03  0.42109957990E+03  0.25500000920E-02 0.  1.
       -2   -1    0    0    0  501  0.00000000000E+00  0.00000000000E+00 -0.37907145899E+03  0.37907145900E+03  0.25500000920E-02 0. -1.
    10030    2    1    2    0    0  0.00000000000E+00  0.00000000000E+00  0.42028120907E+02  0.80017103890E+03  0.79906653574E+03 0.  0.
        3    1    3    3  502    0  0.25927964468E+03  0.21063844381E+02 -0.28264955626E+03  0.38413591546E+03  0.10100000352E+00 0. -1.
       -3    1    3    3    0  502 -0.25927964468E+03 -0.21063844381E+02  0.32467767717E+03  0.41603512344E+03  0.10100000352E+00 0.  1.
</event>
<event>
 5   0  0.1637228E-03  0.7988921E+03  0.7818609E-02  0.9561622E-01
        1   -1    0    0  501    0  0.00000000000E+00  0.00000000000E+00  0.24325914231E+03  0.24325914236E+03  0.50400001928E-02 0.  1.
       -1   -1    0    0    0  501  0.00000000000E+00  0.00000000000E+00 -0.65591429107E+03  0.65591429109E+03  0.50400001928E-02 0. -1.
    10030    2    1    2    0    0  0.00000000000E+00  0.00000000000E+00 -0.41265514876E+03  0.89917343345E+03  0.79889210262E+03 0.  0.
        2    1    3    3  502    0 -0.93507944237E+02 -0.28325169755E+03  0.92693622058E+02  0.31235775543E+03  0.25500000920E-02 0.  1.
       -2    1    3    3    0  502  0.93507944237E+02  0.28325169755E+03 -0.50534877081E+03  0.58681567802E+03  0.25500000920E-02 0. -1.
</event>
<event>
 5   0  0.1095350E-03  0.7997528E+03  0.7818609E-02  0.9560375E-01
        4   -1    0    0  501    0  0.00000000000E+00  0.00000000000E+00  0.20326348991E+03  0.20326745738E+03  0.12699999809E+01 0. -1.
       -4   -1    0    0    0  501  0.00000000000E+00  0.00000000000E+00 -0.78665710661E+03  0.78665813177E+03  0.12699999809E+01 0.  1.
    10030    2    1    2    0    0  0.00000000000E+00  0.00000000000E+00 -0.58339361670E+03  0.98992558915E+03  0.79975281185E+03 0.  0.
        2    1    3    3  502    0  0.29986193447E+03 -0.14962890495E+03 -0.21656789369E+02  0.33581990035E+03  0.25500000920E-02 0. -1.
       -2    1    3    3    0  502 -0.29986193447E+03  0.14962890495E+03 -0.56173682733E+03  0.65410568880E+03  0.25500000920E-02 0.  1.
</event>
<event>
 5   0  0.2763587E-03  0.8003406E+03  0.7818609E-02  0.9559524E-01
        2   -1    0    0  501    0  0.00000000000E+00  0.00000000000E+00  0.87010825140E+03  0.87010825140E+03  0.25500000920E-02 0.  1.
       -2   -1    0    0    0  501  0.00000000000E+00  0.00000000000E+00 -0.18404176930E+03  0.18404176931E+03  0.25500000920E-02 0. -1.
    10030    2    1    2    0    0  0.00000000000E+00  0.00000000000E+00  0.68606648210E+03  0.10541500207E+04  0.80034058270E+03 0.  0.
        3    1    3    3  502    0  0.36977331587E+03  0.60206866880E+02  0.15779500991E+03  0.40651746248E+03  0.10100000352E+00 0.  1.
       -3    1    3    3    0  502 -0.36977331587E+03 -0.60206866880E+02  0.52827147219E+03  0.64763255823E+03  0.10100000352E+00 0. -1.
</event>
<event>
 5   0  0.1637228E-03  0.7963161E+03  0.7818609E-02  0.9565365E-01
       -1   -1    0    0    0  501  0.00000000000E+00  0.00000000000E+00  0.76677405583E+03  0.76677405585E+03  0.50400001928E-02 0.  1.
        1   -1    0    0  501    0  0.00000000000E+00  0.00000000000E+00 -0.20674910678E+03  0.20674910684E+03  0.50400001928E-02 0. -1.
    10030    2    1    2    0    0  0.00000000000E+00  0.00000000000E+00  0.56002494905E+03  0.97352316269E+03  0.79631614623E+03 0.  0.
        2    1    3    3  502    0  0.11948664767E+03  0.59319253509E+02 -0.17861525711E+03  0.22293327003E+03  0.25500000920E-02 0. -1.
       -2    1    3    3    0  502 -0.11948664767E+03 -0.59319253509E+02  0.73864020616E+03  0.75058989266E+03  0.25500000920E-02 0.  1.
</event>
<event>
 5   0  0.1637228E-03  0.8012069E+03  0.7818609E-02  0.9558272E-01
       -1   -1    0    0    0  501  0.00000000000E+00  0.00000000000E+00  0.14000040165E+03  0.14000040174E+03  0.50400001928E-02 0.  1.
        1   -1    0    0  501    0  0.00000000000E+00  0.00000000000E+00 -0.11463046663E+04  0.11463046664E+04  0.50400001928E-02 0. -1.
    10030    2    1    2    0    0  0.00000000000E+00  0.00000000000E+00 -0.10063042647E+04  0.12863050681E+04  0.80120687407E+03 0.  0.
        2    1    3    3  502    0 -0.39969626807E+03 -0.21656174697E+02 -0.47741380239E+03  0.62301688205E+03  0.25500000920E-02 0.  1.
       -2    1    3    3    0  502  0.39969626807E+03  0.21656174697E+02 -0.52889046232E+03  0.66328818604E+03  0.25500000920E-02 0. -1.
</event>
<event>
 5   0  0.1095350E-03  0.7999664E+03  0.7818609E-02  0.9560066E-01
       -3   -1    0    0    0  501  0.00000000000E+00  0.00000000000E+00  0.51127257236E+03  0.51127258233E+03  0.10100000352E+00 0. -1.
        3   -1    0    0  501    0  0.00000000000E+00  0.00000000000E+00 -0.31291827594E+03  0.31291829223E+03  0.10100000352E+00 0.  1.
    10030    2    1    2    0    0  0.00000000000E+00  0.00000000000E+00  0.19835429642E+03  0.82419087457E+03  0.79996635605E+03 0.  0.
        3    1    3    3  502    0  0.43159363919E+02 -0.28293754223E+03 -0.18869429393E+03  0.34281471709E+03  0.10100000352E+00 0.  1.
       -3    1    3    3    0  502 -0.43159363919E+02  0.28293754223E+03  0.38704859035E+03  0.48137615747E+03  0.10100000352E+00 0. -1.
</event>
<event>
 5   0  0.1640035E-03  0.8097825E+03  0.7818609E-02  0.9545964E-01
       -1   -1    0    0    0  501  0.00000000000E+00  0.00000000000E+00  0.15712364363E+03  0.15712364371E+03  0.50400001928E-02 0. -1.
        1   -1    0    0  501    0  0.00000000000E+00  0.00000000000E+00 -0.10433624599E+04  0.10433624599E+04  0.50400001928E-02 0.  1.
    10030    2    1    2    0    0  0.00000000000E+00  0.00000000000E+00 -0.88623881630E+03  0.12004861036E+04  0.80978246804E+03 0.  0.
        5    1    3    3  502    0 -0.78720094950E+02  0.33139545088E+03 -0.76755908570E+03  0.83975522520E+03  0.46999998093E+01 0.  1.
       -5    1    3    3    0  502  0.78720094950E+02 -0.33139545088E+03 -0.11867973059E+03  0.36073087845E+03  0.46999998093E+01 0. -1.
</event>
<event>
 5   0  0.2873212E-03  0.8078024E+03  0.7818609E-02  0.9548792E-01
       -2   -1    0    0    0  501  0.00000000000E+00  0.00000000000E+00  0.45317705759E+03  0.45317705759E+03  0.25500000920E-02 0.  1.
        2   -1    0    0  501    0  0.00000000000E+00  0.00000000000E+00 -0.35998329718E+03  0.35998329719E+03  0.25500000920E-02 0. -1.
    10030    2    1    2    0    0  0.00000000000E+00  0.00000000000E+00  0.93193760406E+02  0.81316035479E+03  0.80780238030E+03 0.  0.
        2    1    3    3  502    0  0.22541889454E+03 -0.26762678845E+03 -0.15647963954E+03  0.38330621376E+03  0.25500000920E-02 0. -1.
       -2    1    3    3    0  502 -0.22541889454E+03  0.26762678845E+03  0.24967339994E+03  0.42985414103E+03  0.25500000920E-02 0.  1.
</event>
<event>
 5   0  0.2873212E-03  0.7989071E+03  0.7818609E-02  0.9561600E-01
       -2   -1    0    0    0  501  0.00000000000E+00  0.00000000000E+00  0.13697657443E+03  0.13697657446E+03  0.25500000920E-02 0.  1.
        2   -1    0    0  501    0  0.00000000000E+00  0.00000000000E+00 -0.11648935277E+04  0.11648935277E+04  0.25500000920E-02 0. -1.
    10030    2    1    2    0    0  0.00000000000E+00  0.00000000000E+00 -0.10279169533E+04  0.13018701022E+04  0.79890706599E+03 0.  0.
        2    1    3    3  502    0  0.79180320195E+02  0.29047935069E+03 -0.86169715924E+02  0.31316608410E+03  0.25500000920E-02 0.  1.
       -2    1    3    3    0  502 -0.79180320195E+02 -0.29047935069E+03 -0.94174723735E+03  0.98870401806E+03  0.25500000920E-02 0. -1.
</event>
<event>
 5   0  0.1656051E-03  0.7999862E+03  0.7818609E-02  0.9560037E-01
       -1   -1    0    0    0  501  0.00000000000E+00  0.00000000000E+00  0.13685052415E+03  0.13685052424E+03  0.50400001928E-02 0. -1.
        1   -1    0    0  501    0  0.00000000000E+00  0.00000000000E+00 -0.11691184375E+04  0.11691184375E+04  0.50400001928E-02 0.  1.
    10030    2    1    2    0    0  0.00000000000E+00  0.00000000000E+00 -0.10322679133E+04  0.13059689617E+04  0.79998617745E+03 0.  0.
        3    1    3    3  502    0 -0.22069967590E+03 -0.13673750258E+03 -0.19392968373E+02  0.26034897537E+03  0.10100000352E+00 0. -1.
       -3    1    3    3    0  502  0.22069967590E+03  0.13673750258E+03 -0.10128749450E+04  0.10456199864E+04  0.10100000352E+00 0.  1.
</event>
<event>
 5   0  0.2768834E-03  0.8003086E+03  0.7818609E-02  0.9559571E-01
       -2   -1    0    0    0  501  0.00000000000E+00  0.00000000000E+00  0.17916983840E+03  0.17916983842E+03  0.25500000920E-02 0.  1.
        2   -1    0    0  501    0  0.00000000000E+00  0.00000000000E+00 -0.89369648097E+03  0.89369648097E+03  0.25500000920E-02 0. -1.
    10030    2    1    2    0    0  0.00000000000E+00  0.00000000000E+00 -0.71452664257E+03  0.10728663194E+04  0.80030857571E+03 0.  0.
        4    1    3    3  502    0  0.37261406279E+03 -0.38890308636E+02 -0.54574585153E+03  0.66196211618E+03  0.12699999809E+01 0. -1.
       -4    1    3    3    0  502 -0.37261406279E+03  0.38890308636E+02 -0.16878079104E+03  0.41090420321E+03  0.12699999809E+01 0.  1.
</event>
<event>
 5   0  0.1617491E-03  0.8001493E+03  0.7818609E-02  0.9559801E-01
       -1   -1    0    0    0  501  0.00000000000E+00  0.00000000000E+00  0.25367327439E+03  0.25367327444E+03  0.50400001928E-02 0.  1.
        1   -1    0    0  501    0  0.00000000000E+00  0.00000000000E+00 -0.63096806319E+03  0.63096806321E+03  0.50400001928E-02 0. -1.
    10030    2    1    2    0    0  0.00000000000E+00  0.00000000000E+00 -0.37729478881E+03  0.88464133765E+03  0.80014932270E+03 0.  0.
        1    1    3    3  502    0 -0.26941322986E+03 -0.93906882225E+02 -0.49872252088E+03  0.57456604826E+03  0.50400001928E-02 0. -1.
       -1    1    3    3    0  502  0.26941322986E+03  0.93906882225E+02  0.12142773207E+03  0.31007528940E+03  0.50400001928E-02 0.  1.
</event>
<event>
 5   0  0.2873212E-03  0.7995441E+03  0.7818609E-02  0.9560677E-01
        2   -1    0    0  501    0  0.00000000000E+00  0.00000000000E+00  0.67843925837E+03  0.67843925838E+03  0.25500000920E-02 0.  1.
       -2   -1    0    0    0  501  0.00000000000E+00  0.00000000000E+00 -0.23556668806E+03  0.23556668807E+03  0.25500000920E-02 0. -1.
    10030    2    1    2    0    0  0.00000000000E+00  0.00000000000E+00  0.44287257031E+03  0.91400594645E+03  0.79954409298E+03 0.  0.
        2    1    3    3  502    0 -0.12478696617E+03  0.28631220715E+03 -0.63829901886E+02  0.31878005469E+03  0.25500000920E-02 0. -1.
       -2    1    3    3    0  502  0.12478696617E+03 -0.28631220715E+03  0.50670247220E+03  0.59522589176E+03  0.25500000920E-02 0.  1.
</event>
<event>
 5   0  0.1656051E-03  0.7996586E+03  0.7818609E-02  0.9560511E-01
       -1   -1    0    0    0  501  0.00000000000E+00  0.00000000000E+00  0.17891256091E+03  0.17891256098E+03  0.50400001928E-02 0. -1.
        1   -1    0    0  501    0  0.00000000000E+00  0.00000000000E+00 -0.89352842415E+03  0.89352842417E+03  0.50400001928E-02 0.  1.
    10030    2    1    2    0    0  0.00000000000E+00  0.00000000000E+00 -0.71461586324E+03  0.10724409851E+04  0.79965857378E+03 0.  0.
        3    1    3    3  502    0 -0.39852206050E+03  0.97342074320E+00 -0.31400255013E+03  0.50736416108E+03  0.10100000352E+00 0. -1.
       -3    1    3    3    0  502  0.39852206050E+03 -0.97342074320E+00 -0.40061331311E+03  0.56507682407E+03  0.10100000352E+00 0.  1.
</event>
<event>
 5   0  0.1095350E-03  0.8028543E+03  0.7818609E-02  0.9555895E-01
        3   -1    0    0  501    0  0.00000000000E+00  0.00000000000E+00  0.57940409245E+03  0.57940410125E+03  0.10100000352E+00 0. -1.
       -3   -1    0    0    0  501  0.00000000000E+00  0.00000000000E+00 -0.27811977117E+03  0.27811978951E+03  0.10100000352E+00 0.  1.
    10030    2    1    2    0    0  0.00000000000E+00  0.00000000000E+00  0.30128432128E+03  0.85752389076E+03  0.80285427132E+03 0.  0.
        5    1    3    3  502    0  0.27692008233E+03  0.17213963372E+02 -0.15917988383E+03  0.31990838993E+03  0.46999998093E+01 0.  1.
       -5    1    3    3    0  502 -0.27692008233E+03 -0.17213963372E+02  0.46046420512E+03  0.53761550082E+03  0.46999998093E+01 0. -1.
</event>
<event>
 5   0  0.2910501E-03  0.7996735E+03  0.7818609E-02  0.9560490E-01
        2   -1    0    0  501    0  0.00000000000E+00  0.00000000000E+00  0.11326143795E+04  0.11326143795E+04  0.25500000920E-02 0.  1.
       -2   -1    0    0    0  501  0.00000000000E+00  0.00000000000E+00 -0.14115079020E+03  0.14115079022E+03  0.25500000920E-02 0. -1.
    10030    2    1    2    0    0  0.00000000000E+00  0.00000000000E+00  0.99146358930E+03  0.12737651697E+04  0.79967347005E+03 0.  0.
        1    1    3    3  502    0 -0.31923207048E+03 -0.15363792336E+03  0.79097234636E+03  0.86668966710E+03  0.50400001928E-02 0.  1.
       -1    1    3    3    0  502  0.31923207048E+03  0.15363792336E+03  0.20049124294E+03  0.40707550263E+03  0.50400001928E-02 0. -1.
</event>
<event>
 5   0  0.1095350E-03  0.7994633E+03  0.7818609E-02  0.9560794E-01
       -4   -1    0    0    0  501  0.00000000000E+00  0.00000000000E+00  0.56404668485E+03  0.56404811460E+03  0.12699999809E+01 0. -1.
        4   -1    0    0  501    0  0.00000000000E+00  0.00000000000E+00 -0.28328075509E+03  0.28328360190E+03  0.12699999809E+01 0.  1.
    10030    2    1    2    0    0  0.00000000000E+00  0.00000000000E+00  0.28076592975E+03  0.84733171650E+03  0.79946327650E+03 0.  0.
        2    1    3    3  502    0 -0.20923670379E+03 -0.10135478517E+03 -0.20425203678E+03  0.30947000699E+03  0.25500000920E-02 0.  1.
       -2    1    3    3    0  502  0.20923670379E+03  0.10135478517E+03  0.48501796654E+03  0.53786170951E+03  0.25500000920E-02 0. -1.
</event>
<event>
 5   0  0.1617491E-03  0.8012021E+03  0.7818609E-02  0.9558279E-01
        1   -1    0    0  501    0  0.00000000000E+00  0.00000000000E+00  0.22160365279E+03  0.22160365284E+03  0.50400001928E-02 0.  1.
       -1   -1    0    0    0  501  0.00000000000E+00  0.00000000000E+00 -0.72418119618E+03  0.72418119620E+03  0.50400001928E-02 0. -1.
    10030    2    1    2    0    0  0.00000000000E+00  0.00000000000E+00 -0.50257754339E+03  0.94578484904E+03  0.80120209283E+03 0.  0.
        1    1    3    3  502    0 -0.19348773068E+03 -0.20823133699E+03 -0.58451119946E+03  0.64996240964E+03  0.50400001928E-02 0. -1.
       -1    1    3    3    0  502  0.19348773068E+03  0.20823133699E+03  0.81933656071E+02  0.29582243940E+03  0.50400001928E-02 0.  1.
</event>
<event>
 5   0  0.1637228E-03  0.8000990E+03  0.7818609E-02  0.9559874E-01
        1   -1    0    0  501    0  0.00000000000E+00  0.00000000000E+00  0.92408737733E+03  0.92408737734E+03  0.50400001928E-02 0.  1.
       -1   -1    0    0    0  501  0.00000000000E+00  0.00000000000E+00 -0.17318667433E+03  0.17318667441E+03  0.50400001928E-02 0. -1.
    10030    2    1    2    0    0  0.00000000000E+00  0.00000000000E+00  0.75090070299E+03  0.10972740517E+04  0.80009904317E+03 0.  0.
        2    1    3    3  502    0  0.32759296841E+03  0.21060437408E+03  0.24999503962E+03  0.46278383201E+03  0.25500000920E-02 0. -1.
       -2    1    3    3    0  502 -0.32759296841E+03 -0.21060437408E+03  0.50090566338E+03  0.63449021974E+03  0.25500000920E-02 0.  1.
</event>
<event>
 5   0  0.1712793E-03  0.7999067E+03  0.7818609E-02  0.9560152E-01
        1   -1    0    0  501    0  0.00000000000E+00  0.00000000000E+00  0.44959497073E+03  0.44959497076E+03  0.50400001928E-02 0. -1.
       -1   -1    0    0    0  501  0.00000000000E+00  0.00000000000E+00 -0.35579282067E+03  0.35579282070E+03  0.50400001928E-02 0.  1.
    10030    2    1    2    0    0  0.00000000000E+00  0.00000000000E+00  0.93802150061E+02  0.80538779146E+03  0.79990665160E+03 0.  0.
        4    1    3    3  502    0  0.24214441708E+03  0.30437110692E+03  0.14073495139E+03  0.41362256816E+03  0.12699999809E+01 0. -1.
       -4    1    3    3    0  502 -0.24214441708E+03 -0.30437110692E+03 -0.46932801332E+02  0.39176522330E+03  0.12699999809E+01 0.  1.
</event>
<event>
 5   0  0.2873212E-03  0.7977573E+03  0.7818609E-02  0.9563269E-01
       -2   -1    0    0    0  501  0.00000000000E+00  0.00000000000E+00  0.54601769907E+03  0.54601769908E+03  0.25500000920E-02 0.  1.
        2   -1    0    0  501    0  0.00000000000E+00  0.00000000000E+00 -0.29139011933E+03  0.29139011934E+03  0.25500000920E-02 0. -1.
    10030    2    1    2    0    0  0.00000000000E+00  0.00000000000E+00  0.25462757974E+03  0.83740781842E+03  0.79775726257E+03 0.  0.
        2    1    3    3  502    0 -0.30081753285E+03 -0.22711714208E+03 -0.96745148424E+01  0.37705036871E+03  0.25500000920E-02 0. -1.
       -2    1    3    3    0  502  0.30081753285E+03  0.22711714208E+03  0.26430209458E+03  0.46035744971E+03  0.25500000920E-02 0.  1.
</event>
<event>
 5   0  0.2873212E-03  0.8008347E+03  0.7818609E-02  0.9558810E-01
       -2   -1    0    0    0  501  0.00000000000E+00  0.00000000000E+00  0.17987451979E+03  0.17987451981E+03  0.25500000920E-02 0. -1.
        2   -1    0    0  501    0  0.00000000000E+00  0.00000000000E+00 -0.89136607058E+03  0.89136607058E+03  0.25500000920E-02 0.  1.
    10030    2    1    2    0    0  0.00000000000E+00  0.00000000000E+00 -0.71149155078E+03  0.10712405904E+04  0.80083467437E+03 0.  0.
        2    1    3    3  502    0 -0.27481698217E+03 -0.99636785787E+02 -0.72178986113E+03  0.77873773917E+03  0.25500000920E-02 0.  1.
       -2    1    3    3    0  502  0.27481698217E+03  0.99636785787E+02  0.10298310351E+02  0.29250285122E+03  0.25500000920E-02 0. -1.
</event>
<event>
 5   0  0.2768834E-03  0.8000321E+03  0.7818609E-02  0.9559971E-01
        2   -1    0    0  501    0  0.00000000000E+00  0.00000000000E+00  0.13054777635E+04  0.13054777635E+04  0.25500000920E-02 0.  1.
       -2   -1    0    0    0  501  0.00000000000E+00  0.00000000000E+00 -0.12257031758E+03  0.12257031760E+03  0.25500000920E-02 0. -1.
    10030    2    1    2    0    0  0.00000000000E+00  0.00000000000E+00  0.11829074459E+04  0.14280480811E+04  0.80003205956E+03 0.  0.
        4    1    3    3  502    0  0.64417509149E+02  0.33825308978E+03  0.22805861937E+03  0.41300982434E+03  0.12699999809E+01 0. -1.
       -4    1    3    3    0  502 -0.64417509149E+02 -0.33825308978E+03  0.95484882655E+03  0.10150382568E+04  0.12699999809E+01 0.  1.
</event>
<event>
 5   0  0.2690809E-03  0.7997282E+03  0.7818609E-02  0.9560411E-01
        2   -1    0    0  501    0  0.00000000000E+00  0.00000000000E+00  0.19770715226E+04  0.19770715226E+04  0.25500000920E-02 0. -1.
       -2   -1    0    0    0  501  0.00000000000E+00  0.00000000000E+00 -0.80872789822E+02  0.80872789862E+02  0.25500000920E-02 0.  1.
    10030    2    1    2    0    0  0.00000000000E+00  0.00000000000E+00  0.18961987327E+04  0.20579443124E+04  0.79972817820E+03 0.  0.
        5    1    3    3  502    0  0.21414084681E+03  0.87227915269E+02  0.10869624153E+03  0.25554250996E+03  0.46999998093E+01 0.  1.
       -5    1    3    3    0  502 -0.21414084681E+03 -0.87227915269E+02  0.17875024912E+04  0.18024018025E+04  0.46999998093E+01 0. -1.
</event>
<event>
 5   0  0.2873212E-03  0.7999418E+03  0.7818609E-02  0.9560101E-01
        2   -1    0    0  501    0  0.00000000000E+00  0.00000000000E+00  0.51518852567E+03  0.51518852567E+03  0.25500000920E-02 0. -1.
       -2   -1    0    0    0  501  0.00000000000E+00  0.00000000000E+00 -0.31052074563E+03  0.31052074564E+03  0.25500000920E-02 0.  1.
    10030    2    1    2    0    0  0.00000000000E+00  0.00000000000E+00  0.20466778003E+03  0.82570927131E+03  0.79994181073E+03 0.  0.
        2    1    3    3  502    0  0.35450245755E+03  0.57138779244E+02  0.28419040717E+03  0.45793123943E+03  0.25500000920E-02 0. -1.
       -2    1    3    3    0  502 -0.35450245755E+03 -0.57138779244E+02 -0.79522627141E+02  0.36777803189E+03  0.25500000920E-02 0.  1.
</event>
<event>
 5   0  0.2910501E-03  0.7993788E+03  0.7818609E-02  0.9560917E-01
       -2   -1    0    0    0  501  0.00000000000E+00  0.00000000000E+00  0.97783081262E+02  0.97783081295E+02  0.25500000920E-02 0.  1.
        2   -1    0    0  501    0  0.00000000000E+00  0.00000000000E+00 -0.16337348697E+04  0.16337348697E+04  0.25500000920E-02 0. -1.
    10030    2    1    2    0    0  0.00000000000E+00  0.00000000000E+00 -0.15359517884E+04  0.17315179510E+04  0.79937883273E+03 0.  0.
        1    1    3    3  502    0  0.36611062875E+03 -0.12229463432E+03 -0.99265021367E+03  0.10650574711E+04  0.50400001928E-02 0. -1.
       -1    1    3    3    0  502 -0.36611062875E+03  0.12229463432E+03 -0.54330157476E+03  0.66646047987E+03  0.50400001928E-02 0.  1.
</event>
<event>
 5   0  0.2768834E-03  0.8006237E+03  0.7818609E-02  0.9559115E-01
        2   -1    0    0  501    0  0.00000000000E+00  0.00000000000E+00  0.18671680404E+03  0.18671680406E+03  0.25500000920E-02 0.  1.
       -2   -1    0    0    0  501  0.00000000000E+00  0.00000000000E+00 -0.85824931703E+03  0.85824931704E+03  0.25500000920E-02 0. -1.
    10030    2    1    2    0    0  0.00000000000E+00  0.00000000000E+00 -0.67153251299E+03  0.10449661211E+04  0.80062368078E+03 0.  0.
        4    1    3    3  502    0  0.16770626320E+03  0.19604701399E+03 -0.73526560374E+03  0.77921559491E+03  0.12699999809E+01 0. -1.
       -4    1    3    3    0  502 -0.16770626320E+03 -0.19604701399E+03  0.63733090743E+02  0.26575052618E+03  0.12699999809E+01 0.  1.
</event>
<event>
 5   0  0.2768834E-03  0.7996783E+03  0.7818609E-02  0.9560483E-01
        2   -1    0    0  501    0  0.00000000000E+00  0.00000000000E+00  0.11987054923E+04  0.11987054923E+04  0.25500000920E-02 0.  1.
       -2   -1    0    0    0  501  0.00000000000E+00  0.00000000000E+00 -0.13336997900E+03  0.13336997903E+03  0.25500000920E-02 0. -1.
    10030    2    1    2    0    0  0.00000000000E+00  0.00000000000E+00  0.10653355133E+04  0.13320754713E+04  0.79967825117E+03 0.  0.
        4    1    3    3  502    0  0.14247480969E+03  0.53358004230E+02  0.11486032545E+04  0.11586359209E+04  0.12699999809E+01 0.  1.
       -4    1    3    3    0  502 -0.14247480969E+03 -0.53358004230E+02 -0.83267741247E+02  0.17343955040E+03  0.12699999809E+01 0. -1.
</event>
<event>
 5   0  0.2690809E-03  0.8001519E+03  0.7818609E-02  0.9559797E-01
       -2   -1    0    0    0  501  0.00000000000E+00  0.00000000000E+00  0.17973446628E+03  0.17973446629E+03  0.25500000920E-02 0.  1.
        2   -1    0    0  501    0  0.00000000000E+00  0.00000000000E+00 -0.89054029245E+03  0.89054029245E+03  0.25500000920E-02 0. -1.
    10030    2    1    2    0    0  0.00000000000E+00  0.00000000000E+00 -0.71080582617E+03  0.10702747587E+04  0.80015194600E+03 0.  0.
        5    1    3    3  502    0 -0.14829038504E+03  0.91024137366E+02  0.12643247694E+03  0.21513412816E+03  0.46999998093E+01 0.  1.
       -5    1    3    3    0  502  0.14829038504E+03 -0.91024137366E+02 -0.83723830311E+03  0.85514063058E+03  0.46999998093E+01 0. -1.
</event>
<event>
 5   0  0.1637228E-03  0.8002853E+03  0.7818609E-02  0.9559604E-01
       -1   -1    0    0    0  501  0.00000000000E+00  0.00000000000E+00  0.10802796247E+03  0.10802796259E+03  0.50400001928E-02 0. -1.
        1   -1    0    0  501    0  0.00000000000E+00  0.00000000000E+00 -0.14821547609E+04  0.14821547609E+04  0.50400001928E-02 0.  1.
    10030    2    1    2    0    0  0.00000000000E+00  0.00000000000E+00 -0.13741267985E+04  0.15901827235E+04  0.80028534659E+03 0.  0.
        2    1    3    3  502    0  0.12429197793E+03  0.16063217395E+03 -0.20083828531E+01  0.20311382202E+03  0.25500000920E-02 0. -1.
       -2    1    3    3    0  502 -0.12429197793E+03 -0.16063217395E+03 -0.13721184156E+04  0.13870689015E+04  0.25500000920E-02 0.  1.
</event>
<event>
 5   0  0.2690809E-03  0.7947593E+03  0.7818609E-02  0.9567634E-01
       -2   -1    0    0    0  501  0.00000000000E+00  0.00000000000E+00  0.15700960174E+03  0.15700960177E+03  0.25500000920E-02 0. -1.
        2   -1    0    0  501    0  0.00000000000E+00  0.00000000000E+00 -0.10057383007E+04  0.10057383007E+04  0.25500000920E-02 0.  1.
    10030    2    1    2    0    0  0.00000000000E+00  0.00000000000E+00 -0.84872869895E+03  0.11627479025E+04  0.79475925931E+03 0.  0.
        5    1    3    3  502    0 -0.31496903461E+03 -0.24153110254E+03 -0.45156681898E+03  0.60122994625E+03  0.46999998093E+01 0.  1.
       -5    1    3    3    0  502  0.31496903461E+03  0.24153110254E+03 -0.39716187997E+03  0.56151795622E+03  0.46999998093E+01 0. -1.
</event>
<event>
 5   0  0.2763587E-03  0.7809611E+03  0.7818609E-02  0.9587991E-01
        2   -1    0    0  501    0  0.00000000000E+00  0.00000000000E+00  0.74675557680E+03  0.74675557681E+03  0.25500000920E-02 0.  1.
       -2   -1    0    0    0  501  0.00000000000E+00  0.00000000000E+00 -0.20418335828E+03  0.20418335829E+03  0.25500000920E-02 0. -1.
    10030    2    1    2    0    0  0.00000000000E+00  0.00000000000E+00  0.54257221853E+03  0.95093893510E+03  0.78096110401E+03 0.  0.
        3    1    3    3  502    0 -0.13446041189E+03 -0.28602804550E+03  0.55050679050E+03  0.63478294067E+03  0.10100000352E+00 0.  1.
       -3    1    3    3    0  502  0.13446041189E+03  0.28602804550E+03 -0.79345719776E+01  0.31615599443E+03  0.10100000352E+00 0. -1.
</event>
<event>
 5   0  0.1095350E-03  0.7977345E+03  0.7818609E-02  0.9563302E-01
        4   -1    0    0  501    0  0.00000000000E+00  0.00000000000E+00  0.10215855363E+03  0.10216644743E+03  0.12699999809E+01 0.  1.
       -4   -1    0    0    0  501  0.00000000000E+00  0.00000000000E+00 -0.15572664756E+04  0.15572669935E+04  0.12699999809E+01 0. -1.
    10030    2    1    2    0    0  0.00000000000E+00  0.00000000000E+00 -0.14551079220E+04  0.16594334409E+04  0.79773446723E+03 0.  0.
        4    1    3    3  502    0 -0.25862219671E+03 -0.36809476798E+02 -0.10054852528E+03  0.27991426732E+03  0.12699999809E+01 0.  1.
       -4    1    3    3    0  502  0.25862219671E+03  0.36809476798E+02 -0.13545593967E+04  0.13795191736E+04  0.12699999809E+01 0. -1.
</event>
<event>
 5   0  0.1617491E-03  0.7995145E+03  0.7818609E-02  0.9560720E-01
       -1   -1    0    0    0  501  0.00000000000E+00  0.00000000000E+00  0.74962682658E+03  0.74962682660E+03  0.50400001928E-02 0. -1.
        1   -1    0    0  501    0  0.00000000000E+00  0.00000000000E+00 -0.21318054731E+03  0.21318054737E+03  0.50400001928E-02 0.  1.
    10030    2    1    2    0    0  0.00000000000E+00  0.00000000000E+00  0.53644627927E+03  0.96280737397E+03  0.79951449569E+03 0.  0.
        1    1    3    3  502    0 -0.11018490977E+03 -0.23751507796E+03 -0.95552506182E+02  0.27871922801E+03  0.50400001928E-02 0.  1.
       -1    1    3    3    0  502  0.11018490977E+03  0.23751507796E+03  0.63199878546E+03  0.68408814596E+03  0.50400001928E-02 0. -1.
</event>
<event>
 5   0  0.1640035E-03  0.7993063E+03  0.7818609E-02  0.9561022E-01
        1   -1    0    0  501    0  0.00000000000E+00  0.00000000000E+00  0.71143911857E+03  0.71143911858E+03  0.50400001928E-02 0.  1.
       -1   -1    0    0    0  501  0.00000000000E+00  0.00000000000E+00 -0.22450642187E+03  0.22450642193E+03  0.50400001928E-02 0. -1.
    10030    2    1    2    0    0  0.00000000000E+00  0.00000000000E+00  0.48693269669E+03  0.93594554052E+03  0.79930632658E+03 0.  0.
        5    1    3    3  502    0 -0.13463585976E+03  0.32699033397E+03  0.25496892837E+02  0.35457252401E+03  0.46999998093E+01 0. -1.
       -5    1    3    3    0  502  0.13463585976E+03 -0.32699033397E+03  0.46143580385E+03  0.58137301650E+03  0.46999998093E+01 0.  1.
</event>
<event>
 5   0  0.1640035E-03  0.7996288E+03  0.7818609E-02  0.9560555E-01
        1   -1    0    0  501    0  0.00000000000E+00  0.00000000000E+00  0.11289338654E+03  0.11289338665E+03  0.50400001928E-02 0.  1.
       -1   -1    0    0    0  501  0.00000000000E+00  0.00000000000E+00 -0.14159515081E+04  0.14159515081E+04  0.50400001928E-02 0. -1.
    10030    2    1    2    0    0  0.00000000000E+00  0.00000000000E+00 -0.13030581215E+04  0.15288448947E+04  0.79962881642E+03 0.  0.
        5    1    3    3  502    0 -0.92453754104E+02  0.31736251436E+03 -0.22160615275E+03  0.39799251137E+03  0.46999998093E+01 0.  1.
       -5    1    3    3    0  502  0.92453754104E+02 -0.31736251436E+03 -0.10814519688E+04  0.11308523834E+04  0.46999998093E+01 0. -1.
</event>
<event>
 5   0  0.1095350E-03  0.8005667E+03  0.7818609E-02  0.9559197E-01
       -3   -1    0    0    0  501  0.00000000000E+00  0.00000000000E+00  0.44741387801E+03  0.44741388941E+03  0.10100000352E+00 0.  1.
        3   -1    0    0  501    0  0.00000000000E+00  0.00000000000E+00 -0.35811752727E+03  0.35811754151E+03  0.10100000352E+00 0. -1.
    10030    2    1    2    0    0  0.00000000000E+00  0.00000000000E+00  0.89296350744E+02  0.80553143092E+03  0.80056670425E+03 0.  0.
        3    1    3    3  502    0 -0.15050305763E+03  0.24972165072E+03  0.32060190559E+03  0.43335627982E+03  0.10100000352E+00 0.  1.
       -3    1    3    3    0  502  0.15050305763E+03 -0.24972165072E+03 -0.23130555485E+03  0.37217515110E+03  0.10100000352E+00 0. -1.
</event>
<event>
 5   0  0.2910501E-03  0.8003713E+03  0.7818609E-02  0.9559480E-01
       -2   -1    0    0    0  501  0.00000000000E+00  0.00000000000E+00  0.13497368534E+03  0.13497368537E+03  0.25500000920E-02 0. -1.
        2   -1    0    0  501    0  0.00000000000E+00  0.00000000000E+00 -0.11865169831E+04  0.11865169831E+04  0.25500000920E-02 0.  1.
    10030    2    1    2    0    0  0.00000000000E+00  0.00000000000E+00 -0.10515432978E+04  0.13214906685E+04  0.80037133869E+03 0.  0.
        1    1    3    3  502    0  0.35283386694E+03  0.62818226718E+02 -0.81979072280E+03  0.89470369200E+03  0.50400001928E-02 0.  1.
       -1    1    3    3    0  502 -0.35283386694E+03 -0.62818226718E+02 -0.23175257498E+03  0.42678697649E+03  0.50400001928E-02 0. -1.
</event>
<event>
 5   0  0.2910501E-03  0.8016589E+03  0.7818609E-02  0.9557619E-01
        2   -1    0    0  501    0  0.00000000000E+00  0.00000000000E+00  0.10194305772E+04  0.10194305772E+04  0.25500000920E-02 0. -1.
       -2   -1    0    0    0  501  0.00000000000E+00  0.00000000000E+00 -0.15760195722E+03  0.15760195724E+03  0.25500000920E-02 0.  1.
    10030    2    1    2    0    0  0.00000000000E+00  0.00000000000E+00  0.86182861997E+03  0.11770325344E+04  0.80165891557E+03 0.  0.
        1    1    3    3  502    0 -0.21842234753E+03 -0.21018339153E+03  0.45856113841E+02  0.30657489000E+03  0.50400001928E-02 0.  1.
       -1    1    3    3    0  502  0.21842234753E+03  0.21018339153E+03  0.81597250612E+03  0.87045764443E+03  0.50400001928E-02 0. -1.
</event>
<event>
 5   0  0.1712793E-03  0.7988375E+03  0.7818609E-02  0.9561701E-01
        1   -1    0    0  501    0  0.00000000000E+00  0.00000000000E+00  0.13574462479E+04  0.13574462479E+04  0.50400001928E-02 0. -1.
       -1   -1    0    0    0  501  0.00000000000E+00  0.00000000000E+00 -0.11752608010E+03  0.11752608021E+03  0.50400001928E-02 0.  1.
    10030    2    1    2    0    0  0.00000000000E+00  0.00000000000E+00  0.12399201678E+04  0.14749723281E+04  0.79883749674E+03 0.  0.
        4    1    3    3  502    0 -0.16076784178E+03  0.28105602672E+03  0.10517763363E+04  0.11004880116E+04  0.12699999809E+01 0. -1.
       -4    1    3    3    0  502  0.16076784178E+03 -0.28105602672E+03  0.18814383149E+03  0.37448431654E+03  0.12699999809E+01 0.  1.
</event>
<event>
 5   0  0.2873212E-03  0.8004937E+03  0.7818609E-02  0.9559303E-01
        2   -1    0    0  501    0  0.00000000000E+00  0.00000000000E+00  0.10976085787E+04  0.10976085787E+04  0.25500000920E-02 0.  1.
       -2   -1    0    0    0  501  0.00000000000E+00  0.00000000000E+00 -0.14595143105E+03  0.14595143107E+03  0.25500000920E-02 0. -1.
    10030    2    1    2    0    0  0.00000000000E+00  0.00000000000E+00  0.95165714761E+03  0.12435600097E+04  0.80049370467E+03 0.  0.
        2    1    3    3  502    0 -0.30720425829E+03 -0.20626283218E+03  0.23880667475E+03  0.44039464139E+03  0.25500000920E-02 0. -1.
       -2    1    3    3    0  502  0.30720425829E+03  0.20626283218E+03  0.71285047286E+03  0.80316536835E+03  0.25500000920E-02 0.  1.
</event>
<event>
 5   0  0.1095350E-03  0.7973037E+03  0.7818609E-02  0.9563928E-01
       -3   -1    0    0    0  501  0.00000000000E+00  0.00000000000E+00  0.37489563212E+03  0.37489564573E+03  0.10100000352E+00 0. -1.
        3   -1    0    0  501    0  0.00000000000E+00  0.00000000000E+00 -0.42391337914E+03  0.42391339118E+03  0.10100000352E+00 0.  1.
    10030    2    1    2    0    0  0.00000000000E+00  0.00000000000E+00 -0.49017747021E+02  0.79880903690E+03  0.79730366732E+03 0.  0.
        2    1    3    3  502    0  0.21917430254E+03 -0.19178881980E+03 -0.29724142806E+03  0.41614035236E+03  0.25500000920E-02 0.  1.
       -2    1    3    3    0  502 -0.21917430254E+03  0.19178881980E+03  0.24822368104E+03  0.38266868455E+03  0.25500000920E-02 0. -1.
</event>
<event>
 5   0  0.2690809E-03  0.8001542E+03  0.7818609E-02  0.9559794E-01
       -2   -1    0    0    0  501  0.00000000000E+00  0.00000000000E+00  0.12299142779E+03  0.12299142782E+03  0.25500000920E-02 0. -1.
        2   -1    0    0  501    0  0.00000000000E+00  0.00000000000E+00 -0.13014052190E+04  0.13014052190E+04  0.25500000920E-02 0.  1.
    10030    2    1    2    0    0  0.00000000000E+00  0.00000000000E+00 -0.11784137912E+04  0.14243966468E+04  0.80015420025E+03 0.  0.
        5    1    3    3  502    0 -0.11556412284E+03  0.33814414744E+03 -0.26906107189E+03  0.44733933578E+03  0.46999998093E+01 0. -1.
       -5    1    3    3    0  502  0.11556412284E+03 -0.33814414744E+03 -0.90935271931E+03  0.97705731103E+03  0.46999998093E+01 0.  1.
</event>
<event>
 5   0  0.2690809E-03  0.8001812E+03  0.7818609E-02  0.9559755E-01
        2   -1    0    0  501    0  0.00000000000E+00  0.00000000000E+00  0.73165957092E+03  0.73165957092E+03  0.25500000920E-02 0.  1.
       -2   -1    0    0    0  501  0.00000000000E+00  0.00000000000E+00 -0.21877999352E+03  0.21877999354E+03  0.25500000920E-02 0. -1.
    10030    2    1    2    0    0  0.00000000000E+00  0.00000000000E+00  0.51287957740E+03  0.95043956446E+03  0.80018116997E+03 0.  0.
        5    1    3    3  502    0 -0.38445325722E+03 -0.10305790935E+03  0.30432290887E+03  0.50105864180E+03  0.46999998093E+01 0.  1.
       -5    1    3    3    0  502  0.38445325722E+03  0.10305790935E+03  0.20855666853E+03  0.44938092266E+03  0.46999998093E+01 0. -1.
</event>
<event>
 5   0  0.1617491E-03  0.8016327E+03  0.7818609E-02  0.9557657E-01
        1   -1    0    0  501    0  0.00000000000E+00  0.00000000000E+00  0.50926505931E+03  0.50926505934E+03  0.50400001928E-02 0.  1.
       -1   -1    0    0    0  501  0.00000000000E+00  0.00000000000E+00 -0.31546195922E+03  0.31546195926E+03  0.50400001928E-02 0. -1.
    10030    2    1    2    0    0  0.00000000000E+00  0.00000000000E+00  0.19380310009E+03  0.82472701860E+03  0.80163271740E+03 0.  0.
        1    1    3    3  502    0  0.36230493262E+03  0.16922188913E+03  0.12512996799E+03  0.41899692228E+03  0.50400001928E-02 0.  1.
       -1    1    3    3    0  502 -0.36230493262E+03 -0.16922188913E+03  0.68673132093E+02  0.40573009632E+03  0.50400001928E-02 0. -1.
</event>
<event>
 5   0  0.1712793E-03  0.8012764E+03  0.7818609E-02  0.9558171E-01
        1   -1    0    0  501    0  0.00000000000E+00  0.00000000000E+00  0.62364636081E+03  0.62364636083E+03  0.50400001928E-02 0.  1.
       -1   -1    0    0    0  501  0.00000000000E+00  0.00000000000E+00 -0.25737499008E+03  0.25737499013E+03  0.50400001928E-02 0. -1.
    10030    2    1    2    0    0  0.00000000000E+00  0.00000000000E+00  0.36627137073E+03  0.88102135096E+03  0.80127642162E+03 0.  0.
        4    1    3    3  502    0 -0.29195158039E+03  0.24893915085E+03  0.56318579948E+02  0.38778837201E+03  0.12699999809E+01 0.  1.
       -4    1    3    3    0  502  0.29195158039E+03 -0.24893915085E+03  0.30995279078E+03  0.49323297896E+03  0.12699999809E+01 0. -1.
</event>
<event>
 5   0  0.2763587E-03  0.8052543E+03  0.7818609E-02  0.9552443E-01
        2   -1    0    0  501    0  0.00000000000E+00  0.00000000000E+00  0.12041824870E+03  0.12041824873E+03  0.25500000920E-02 0.  1.
       -2   -1    0    0    0  501  0.00000000000E+00  0.00000000000E+00 -0.13462131106E+04  0.13462131106E+04  0.25500000920E-02 0. -1.
    10030    2    1    2    0    0  0.00000000000E+00  0.00000000000E+00 -0.12257948619E+04  0.14666313593E+04  0.80525430809E+03 0.  0.
        3    1    3    3  502    0 -0.45189434380E+02 -0.23915387467E+03 -0.11970636039E+04  0.12215555422E+04  0.10100000352E+00 0. -1.
       -3    1    3    3    0  502  0.45189434380E+02  0.23915387467E+03 -0.28731258015E+02  0.24507581712E+03  0.10100000352E+00 0.  1.
</event>
<event>
 5   0  0.2910501E-03  0.7990031E+03  0.7818609E-02  0.9561461E-01
        2   -1    0    0  501    0  0.00000000000E+00  0.00000000000E+00  0.83218756874E+03  0.83218756875E+03  0.25500000920E-02 0. -1.
       -2   -1    0    0    0  501  0.00000000000E+00  0.00000000000E+00 -0.19178548817E+03  0.19178548818E+03  0.25500000920E-02 0.  1.
    10030    2    1    2    0    0  0.00000000000E+00  0.00000000000E+00  0.64040208058E+03  0.10239730569E+04  0.79900312672E+03 0.  0.
        1    1    3    3  502    0 -0.33165034091E+03  0.20296712133E+03  0.43775538252E+03  0.58550608529E+03  0.50400001928E-02 0. -1.
       -1    1    3    3    0  502  0.33165034091E+03 -0.20296712133E+03  0.20264669806E+03  0.43846697164E+03  0.50400001928E-02 0.  1.
</event>
<event>
 5   0  0.2690809E-03  0.8001121E+03  0.7818609E-02  0.9559855E-01
        2   -1    0    0  501    0  0.00000000000E+00  0.00000000000E+00  0.48463147496E+03  0.48463147497E+03  0.25500000920E-02 0.  1.
       -2   -1    0    0    0  501  0.00000000000E+00  0.00000000000E+00 -0.33024031315E+03  0.33024031316E+03  0.25500000920E-02 0. -1.
    10030    2    1    2    0    0  0.00000000000E+00  0.00000000000E+00  0.15439116182E+03  0.81487178812E+03  0.80011211729E+03 0.  0.
        5    1    3    3  502    0  0.34494639546E+03  0.15079651667E+03  0.21495029819E+03  0.43353584151E+03  0.46999998093E+01 0.  1.
       -5    1    3    3    0  502 -0.34494639546E+03 -0.15079651667E+03 -0.60559136374E+02  0.38133594661E+03  0.46999998093E+01 0. -1.
</event>
<event>
 5   0  0.1095350E-03  0.7983842E+03  0.7818609E-02  0.9562359E-01
        4   -1    0    0  501    0  0.00000000000E+00  0.00000000000E+00  0.82045027252E+03  0.82045125546E+03  0.12699999809E+01 0. -1.
       -4   -1    0    0    0  501  0.00000000000E+00  0.00000000000E+00 -0.19422472395E+03  0.19422887605E+03  0.12699999809E+01 0.  1.
    10030    2    1    2    0    0  0.00000000000E+00  0.00000000000E+00  0.62622554857E+03  0.10146801315E+04  0.79838420049E+03 0.  0.
        4    1    3    3  502    0 -0.22918166222E+03  0.27533234407E+03  0.89270442399E+02  0.36919230596E+03  0.12699999809E+01 0.  1.
       -4    1    3    3    0  502  0.22918166222E+03 -0.27533234407E+03  0.53695510617E+03  0.64548782555E+03  0.12699999809E+01 0. -1.
</event>
<event>
 5   0  0.2763587E-03  0.7912670E+03  0.7818609E-02  0.9572744E-01
       -2   -1    0    0    0  501  0.00000000000E+00  0.00000000000E+00  0.16626414399E+03  0.16626414401E+03  0.25500000920E-02 0.  1.
        2   -1    0    0  501    0  0.00000000000E+00  0.00000000000E+00 -0.94142896580E+03  0.94142896580E+03  0.25500000920E-02 0. -1.
    10030    2    1    2    0    0  0.00000000000E+00  0.00000000000E+00 -0.77516482181E+03  0.11076931098E+04  0.79126703744E+03 0.  0.
        3    1    3    3  502    0 -0.22558086224E+02 -0.36982080556E+03 -0.19335659354E+03  0.41792712038E+03  0.10100000352E+00 0.  1.
       -3    1    3    3    0  502  0.22558086224E+02  0.36982080556E+03 -0.58180822828E+03  0.68976598943E+03  0.10100000352E+00 0. -1.
</event>
<event>
 5   0  0.2768834E-03  0.7974736E+03  0.7818609E-02  0.9563681E-01
       -2   -1    0    0    0  501  0.00000000000E+00  0.00000000000E+00  0.82998334491E+02  0.82998334530E+02  0.25500000920E-02 0. -1.
        2   -1    0    0  501    0  0.00000000000E+00  0.00000000000E+00 -0.19155929500E+04  0.19155929500E+04  0.25500000920E-02 0.  1.
    10030    2    1    2    0    0  0.00000000000E+00  0.00000000000E+00 -0.18325946155E+04  0.19985912845E+04  0.79747357185E+03 0.  0.
        4    1    3    3  502    0 -0.89241028320E+02  0.17819587430E+02  0.56619524647E+02  0.10718620388E+03  0.12699999809E+01 0. -1.
       -4    1    3    3    0  502  0.89241028320E+02 -0.17819587430E+02 -0.18892141401E+04  0.18914050806E+04  0.12699999809E+01 0.  1.
</event>
<event>
 5   0  0.1640035E-03  0.8002710E+03  0.7818609E-02  0.9559625E-01
       -1   -1    0    0    0  501  0.00000000000E+00  0.00000000000E+00  0.77902301561E+03  0.77902301562E+03  0.50400001928E-02 0. -1.
        1   -1    0    0  501    0  0.00000000000E+00  0.00000000000E+00 -0.20552461703E+03  0.20552461709E+03  0.50400001928E-02 0.  1.
    10030    2    1    2    0    0  0.00000000000E+00  0.00000000000E+00  0.57349839858E+03  0.98454763271E+03  0.80027097155E+03 0.  0.
        5    1    3    3  502    0 -0.26076717999E+02 -0.31361338579E+03  0.59073482778E+03  0.66934526048E+03  0.46999998093E+01 0. -1.
       -5    1    3    3    0  502  0.26076717999E+02  0.31361338579E+03 -0.17236429201E+02  0.31520237223E+03  0.46999998093E+01 0.  1.
</event>
<event>
 5   0  0.2763587E-03  0.8010729E+03  0.7818609E-02  0.9558465E-01
        2   -1    0    0  501    0  0.00000000000E+00  0.00000000000E+00  0.67971485253E+03  0.67971485254E+03  0.25500000920E-02 0.  1.
       -2   -1    0    0    0  501  0.00000000000E+00  0.00000000000E+00 -0.23602462046E+03  0.23602462047E+03  0.25500000920E-02 0. -1.
    10030    2    1    2    0    0  0.00000000000E+00  0.00000000000E+00  0.44369023208E+03  0.91573947301E+03  0.80107288082E+03 0.  0.
        3    1    3    3  502    0 -0.26912659173E+03 -0.21405598723E+03  0.45662179386E+03  0.57162274349E+03  0.10100000352E+00 0.  1.
       -3    1    3    3    0  502  0.26912659173E+03  0.21405598723E+03 -0.12931561788E+02  0.34411672952E+03  0.10100000352E+00 0. -1.
</event>
<event>
 5   0  0.2768834E-03  0.8044296E+03  0.7818609E-02  0.9553627E-01
        2   -1    0    0  501    0  0.00000000000E+00  0.00000000000E+00  0.39247949321E+03  0.39247949322E+03  0.25500000920E-02 0.  1.
       -2   -1    0    0    0  501  0.00000000000E+00  0.00000000000E+00 -0.41219160015E+03  0.41219160015E+03  0.25500000920E-02 0. -1.
    10030    2    1    2    0    0  0.00000000000E+00  0.00000000000E+00 -0.19712106932E+02  0.80467109338E+03  0.80442961243E+03 0.  0.
        4    1    3    3  502    0 -0.27151801301E+02  0.39922466260E+03  0.30869629107E+02  0.40133788564E+03  0.12699999809E+01 0.  1.
       -4    1    3    3    0  502  0.27151801301E+02 -0.39922466260E+03 -0.50581736040E+02  0.40333320774E+03  0.12699999809E+01 0. -1.
</event>
<event>
 5   0  0.2910501E-03  0.8006372E+03  0.7818609E-02  0.9559095E-01
        2   -1    0    0  501    0  0.00000000000E+00  0.00000000000E+00  0.32398568960E+03  0.32398568961E+03  0.25500000920E-02 0.  1.
       -2   -1    0    0    0  501  0.00000000000E+00  0.00000000000E+00 -0.49463602825E+03  0.49463602826E+03  0.25500000920E-02 0. -1.
    10030    2    1    2    0    0  0.00000000000E+00  0.00000000000E+00 -0.17065033865E+03  0.81862171787E+03  0.80063723301E+03 0.  0.
        1    1    3    3  502    0 -0.17087876904E+02  0.11905121350E+03  0.30507595617E+03  0.32792762316E+03  0.50400001928E-02 0.  1.
       -1    1    3    3    0  502  0.17087876904E+02 -0.11905121350E+03 -0.47572629482E+03  0.49069409471E+03  0.50400001928E-02 0. -1.
</event>
<event>
 5   0  0.1712793E-03  0.7999139E+03  0.7818609E-02  0.9560142E-01
        1   -1    0    0  501    0  0.00000000000E+00  0.00000000000E+00  0.46787821241E+03  0.46787821243E+03  0.50400001928E-02 0. -1.
       -1   -1    0    0    0  501  0.00000000000E+00  0.00000000000E+00 -0.34189571026E+03  0.34189571030E+03  0.50400001928E-02 0.  1.
    10030    2    1    2    0    0  0.00000000000E+00  0.00000000000E+00  0.12598250215E+03  0.80977392273E+03  0.79991387979E+03 0.  0.
        4    1    3    3  502    0 -0.30357671526E+02 -0.30090653087E+01  0.46669667780E+03  0.46769439238E+03  0.12699999809E+01 0. -1.
       -4    1    3    3    0  502  0.30357671526E+02  0.30090653087E+01 -0.34071417565E+03  0.34207953035E+03  0.12699999809E+01 0.  1.
</event>
<event>
 5   0  0.2763587E-03  0.7998789E+03  0.7818609E-02  0.9560192E-01
       -2   -1    0    0    0  501  0.00000000000E+00  0.00000000000E+00  0.17639231346E+03  0.17639231348E+03  0.25500000920E-02 0.  1.
        2   -1    0    0  501    0  0.00000000000E+00  0.00000000000E+00 -0.90679431744E+03  0.90679431745E+03  0.25500000920E-02 0. -1.
    10030    2    1    2    0    0  0.00000000000E+00  0.00000000000E+00 -0.73040200398E+03  0.10831866309E+04  0.79987885958E+03 0.  0.
        3    1    3    3  502    0 -0.22058753442E+03  0.13769827626E+03 -0.77668681700E+03  0.81906171778E+03  0.10100000352E+00 0. -1.
       -3    1    3    3    0  502  0.22058753442E+03 -0.13769827626E+03  0.46284813024E+02  0.26412491315E+03  0.10100000352E+00 0.  1.
</event>
<event>
 5   0  0.2690809E-03  0.7998819E+03  0.7818609E-02  0.9560188E-01
       -2   -1    0    0    0  501  0.00000000000E+00  0.00000000000E+00  0.31843581393E+03  0.31843581394E+03  0.25500000920E-02 0.  1.
        2   -1    0    0  501    0  0.00000000000E+00  0.00000000000E+00 -0.50230775973E+03  0.50230775974E+03  0.25500000920E-02 0. -1.
    10030    2    1    2    0    0  0.00000000000E+00  0.00000000000E+00 -0.18387194581E+03  0.82074357368E+03  0.79988194209E+03 0.  0.
        5    1    3    3  502    0 -0.38860105174E+03 -0.94431260049E+02 -0.93606320736E+02  0.41074599642E+03  0.46999998093E+01 0. -1.
       -5    1    3    3    0  502  0.38860105174E+03  0.94431260049E+02 -0.90265625073E+02  0.40999757726E+03  0.46999998093E+01 0.  1.
</event>
<event>
 5   0  0.1656051E-03  0.7998799E+03  0.7818609E-02  0.9560191E-01
       -1   -1    0    0    0  501  0.00000000000E+00  0.00000000000E+00  0.11416391571E+03  0.11416391582E+03  0.50400001928E-02 0. -1.
        1   -1    0    0  501    0  0.00000000000E+00  0.00000000000E+00 -0.14010728794E+04  0.14010728794E+04  0.50400001928E-02 0.  1.
    10030    2    1    2    0    0  0.00000000000E+00  0.00000000000E+00 -0.12869089637E+04  0.15152367952E+04  0.79987990649E+03 0.  0.
        3    1    3    3  502    0  0.29998032320E+03  0.23469178798E+03 -0.41234985463E+03  0.56133843844E+03  0.10100000352E+00 0. -1.
       -3    1    3    3    0  502 -0.29998032320E+03 -0.23469178798E+03 -0.87455910904E+03  0.95389835678E+03  0.10100000352E+00 0.  1.
</event>
<event>
 5   0  0.1095350E-03  0.8070619E+03  0.7818609E-02  0.9549851E-01
        3   -1    0    0  501    0  0.00000000000E+00  0.00000000000E+00  0.32724055309E+03  0.32724056868E+03  0.10100000352E+00 0. -1.
       -3   -1    0    0    0  501  0.00000000000E+00  0.00000000000E+00 -0.49760709395E+03  0.49760710420E+03  0.10100000352E+00 0.  1.
    10030    2    1    2    0    0  0.00000000000E+00  0.00000000000E+00 -0.17036654086E+03  0.82484767288E+03  0.80706190915E+03 0.  0.
        4    1    3    3  502    0  0.35372049899E+03 -0.20745498701E+02  0.11217072497E+03  0.37166174348E+03  0.12699999809E+01 0. -1.
       -4    1    3    3    0  502 -0.35372049899E+03  0.20745498701E+02 -0.28253726583E+03  0.45318592940E+03  0.12699999809E+01 0.  1.
</event>
<event>
 5   0  0.1712793E-03  0.7986945E+03  0.7818609E-02  0.9561909E-01
        1   -1    0    0  501    0  0.00000000000E+00  0.00000000000E+00  0.86418415440E+03  0.86418415441E+03  0.50400001928E-02 0. -1.
       -1   -1    0    0    0  501  0.00000000000E+00  0.00000000000E+00 -0.18454193816E+03  0.18454193823E+03  0.50400001928E-02 0.  1.
    10030    2    1    2    0    0  0.00000000000E+00  0.00000000000E+00  0.67964221624E+03  0.10487260926E+04  0.79869448183E+03 0.  0.
        4    1    3    3  502    0  0.48709648857E+02  0.24923811559E+03 -0.64854836561E+02  0.26210690735E+03  0.12699999809E+01 0.  1.
       -4    1    3    3    0  502 -0.48709648857E+02 -0.24923811559E+03  0.74449705280E+03  0.78661918530E+03  0.12699999809E+01 0. -1.
</event>
<event>
 5   0  0.2768834E-03  0.7994488E+03  0.7818609E-02  0.9560815E-01
        2   -1    0    0  501    0  0.00000000000E+00  0.00000000000E+00  0.91068249858E+03  0.91068249858E+03  0.25500000920E-02 0. -1.
       -2   -1    0    0    0  501  0.00000000000E+00  0.00000000000E+00 -0.17545040556E+03  0.17545040558E+03  0.25500000920E-02 0.  1.
    10030    2    1    2    0    0  0.00000000000E+00  0.00000000000E+00  0.73523209302E+03  0.10861329042E+04  0.79944884445E+03 0.  0.
        4    1    3    3  502    0 -0.13242599216E+03 -0.28052093437E+02  0.87859213754E+03  0.88895968435E+03  0.12699999809E+01 0. -1.
       -4    1    3    3    0  502  0.13242599216E+03  0.28052093437E+02 -0.14336004452E+03  0.19717321981E+03  0.12699999809E+01 0.  1.
</event>
<event>
 5   0  0.1656051E-03  0.8008778E+03  0.7818609E-02  0.9558747E-01
       -1   -1    0    0    0  501  0.00000000000E+00  0.00000000000E+00  0.28600284080E+03  0.28600284085E+03  0.50400001928E-02 0. -1.
        1   -1    0    0  501    0  0.00000000000E+00  0.00000000000E+00 -0.56066332403E+03  0.56066332405E+03  0.50400001928E-02 0.  1.
    10030    2    1    2    0    0  0.00000000000E+00  0.00000000000E+00 -0.27466048323E+03  0.84666616490E+03  0.80087777703E+03 0.  0.
        3    1    3    3  502    0 -0.29013762950E+03 -0.27533334042E+03 -0.11718837230E+03  0.41679901296E+03  0.10100000352E+00 0. -1.
       -3    1    3    3    0  502  0.29013762950E+03  0.27533334042E+03 -0.15747211093E+03  0.42986715194E+03  0.10100000352E+00 0.  1.
</event>
<event>
 5   0  0.2690809E-03  0.8008272E+03  0.7818609E-02  0.9558821E-01
       -2   -1    0    0    0  501  0.00000000000E+00  0.00000000000E+00  0.74526035975E+03  0.74526035975E+03  0.25500000920E-02 0.  1.
        2   -1    0    0  501    0  0.00000000000E+00  0.00000000000E+00 -0.21513428121E+03  0.21513428123E+03  0.25500000920E-02 0. -1.
    10030    2    1    2    0    0  0.00000000000E+00  0.00000000000E+00  0.53012607853E+03  0.96039464098E+03  0.80082720189E+03 0.  0.
        5    1    3    3  502    0  0.32510185855E+03 -0.19258812234E+03  0.10629187682E+03  0.39255758351E+03  0.46999998093E+01 0.  1.
       -5    1    3    3    0  502 -0.32510185855E+03  0.19258812234E+03  0.42383420171E+03  0.56783705747E+03  0.46999998093E+01 0. -1.
</event>
<event>
 5   0  0.2873212E-03  0.7975552E+03  0.7818609E-02  0.9563563E-01
       -2   -1    0    0    0  501  0.00000000000E+00  0.00000000000E+00  0.97945170563E+02  0.97945170596E+02  0.25500000920E-02 0.  1.
        2   -1    0    0  501    0  0.00000000000E+00  0.00000000000E+00 -0.16235978145E+04  0.16235978145E+04  0.25500000920E-02 0. -1.
    10030    2    1    2    0    0  0.00000000000E+00  0.00000000000E+00 -0.15256526440E+04  0.17215429851E+04  0.79755517652E+03 0.  0.
        2    1    3    3  502    0 -0.25868597274E+03  0.56079901154E+02 -0.11902042211E+03  0.29022275702E+03  0.25500000920E-02 0.  1.
       -2    1    3    3    0  502  0.25868597274E+03 -0.56079901154E+02 -0.14066322218E+04  0.14313202281E+04  0.25500000920E-02 0. -1.
</event>
<event>
 5   0  0.2690809E-03  0.7990342E+03  0.7818609E-02  0.9561416E-01
       -2   -1    0    0    0  501  0.00000000000E+00  0.00000000000E+00  0.45952290193E+03  0.45952290194E+03  0.25500000920E-02 0. -1.
        2   -1    0    0  501    0  0.00000000000E+00  0.00000000000E+00 -0.34734705954E+03  0.34734705955E+03  0.25500000920E-02 0.  1.
    10030    2    1    2    0    0  0.00000000000E+00  0.00000000000E+00  0.11217584239E+03  0.80686996149E+03  0.79903423902E+03 0.  0.
        5    1    3    3  502    0  0.29705720113E+03 -0.16365011628E+03 -0.15709248360E+03  0.37379737787E+03  0.46999998093E+01 0.  1.
       -5    1    3    3    0  502 -0.29705720113E+03  0.16365011628E+03  0.26926832599E+03  0.43307258362E+03  0.46999998093E+01 0. -1.
</event>
<event>
 5   0  0.1656051E-03  0.7946782E+03  0.7818609E-02  0.9567752E-01
       -1   -1    0    0    0  501  0.00000000000E+00  0.00000000000E+00  0.11192160627E+03  0.11192160639E+03  0.50400001928E-02 0.  1.
        1   -1    0    0  501    0  0.00000000000E+00  0.00000000000E+00 -0.14106155562E+04  0.14106155562E+04  0.50400001928E-02 0. -1.
    10030    2    1    2    0    0  0.00000000000E+00  0.00000000000E+00 -0.12986939499E+04  0.15225371626E+04  0.79467819643E+03 0.  0.
        3    1    3    3  502    0  0.13793914698E+03 -0.14719441685E+03  0.65150915382E+01  0.20183126924E+03  0.10100000352E+00 0.  1.
       -3    1    3    3    0  502 -0.13793914698E+03  0.14719441685E+03 -0.13052090414E+04  0.13207058933E+04  0.10100000352E+00 0. -1.
</event>
<event>
 5   0  0.1637228E-03  0.7996584E+03  0.7818609E-02  0.9560512E-01
        1   -1    0    0  501    0  0.00000000000E+00  0.00000000000E+00  0.61683374299E+03  0.61683374301E+03  0.50400001928E-02 0.  1.
       -1   -1    0    0    0  501  0.00000000000E+00  0.00000000000E+00 -0.25916771018E+03  0.25916771023E+03  0.50400001928E-02 0. -1.
    10030    2    1    2    0    0  0.00000000000E+00  0.00000000000E+00  0.35766603281E+03  0.87600145324E+03  0.79965839898E+03 0.  0.
        2    1    3    3  502    0 -0.17401826967E+02 -0.37964841791E+03  0.31489917603E+03  0.49355570696E+03  0.25500000920E-02 0.  1.
       -2    1    3    3    0  502  0.17401826967E+02  0.37964841791E+03  0.42766856785E+02  0.38244574628E+03  0.25500000920E-02 0. -1.
</event>
<event>
 5   0  0.2763587E-03  0.8199073E+03  0.7818609E-02  0.9531641E-01
        2   -1    0    0  501    0  0.00000000000E+00  0.00000000000E+00  0.87754137846E+02  0.87754137884E+02  0.25500000920E-02 0.  1.
       -2   -1    0    0    0  501  0.00000000000E+00  0.00000000000E+00 -0.19151459434E+04  0.19151459434E+04  0.25500000920E-02 0. -1.
    10030    2    1    2    0    0  0.00000000000E+00  0.00000000000E+00 -0.18273918055E+04  0.20029000812E+04  0.81990726585E+03 0.  0.
        3    1    3    3  502    0 -0.13594936237E+02 -0.34549849136E+03 -0.37567274388E+03  0.51057227747E+03  0.10100000352E+00 0.  1.
       -3    1    3    3    0  502  0.13594936237E+02  0.34549849136E+03 -0.14517190616E+04  0.14923278038E+04  0.10100000352E+00 0. -1.
</event>
<event>
 5   0  0.1637228E-03  0.7998694E+03  0.7818609E-02  0.9560206E-01
       -1   -1    0    0    0  501  0.00000000000E+00  0.00000000000E+00  0.32706116164E+03  0.32706116168E+03  0.50400001928E-02 0.  1.
        1   -1    0    0  501    0  0.00000000000E+00  0.00000000000E+00 -0.48904547690E+03  0.48904547693E+03  0.50400001928E-02 0. -1.
    10030    2    1    2    0    0  0.00000000000E+00  0.00000000000E+00 -0.16198431526E+03  0.81610663861E+03  0.79986944384E+03 0.  0.
        2    1    3    3  502    0  0.74164845897E+02 -0.14121743761E+03  0.29320200379E+03  0.33378167128E+03  0.25500000920E-02 0.  1.
       -2    1    3    3    0  502 -0.74164845897E+02  0.14121743761E+03 -0.45518631905E+03  0.48232496733E+03  0.25500000920E-02 0. -1.
</event>
<event>
 5   0  0.2768834E-03  0.8002380E+03  0.7818609E-02  0.9559673E-01
        2   -1    0    0  501    0  0.00000000000E+00  0.00000000000E+00  0.40823043583E+03  0.40823043584E+03  0.25500000920E-02 0. -1.
       -2   -1    0    0    0  501  0.00000000000E+00  0.00000000000E+00 -0.39216876969E+03  0.39216876969E+03  0.25500000920E-02 0.  1.
    10030    2    1    2    0    0  0.00000000000E+00  0.00000000000E+00  0.16061666145E+02  0.80039920553E+03  0.80023803403E+03 0.  0.
        4    1    3    3  502    0  0.23252393667E+03  0.26397772167E+02 -0.31657943058E+03  0.39368562618E+03  0.12699999809E+01 0.  1.
       -4    1    3    3    0  502 -0.23252393667E+03 -0.26397772167E+02  0.33264109672E+03  0.40671357935E+03  0.12699999809E+01 0. -1.
</event>
<event>
 5   0  0.1712793E-03  0.8012835E+03  0.7818609E-02  0.9558161E-01
        1   -1    0    0  501    0  0.00000000000E+00  0.00000000000E+00  0.10027944999E+04  0.10027944999E+04  0.50400001928E-02 0. -1.
       -1   -1    0    0    0  501  0.00000000000E+00  0.00000000000E+00 -0.16006650482E+03  0.16006650490E+03  0.50400001928E-02 0.  1.
    10030    2    1    2    0    0  0.00000000000E+00  0.00000000000E+00  0.84272799505E+03  0.11628610048E+04  0.80128349714E+03 0.  0.
        4    1    3    3  502    0 -0.33831671962E+03  0.71639009474E+02  0.71493910217E+03  0.79418504341E+03  0.12699999809E+01 0. -1.
       -4    1    3    3    0  502  0.33831671962E+03 -0.71639009474E+02  0.12778889288E+03  0.36867596138E+03  0.12699999809E+01 0.  1.
</event>
<event>
 5   0  0.1617491E-03  0.7999275E+03  0.7818609E-02  0.9560122E-01
       -1   -1    0    0    0  501  0.00000000000E+00  0.00000000000E+00  0.22897412565E+03  0.22897412570E+03  0.50400001928E-02 0.  1.
        1   -1    0    0  501    0  0.00000000000E+00  0.00000000000E+00 -0.69864226223E+03  0.69864226225E+03  0.50400001928E-02 0. -1.
    10030    2    1    2    0    0  0.00000000000E+00  0.00000000000E+00 -0.46966813658E+03  0.92761638795E+03  0.79992749963E+03 0.  0.
        1    1    3    3  502    0 -0.37935659846E+03 -0.69430855083E+02 -0.11189773838E+03  0.40156341506E+03  0.50400001928E-02 0.  1.
       -1    1    3    3    0  502  0.37935659846E+03  0.69430855083E+02 -0.35777039821E+03  0.52605297289E+03  0.50400001928E-02 0. -1.
</event>
<event>
 5   0  0.1640035E-03  0.8005395E+03  0.7818609E-02  0.9559237E-01
       -1   -1    0    0    0  501  0.00000000000E+00  0.00000000000E+00  0.84437147833E+02  0.84437147984E+02  0.50400001928E-02 0.  1.
        1   -1    0    0  501    0  0.00000000000E+00  0.00000000000E+00 -0.18974570823E+04  0.18974570823E+04  0.50400001928E-02 0. -1.
    10030    2    1    2    0    0  0.00000000000E+00  0.00000000000E+00 -0.18130199345E+04  0.19818942303E+04  0.80053947891E+03 0.  0.
        5    1    3    3  502    0  0.11536834471E+03 -0.74609544565E+01 -0.18551523758E+04  0.18587570977E+04  0.46999998093E+01 0. -1.
       -5    1    3    3    0  502 -0.11536834471E+03  0.74609544565E+01  0.42132441362E+02  0.12313713256E+03  0.46999998093E+01 0.  1.
</event>
<event>
 5   0  0.1656051E-03  0.7998264E+03  0.7818609E-02  0.9560268E-01
        1   -1    0    0  501    0  0.00000000000E+00  0.00000000000E+00  0.42485868188E+03  0.42485868191E+03  0.50400001928E-02 0.  1.
       -1   -1    0    0    0  501  0.00000000000E+00  0.00000000000E+00 -0.37643240996E+03  0.37643241000E+03  0.50400001928E-02 0. -1.
    10030    2    1    2    0    0  0.00000000000E+00  0.00000000000E+00  0.48426271920E+02  0.80129109191E+03  0.79982642502E+03 0.  0.
        3    1    3    3  502    0 -0.22066220125E+03 -0.16136720135E+03 -0.26821072049E+03  0.38297282086E+03  0.10100000352E+00 0. -1.
       -3    1    3    3    0  502  0.22066220125E+03  0.16136720135E+03  0.31663699241E+03  0.41831827105E+03  0.10100000352E+00 0.  1.
</event>
<event>
 5   0  0.2873212E-03  0.7993634E+03  0.7818609E-02  0.9560939E-01
        2   -1    0    0  501    0  0.00000000000E+00  0.00000000000E+00  0.13087810141E+04  0.13087810141E+04  0.25500000920E-02 0. -1.
       -2   -1    0    0    0  501  0.00000000000E+00  0.00000000000E+00 -0.12205667532E+03  0.12205667534E+03  0.25500000920E-02 0.  1.
    10030    2    1    2    0    0  0.00000000000E+00  0.00000000000E+00  0.11867243387E+04  0.14308376894E+04  0.79936339500E+03 0.  0.
        2    1    3    3  502    0  0.21515874642E+03  0.33023100512E+03  0.47463352879E+03  0.61694634253E+03  0.25500000920E-02 0. -1.
       -2    1    3    3    0  502 -0.21515874642E+03 -0.33023100512E+03  0.71209080995E+03  0.81389134688E+03  0.25500000920E-02 0.  1.
</event>
<event>
 5   0  0.1712793E-03  0.7999446E+03  0.7818609E-02  0.9560097E-01
        1   -1    0    0  501    0  0.00000000000E+00  0.00000000000E+00  0.67686532275E+03  0.67686532277E+03  0.50400001928E-02 0.  1.
       -1   -1    0    0    0  501  0.00000000000E+00  0.00000000000E+00 -0.23635109482E+03  0.23635109487E+03  0.50400001928E-02 0. -1.
    10030    2    1    2    0    0  0.00000000000E+00  0.00000000000E+00  0.44051422793E+03  0.91321641764E+03  0.79994464836E+03 0.  0.
        4    1    3    3  502    0  0.15372876914E+03  0.61461698347E+02 -0.19539513218E+03  0.25610729276E+03  0.12699999809E+01 0. -1.
       -4    1    3    3    0  502 -0.15372876914E+03 -0.61461698347E+02  0.63590936011E+03  0.65710912488E+03  0.12699999809E+01 0.  1.
</event>
<event>
 5   0  0.2690809E-03  0.7999226E+03  0.7818609E-02  0.9560129E-01
        2   -1    0    0  501    0  0.00000000000E+00  0.00000000000E+00  0.56592123626E+03  0.56592123627E+03  0.25500000920E-02 0.  1.
       -2   -1    0    0    0  501  0.00000000000E+00  0.00000000000E+00 -0.28267016535E+03  0.28267016536E+03  0.25500000920E-02 0. -1.
    10030    2    1    2    0    0  0.00000000000E+00  0.00000000000E+00  0.28325107091E+03  0.84859140163E+03  0.79992261985E+03 0.  0.
        5    1    3    3  502    0 -0.32217403897E+03 -0.30507080456E+01  0.39298359482E+03  0.50819643250E+03  0.46999998093E+01 0.  1.
       -5    1    3    3    0  502  0.32217403897E+03  0.30507080456E+01 -0.10973252391E+03  0.34039496913E+03  0.46999998093E+01 0. -1.
</event>
<event>
 5   0  0.1095350E-03  0.8016909E+03  0.7818609E-02  0.9557573E-01
        3   -1    0    0  501    0  0.00000000000E+00  0.00000000000E+00  0.17929860030E+03  0.17929862875E+03  0.10100000352E+00 0. -1.
       -3   -1    0    0    0  501  0.00000000000E+00  0.00000000000E+00 -0.89614217048E+03  0.89614217618E+03  0.10100000352E+00 0.  1.
    10030    2    1    2    0    0  0.00000000000E+00  0.00000000000E+00 -0.71684357019E+03  0.10754408049E+04  0.80169085112E+03 0.  0.
        1    1    3    3  502    0  0.21703129328E+03  0.14652942635E+02  0.93235531656E+02  0.23666464750E+03  0.50400001928E-02 0. -1.
       -1    1    3    3    0  502 -0.21703129328E+03 -0.14652942635E+02 -0.81007910184E+03  0.83877615742E+03  0.50400001928E-02 0.  1.
</event>
<event>
 5   0  0.2768834E-03  0.8022866E+03  0.7818609E-02  0.9556713E-01
       -2   -1    0    0    0  501  0.00000000000E+00  0.00000000000E+00  0.36116880761E+03  0.36116880762E+03  0.25500000920E-02 0.  1.
        2   -1    0    0  501    0  0.00000000000E+00  0.00000000000E+00 -0.44554220991E+03  0.44554220991E+03  0.25500000920E-02 0. -1.
    10030    2    1    2    0    0  0.00000000000E+00  0.00000000000E+00 -0.84373402298E+02  0.80671101753E+03  0.80228660390E+03 0.  0.
        4    1    3    3  502    0  0.10594959215E+03  0.22791432834E+03  0.27217792869E+03  0.37047630815E+03  0.12699999809E+01 0.  1.
       -4    1    3    3    0  502 -0.10594959215E+03 -0.22791432834E+03 -0.35655133099E+03  0.43623470938E+03  0.12699999809E+01 0. -1.
</event>
<event>
 5   0  0.1617491E-03  0.8018177E+03  0.7818609E-02  0.9557390E-01
        1   -1    0    0  501    0  0.00000000000E+00  0.00000000000E+00  0.10336109336E+04  0.10336109336E+04  0.50400001928E-02 0.  1.
       -1   -1    0    0    0  501  0.00000000000E+00  0.00000000000E+00 -0.15550135165E+03  0.15550135173E+03  0.50400001928E-02 0. -1.
    10030    2    1    2    0    0  0.00000000000E+00  0.00000000000E+00  0.87810958195E+03  0.11891122854E+04  0.80181767831E+03 0.  0.
        1    1    3    3  502    0  0.29672263202E+03  0.21653693529E+03  0.20086792796E+03  0.41866512776E+03  0.50400001928E-02 0.  1.
       -1    1    3    3    0  502 -0.29672263202E+03 -0.21653693529E+03  0.67724165400E+03  0.77044715759E+03  0.50400001928E-02 0. -1.
</event>
<event>
 5   0  0.2690809E-03  0.8006382E+03  0.7818609E-02  0.9559094E-01
       -2   -1    0    0    0  501  0.00000000000E+00  0.00000000000E+00  0.62837438483E+03  0.62837438483E+03  0.25500000920E-02 0.  1.
        2   -1    0    0  501    0  0.00000000000E+00  0.00000000000E+00 -0.25503166192E+03  0.25503166193E+03  0.25500000920E-02 0. -1.
    10030    2    1    2    0    0  0.00000000000E+00  0.00000000000E+00  0.37334272291E+03  0.88340604676E+03  0.80063815467E+03 0.  0.
        5    1    3    3  502    0  0.12317677039E+03 -0.36816958276E+03  0.29428270927E+03  0.48718144608E+03  0.46999998093E+01 0.  1.
       -5    1    3    3    0  502 -0.12317677039E+03  0.36816958276E+03  0.79060013643E+02  0.39622460068E+03  0.46999998093E+01 0. -1.
</event>
<event>
 5   0  0.1095350E-03  0.7785262E+03  0.7818609E-02  0.9591630E-01
       -3   -1    0    0    0  501  0.00000000000E+00  0.00000000000E+00  0.31383537665E+03  0.31383539290E+03  0.10100000352E+00 0. -1.
        3   -1    0    0  501    0  0.00000000000E+00  0.00000000000E+00 -0.48281922385E+03  0.48281923442E+03  0.10100000352E+00 0.  1.
    10030    2    1    2    0    0  0.00000000000E+00  0.00000000000E+00 -0.16898384720E+03  0.79665462732E+03  0.77852620676E+03 0.  0.
        4    1    3    3  502    0  0.27731668596E+03 -0.22296584124E+03  0.76998749357E+02  0.36407242545E+03  0.12699999809E+01 0. -1.
       -4    1    3    3    0  502 -0.27731668596E+03  0.22296584124E+03 -0.24598259656E+03  0.43258220187E+03  0.12699999809E+01 0.  1.
</event>
<event>
 5   0  0.2910501E-03  0.8001489E+03  0.7818609E-02  0.9559802E-01
       -2   -1    0    0    0  501  0.00000000000E+00  0.00000000000E+00  0.13112477273E+03  0.13112477275E+03  0.25500000920E-02 0.  1.
        2   -1    0    0  501    0  0.00000000000E+00  0.00000000000E+00 -0.12206659527E+04  0.12206659527E+04  0.25500000920E-02 0. -1.
    10030    2    1    2    0    0  0.00000000000E+00  0.00000000000E+00 -0.10895411799E+04  0.13517907254E+04  0.80014885025E+03 0.  0.
        1    1    3    3  502    0  0.37113823629E+03 -0.52417345157E+02 -0.78109908070E+03  0.86637575128E+03  0.50400001928E-02 0. -1.
       -1    1    3    3    0  502 -0.37113823629E+03  0.52417345157E+02 -0.30844209923E+03  0.48541497413E+03  0.50400001928E-02 0.  1.
</event>
<event>
 5   0  0.2763587E-03  0.7861725E+03  0.7818609E-02  0.9580250E-01
        2   -1    0    0  501    0  0.00000000000E+00  0.00000000000E+00  0.45631699459E+03  0.45631699460E+03  0.25500000920E-02 0. -1.
       -2   -1    0    0    0  501  0.00000000000E+00  0.00000000000E+00 -0.33861726587E+03  0.33861726588E+03  0.25500000920E-02 0.  1.
    10030    2    1    2    0    0  0.00000000000E+00  0.00000000000E+00  0.11769972872E+03  0.79493426048E+03  0.78617253344E+03 0.  0.
        3    1    3    3  502    0  0.34114430717E+03  0.95900466228E+02 -0.11316504922E+03  0.37199822083E+03  0.10100000352E+00 0.  1.
       -3    1    3    3    0  502 -0.34114430717E+03 -0.95900466228E+02  0.23086477795E+03  0.42293603965E+03  0.10100000352E+00 0. -1.
</event>
<event>
 5   0  0.1617491E-03  0.8009048E+03  0.7818609E-02  0.9558708E-01
        1   -1    0    0  501    0  0.00000000000E+00  0.00000000000E+00  0.41914453816E+03  0.41914453819E+03  0.50400001928E-02 0. -1.
       -1   -1    0    0    0  501  0.00000000000E+00  0.00000000000E+00 -0.38259381841E+03  0.38259381845E+03  0.50400001928E-02 0.  1.
    10030    2    1    2    0    0  0.00000000000E+00  0.00000000000E+00  0.36550719744E+02  0.80173835664E+03  0.80090476175E+03 0.  0.
        1    1    3    3  502    0 -0.85056371535E+02  0.35779203982E+02  0.40835692383E+03  0.41865273801E+03  0.50400001928E-02 0. -1.
       -1    1    3    3    0  502  0.85056371535E+02 -0.35779203982E+02 -0.37180620409E+03  0.38308561863E+03  0.50400001928E-02 0.  1.
</event>
<event>
 5   0  0.1095350E-03  0.7994969E+03  0.7818609E-02  0.9560746E-01
       -4   -1    0    0    0  501  0.00000000000E+00  0.00000000000E+00  0.42875443417E+03  0.42875631508E+03  0.12699999809E+01 0.  1.
        4   -1    0    0  501    0  0.00000000000E+00  0.00000000000E+00 -0.37270099907E+03  0.37270316286E+03  0.12699999809E+01 0. -1.
    10030    2    1    2    0    0  0.00000000000E+00  0.00000000000E+00  0.56053435103E+02  0.80145947795E+03  0.79949690882E+03 0.  0.
        5    1    3    3  502    0  0.23449931238E+03  0.33217085695E+02  0.35081626846E+03  0.42330538209E+03  0.46999998093E+01 0.  1.
       -5    1    3    3    0  502 -0.23449931238E+03 -0.33217085695E+02 -0.29476283336E+03  0.37815409586E+03  0.46999998093E+01 0. -1.
</event>
<event>
 5   0  0.2910501E-03  0.8053733E+03  0.7818609E-02  0.9552272E-01
       -2   -1    0    0    0  501  0.00000000000E+00  0.00000000000E+00  0.22207931189E+03  0.22207931190E+03  0.25500000920E-02 0. -1.
        2   -1    0    0  501    0  0.00000000000E+00  0.00000000000E+00 -0.73017391577E+03  0.73017391578E+03  0.25500000920E-02 0.  1.
    10030    2    1    2    0    0  0.00000000000E+00  0.00000000000E+00 -0.50809460389E+03  0.95225322768E+03  0.80537325702E+03 0.  0.
        1    1    3    3  502    0  0.15436368534E+03 -0.13588382492E+03  0.15530718858E+03  0.25770697328E+03  0.50400001928E-02 0. -1.
       -1    1    3    3    0  502 -0.15436368534E+03  0.13588382492E+03 -0.66340179247E+03  0.69454625440E+03  0.50400001928E-02 0.  1.
</event>
<event>
 5   0  0.2763587E-03  0.8006679E+03  0.7818609E-02  0.9559051E-01
       -2   -1    0    0    0  501  0.00000000000E+00  0.00000000000E+00  0.95447752422E+02  0.95447752456E+02  0.25500000920E-02 0.  1.
        2   -1    0    0  501    0  0.00000000000E+00  0.00000000000E+00 -0.16791100290E+04  0.16791100290E+04  0.25500000920E-02 0. -1.
    10030    2    1    2    0    0  0.00000000000E+00  0.00000000000E+00 -0.15836622766E+04  0.17745577815E+04  0.80066791711E+03 0.  0.
        3    1    3    3  502    0 -0.28051988494E+03  0.21273780734E+03 -0.12142094367E+04  0.12642204503E+04  0.10100000352E+00 0. -1.
       -3    1    3    3    0  502  0.28051988494E+03 -0.21273780734E+03 -0.36945283991E+03  0.51033733122E+03  0.10100000352E+00 0.  1.
</event>
<event>
 5   0  0.1640035E-03  0.7993670E+03  0.7818609E-02  0.9560934E-01
        1   -1    0    0  501    0  0.00000000000E+00  0.00000000000E+00  0.67484472304E+03  0.67484472306E+03  0.50400001928E-02 0. -1.
       -1   -1    0    0    0  501  0.00000000000E+00  0.00000000000E+00 -0.23671654987E+03  0.23671654992E+03  0.50400001928E-02 0.  1.
    10030    2    1    2    0    0  0.00000000000E+00  0.00000000000E+00  0.43812817317E+03  0.91156127298E+03  0.79936703601E+03 0.  0.
        5    1    3    3  502    0 -0.27366810317E+03  0.11109716251E+03 -0.87960201422E+02  0.30821404452E+03  0.46999998093E+01 0.  1.
       -5    1    3    3    0  502  0.27366810317E+03 -0.11109716251E+03  0.52608837459E+03  0.60334722846E+03  0.46999998093E+01 0. -1.
</event>
<event>
 5   0  0.2763587E-03  0.7991295E+03  0.7818609E-02  0.9561278E-01
        2   -1    0    0  501    0  0.00000000000E+00  0.00000000000E+00  0.90850291584E+03  0.90850291585E+03  0.25500000920E-02 0. -1.
       -2   -1    0    0    0  501  0.00000000000E+00  0.00000000000E+00 -0.17573083863E+03  0.17573083864E+03  0.25500000920E-02 0.  1.
    10030    2    1    2    0    0  0.00000000000E+00  0.00000000000E+00  0.73277207722E+03  0.10842337545E+04  0.79912947463E+03 0.  0.
        3    1    3    3  502    0  0.66302629725E+02 -0.18585948361E+03 -0.10500500417E+03  0.22353041730E+03  0.10100000352E+00 0.  1.
       -3    1    3    3    0  502 -0.66302629725E+02  0.18585948361E+03  0.83777708139E+03  0.86070333719E+03  0.10100000352E+00 0. -1.
</event>
<event>
 5   0  0.1637228E-03  0.8023146E+03  0.7818609E-02  0.9556673E-01
        1   -1    0    0  501    0  0.00000000000E+00  0.00000000000E+00  0.72643302322E+03  0.72643302324E+03  0.50400001928E-02 0. -1.
       -1   -1    0    0    0  501  0.00000000000E+00  0.00000000000E+00 -0.22153063330E+03  0.22153063336E+03  0.50400001928E-02 0.  1.
    10030    2    1    2    0    0  0.00000000000E+00  0.00000000000E+00  0.50490238992E+03  0.94796365660E+03  0.80231457103E+03 0.  0.
        2    1    3    3  502    0 -0.22053619583E+03  0.14198545282E+03 -0.10618168298E+03  0.28296754635E+03  0.25500000920E-02 0.  1.
       -2    1    3    3    0  502  0.22053619583E+03 -0.14198545282E+03  0.61108407290E+03  0.66499611024E+03  0.25500000920E-02 0. -1.
</event>
<event>
 5   0  0.1712793E-03  0.8051689E+03  0.7818609E-02  0.9552565E-01
        1   -1    0    0  501    0  0.00000000000E+00  0.00000000000E+00  0.46593449114E+03  0.46593449116E+03  0.50400001928E-02 0. -1.
       -1   -1    0    0    0  501  0.00000000000E+00  0.00000000000E+00 -0.34784770795E+03  0.34784770799E+03  0.50400001928E-02 0.  1.
    10030    2    1    2    0    0  0.00000000000E+00  0.00000000000E+00  0.11808678318E+03  0.81378219915E+03  0.80516891352E+03 0.  0.
        4    1    3    3  502    0  0.99502461067E+01 -0.27141587494E+03 -0.24130054497E+03  0.36330861601E+03  0.12699999809E+01 0.  1.
       -4    1    3    3    0  502 -0.99502461067E+01  0.27141587494E+03  0.35938732815E+03  0.45047358314E+03  0.12699999809E+01 0. -1.
</event>
<event>
 5   0  0.2763587E-03  0.7999290E+03  0.7818609E-02  0.9560120E-01
       -2   -1    0    0    0  501  0.00000000000E+00  0.00000000000E+00  0.63148944932E+03  0.63148944932E+03  0.25500000920E-02 0. -1.
        2   -1    0    0  501    0  0.00000000000E+00  0.00000000000E+00 -0.25332427688E+03  0.25332427689E+03  0.25500000920E-02 0.  1.
    10030    2    1    2    0    0  0.00000000000E+00  0.00000000000E+00  0.37816517244E+03  0.88481372621E+03  0.79992901713E+03 0.  0.
        3    1    3    3  502    0 -0.22868909288E+03  0.26762611744E+03 -0.20931276489E+02  0.35264793843E+03  0.10100000352E+00 0.  1.
       -3    1    3    3    0  502  0.22868909288E+03 -0.26762611744E+03  0.39909644893E+03  0.53216578778E+03  0.10100000352E+00 0. -1.
</event>
<event>
 5   0  0.1656051E-03  0.7997057E+03  0.7818609E-02  0.9560443E-01
        1   -1    0    0  501    0  0.00000000000E+00  0.00000000000E+00  0.11826826991E+04  0.11826826992E+04  0.50400001928E-02 0.  1.
       -1   -1    0    0    0  501  0.00000000000E+00  0.00000000000E+00 -0.13518613187E+03  0.13518613197E+03  0.50400001928E-02 0. -1.
    10030    2    1    2    0    0  0.00000000000E+00  0.00000000000E+00  0.10474965673E+04  0.13178688311E+04  0.79970569437E+03 0.  0.
        3    1    3    3  502    0 -0.93966403394E+02 -0.23096614416E+03  0.86318788549E+01  0.24949862574E+03  0.10100000352E+00 0. -1.
       -3    1    3    3    0  502  0.93966403394E+02  0.23096614416E+03  0.10388646884E+04  0.10683702054E+04  0.10100000352E+00 0.  1.
</event>
<event>
 5   0  0.1617491E-03  0.7988777E+03  0.7818609E-02  0.9561643E-01
        1   -1    0    0  501    0  0.00000000000E+00  0.00000000000E+00  0.10626692462E+04  0.10626692462E+04  0.50400001928E-02 0.  1.
       -1   -1    0    0    0  501  0.00000000000E+00  0.00000000000E+00 -0.15014211410E+03  0.15014211419E+03  0.50400001928E-02 0. -1.
    10030    2    1    2    0    0  0.00000000000E+00  0.00000000000E+00  0.91252713205E+03  0.12128113604E+04  0.79887773099E+03 0.  0.
        1    1    3    3  502    0  0.90058562084E+02 -0.11519349936E+03 -0.10805182455E+03  0.18181112098E+03  0.50400001928E-02 0. -1.
       -1    1    3    3    0  502 -0.90058562084E+02  0.11519349936E+03  0.10205789566E+04  0.10310002394E+04  0.50400001928E-02 0.  1.
</event>
<event>
 5   0  0.1712793E-03  0.7970717E+03  0.7818609E-02  0.9564265E-01
       -1   -1    0    0    0  501  0.00000000000E+00  0.00000000000E+00  0.25088311703E+03  0.25088311708E+03  0.50400001928E-02 0.  1.
        1   -1    0    0  501    0  0.00000000000E+00  0.00000000000E+00 -0.63308690737E+03  0.63308690739E+03  0.50400001928E-02 0. -1.
    10030    2    1    2    0    0  0.00000000000E+00  0.00000000000E+00 -0.38220379034E+03  0.88397002447E+03  0.79707168235E+03 0.  0.
        4    1    3    3  502    0 -0.23516976231E+03 -0.19283984398E+02  0.16508674780E+03  0.28797905542E+03  0.12699999809E+01 0.  1.
       -4    1    3    3    0  502  0.23516976231E+03  0.19283984398E+02 -0.54729053814E+03  0.59599096905E+03  0.12699999809E+01 0. -1.
</event>
<event>
 5   0  0.2873212E-03  0.8034271E+03  0.7818609E-02  0.9555070E-01
       -2   -1    0    0    0  501  0.00000000000E+00  0.00000000000E+00  0.25986085225E+03  0.25986085227E+03  0.25500000920E-02 0.  1.
        2   -1    0    0  501    0  0.00000000000E+00  0.00000000000E+00 -0.62100079594E+03  0.62100079594E+03  0.25500000920E-02 0. -1.
    10030    2    1    2    0    0  0.00000000000E+00  0.00000000000E+00 -0.36113994368E+03  0.88086164821E+03  0.80342714938E+03 0.  0.
        2    1    3    3  502    0  0.39237536278E+03  0.82827583621E+02 -0.15474184662E+03  0.42984168368E+03  0.25500000920E-02 0.  1.
       -2    1    3    3    0  502 -0.39237536278E+03 -0.82827583621E+02 -0.20639809706E+03  0.45101996453E+03  0.25500000920E-02 0. -1.
</event>
<event>
 5   0  0.2873212E-03  0.7999804E+03  0.7818609E-02  0.9560046E-01
        2   -1    0    0  501    0  0.00000000000E+00  0.00000000000E+00  0.18242905104E+04  0.18242905104E+04  0.25500000920E-02 0. -1.
       -2   -1    0    0    0  501  0.00000000000E+00  0.00000000000E+00 -0.87701021591E+02  0.87701021628E+02  0.25500000920E-02 0.  1.
    10030    2    1    2    0    0  0.00000000000E+00  0.00000000000E+00  0.17365894888E+04  0.19119915320E+04  0.79998035345E+03 0.  0.
        2    1    3    3  502    0 -0.32030340827E+03  0.32831721687E+02  0.30109273771E+03  0.44082766701E+03  0.25500000920E-02 0.  1.
       -2    1    3    3    0  502  0.32030340827E+03 -0.32831721687E+02  0.14354967511E+04  0.14711638650E+04  0.25500000920E-02 0. -1.
</event>
<event>
 5   0  0.2873212E-03  0.7943509E+03  0.7818609E-02  0.9568230E-01
       -2   -1    0    0    0  501  0.00000000000E+00  0.00000000000E+00  0.63391431062E+03  0.63391431063E+03  0.25500000920E-02 0.  1.
        2   -1    0    0  501    0  0.00000000000E+00  0.00000000000E+00 -0.24884806692E+03  0.24884806693E+03  0.25500000920E-02 0. -1.
    10030    2    1    2    0    0  0.00000000000E+00  0.00000000000E+00  0.38506624371E+03  0.88276237756E+03  0.79435093202E+03 0.  0.
        2    1    3    3  502    0  0.14368170675E+03 -0.34819666936E+03  0.33249959922E+03  0.50243540570E+03  0.25500000920E-02 0.  1.
       -2    1    3    3    0  502 -0.14368170675E+03  0.34819666936E+03  0.52566644486E+02  0.38032697187E+03  0.25500000920E-02 0. -1.
</event>
<event>
 5   0  0.1637228E-03  0.7994891E+03  0.7818609E-02  0.9560757E-01
       -1   -1    0    0    0  501  0.00000000000E+00  0.00000000000E+00  0.55172041800E+03  0.55172041802E+03  0.50400001928E-02 0. -1.
        1   -1    0    0  501    0  0.00000000000E+00  0.00000000000E+00 -0.28963167823E+03  0.28963167827E+03  0.50400001928E-02 0.  1.
    10030    2    1    2    0    0  0.00000000000E+00  0.00000000000E+00  0.26208873977E+03  0.84135209630E+03  0.79948911339E+03 0.  0.
        2    1    3    3  502    0  0.21005849166E+03  0.18910886386E+03  0.42852796116E+03  0.51334486051E+03  0.25500000920E-02 0. -1.
       -2    1    3    3    0  502 -0.21005849166E+03 -0.18910886386E+03 -0.16643922138E+03  0.32800723579E+03  0.25500000920E-02 0.  1.
</event>
<event>
 5   0  0.1712793E-03  0.8001330E+03  0.7818609E-02  0.9559825E-01
        1   -1    0    0  501    0  0.00000000000E+00  0.00000000000E+00  0.53339359803E+03  0.53339359805E+03  0.50400001928E-02 0. -1.
       -1   -1    0    0    0  501  0.00000000000E+00  0.00000000000E+00 -0.30006586684E+03  0.30006586688E+03  0.50400001928E-02 0.  1.
    10030    2    1    2    0    0  0.00000000000E+00  0.00000000000E+00  0.23332773119E+03  0.83345946493E+03  0.80013301991E+03 0.  0.
        4    1    3    3  502    0 -0.16396167657E+03  0.28243740687E+03  0.35736706024E+03  0.48411480956E+03  0.12699999809E+01 0. -1.
       -4    1    3    3    0  502  0.16396167657E+03 -0.28243740687E+03 -0.12403932906E+03  0.34934465538E+03  0.12699999809E+01 0.  1.
</event>
<event>
 5   0  0.1656051E-03  0.8000190E+03  0.7818609E-02  0.9559990E-01
        1   -1    0    0  501    0  0.00000000000E+00  0.00000000000E+00  0.11655779816E+04  0.11655779816E+04  0.50400001928E-02 0.  1.
       -1   -1    0    0    0  501  0.00000000000E+00  0.00000000000E+00 -0.13727746277E+03  0.13727746286E+03  0.50400001928E-02 0. -1.
    10030    2    1    2    0    0  0.00000000000E+00  0.00000000000E+00  0.10283005188E+04  0.13028554445E+04  0.80001896987E+03 0.  0.
        3    1    3    3  502    0 -0.38964582571E+03 -0.86052154514E+02  0.46870476758E+03  0.61555910532E+03  0.10100000352E+00 0. -1.
       -3    1    3    3    0  502  0.38964582571E+03  0.86052154514E+02  0.55959575124E+03  0.68729633914E+03  0.10100000352E+00 0.  1.
</event>
<event>
 5   0  0.2690809E-03  0.8000661E+03  0.7818609E-02  0.9559921E-01
        2   -1    0    0  501    0  0.00000000000E+00  0.00000000000E+00  0.50788478284E+03  0.50788478285E+03  0.25500000920E-02 0. -1.
       -2   -1    0    0    0  501  0.00000000000E+00  0.00000000000E+00 -0.31508416202E+03  0.31508416203E+03  0.25500000920E-02 0.  1.
    10030    2    1    2    0    0  0.00000000000E+00  0.00000000000E+00  0.19280062082E+03  0.82296894488E+03  0.80006612530E+03 0.  0.
        5    1    3    3  502    0 -0.70537833381E+02 -0.38345890479E+03  0.44659671530E+01  0.38994660207E+03  0.46999998093E+01 0.  1.
       -5    1    3    3    0  502  0.70537833381E+02  0.38345890479E+03  0.18833465367E+03  0.43302234281E+03  0.46999998093E+01 0. -1.
</event>
<event>
 5   0  0.1712793E-03  0.8014359E+03  0.7818609E-02  0.9557941E-01
        1   -1    0    0  501    0  0.00000000000E+00  0.00000000000E+00  0.12817481582E+03  0.12817481591E+03  0.50400001928E-02 0.  1.
       -1   -1    0    0    0  501  0.00000000000E+00  0.00000000000E+00 -0.12527802732E+04  0.12527802732E+04  0.50400001928E-02 0. -1.
    10030    2    1    2    0    0  0.00000000000E+00  0.00000000000E+00 -0.11246054574E+04  0.13809550891E+04  0.80143591348E+03 0.  0.
        4    1    3    3  502    0  0.31215130121E+03 -0.22581048353E+03 -0.37241371666E+03  0.53583803391E+03  0.12699999809E+01 0.  1.
       -4    1    3    3    0  502 -0.31215130121E+03  0.22581048353E+03 -0.75219174074E+03  0.84511705524E+03  0.12699999809E+01 0. -1.
</event>
<event>
 5   0  0.2690809E-03  0.8119838E+03  0.7818609E-02  0.9542831E-01
       -2   -1    0    0    0  501  0.00000000000E+00  0.00000000000E+00  0.18358626006E+03  0.18358626008E+03  0.25500000920E-02 0.  1.
        2   -1    0    0  501    0  0.00000000000E+00  0.00000000000E+00 -0.89783090908E+03  0.89783090909E+03  0.25500000920E-02 0. -1.
    10030    2    1    2    0    0  0.00000000000E+00  0.00000000000E+00 -0.71424464902E+03  0.10814171692E+04  0.81198378993E+03 0.  0.
        5    1    3    3  502    0  0.19820552538E+03 -0.10290818589E+03  0.94386260526E+02  0.24250027049E+03  0.46999998093E+01 0.  1.
       -5    1    3    3    0  502 -0.19820552538E+03  0.10290818589E+03 -0.80863090955E+03  0.83891689868E+03  0.46999998093E+01 0. -1.
</event>
<event>
 5   0  0.1712793E-03  0.8008991E+03  0.7818609E-02  0.9558717E-01
       -1   -1    0    0    0  501  0.00000000000E+00  0.00000000000E+00  0.18315109185E+03  0.18315109191E+03  0.50400001928E-02 0.  1.
        1   -1    0    0  501    0  0.00000000000E+00  0.00000000000E+00 -0.87556030790E+03  0.87556030792E+03  0.50400001928E-02 0. -1.
    10030    2    1    2    0    0  0.00000000000E+00  0.00000000000E+00 -0.69240921606E+03  0.10587113998E+04  0.80089906084E+03 0.  0.
        4    1    3    3  502    0 -0.23345803349E+03 -0.13250482634E+03  0.46598861272E+02  0.27245779338E+03  0.12699999809E+01 0.  1.
       -4    1    3    3    0  502  0.23345803349E+03  0.13250482634E+03 -0.73900807733E+03  0.78625360645E+03  0.12699999809E+01 0. -1.
</event>
<event>
 5   0  0.1640035E-03  0.8008768E+03  0.7818609E-02  0.9558749E-01
        1   -1    0    0  501    0  0.00000000000E+00  0.00000000000E+00  0.22237376277E+04  0.22237376277E+04  0.50400001928E-02 0.  1.
       -1   -1    0    0    0  501  0.00000000000E+00  0.00000000000E+00 -0.72108745882E+02  0.72108746058E+02  0.50400001928E-02 0. -1.
    10030    2    1    2    0    0  0.00000000000E+00  0.00000000000E+00  0.21516288818E+04  0.22958463737E+04  0.80087684874E+03 0.  0.
        5    1    3    3  502    0 -0.76120840599E+02  0.28220380631E+03  0.29129291801E+03  0.41268271681E+03  0.46999998093E+01 0. -1.
       -5    1    3    3    0  502  0.76120840599E+02 -0.28220380631E+03  0.18603359638E+04  0.18831636569E+04  0.46999998093E+01 0.  1.
</event>
<event>
 5   0  0.1656051E-03  0.8004235E+03  0.7818609E-02  0.9559404E-01
       -1   -1    0    0    0  501  0.00000000000E+00  0.00000000000E+00  0.14184599004E+03  0.14184599013E+03  0.50400001928E-02 0.  1.
        1   -1    0    0  501    0  0.00000000000E+00  0.00000000000E+00 -0.11291785435E+04  0.11291785435E+04  0.50400001928E-02 0. -1.
    10030    2    1    2    0    0  0.00000000000E+00  0.00000000000E+00 -0.98733255341E+03  0.12710245336E+04  0.80042350913E+03 0.  0.
        3    1    3    3  502    0  0.69930053504E+02 -0.39402416942E+03 -0.48585790175E+03  0.62944671686E+03  0.10100000352E+00 0.  1.
       -3    1    3    3    0  502 -0.69930053504E+02  0.39402416942E+03 -0.50147465166E+03  0.64157781674E+03  0.10100000352E+00 0. -1.
</event>
<event>
 5   0  0.1617491E-03  0.8006580E+03  0.7818609E-02  0.9559065E-01
       -1   -1    0    0    0  501  0.00000000000E+00  0.00000000000E+00  0.17098976106E+03  0.17098976113E+03  0.50400001928E-02 0. -1.
        1   -1    0    0  501    0  0.00000000000E+00  0.00000000000E+00 -0.93726850743E+03  0.93726850744E+03  0.50400001928E-02 0.  1.
    10030    2    1    2    0    0  0.00000000000E+00  0.00000000000E+00 -0.76627874637E+03  0.11082582686E+04  0.80065802482E+03 0.  0.
        1    1    3    3  502    0  0.36845071776E+03  0.25665112151E+02 -0.59689924097E+03  0.70192829641E+03  0.50400001928E-02 0. -1.
       -1    1    3    3    0  502 -0.36845071776E+03 -0.25665112151E+02 -0.16937950540E+03  0.40632997216E+03  0.50400001928E-02 0.  1.
</event>
<event>
 5   0  0.2768834E-03  0.8004855E+03  0.7818609E-02  0.9559315E-01
       -2   -1    0    0    0  501  0.00000000000E+00  0.00000000000E+00  0.31763746170E+03  0.31763746171E+03  0.25500000920E-02 0.  1.
        2   -1    0    0  501    0  0.00000000000E+00  0.00000000000E+00 -0.50433046685E+03  0.50433046686E+03  0.25500000920E-02 0. -1.
    10030    2    1    2    0    0  0.00000000000E+00  0.00000000000E+00 -0.18669300515E+03  0.82196792857E+03  0.80048547609E+03 0.  0.
        4    1    3    3  502    0 -0.10701864851E+03  0.37026239132E+03  0.17463445134E+02  0.38581577777E+03  0.12699999809E+01 0.  1.
       -4    1    3    3    0  502  0.10701864851E+03 -0.37026239132E+03 -0.20415645028E+03  0.43615215080E+03  0.12699999809E+01 0. -1.
</event>
<event>
 5   0  0.2873212E-03  0.8070407E+03  0.7818609E-02  0.9549882E-01
       -2   -1    0    0    0  501  0.00000000000E+00  0.00000000000E+00  0.35725129939E+03  0.35725129940E+03  0.25500000920E-02 0.  1.
        2   -1    0    0  501    0  0.00000000000E+00  0.00000000000E+00 -0.45578185390E+03  0.45578185391E+03  0.25500000920E-02 0. -1.
    10030    2    1    2    0    0  0.00000000000E+00  0.00000000000E+00 -0.98530554511E+02  0.81303315331E+03  0.80704066701E+03 0.  0.
        2    1    3    3  502    0  0.12139620376E+03  0.38098405075E+03  0.53848674075E+01  0.39989358836E+03  0.25500000920E-02 0. -1.
       -2    1    3    3    0  502 -0.12139620376E+03 -0.38098405075E+03 -0.10391542192E+03  0.41313956495E+03  0.25500000920E-02 0.  1.
</event>
<event>
 5   0  0.1656051E-03  0.8057163E+03  0.7818609E-02  0.9551780E-01
       -1   -1    0    0    0  501  0.00000000000E+00  0.00000000000E+00  0.14203882936E+04  0.14203882936E+04  0.50400001928E-02 0.  1.
        1   -1    0    0  501    0  0.00000000000E+00  0.00000000000E+00 -0.11426077617E+03  0.11426077628E+03  0.50400001928E-02 0. -1.
    10030    2    1    2    0    0  0.00000000000E+00  0.00000000000E+00  0.13061275174E+04  0.15346490699E+04  0.80571625025E+03 0.  0.
        3    1    3    3  502    0  0.25206128730E+03 -0.19470863820E+03  0.11229050989E+04  0.11672027320E+04  0.10100000352E+00 0.  1.
       -3    1    3    3    0  502 -0.25206128730E+03  0.19470863820E+03  0.18322241854E+03  0.36744633785E+03  0.10100000352E+00 0. -1.
</event>
<event>
 5   0  0.2763587E-03  0.8017719E+03  0.7818609E-02  0.9557456E-01
       -2   -1    0    0    0  501  0.00000000000E+00  0.00000000000E+00  0.98726939990E+02  0.98726940023E+02  0.25500000920E-02 0. -1.
        2   -1    0    0  501    0  0.00000000000E+00  0.00000000000E+00 -0.16278185469E+04  0.16278185469E+04  0.25500000920E-02 0.  1.
    10030    2    1    2    0    0  0.00000000000E+00  0.00000000000E+00 -0.15290916069E+04  0.17265454869E+04  0.80177189779E+03 0.  0.
        3    1    3    3  502    0  0.27960994167E+03 -0.16401500001E+03 -0.25665587528E+03  0.41346691310E+03  0.10100000352E+00 0. -1.
       -3    1    3    3    0  502 -0.27960994167E+03  0.16401500001E+03 -0.12724357316E+04  0.13130785738E+04  0.10100000352E+00 0.  1.
</event>
<event>
 5   0  0.1617491E-03  0.7999828E+03  0.7818609E-02  0.9560042E-01
        1   -1    0    0  501    0  0.00000000000E+00  0.00000000000E+00  0.73404434371E+03  0.73404434372E+03  0.50400001928E-02 0.  1.
       -1   -1    0    0    0  501  0.00000000000E+00  0.00000000000E+00 -0.21796108873E+03  0.21796108879E+03  0.50400001928E-02 0. -1.
    10030    2    1    2    0    0  0.00000000000E+00  0.00000000000E+00  0.51608325497E+03  0.95200543252E+03  0.79998276074E+03 0.  0.
        1    1    3    3  502    0  0.23054513552E+03 -0.21825982950E+03  0.54760048887E+03  0.63297291263E+03  0.50400001928E-02 0.  1.
       -1    1    3    3    0  502 -0.23054513552E+03  0.21825982950E+03 -0.31517233901E+02  0.31903251988E+03  0.50400001928E-02 0. -1.
</event>
<event>
 5   0  0.1712793E-03  0.8000341E+03  0.7818609E-02  0.9559968E-01
        1   -1    0    0  501    0  0.00000000000E+00  0.00000000000E+00  0.74862504301E+03  0.74862504302E+03  0.50400001928E-02 0.  1.
       -1   -1    0    0    0  501  0.00000000000E+00  0.00000000000E+00 -0.21374335713E+03  0.21374335719E+03  0.50400001928E-02 0. -1.
    10030    2    1    2    0    0  0.00000000000E+00  0.00000000000E+00  0.53488168588E+03  0.96236840022E+03  0.80003407418E+03 0.  0.
        4    1    3    3  502    0  0.29362718314E+03 -0.21638633745E+03  0.69885023793E+02  0.37138322413E+03  0.12699999809E+01 0. -1.
       -4    1    3    3    0  502 -0.29362718314E+03  0.21638633745E+03  0.46499666208E+03  0.59098517609E+03  0.12699999809E+01 0.  1.
</event>
<event>
 5   0  0.1640035E-03  0.7981537E+03  0.7818609E-02  0.9562693E-01
       -1   -1    0    0    0  501  0.00000000000E+00  0.00000000000E+00  0.54366616217E+03  0.54366616219E+03  0.50400001928E-02 0.  1.
        1   -1    0    0  501    0  0.00000000000E+00  0.00000000000E+00 -0.29294139135E+03  0.29294139139E+03  0.50400001928E-02 0. -1.
    10030    2    1    2    0    0  0.00000000000E+00  0.00000000000E+00  0.25072477081E+03  0.83660755358E+03  0.79815367443E+03 0.  0.
        5    1    3    3  502    0 -0.28749038176E+03  0.25870358318E+03  0.22331348274E+02  0.38742617706E+03  0.46999998093E+01 0. -1.
       -5    1    3    3    0  502  0.28749038176E+03 -0.25870358318E+03  0.22839342254E+03  0.44918137652E+03  0.46999998093E+01 0.  1.
</event>
<event>
 5   0  0.2763587E-03  0.8001273E+03  0.7818609E-02  0.9559833E-01
        2   -1    0    0  501    0  0.00000000000E+00  0.00000000000E+00  0.12940706709E+04  0.12940706709E+04  0.25500000920E-02 0.  1.
       -2   -1    0    0    0  501  0.00000000000E+00  0.00000000000E+00 -0.12368020343E+03  0.12368020346E+03  0.25500000920E-02 0. -1.
    10030    2    1    2    0    0  0.00000000000E+00  0.00000000000E+00  0.11703904675E+04  0.14177508744E+04  0.80012729950E+03 0.  0.
        3    1    3    3  502    0  0.11519614871E+03  0.15559804594E+03  0.12055397458E+04  0.12209860743E+04  0.10100000352E+00 0.  1.
       -3    1    3    3    0  502 -0.11519614871E+03 -0.15559804594E+03 -0.35149278381E+02  0.19676480008E+03  0.10100000352E+00 0. -1.
</event>
<event>
 5   0  0.1617491E-03  0.7990304E+03  0.7818609E-02  0.9561422E-01
       -1   -1    0    0    0  501  0.00000000000E+00  0.00000000000E+00  0.41502864302E+03  0.41502864306E+03  0.50400001928E-02 0.  1.
        1   -1    0    0  501    0  0.00000000000E+00  0.00000000000E+00 -0.38458166562E+03  0.38458166565E+03  0.50400001928E-02 0. -1.
    10030    2    1    2    0    0  0.00000000000E+00  0.00000000000E+00  0.30446977403E+02  0.79961030871E+03  0.79903042956E+03 0.  0.
        1    1    3    3  502    0  0.39438020344E+03  0.29945516668E+02  0.71655263287E+02  0.40195392226E+03  0.50400001928E-02 0. -1.
       -1    1    3    3    0  502 -0.39438020344E+03 -0.29945516668E+02 -0.41208285884E+02  0.39765638645E+03  0.50400001928E-02 0.  1.
</event>
<event>
 5   0  0.2910501E-03  0.7991658E+03  0.7818609E-02  0.9561225E-01
        2   -1    0    0  501    0  0.00000000000E+00  0.00000000000E+00  0.36145714570E+03  0.36145714571E+03  0.25500000920E-02 0. -1.
       -2   -1    0    0    0  501  0.00000000000E+00  0.00000000000E+00 -0.44173005856E+03  0.44173005857E+03  0.25500000920E-02 0.  1.
    10030    2    1    2    0    0  0.00000000000E+00  0.00000000000E+00 -0.80272912868E+02  0.80318720428E+03  0.79916578041E+03 0.  0.
        1    1    3    3  502    0  0.27288058465E+02  0.10573741061E+02 -0.44065154748E+03  0.44162226897E+03  0.50400001928E-02 0.  1.
       -1    1    3    3    0  502 -0.27288058465E+02 -0.10573741061E+02  0.36037863461E+03  0.36156493530E+03  0.50400001928E-02 0. -1.
</event>
<event>
 5   0  0.1712793E-03  0.8056930E+03  0.7818609E-02  0.9551813E-01
        1   -1    0    0  501    0  0.00000000000E+00  0.00000000000E+00  0.42386341110E+03  0.42386341113E+03  0.50400001928E-02 0. -1.
       -1   -1    0    0    0  501  0.00000000000E+00  0.00000000000E+00 -0.38287165730E+03  0.38287165733E+03  0.50400001928E-02 0.  1.
    10030    2    1    2    0    0  0.00000000000E+00  0.00000000000E+00  0.40991753799E+02  0.80673506846E+03  0.80569296062E+03 0.  0.
        4    1    3    3  502    0 -0.33529117174E+02  0.25427928448E+03 -0.29055285728E+03  0.38756255236E+03  0.12699999809E+01 0.  1.
       -4    1    3    3    0  502  0.33529117174E+02 -0.25427928448E+03  0.33154461108E+03  0.41917251610E+03  0.12699999809E+01 0. -1.
</event>
<event>
 5   0  0.1640035E-03  0.7998854E+03  0.7818609E-02  0.9560183E-01
       -1   -1    0    0    0  501  0.00000000000E+00  0.00000000000E+00  0.98492240618E+02  0.98492240747E+02  0.50400001928E-02 0.  1.
        1   -1    0    0  501    0  0.00000000000E+00  0.00000000000E+00 -0.16240280805E+04  0.16240280805E+04  0.50400001928E-02 0. -1.
    10030    2    1    2    0    0  0.00000000000E+00  0.00000000000E+00 -0.15255358399E+04  0.17225203213E+04  0.79988540328E+03 0.  0.
        5    1    3    3  502    0  0.36077413383E+03 -0.14020065463E+03 -0.54615655154E+03  0.66942009828E+03  0.46999998093E+01 0. -1.
       -5    1    3    3    0  502 -0.36077413383E+03  0.14020065463E+03 -0.97937928836E+03  0.10531002230E+04  0.46999998093E+01 0.  1.
</event>
<event>
 5   0  0.1095350E-03  0.7982448E+03  0.7818609E-02  0.9562561E-01
       -3   -1    0    0    0  501  0.00000000000E+00  0.00000000000E+00  0.34708718308E+03  0.34708719778E+03  0.10100000352E+00 0. -1.
        3   -1    0    0  501    0  0.00000000000E+00  0.00000000000E+00 -0.45895868507E+03  0.45895869618E+03  0.10100000352E+00 0.  1.
    10030    2    1    2    0    0  0.00000000000E+00  0.00000000000E+00 -0.11187150199E+03  0.80604589396E+03  0.79824479341E+03 0.  0.
        5    1    3    3  502    0  0.80714299815E+02  0.35854337770E+03 -0.21304694474E+03  0.42482848604E+03  0.46999998093E+01 0.  1.
       -5    1    3    3    0  502 -0.80714299815E+02 -0.35854337770E+03  0.10117544276E+03  0.38121740792E+03  0.46999998093E+01 0. -1.
</event>
<event>
 5   0  0.1637228E-03  0.8047841E+03  0.7818609E-02  0.9553118E-01
        1   -1    0    0  501    0  0.00000000000E+00  0.00000000000E+00  0.36028607066E+03  0.36028607069E+03  0.50400001928E-02 0. -1.
       -1   -1    0    0    0  501  0.00000000000E+00  0.00000000000E+00 -0.44941892250E+03  0.44941892253E+03  0.50400001928E-02 0.  1.
    10030    2    1    2    0    0  0.00000000000E+00  0.00000000000E+00 -0.89132851841E+02  0.80970499322E+03  0.80478413924E+03 0.  0.
        2    1    3    3  502    0 -0.13890139292E+03  0.23459456102E+03  0.25320126910E+03  0.37207403524E+03  0.25500000920E-02 0. -1.
       -2    1    3    3    0  502  0.13890139292E+03 -0.23459456102E+03 -0.34233412094E+03  0.43763095798E+03  0.25500000920E-02 0.  1.
</event>
<event>
 5   0  0.1637228E-03  0.7982937E+03  0.7818609E-02  0.9562490E-01
       -1   -1    0    0    0  501  0.00000000000E+00  0.00000000000E+00  0.67364406194E+03  0.67364406196E+03  0.50400001928E-02 0. -1.
        1   -1    0    0  501    0  0.00000000000E+00  0.00000000000E+00 -0.23650206554E+03  0.23650206559E+03  0.50400001928E-02 0.  1.
    10030    2    1    2    0    0  0.00000000000E+00  0.00000000000E+00  0.43714199641E+03  0.91014612755E+03  0.79829371066E+03 0.  0.
        2    1    3    3  502    0 -0.27022489365E+03  0.12809600511E+03  0.51997577823E+03  0.59983738599E+03  0.25500000920E-02 0. -1.
       -2    1    3    3    0  502  0.27022489365E+03 -0.12809600511E+03 -0.82833781826E+02  0.31030874156E+03  0.25500000920E-02 0.  1.
</event>
<event>
 5   0  0.1095350E-03  0.8025758E+03  0.7818609E-02  0.9556296E-01
       -3   -1    0    0    0  501  0.00000000000E+00  0.00000000000E+00  0.42978446507E+03  0.42978447694E+03  0.10100000352E+00 0. -1.
        3   -1    0    0  501    0  0.00000000000E+00  0.00000000000E+00 -0.37468072924E+03  0.37468074285E+03  0.10100000352E+00 0.  1.
    10030    2    1    2    0    0  0.00000000000E+00  0.00000000000E+00  0.55103735832E+02  0.80446521979E+03  0.80257577097E+03 0.  0.
        5    1    3    3  502    0 -0.33761438040E+03 -0.16019552960E+03 -0.11895584017E+03  0.39219722011E+03  0.46999998093E+01 0.  1.
       -5    1    3    3    0  502  0.33761438040E+03  0.16019552960E+03  0.17405957600E+03  0.41226799967E+03  0.46999998093E+01 0. -1.
</event>
<event>
 5   0  0.1640035E-03  0.8028158E+03  0.7818609E-02  0.9555950E-01
       -1   -1    0    0    0  501  0.00000000000E+00  0.00000000000E+00  0.10881604640E+04  0.10881604640E+04  0.50400001928E-02 0.  1.
        1   -1    0    0  501    0  0.00000000000E+00  0.00000000000E+00 -0.14807402299E+03  0.14807402308E+03  0.50400001928E-02 0. -1.
    10030    2    1    2    0    0  0.00000000000E+00  0.00000000000E+00  0.94008644097E+03  0.12362344871E+04  0.80281578864E+03 0.  0.
        5    1    3    3  502    0 -0.25094009408E+03  0.19915534807E+03  0.84240105801E+03  0.90127432894E+03  0.46999998093E+01 0.  1.
       -5    1    3    3    0  502  0.25094009408E+03 -0.19915534807E+03  0.97685382963E+02  0.33496015811E+03  0.46999998093E+01 0. -1.
</event>
<event>
 5   0  0.2873212E-03  0.7985094E+03  0.7818609E-02  0.9562177E-01
       -2   -1    0    0    0  501  0.00000000000E+00  0.00000000000E+00  0.13900420664E+03  0.13900420667E+03  0.25500000920E-02 0. -1.
        2   -1    0    0  501    0  0.00000000000E+00  0.00000000000E+00 -0.11467588460E+04  0.11467588460E+04  0.25500000920E-02 0.  1.
    10030    2    1    2    0    0  0.00000000000E+00  0.00000000000E+00 -0.10077546393E+04  0.12857630526E+04  0.79850937029E+03 0.  0.
        2    1    3    3  502    0 -0.89696913629E+02  0.25660227145E+03 -0.97474582308E+03  0.10119385760E+04  0.25500000920E-02 0.  1.
       -2    1    3    3    0  502  0.89696913629E+02 -0.25660227145E+03 -0.33008816227E+02  0.27382447660E+03  0.25500000920E-02 0. -1.
</event>
<event>
 5   0  0.1712793E-03  0.7986163E+03  0.7818609E-02  0.9562022E-01
        1   -1    0    0  501    0  0.00000000000E+00  0.00000000000E+00  0.41557625918E+03  0.41557625921E+03  0.50400001928E-02 0. -1.
       -1   -1    0    0    0  501  0.00000000000E+00  0.00000000000E+00 -0.38367691305E+03  0.38367691309E+03  0.50400001928E-02 0.  1.
    10030    2    1    2    0    0  0.00000000000E+00  0.00000000000E+00  0.31899346123E+02  0.79925317229E+03  0.79861634415E+03 0.  0.
        4    1    3    3  502    0  0.21180696577E+03 -0.25942929097E+03  0.23356191683E+03  0.40831180445E+03  0.12699999809E+01 0. -1.
       -4    1    3    3    0  502 -0.21180696577E+03  0.25942929097E+03 -0.20166257070E+03  0.39094136784E+03  0.12699999809E+01 0.  1.
</event>
<event>
 5   0  0.1617491E-03  0.7956509E+03  0.7818609E-02  0.9566334E-01
        1   -1    0    0  501    0  0.00000000000E+00  0.00000000000E+00  0.31070725618E+03  0.31070725622E+03  0.50400001928E-02 0.  1.
       -1   -1    0    0    0  501  0.00000000000E+00  0.00000000000E+00 -0.50937039095E+03  0.50937039098E+03  0.50400001928E-02 0. -1.
    10030    2    1    2    0    0  0.00000000000E+00  0.00000000000E+00 -0.19866313477E+03  0.82007764720E+03  0.79565086962E+03 0.  0.
        1    1    3    3  502    0  0.25353454256E+03  0.26958456387E+03  0.51127653964E+02  0.37359020112E+03  0.50400001928E-02 0.  1.
       -1    1    3    3    0  502 -0.25353454256E+03 -0.26958456387E+03 -0.24979078873E+03  0.44648744608E+03  0.50400001928E-02 0. -1.
</event>
<event>
 5   0  0.1617491E-03  0.8006401E+03  0.7818609E-02  0.9559091E-01
       -1   -1    0    0    0  501  0.00000000000E+00  0.00000000000E+00  0.14807965005E+03  0.14807965014E+03  0.50400001928E-02 0.  1.
        1   -1    0    0  501    0  0.00000000000E+00  0.00000000000E+00 -0.10822293396E+04  0.10822293396E+04  0.50400001928E-02 0. -1.
    10030    2    1    2    0    0  0.00000000000E+00  0.00000000000E+00 -0.93414968953E+03  0.12303089897E+04  0.80064009878E+03 0.  0.
        1    1    3    3  502    0  0.35079138932E+03 -0.64561002425E+02 -0.74636371556E+03  0.82721310301E+03  0.50400001928E-02 0. -1.
       -1    1    3    3    0  502 -0.35079138932E+03  0.64561002425E+02 -0.18778597397E+03  0.40309588673E+03  0.50400001928E-02 0.  1.
</event>
<event>
 5   0  0.1095350E-03  0.7998285E+03  0.7818609E-02  0.9560265E-01
        3   -1    0    0  501    0  0.00000000000E+00  0.00000000000E+00  0.64175877773E+03  0.64175878568E+03  0.10100000352E+00 0.  1.
       -3   -1    0    0    0  501  0.00000000000E+00  0.00000000000E+00 -0.24920794336E+03  0.24920796383E+03  0.10100000352E+00 0. -1.
    10030    2    1    2    0    0  0.00000000000E+00  0.00000000000E+00  0.39255083437E+03  0.89096674951E+03  0.79982847609E+03 0.  0.
        1    1    3    3  502    0 -0.13054747439E+03 -0.14321381806E+03 -0.19341282162E+03  0.27379072363E+03  0.50400001928E-02 0. -1.
       -1    1    3    3    0  502  0.13054747439E+03  0.14321381806E+03  0.58596365599E+03  0.61717602588E+03  0.50400001928E-02 0.  1.
</event>
<event>
 5   0  0.2768834E-03  0.7995472E+03  0.7818609E-02  0.9560673E-01
        2   -1    0    0  501    0  0.00000000000E+00  0.00000000000E+00  0.12488481558E+04  0.12488481558E+04  0.25500000920E-02 0. -1.
       -2   -1    0    0    0  501  0.00000000000E+00  0.00000000000E+00 -0.12797306283E+03  0.12797306285E+03  0.25500000920E-02 0.  1.
    10030    2    1    2    0    0  0.00000000000E+00  0.00000000000E+00  0.11208750929E+04  0.13768212186E+04  0.79954718064E+03 0.  0.
        4    1    3    3  502    0  0.27769267987E+03  0.65860061867E+01  0.10555262552E+04  0.10914641030E+04  0.12699999809E+01 0. -1.
       -4    1    3    3    0  502 -0.27769267987E+03 -0.65860061867E+01  0.65348837776E+02  0.28535711561E+03  0.12699999809E+01 0.  1.
</event>
<event>
 5   0  0.1617491E-03  0.8019568E+03  0.7818609E-02  0.9557189E-01
        1   -1    0    0  501    0  0.00000000000E+00  0.00000000000E+00  0.30830050398E+03  0.30830050402E+03  0.50400001928E-02 0. -1.
       -1   -1    0    0    0  501  0.00000000000E+00  0.00000000000E+00 -0.52151613202E+03  0.52151613204E+03  0.50400001928E-02 0.  1.
    10030    2    1    2    0    0  0.00000000000E+00  0.00000000000E+00 -0.21321562804E+03  0.82981663606E+03  0.80195682268E+03 0.  0.
        1    1    3    3  502    0  0.22823452358E+03 -0.19774958625E+03  0.16635134533E+03  0.34477335560E+03  0.50400001928E-02 0. -1.
       -1    1    3    3    0  502 -0.22823452358E+03  0.19774958625E+03 -0.37956697337E+03  0.48504328046E+03  0.50400001928E-02 0.  1.
</event>
<event>
 5   0  0.2768834E-03  0.7991954E+03  0.7818609E-02  0.9561182E-01
        2   -1    0    0  501    0  0.00000000000E+00  0.00000000000E+00  0.76853774285E+03  0.76853774285E+03  0.25500000920E-02 0. -1.
       -2   -1    0    0    0  501  0.00000000000E+00  0.00000000000E+00 -0.20776902571E+03  0.20776902573E+03  0.25500000920E-02 0.  1.
    10030    2    1    2    0    0  0.00000000000E+00  0.00000000000E+00  0.56076871714E+03  0.97630676858E+03  0.79919544058E+03 0.  0.
        4    1    3    3  502    0  0.23319507326E+02  0.30568875974E+03 -0.32709129046E+02  0.30831950518E+03  0.12699999809E+01 0.  1.
       -4    1    3    3    0  502 -0.23319507326E+02 -0.30568875974E+03  0.59347784619E+03  0.66798726340E+03  0.12699999809E+01 0. -1.
</event>
<event>
 5   0  0.2763587E-03  0.8005301E+03  0.7818609E-02  0.9559250E-01
        2   -1    0    0  501    0  0.00000000000E+00  0.00000000000E+00  0.42663301688E+03  0.42663301689E+03  0.25500000920E-02 0.  1.
       -2   -1    0    0    0  501  0.00000000000E+00  0.00000000000E+00 -0.37552675332E+03  0.37552675333E+03  0.25500000920E-02 0. -1.
    10030    2    1    2    0    0  0.00000000000E+00  0.00000000000E+00  0.51106263561E+02  0.80215977022E+03  0.80053010360E+03 0.  0.
        3    1    3    3  502    0 -0.36635446619E+03 -0.26805223393E+02 -0.13376105428E+03  0.39092984632E+03  0.10100000352E+00 0. -1.
       -3    1    3    3    0  502  0.36635446619E+03  0.26805223393E+02  0.18486731784E+03  0.41122992390E+03  0.10100000352E+00 0.  1.
</event>
<event>
 5   0  0.2910501E-03  0.8019565E+03  0.7818609E-02  0.9557190E-01
        2   -1    0    0  501    0  0.00000000000E+00  0.00000000000E+00  0.38747998054E+03  0.38747998055E+03  0.25500000920E-02 0. -1.
       -2   -1    0    0    0  501  0.00000000000E+00  0.00000000000E+00 -0.41494671332E+03  0.41494671333E+03  0.25500000920E-02 0.  1.
    10030    2    1    2    0    0  0.00000000000E+00  0.00000000000E+00 -0.27466732780E+02  0.80242669388E+03  0.80195646867E+03 0.  0.
        1    1    3    3  502    0  0.10630708741E+03  0.18905906741E+03  0.32371653637E+03  0.38966257679E+03  0.50400001928E-02 0. -1.
       -1    1    3    3    0  502 -0.10630708741E+03 -0.18905906741E+03 -0.35118326915E+03  0.41276411709E+03  0.50400001928E-02 0.  1.
</event>
<event>
 5   0  0.2768834E-03  0.8039665E+03  0.7818609E-02  0.9554293E-01
        2   -1    0    0  501    0  0.00000000000E+00  0.00000000000E+00  0.83765611736E+03  0.83765611736E+03  0.25500000920E-02 0.  1.
       -2   -1    0    0    0  501  0.00000000000E+00  0.00000000000E+00 -0.19290797496E+03  0.19290797498E+03  0.25500000920E-02 0. -1.
    10030    2    1    2    0    0  0.00000000000E+00  0.00000000000E+00  0.64474814239E+03  0.10305640923E+04  0.80396652997E+03 0.  0.
        4    1    3    3  502    0 -0.14539340548E+03 -0.25225561023E+03  0.67764946968E+03  0.73755172829E+03  0.12699999809E+01 0.  1.
       -4    1    3    3    0  502  0.14539340548E+03  0.25225561023E+03 -0.32901327286E+02  0.29301236405E+03  0.12699999809E+01 0. -1.
</event>
<event>
 5   0  0.1617491E-03  0.7981656E+03  0.7818609E-02  0.9562676E-01
       -1   -1    0    0    0  501  0.00000000000E+00  0.00000000000E+00  0.81343043368E+02  0.81343043524E+02  0.50400001928E-02 0. -1.
        1   -1    0    0  501    0  0.00000000000E+00  0.00000000000E+00 -0.19579678834E+04  0.19579678834E+04  0.50400001928E-02 0.  1.
    10030    2    1    2    0    0  0.00000000000E+00  0.00000000000E+00 -0.18766248400E+04  0.20393109269E+04  0.79816556332E+03 0.  0.
        1    1    3    3  502    0  0.10236731260E+03  0.13995344118E+03 -0.19930225764E+02  0.17453723475E+03  0.50400001928E-02 0. -1.
       -1    1    3    3    0  502 -0.10236731260E+03 -0.13995344118E+03 -0.18566946143E+04  0.18647736922E+04  0.50400001928E-02 0.  1.
</event>
<event>
 5   0  0.2763587E-03  0.7999555E+03  0.7818609E-02  0.9560081E-01
        2   -1    0    0  501    0  0.00000000000E+00  0.00000000000E+00  0.27568174790E+03  0.27568174791E+03  0.25500000920E-02 0.  1.
       -2   -1    0    0    0  501  0.00000000000E+00  0.00000000000E+00 -0.58031483292E+03  0.58031483293E+03  0.25500000920E-02 0. -1.
    10030    2    1    2    0    0  0.00000000000E+00  0.00000000000E+00 -0.30463308502E+03  0.85599658084E+03  0.79995551747E+03 0.  0.
        3    1    3    3  502    0  0.16231200936E+03  0.30731305567E+03 -0.36416503356E+03  0.50339118431E+03  0.10100000352E+00 0.  1.
       -3    1    3    3    0  502 -0.16231200936E+03 -0.30731305567E+03  0.59531948545E+02  0.35260539653E+03  0.10100000352E+00 0. -1.
</event>
<event>
 5   0  0.1617491E-03  0.8062176E+03  0.7818609E-02  0.9551061E-01
       -1   -1    0    0    0  501  0.00000000000E+00  0.00000000000E+00  0.14506895821E+04  0.14506895821E+04  0.50400001928E-02 0.  1.
        1   -1    0    0  501    0  0.00000000000E+00  0.00000000000E+00 -0.11201341055E+03  0.11201341066E+03  0.50400001928E-02 0. -1.
    10030    2    1    2    0    0  0.00000000000E+00  0.00000000000E+00  0.13386761715E+04  0.15627029927E+04  0.80621755831E+03 0.  0.
        1    1    3    3  502    0 -0.12102910408E+03 -0.26399728737E+03  0.12746197114E+03  0.31715795100E+03  0.50400001928E-02 0. -1.
       -1    1    3    3    0  502  0.12102910408E+03  0.26399728737E+03  0.12112142004E+04  0.12455450417E+04  0.50400001928E-02 0.  1.
</event>
<event>
 5   0  0.2768834E-03  0.7995704E+03  0.7818609E-02  0.9560639E-01
        2   -1    0    0  501    0  0.00000000000E+00  0.00000000000E+00  0.16696686074E+03  0.16696686076E+03  0.25500000920E-02 0. -1.
       -2   -1    0    0    0  501  0.00000000000E+00  0.00000000000E+00 -0.95724513263E+03  0.95724513264E+03  0.25500000920E-02 0.  1.
    10030    2    1    2    0    0  0.00000000000E+00  0.00000000000E+00 -0.79027827189E+03  0.11242119934E+04  0.79957042159E+03 0.  0.
        4    1    3    3  502    0 -0.60026869689E+02  0.35918598703E+03 -0.62706341559E+03  0.72513994404E+03  0.12699999809E+01 0. -1.
       -4    1    3    3    0  502  0.60026869689E+02 -0.35918598703E+03 -0.16321485629E+03  0.39907204936E+03  0.12699999809E+01 0.  1.
</event>
<event>
 5   0  0.2873212E-03  0.8003484E+03  0.7818609E-02  0.9559513E-01
        2   -1    0    0  501    0  0.00000000000E+00  0.00000000000E+00  0.94494532427E+03  0.94494532427E+03  0.25500000920E-02 0.  1.
       -2   -1    0    0    0  501  0.00000000000E+00  0.00000000000E+00 -0.16946948633E+03  0.16946948635E+03  0.25500000920E-02 0. -1.
    10030    2    1    2    0    0  0.00000000000E+00  0.00000000000E+00  0.77547583794E+03  0.11144148106E+04  0.80034842094E+03 0.  0.
        2    1    3    3  502    0  0.27854692694E+03  0.25400647710E+03  0.20076171699E+03  0.42709828838E+03  0.25500000920E-02 0. -1.
       -2    1    3    3    0  502 -0.27854692694E+03 -0.25400647710E+03  0.57471412095E+03  0.68731652224E+03  0.25500000920E-02 0.  1.
</event>
<event>
 5   0  0.2910501E-03  0.8034964E+03  0.7818609E-02  0.9554970E-01
        2   -1    0    0  501    0  0.00000000000E+00  0.00000000000E+00  0.54599093898E+03  0.54599093899E+03  0.25500000920E-02 0. -1.
       -2   -1    0    0    0  501  0.00000000000E+00  0.00000000000E+00 -0.29561228799E+03  0.29561228800E+03  0.25500000920E-02 0.  1.
    10030    2    1    2    0    0  0.00000000000E+00  0.00000000000E+00  0.25037865099E+03  0.84160322699E+03  0.80349643609E+03 0.  0.
        1    1    3    3  502    0  0.34500886322E+03 -0.13344667721E+03 -0.38967791060E+02  0.37196454149E+03  0.50400001928E-02 0.  1.
       -1    1    3    3    0  502 -0.34500886322E+03  0.13344667721E+03  0.28934644205E+03  0.46963868550E+03  0.50400001928E-02 0. -1.
</event>
<event>
 5   0  0.2763587E-03  0.7985867E+03  0.7818609E-02  0.9562065E-01
        2   -1    0    0  501    0  0.00000000000E+00  0.00000000000E+00  0.30473531396E+03  0.30473531397E+03  0.25500000920E-02 0.  1.
       -2   -1    0    0    0  501  0.00000000000E+00  0.00000000000E+00 -0.52319234597E+03  0.52319234598E+03  0.25500000920E-02 0. -1.
    10030    2    1    2    0    0  0.00000000000E+00  0.00000000000E+00 -0.21845703201E+03  0.82792765995E+03  0.79858671118E+03 0.  0.
        3    1    3    3  502    0 -0.17692465121E+02 -0.28895811641E+03  0.17587595804E+03  0.33873614980E+03  0.10100000352E+00 0.  1.
       -3    1    3    3    0  502  0.17692465121E+02  0.28895811641E+03 -0.39433299005E+03  0.48919151015E+03  0.10100000352E+00 0. -1.
</event>
<event>
 5   0  0.1095350E-03  0.8035890E+03  0.7818609E-02  0.9554837E-01
        3   -1    0    0  501    0  0.00000000000E+00  0.00000000000E+00  0.12072415197E+04  0.12072415239E+04  0.10100000352E+00 0. -1.
       -3   -1    0    0    0  501  0.00000000000E+00  0.00000000000E+00 -0.13372534493E+03  0.13372538307E+03  0.10100000352E+00 0.  1.
    10030    2    1    2    0    0  0.00000000000E+00  0.00000000000E+00  0.10735161747E+04  0.13409669070E+04  0.80358899205E+03 0.  0.
        1    1    3    3  502    0  0.71008457924E+02 -0.39535423600E+03  0.55273291104E+03  0.68327215953E+03  0.50400001928E-02 0. -1.
       -1    1    3    3    0  502 -0.71008457924E+02  0.39535423600E+03  0.52078326369E+03  0.65769474742E+03  0.50400001928E-02 0.  1.
</event>
<event>
 5   0  0.2873212E-03  0.7853285E+03  0.7818609E-02  0.9581500E-01
        2   -1    0    0  501    0  0.00000000000E+00  0.00000000000E+00  0.16263552325E+04  0.16263552325E+04  0.25500000920E-02 0. -1.
       -2   -1    0    0    0  501  0.00000000000E+00  0.00000000000E+00 -0.94804131298E+02  0.94804131332E+02  0.25500000920E-02 0.  1.
    10030    2    1    2    0    0  0.00000000000E+00  0.00000000000E+00  0.15315511012E+04  0.17211593638E+04  0.78532845366E+03 0.  0.
        2    1    3    3  502    0 -0.38298256816E+03  0.17773724218E+02  0.57989062642E+03  0.69517241848E+03  0.25500000920E-02 0. -1.
       -2    1    3    3    0  502  0.38298256816E+03 -0.17773724218E+02  0.95166047479E+03  0.10259869454E+04  0.25500000920E-02 0.  1.
</event>
<event>
 5   0  0.1637228E-03  0.8007644E+03  0.7818609E-02  0.9558911E-01
        1   -1    0    0  501    0  0.00000000000E+00  0.00000000000E+00  0.12475163526E+04  0.12475163526E+04  0.50400001928E-02 0.  1.
       -1   -1    0    0    0  501  0.00000000000E+00  0.00000000000E+00 -0.12850002869E+03  0.12850002879E+03  0.50400001928E-02 0. -1.
    10030    2    1    2    0    0  0.00000000000E+00  0.00000000000E+00  0.11190163239E+04  0.13760163814E+04  0.80076435278E+03 0.  0.
        2    1    3    3  502    0  0.39484463070E+03 -0.43528611071E+02  0.64557929117E+03  0.75800372266E+03  0.25500000920E-02 0.  1.
       -2    1    3    3    0  502 -0.39484463070E+03  0.43528611071E+02  0.47343703270E+03  0.61801265870E+03  0.25500000920E-02 0. -1.
</event>
<event>
 5   0  0.1637228E-03  0.7994532E+03  0.7818609E-02  0.9560809E-01
        1   -1    0    0  501    0  0.00000000000E+00  0.00000000000E+00  0.27049642951E+03  0.27049642956E+03  0.50400001928E-02 0.  1.
       -1   -1    0    0    0  501  0.00000000000E+00  0.00000000000E+00 -0.59069677087E+03  0.59069677089E+03  0.50400001928E-02 0. -1.
    10030    2    1    2    0    0  0.00000000000E+00  0.00000000000E+00 -0.32020034135E+03  0.86119320045E+03  0.79945323184E+03 0.  0.
        2    1    3    3  502    0 -0.21206314182E+02  0.21689301591E+03  0.20087413544E+03  0.29638270260E+03  0.25500000920E-02 0.  1.
       -2    1    3    3    0  502  0.21206314182E+02 -0.21689301591E+03 -0.52107447679E+03  0.56481049784E+03  0.25500000920E-02 0. -1.
</event>
<event>
 5   0  0.1712793E-03  0.7906591E+03  0.7818609E-02  0.9573637E-01
       -1   -1    0    0    0  501  0.00000000000E+00  0.00000000000E+00  0.51330597547E+03  0.51330597549E+03  0.50400001928E-02 0. -1.
        1   -1    0    0  501    0  0.00000000000E+00  0.00000000000E+00 -0.30446837252E+03  0.30446837257E+03  0.50400001928E-02 0.  1.
    10030    2    1    2    0    0  0.00000000000E+00  0.00000000000E+00  0.20883760294E+03  0.81777434806E+03  0.79065905417E+03 0.  0.
        4    1    3    3  502    0  0.33691551218E+02 -0.15921592964E+03 -0.26821297773E+03  0.31372702657E+03  0.12699999809E+01 0.  1.
       -4    1    3    3    0  502 -0.33691551218E+02  0.15921592964E+03  0.47705058068E+03  0.50404732149E+03  0.12699999809E+01 0. -1.
</event>
<event>
 5   0  0.1640035E-03  0.8006362E+03  0.7818609E-02  0.9559097E-01
        1   -1    0    0  501    0  0.00000000000E+00  0.00000000000E+00  0.74664649539E+03  0.74664649541E+03  0.50400001928E-02 0.  1.
       -1   -1    0    0    0  501  0.00000000000E+00  0.00000000000E+00 -0.21463249333E+03  0.21463249339E+03  0.50400001928E-02 0. -1.
    10030    2    1    2    0    0  0.00000000000E+00  0.00000000000E+00  0.53201400206E+03  0.96127898880E+03  0.80063624444E+03 0.  0.
        5    1    3    3  502    0 -0.12545874789E+02  0.14740640581E+03 -0.18057193136E+03  0.23348310398E+03  0.46999998093E+01 0. -1.
       -5    1    3    3    0  502  0.12545874789E+02 -0.14740640581E+03  0.71258593343E+03  0.72779588482E+03  0.46999998093E+01 0.  1.
</event>
<event>
 5   0  0.1640035E-03  0.8003756E+03  0.7818609E-02  0.9559474E-01
       -1   -1    0    0    0  501  0.00000000000E+00  0.00000000000E+00  0.18793503726E+03  0.18793503733E+03  0.50400001928E-02 0.  1.
        1   -1    0    0  501    0  0.00000000000E+00  0.00000000000E+00 -0.85215768647E+03  0.85215768648E+03  0.50400001928E-02 0. -1.
    10030    2    1    2    0    0  0.00000000000E+00  0.00000000000E+00 -0.66422264921E+03  0.10400927238E+04  0.80037562832E+03 0.  0.
        5    1    3    3  502    0  0.19918419036E+03  0.41205175392E+02  0.11571122870E+03  0.23405851109E+03  0.46999998093E+01 0.  1.
       -5    1    3    3    0  502 -0.19918419036E+03 -0.41205175392E+02 -0.77993387791E+03  0.80603421272E+03  0.46999998093E+01 0. -1.
</event>
<event>
 5   0  0.2763587E-03  0.8006257E+03  0.7818609E-02  0.9559112E-01
       -2   -1    0    0    0  501  0.00000000000E+00  0.00000000000E+00  0.36218850799E+03  0.36218850800E+03  0.25500000920E-02 0. -1.
        2   -1    0    0  501    0  0.00000000000E+00  0.00000000000E+00 -0.44245016940E+03  0.44245016940E+03  0.25500000920E-02 0.  1.
    10030    2    1    2    0    0  0.00000000000E+00  0.00000000000E+00 -0.80261661405E+02  0.80463867741E+03  0.80062567214E+03 0.  0.
        3    1    3    3  502    0 -0.13994994900E+03 -0.36901508928E+02  0.33497263527E+03  0.36490325590E+03  0.10100000352E+00 0. -1.
       -3    1    3    3    0  502  0.13994994900E+03  0.36901508928E+02 -0.41523429668E+03  0.43973542150E+03  0.10100000352E+00 0.  1.
</event>
<event>
 5   0  0.2763587E-03  0.7991826E+03  0.7818609E-02  0.9561201E-01
       -2   -1    0    0    0  501  0.00000000000E+00  0.00000000000E+00  0.53419942317E+03  0.53419942318E+03  0.25500000920E-02 0. -1.
        2   -1    0    0  501    0  0.00000000000E+00  0.00000000000E+00 -0.29890186663E+03  0.29890186664E+03  0.25500000920E-02 0.  1.
    10030    2    1    2    0    0  0.00000000000E+00  0.00000000000E+00  0.23529755654E+03  0.83310128982E+03  0.79918259427E+03 0.  0.
        3    1    3    3  502    0 -0.22786382433E+03 -0.31030088807E+03  0.22926615985E+03  0.44807537962E+03  0.10100000352E+00 0. -1.
       -3    1    3    3    0  502  0.22786382433E+03  0.31030088807E+03  0.60313966926E+01  0.38502591019E+03  0.10100000352E+00 0.  1.
</event>
<event>
 5   0  0.1640035E-03  0.7996824E+03  0.7818609E-02  0.9560477E-01
       -1   -1    0    0    0  501  0.00000000000E+00  0.00000000000E+00  0.16640219867E+03  0.16640219875E+03  0.50400001928E-02 0.  1.
        1   -1    0    0  501    0  0.00000000000E+00  0.00000000000E+00 -0.96076240136E+03  0.96076240137E+03  0.50400001928E-02 0. -1.
    10030    2    1    2    0    0  0.00000000000E+00  0.00000000000E+00 -0.79436020269E+03  0.11271646001E+04  0.79968237705E+03 0.  0.
        5    1    3    3  502    0  0.25810918070E+03 -0.29146638865E+03 -0.52542184348E+03  0.65395963827E+03  0.46999998093E+01 0. -1.
       -5    1    3    3    0  502 -0.25810918070E+03  0.29146638865E+03 -0.26893835921E+03  0.47320496186E+03  0.46999998093E+01 0.  1.
</event>
<event>
 5   0  0.2910501E-03  0.7997139E+03  0.7818609E-02  0.9560431E-01
       -2   -1    0    0    0  501  0.00000000000E+00  0.00000000000E+00  0.18328996389E+03  0.18328996390E+03  0.25500000920E-02 0.  1.
        2   -1    0    0  501    0  0.00000000000E+00  0.00000000000E+00 -0.87230944852E+03  0.87230944852E+03  0.25500000920E-02 0. -1.
    10030    2    1    2    0    0  0.00000000000E+00  0.00000000000E+00 -0.68901948463E+03  0.10555994124E+04  0.79971386715E+03 0.  0.
        1    1    3    3  502    0  0.13431208756E+03 -0.13256785939E+03 -0.80982837781E+03  0.83152629288E+03  0.50400001928E-02 0. -1.
       -1    1    3    3    0  502 -0.13431208756E+03  0.13256785939E+03  0.12080889318E+03  0.22407311955E+03  0.50400001928E-02 0.  1.
</event>
<event>
 5   0  0.1637228E-03  0.7997389E+03  0.7818609E-02  0.9560395E-01
       -1   -1    0    0    0  501  0.00000000000E+00  0.00000000000E+00  0.87088522720E+03  0.87088522721E+03  0.50400001928E-02 0. -1.
        1   -1    0    0  501    0  0.00000000000E+00  0.00000000000E+00 -0.18360118625E+03  0.18360118632E+03  0.50400001928E-02 0.  1.
    10030    2    1    2    0    0  0.00000000000E+00  0.00000000000E+00  0.68728404094E+03  0.10544864135E+04  0.79973885950E+03 0.  0.
        2    1    3    3  502    0 -0.35302207681E+03 -0.18763307700E+03  0.35425625789E+03  0.53416126269E+03  0.25500000920E-02 0. -1.
       -2    1    3    3    0  502  0.35302207681E+03  0.18763307700E+03  0.33302778306E+03  0.52032515084E+03  0.25500000920E-02 0.  1.
</event>
<event>
 5   0  0.2763587E-03  0.7997615E+03  0.7818609E-02  0.9560362E-01
        2   -1    0    0  501    0  0.00000000000E+00  0.00000000000E+00  0.53878859248E+03  0.53878859249E+03  0.25500000920E-02 0. -1.
       -2   -1    0    0    0  501  0.00000000000E+00  0.00000000000E+00 -0.29678547590E+03  0.29678547591E+03  0.25500000920E-02 0.  1.
    10030    2    1    2    0    0  0.00000000000E+00  0.00000000000E+00  0.24200311658E+03  0.83557406840E+03  0.79976153655E+03 0.  0.
        3    1    3    3  502    0  0.17040687436E+03  0.19490440799E+03 -0.19740483067E+03  0.32556859255E+03  0.10100000352E+00 0.  1.
       -3    1    3    3    0  502 -0.17040687436E+03 -0.19490440799E+03  0.43940794725E+03  0.51000547584E+03  0.10100000352E+00 0. -1.
</event>
<event>
 5   0  0.2768834E-03  0.8004605E+03  0.7818609E-02  0.9559351E-01
       -2   -1    0    0    0  501  0.00000000000E+00  0.00000000000E+00  0.36300663895E+03  0.36300663896E+03  0.25500000920E-02 0. -1.
        2   -1    0    0  501    0  0.00000000000E+00  0.00000000000E+00 -0.44127084187E+03  0.44127084188E+03  0.25500000920E-02 0.  1.
    10030    2    1    2    0    0  0.00000000000E+00  0.00000000000E+00 -0.78264202923E+02  0.80427748084E+03  0.80046048043E+03 0.  0.
        4    1    3    3  502    0  0.12847568728E+03 -0.22505390279E+03 -0.34559040094E+03  0.43196018278E+03  0.12699999809E+01 0.  1.
       -4    1    3    3    0  502 -0.12847568728E+03  0.22505390279E+03  0.26732619802E+03  0.37231729806E+03  0.12699999809E+01 0. -1.
</event>
<event>
 5   0  0.2690809E-03  0.7976819E+03  0.7818609E-02  0.9563378E-01
        2   -1    0    0  501    0  0.00000000000E+00  0.00000000000E+00  0.59194442677E+03  0.59194442677E+03  0.25500000920E-02 0.  1.
       -2   -1    0    0    0  501  0.00000000000E+00  0.00000000000E+00 -0.26873150431E+03  0.26873150432E+03  0.25500000920E-02 0. -1.
    10030    2    1    2    0    0  0.00000000000E+00  0.00000000000E+00  0.32321292246E+03  0.86067593110E+03  0.79768193230E+03 0.  0.
        5    1    3    3  502    0  0.85545086236E+01 -0.30471246796E+03 -0.11585738423E+03  0.32614090702E+03  0.46999998093E+01 0. -1.
       -5    1    3    3    0  502 -0.85545086236E+01  0.30471246796E+03  0.43907030669E+03  0.53453502408E+03  0.46999998093E+01 0.  1.
</event>
<event>
 5   0  0.1617491E-03  0.7981518E+03  0.7818609E-02  0.9562696E-01
        1   -1    0    0  501    0  0.00000000000E+00  0.00000000000E+00  0.53494373933E+03  0.53494373935E+03  0.50400001928E-02 0.  1.
       -1   -1    0    0    0  501  0.00000000000E+00  0.00000000000E+00 -0.29771646307E+03  0.29771646311E+03  0.50400001928E-02 0. -1.
    10030    2    1    2    0    0  0.00000000000E+00  0.00000000000E+00  0.23722727626E+03  0.83266020247E+03  0.79815176011E+03 0.  0.
        1    1    3    3  502    0  0.88381555430E+02 -0.36255950042E+03  0.26615260793E+03  0.45836437625E+03  0.50400001928E-02 0.  1.
       -1    1    3    3    0  502 -0.88381555430E+02  0.36255950042E+03 -0.28925331671E+02  0.37429582622E+03  0.50400001928E-02 0. -1.
</event>
<event>
 5   0  0.1656051E-03  0.8021095E+03  0.7818609E-02  0.9556969E-01
        1   -1    0    0  501    0  0.00000000000E+00  0.00000000000E+00  0.48073977835E+03  0.48073977838E+03  0.50400001928E-02 0. -1.
       -1   -1    0    0    0  501  0.00000000000E+00  0.00000000000E+00 -0.33457794998E+03  0.33457795002E+03  0.50400001928E-02 0.  1.
    10030    2    1    2    0    0  0.00000000000E+00  0.00000000000E+00  0.14616182837E+03  0.81531772839E+03  0.80210954249E+03 0.  0.
        3    1    3    3  502    0  0.22543470819E+03 -0.29255131535E+03 -0.85819345686E+02  0.37917284985E+03  0.10100000352E+00 0.  1.
       -3    1    3    3    0  502 -0.22543470819E+03  0.29255131535E+03  0.23198117406E+03  0.43614487855E+03  0.10100000352E+00 0. -1.
</event>
<event>
 5   0  0.1712793E-03  0.8008463E+03  0.7818609E-02  0.9558793E-01
       -1   -1    0    0    0  501  0.00000000000E+00  0.00000000000E+00  0.64248360975E+03  0.64248360977E+03  0.50400001928E-02 0. -1.
        1   -1    0    0  501    0  0.00000000000E+00  0.00000000000E+00 -0.24956074640E+03  0.24956074645E+03  0.50400001928E-02 0.  1.
    10030    2    1    2    0    0  0.00000000000E+00  0.00000000000E+00  0.39292286335E+03  0.89204435622E+03  0.80084627546E+03 0.  0.
        4    1    3    3  502    0 -0.71937511227E+02  0.24603265507E+03  0.53911220610E+03  0.59695113414E+03  0.12699999809E+01 0. -1.
       -4    1    3    3    0  502  0.71937511227E+02 -0.24603265507E+03 -0.14618934275E+03  0.29509322208E+03  0.12699999809E+01 0.  1.
</event>
<event>
 5   0  0.1640035E-03  0.8020137E+03  0.7818609E-02  0.9557107E-01
        1   -1    0    0  501    0  0.00000000000E+00  0.00000000000E+00  0.21594572222E+03  0.21594572227E+03  0.50400001928E-02 0. -1.
       -1   -1    0    0    0  501  0.00000000000E+00  0.00000000000E+00 -0.74466163284E+03  0.74466163286E+03  0.50400001928E-02 0.  1.
    10030    2    1    2    0    0  0.00000000000E+00  0.00000000000E+00 -0.52871591063E+03  0.96060735513E+03  0.80201370100E+03 0.  0.
        5    1    3    3  502    0 -0.74108790125E+02 -0.36885650948E+03 -0.43048283343E+03  0.57173839930E+03  0.46999998093E+01 0.  1.
       -5    1    3    3    0  502  0.74108790125E+02  0.36885650948E+03 -0.98233077196E+02  0.38886895583E+03  0.46999998093E+01 0. -1.
</event>
<event>
 5   0  0.2763587E-03  0.8004421E+03  0.7818609E-02  0.9559377E-01
       -2   -1    0    0    0  501  0.00000000000E+00  0.00000000000E+00  0.68658507201E+03  0.68658507202E+03  0.25500000920E-02 0.  1.
        2   -1    0    0  501    0  0.00000000000E+00  0.00000000000E+00 -0.23329502466E+03  0.23329502467E+03  0.25500000920E-02 0. -1.
    10030    2    1    2    0    0  0.00000000000E+00  0.00000000000E+00  0.45329004735E+03  0.91988009669E+03  0.80044208114E+03 0.  0.
        3    1    3    3  502    0  0.12908493312E+01 -0.24683603423E+03 -0.13539817314E+03  0.28153573411E+03  0.10100000352E+00 0. -1.
       -3    1    3    3    0  502 -0.12908493312E+01  0.24683603423E+03  0.58868822050E+03  0.63834436258E+03  0.10100000352E+00 0.  1.
</event>
<event>
 5   0  0.1637228E-03  0.7883850E+03  0.7818609E-02  0.9576983E-01
        1   -1    0    0  501    0  0.00000000000E+00  0.00000000000E+00  0.11354959447E+04  0.11354959447E+04  0.50400001928E-02 0.  1.
       -1   -1    0    0    0  501  0.00000000000E+00  0.00000000000E+00 -0.13684569671E+03  0.13684569680E+03  0.50400001928E-02 0. -1.
    10030    2    1    2    0    0  0.00000000000E+00  0.00000000000E+00  0.99865024795E+03  0.12723416415E+04  0.78838501690E+03 0.  0.
        2    1    3    3  502    0 -0.14212148251E+03  0.14366492353E+03 -0.46888064540E+02  0.20745268531E+03  0.25500000920E-02 0. -1.
       -2    1    3    3    0  502  0.14212148251E+03 -0.14366492353E+03  0.10455383125E+04  0.10648889562E+04  0.25500000920E-02 0.  1.
</event>
<event>
 5   0  0.1712793E-03  0.7992909E+03  0.7818609E-02  0.9561044E-01
       -1   -1    0    0    0  501  0.00000000000E+00  0.00000000000E+00  0.14922188021E+03  0.14922188030E+03  0.50400001928E-02 0.  1.
        1   -1    0    0  501    0  0.00000000000E+00  0.00000000000E+00 -0.10703288765E+04  0.10703288765E+04  0.50400001928E-02 0. -1.
    10030    2    1    2    0    0  0.00000000000E+00  0.00000000000E+00 -0.92110699632E+03  0.12195507568E+04  0.79929090439E+03 0.  0.
        4    1    3    3  502    0  0.29768804450E+03 -0.23970405322E+03 -0.63874254854E+03  0.74435869121E+03  0.12699999809E+01 0. -1.
       -4    1    3    3    0  502 -0.29768804450E+03  0.23970405322E+03 -0.28236444779E+03  0.47519206563E+03  0.12699999809E+01 0.  1.
</event>
<event>
 5   0  0.1656051E-03  0.8003139E+03  0.7818609E-02  0.9559563E-01
       -1   -1    0    0    0  501  0.00000000000E+00  0.00000000000E+00  0.14038596358E+03  0.14038596367E+03  0.50400001928E-02 0. -1.
        1   -1    0    0  501    0  0.00000000000E+00  0.00000000000E+00 -0.11406096462E+04  0.11406096462E+04  0.50400001928E-02 0.  1.
    10030    2    1    2    0    0  0.00000000000E+00  0.00000000000E+00 -0.10002236826E+04  0.12809956099E+04  0.80031389921E+03 0.  0.
        3    1    3    3  502    0  0.35140041685E+01  0.18705209310E+03 -0.10662975156E+04  0.10825854404E+04  0.10100000352E+00 0.  1.
       -3    1    3    3    0  502 -0.35140041685E+01 -0.18705209310E+03  0.66073832971E+02  0.19841016951E+03  0.10100000352E+00 0. -1.
</event>
<event>
 5   0  0.1712793E-03  0.8003928E+03  0.7818609E-02  0.9559449E-01
       -1   -1    0    0    0  501  0.00000000000E+00  0.00000000000E+00  0.48410057054E+03  0.48410057056E+03  0.50400001928E-02 0. -1.
        1   -1    0    0  501    0  0.00000000000E+00  0.00000000000E+00 -0.33083443745E+03  0.33083443749E+03  0.50400001928E-02 0.  1.
    10030    2    1    2    0    0  0.00000000000E+00  0.00000000000E+00  0.15326613308E+03  0.81493500805E+03  0.80039275347E+03 0.  0.
        4    1    3    3  502    0  0.12442620742E+03  0.14086984844E+03 -0.28309816912E+03  0.33981227399E+03  0.12699999809E+01 0.  1.
       -4    1    3    3    0  502 -0.12442620742E+03 -0.14086984844E+03  0.43636430220E+03  0.47512273407E+03  0.12699999809E+01 0. -1.
</event>
<event>
 5   0  0.2873212E-03  0.8007837E+03  0.7818609E-02  0.9558883E-01
        2   -1    0    0  501    0  0.00000000000E+00  0.00000000000E+00  0.11327333279E+04  0.11327333279E+04  0.25500000920E-02 0. -1.
       -2   -1    0    0    0  501  0.00000000000E+00  0.00000000000E+00 -0.14152813053E+03  0.14152813055E+03  0.25500000920E-02 0.  1.
    10030    2    1    2    0    0  0.00000000000E+00  0.00000000000E+00  0.99120519736E+03  0.12742614584E+04  0.80078369190E+03 0.  0.
        2    1    3    3  502    0 -0.26144936104E+03 -0.19588154725E+03  0.12723769819E+03  0.35059204325E+03  0.25500000920E-02 0.  1.
       -2    1    3    3    0  502  0.26144936104E+03  0.19588154725E+03  0.86396749917E+03  0.92366941519E+03  0.25500000920E-02 0. -1.
</event>
<event>
 5   0  0.2690809E-03  0.7987708E+03  0.7818609E-02  0.9561798E-01
       -2   -1    0    0    0  501  0.00000000000E+00  0.00000000000E+00  0.17864242416E+03  0.17864242418E+03  0.25500000920E-02 0. -1.
        2   -1    0    0  501    0  0.00000000000E+00  0.00000000000E+00 -0.89289378129E+03  0.89289378130E+03  0.25500000920E-02 0.  1.
    10030    2    1    2    0    0  0.00000000000E+00  0.00000000000E+00 -0.71425135713E+03  0.10715362055E+04  0.79877082976E+03 0.  0.
        5    1    3    3  502    0 -0.70974626487E+02  0.12970951872E+03 -0.85478573802E+03  0.86749219292E+03  0.46999998093E+01 0.  1.
       -5    1    3    3    0  502  0.70974626487E+02 -0.12970951872E+03  0.14053438089E+03  0.20404401256E+03  0.46999998093E+01 0. -1.
</event>
<event>
 5   0  0.2763587E-03  0.8002908E+03  0.7818609E-02  0.9559596E-01
       -2   -1    0    0    0  501  0.00000000000E+00  0.00000000000E+00  0.64748073270E+03  0.64748073271E+03  0.25500000920E-02 0. -1.
        2   -1    0    0  501    0  0.00000000000E+00  0.00000000000E+00 -0.24729126572E+03  0.24729126573E+03  0.25500000920E-02 0.  1.
    10030    2    1    2    0    0  0.00000000000E+00  0.00000000000E+00  0.40018946698E+03  0.89477199844E+03  0.80029077198E+03 0.  0.
        3    1    3    3  502    0 -0.38653574397E+03  0.10342241655E+03  0.20367289017E+03  0.44898634056E+03  0.10100000352E+00 0.  1.
       -3    1    3    3    0  502  0.38653574397E+03 -0.10342241655E+03  0.19651657681E+03  0.44578565788E+03  0.10100000352E+00 0. -1.
</event>
<event>
 5   0  0.2690809E-03  0.7993705E+03  0.7818609E-02  0.9560929E-01
        2   -1    0    0  501    0  0.00000000000E+00  0.00000000000E+00  0.69345727921E+03  0.69345727921E+03  0.25500000920E-02 0.  1.
       -2   -1    0    0    0  501  0.00000000000E+00  0.00000000000E+00 -0.23036503557E+03  0.23036503558E+03  0.25500000920E-02 0. -1.
    10030    2    1    2    0    0  0.00000000000E+00  0.00000000000E+00  0.46309224363E+03  0.92382231479E+03  0.79937052935E+03 0.  0.
        5    1    3    3  502    0 -0.32824002483E+02 -0.20417173537E+02 -0.22816752717E+03  0.23146659925E+03  0.46999998093E+01 0. -1.
       -5    1    3    3    0  502  0.32824002483E+02  0.20417173537E+02  0.69125977081E+03  0.69235571554E+03  0.46999998093E+01 0.  1.
</event>
<event>
 5   0  0.1712793E-03  0.7996444E+03  0.7818609E-02  0.9560532E-01
        1   -1    0    0  501    0  0.00000000000E+00  0.00000000000E+00  0.48040353829E+03  0.48040353832E+03  0.50400001928E-02 0.  1.
       -1   -1    0    0    0  501  0.00000000000E+00  0.00000000000E+00 -0.33275733567E+03  0.33275733571E+03  0.50400001928E-02 0. -1.
    10030    2    1    2    0    0  0.00000000000E+00  0.00000000000E+00  0.14764620262E+03  0.81316087403E+03  0.79964442467E+03 0.  0.
        4    1    3    3  502    0 -0.14374722253E+03 -0.15535519980E+03  0.41875819286E+03  0.46921054877E+03  0.12699999809E+01 0.  1.
       -4    1    3    3    0  502  0.14374722253E+03  0.15535519980E+03 -0.27111199025E+03  0.34395032526E+03  0.12699999809E+01 0. -1.
</event>
<event>
 5   0  0.1656051E-03  0.7984543E+03  0.7818609E-02  0.9562257E-01
       -1   -1    0    0    0  501  0.00000000000E+00  0.00000000000E+00  0.16566893061E+03  0.16566893069E+03  0.50400001928E-02 0.  1.
        1   -1    0    0  501    0  0.00000000000E+00  0.00000000000E+00 -0.96205322094E+03  0.96205322095E+03  0.50400001928E-02 0. -1.
    10030    2    1    2    0    0  0.00000000000E+00  0.00000000000E+00 -0.79638429032E+03  0.11277221516E+04  0.79845432770E+03 0.  0.
        3    1    3    3  502    0  0.30183610712E+03  0.21321950555E+03 -0.18485835376E+03  0.41320722920E+03  0.10100000352E+00 0.  1.
       -3    1    3    3    0  502 -0.30183610712E+03 -0.21321950555E+03 -0.61152593656E+03  0.71451492244E+03  0.10100000352E+00 0. -1.
</event>
<event>
 5   0  0.1656051E-03  0.7991723E+03  0.7818609E-02  0.9561216E-01
        1   -1    0    0  501    0  0.00000000000E+00  0.00000000000E+00  0.38886750220E+03  0.38886750223E+03  0.50400001928E-02 0. -1.
       -1   -1    0    0    0  501  0.00000000000E+00  0.00000000000E+00 -0.41060020784E+03  0.41060020787E+03  0.50400001928E-02 0.  1.
    10030    2    1    2    0    0  0.00000000000E+00  0.00000000000E+00 -0.21732705639E+02  0.79946771011E+03  0.79917226491E+03 0.  0.
        3    1    3    3  502    0 -0.51636387193E+02  0.93259913387E+02  0.37438033840E+03  0.38926132085E+03  0.10100000352E+00 0. -1.
       -3    1    3    3    0  502  0.51636387193E+02 -0.93259913387E+02 -0.39611304404E+03  0.41020638926E+03  0.10100000352E+00 0.  1.
</event>
<event>
 5   0  0.1640035E-03  0.7933856E+03  0.7818609E-02  0.9569641E-01
        1   -1    0    0  501    0  0.00000000000E+00  0.00000000000E+00  0.26867284762E+03  0.26867284767E+03  0.50400001928E-02 0.  1.
       -1   -1    0    0    0  501  0.00000000000E+00  0.00000000000E+00 -0.58571304738E+03  0.58571304741E+03  0.50400001928E-02 0. -1.
    10030    2    1    2    0    0  0.00000000000E+00  0.00000000000E+00 -0.31704019976E+03  0.85438589507E+03  0.79338563727E+03 0.  0.
        5    1    3    3  502    0  0.11557365886E+03  0.35044304535E+03 -0.18137442408E+01  0.36904332851E+03  0.46999998093E+01 0.  1.
       -5    1    3    3    0  502 -0.11557365886E+03 -0.35044304535E+03 -0.31522645552E+03  0.48534256656E+03  0.46999998093E+01 0. -1.
</event>
<event>
 5   0  0.2873212E-03  0.8003352E+03  0.7818609E-02  0.9559532E-01
        2   -1    0    0  501    0  0.00000000000E+00  0.00000000000E+00  0.87813514379E+03  0.87813514379E+03  0.25500000920E-02 0. -1.
       -2   -1    0    0    0  501  0.00000000000E+00  0.00000000000E+00 -0.18235702746E+03  0.18235702748E+03  0.25500000920E-02 0.  1.
    10030    2    1    2    0    0  0.00000000000E+00  0.00000000000E+00  0.69577811632E+03  0.10604921713E+04  0.80033521613E+03 0.  0.
        2    1    3    3  502    0  0.27403820394E+02 -0.38551148392E+03  0.48536389411E+03  0.62044192582E+03  0.25500000920E-02 0. -1.
       -2    1    3    3    0  502 -0.27403820394E+02  0.38551148392E+03  0.21041422221E+03  0.44005024545E+03  0.25500000920E-02 0.  1.
</event>
<event>
 5   0  0.2763587E-03  0.8000627E+03  0.7818609E-02  0.9559926E-01
        2   -1    0    0  501    0  0.00000000000E+00  0.00000000000E+00  0.20088247365E+04  0.20088247365E+04  0.25500000920E-02 0. -1.
       -2   -1    0    0    0  501  0.00000000000E+00  0.00000000000E+00 -0.79661050990E+02  0.79661051031E+02  0.25500000920E-02 0.  1.
    10030    2    1    2    0    0  0.00000000000E+00  0.00000000000E+00  0.19291636855E+04  0.20884857876E+04  0.80006272207E+03 0.  0.
        3    1    3    3  502    0  0.21953238393E+03  0.13317842441E+03  0.16384699457E+03  0.30459285637E+03  0.10100000352E+00 0.  1.
       -3    1    3    3    0  502 -0.21953238393E+03 -0.13317842441E+03  0.17653166910E+04  0.17838929312E+04  0.10100000352E+00 0. -1.
</event>
<event>
 5   0  0.2763587E-03  0.8001456E+03  0.7818609E-02  0.9559806E-01
       -2   -1    0    0    0  501  0.00000000000E+00  0.00000000000E+00  0.98355290423E+02  0.98355290456E+02  0.25500000920E-02 0. -1.
        2   -1    0    0  501    0  0.00000000000E+00  0.00000000000E+00 -0.16273475268E+04  0.16273475268E+04  0.25500000920E-02 0.  1.
    10030    2    1    2    0    0  0.00000000000E+00  0.00000000000E+00 -0.15289922364E+04  0.17257028173E+04  0.80014558338E+03 0.  0.
        3    1    3    3  502    0 -0.54632448100E+02 -0.31598098665E+03 -0.24854670383E+03  0.40571438537E+03  0.10100000352E+00 0. -1.
       -3    1    3    3    0  502  0.54632448100E+02  0.31598098665E+03 -0.12804455326E+04  0.13199884319E+04  0.10100000352E+00 0.  1.
</event>
<event>
 5   0  0.1637228E-03  0.8000988E+03  0.7818609E-02  0.9559874E-01
       -1   -1    0    0    0  501  0.00000000000E+00  0.00000000000E+00  0.14950536609E+04  0.14950536610E+04  0.50400001928E-02 0. -1.
        1   -1    0    0  501    0  0.00000000000E+00  0.00000000000E+00 -0.10704600149E+03  0.10704600161E+03  0.50400001928E-02 0.  1.
    10030    2    1    2    0    0  0.00000000000E+00  0.00000000000E+00  0.13880076595E+04  0.16020996626E+04  0.80009878519E+03 0.  0.
        2    1    3    3  502    0  0.50382231231E+02 -0.37587709586E+03  0.94900291486E+03  0.10219728435E+04  0.25500000920E-02 0. -1.
       -2    1    3    3    0  502 -0.50382231231E+02  0.37587709586E+03  0.43900474459E+03  0.58012681906E+03  0.25500000920E-02 0.  1.
</event>
<event>
 5   0  0.2768834E-03  0.8000956E+03  0.7818609E-02  0.9559879E-01
       -2   -1    0    0    0  501  0.00000000000E+00  0.00000000000E+00  0.19865695652E+03  0.19865695654E+03  0.25500000920E-02 0.  1.
        2   -1    0    0  501    0  0.00000000000E+00  0.00000000000E+00 -0.80560106434E+03  0.80560106434E+03  0.25500000920E-02 0. -1.
    10030    2    1    2    0    0  0.00000000000E+00  0.00000000000E+00 -0.60694410782E+03  0.10042580209E+04  0.80009563334E+03 0.  0.
        4    1    3    3  502    0 -0.35673572436E+03 -0.17771798262E+03 -0.26012616042E+03  0.47593202311E+03  0.12699999809E+01 0.  1.
       -4    1    3    3    0  502  0.35673572436E+03  0.17771798262E+03 -0.34681794739E+03  0.52832599777E+03  0.12699999809E+01 0. -1.
</event>
<event>
 5   0  0.2763587E-03  0.8002293E+03  0.7818609E-02  0.9559685E-01
        2   -1    0    0  501    0  0.00000000000E+00  0.00000000000E+00  0.66112728533E+03  0.66112728534E+03  0.25500000920E-02 0.  1.
       -2   -1    0    0    0  501  0.00000000000E+00  0.00000000000E+00 -0.24214963665E+03  0.24214963666E+03  0.25500000920E-02 0. -1.
    10030    2    1    2    0    0  0.00000000000E+00  0.00000000000E+00  0.41897764869E+03  0.90327692200E+03  0.80022929697E+03 0.  0.
        3    1    3    3  502    0 -0.88933426964E+02 -0.38993595046E+03  0.19649460517E+03  0.44561119820E+03  0.10100000352E+00 0. -1.
       -3    1    3    3    0  502  0.88933426964E+02  0.38993595046E+03  0.22248304351E+03  0.45766572381E+03  0.10100000352E+00 0.  1.
</event>
<event>
 5   0  0.2763587E-03  0.7969271E+03  0.7818609E-02  0.9564476E-01
        2   -1    0    0  501    0  0.00000000000E+00  0.00000000000E+00  0.50517621517E+03  0.50517621518E+03  0.25500000920E-02 0.  1.
       -2   -1    0    0    0  501  0.00000000000E+00  0.00000000000E+00 -0.31429269806E+03  0.31429269807E+03  0.25500000920E-02 0. -1.
    10030    2    1    2    0    0  0.00000000000E+00  0.00000000000E+00  0.19088351711E+03  0.81946891325E+03  0.79692708743E+03 0.  0.
        3    1    3    3  502    0 -0.33826906337E+03 -0.16683948283E+03  0.22757475321E+03  0.44051294051E+03  0.10100000352E+00 0.  1.
       -3    1    3    3    0  502  0.33826906337E+03  0.16683948283E+03 -0.36691236095E+02  0.37895597273E+03  0.10100000352E+00 0. -1.
</event>
<event>
 5   0  0.1095350E-03  0.8025119E+03  0.7818609E-02  0.9556388E-01
        3   -1    0    0  501    0  0.00000000000E+00  0.00000000000E+00  0.22956334108E+03  0.22956336330E+03  0.10100000352E+00 0.  1.
       -3   -1    0    0    0  501  0.00000000000E+00  0.00000000000E+00 -0.70135895871E+03  0.70135896598E+03  0.10100000352E+00 0. -1.
    10030    2    1    2    0    0  0.00000000000E+00  0.00000000000E+00 -0.47179561763E+03  0.93092232928E+03  0.80251185557E+03 0.  0.
        3    1    3    3  502    0 -0.23730040368E+03 -0.26272849544E+03 -0.16816759628E+02  0.35442990493E+03  0.10100000352E+00 0.  1.
       -3    1    3    3    0  502  0.23730040368E+03  0.26272849544E+03 -0.45497885800E+03  0.57649242435E+03  0.10100000352E+00 0. -1.
</event>
<event>
 5   0  0.2763587E-03  0.8004924E+03  0.7818609E-02  0.9559305E-01
       -2   -1    0    0    0  501  0.00000000000E+00  0.00000000000E+00  0.13633864291E+03  0.13633864293E+03  0.25500000920E-02 0. -1.
        2   -1    0    0  501    0  0.00000000000E+00  0.00000000000E+00 -0.11749936018E+04  0.11749936018E+04  0.25500000920E-02 0.  1.
    10030    2    1    2    0    0  0.00000000000E+00  0.00000000000E+00 -0.10386549589E+04  0.13113322447E+04  0.80049243121E+03 0.  0.
        3    1    3    3  502    0 -0.39575286949E+02  0.35539848944E+02  0.13052287855E+03  0.14094508231E+03  0.10100000352E+00 0. -1.
       -3    1    3    3    0  502  0.39575286949E+02 -0.35539848944E+02 -0.11691778374E+04  0.11703871624E+04  0.10100000352E+00 0.  1.
</event>
<event>
 5   0  0.2690809E-03  0.8165530E+03  0.7818609E-02  0.9536362E-01
       -2   -1    0    0    0  501  0.00000000000E+00  0.00000000000E+00  0.23246084569E+03  0.23246084570E+03  0.25500000920E-02 0. -1.
        2   -1    0    0  501    0  0.00000000000E+00  0.00000000000E+00 -0.71706572052E+03  0.71706572053E+03  0.25500000920E-02 0.  1.
    10030    2    1    2    0    0  0.00000000000E+00  0.00000000000E+00 -0.48460487484E+03  0.94952656623E+03  0.81655300824E+03 0.  0.
        5    1    3    3  502    0 -0.90563305613E+02  0.38134374383E+02 -0.70307722202E+03  0.70992648419E+03  0.46999998093E+01 0.  1.
       -5    1    3    3    0  502  0.90563305613E+02 -0.38134374383E+02  0.21847234718E+03  0.23960008204E+03  0.46999998093E+01 0. -1.
</event>
<event>
 5   0  0.1656051E-03  0.8000433E+03  0.7818609E-02  0.9559955E-01
       -1   -1    0    0    0  501  0.00000000000E+00  0.00000000000E+00  0.16421716243E+03  0.16421716251E+03  0.50400001928E-02 0. -1.
        1   -1    0    0  501    0  0.00000000000E+00  0.00000000000E+00 -0.97442496125E+03  0.97442496126E+03  0.50400001928E-02 0.  1.
    10030    2    1    2    0    0  0.00000000000E+00  0.00000000000E+00 -0.81020779882E+03  0.11386421238E+04  0.80004325430E+03 0.  0.
        3    1    3    3  502    0 -0.95263961476E+02 -0.32499460793E+03 -0.10211865286E+03  0.35373004821E+03  0.10100000352E+00 0. -1.
       -3    1    3    3    0  502  0.95263961476E+02  0.32499460793E+03 -0.70808914595E+03  0.78491207556E+03  0.10100000352E+00 0.  1.
</event>
<event>
 5   0  0.1095350E-03  0.8005403E+03  0.7818609E-02  0.9559235E-01
        3   -1    0    0  501    0  0.00000000000E+00  0.00000000000E+00  0.10081881719E+03  0.10081886778E+03  0.10100000352E+00 0. -1.
       -3   -1    0    0    0  501  0.00000000000E+00  0.00000000000E+00 -0.15891490900E+04  0.15891490932E+04  0.10100000352E+00 0.  1.
    10030    2    1    2    0    0  0.00000000000E+00  0.00000000000E+00 -0.14883302728E+04  0.16899679610E+04  0.80054026018E+03 0.  0.
        1    1    3    3  502    0  0.18397712070E+03  0.34995344802E+03 -0.61231113798E+03  0.72886207642E+03  0.50400001928E-02 0.  1.
       -1    1    3    3    0  502 -0.18397712070E+03 -0.34995344802E+03 -0.87601913480E+03  0.96110588454E+03  0.50400001928E-02 0. -1.
</event>
<event>
 5   0  0.1637228E-03  0.8006455E+03  0.7818609E-02  0.9559083E-01
       -1   -1    0    0    0  501  0.00000000000E+00  0.00000000000E+00  0.16193612897E+03  0.16193612905E+03  0.50400001928E-02 0.  1.
        1   -1    0    0  501    0  0.00000000000E+00  0.00000000000E+00 -0.98963886952E+03  0.98963886953E+03  0.50400001928E-02 0. -1.
    10030    2    1    2    0    0  0.00000000000E+00  0.00000000000E+00 -0.82770274055E+03  0.11515749986E+04  0.80064545876E+03 0.  0.
        2    1    3    3  502    0  0.73098900494E+02 -0.34223247487E+03 -0.69346002378E+03  0.77675821251E+03  0.25500000920E-02 0. -1.
       -2    1    3    3    0  502 -0.73098900494E+02  0.34223247487E+03 -0.13424271677E+03  0.37481678607E+03  0.25500000920E-02 0.  1.
</event>
<event>
 5   0  0.1712793E-03  0.8004771E+03  0.7818609E-02  0.9559327E-01
        1   -1    0    0  501    0  0.00000000000E+00  0.00000000000E+00  0.27401912032E+03  0.27401912037E+03  0.50400001928E-02 0.  1.
       -1   -1    0    0    0  501  0.00000000000E+00  0.00000000000E+00 -0.58459753083E+03  0.58459753086E+03  0.50400001928E-02 0. -1.
    10030    2    1    2    0    0  0.00000000000E+00  0.00000000000E+00 -0.31057841051E+03  0.85861665122E+03  0.80047711065E+03 0.  0.
        4    1    3    3  502    0  0.29646710319E+03  0.83629074216E+02 -0.42939362219E+03  0.52845724615E+03  0.12699999809E+01 0. -1.
       -4    1    3    3    0  502 -0.29646710319E+03 -0.83629074216E+02  0.11881521168E+03  0.33015940507E+03  0.12699999809E+01 0.  1.
</event>
<event>
 5   0  0.2763587E-03  0.8012917E+03  0.7818609E-02  0.9558149E-01
       -2   -1    0    0    0  501  0.00000000000E+00  0.00000000000E+00  0.21236219027E+03  0.21236219028E+03  0.25500000920E-02 0. -1.
        2   -1    0    0  501    0  0.00000000000E+00  0.00000000000E+00 -0.75586469339E+03  0.75586469339E+03  0.25500000920E-02 0.  1.
    10030    2    1    2    0    0  0.00000000000E+00  0.00000000000E+00 -0.54350250312E+03  0.96822688367E+03  0.80129166186E+03 0.  0.
        3    1    3    3  502    0 -0.22549952026E+03 -0.29775562943E+03 -0.44689123683E+03  0.58242616378E+03  0.10100000352E+00 0.  1.
       -3    1    3    3    0  502  0.22549952026E+03  0.29775562943E+03 -0.96611266292E+02  0.38580071989E+03  0.10100000352E+00 0. -1.
</event>
<event>
 5   0  0.2763587E-03  0.7978542E+03  0.7818609E-02  0.9563128E-01
       -2   -1    0    0    0  501  0.00000000000E+00  0.00000000000E+00  0.27761363880E+03  0.27761363882E+03  0.25500000920E-02 0.  1.
        2   -1    0    0  501    0  0.00000000000E+00  0.00000000000E+00 -0.57325295836E+03  0.57325295837E+03  0.25500000920E-02 0. -1.
    10030    2    1    2    0    0  0.00000000000E+00  0.00000000000E+00 -0.29563931956E+03  0.85086659718E+03  0.79785422160E+03 0.  0.
        3    1    3    3  502    0  0.18682693411E+03 -0.13110872466E+03 -0.49674241457E+03  0.54666885554E+03  0.10100000352E+00 0. -1.
       -3    1    3    3    0  502 -0.18682693411E+03  0.13110872466E+03  0.20110309501E+03  0.30419774164E+03  0.10100000352E+00 0.  1.
</event>
<event>
 5   0  0.2910501E-03  0.8001362E+03  0.7818609E-02  0.9559820E-01
        2   -1    0    0  501    0  0.00000000000E+00  0.00000000000E+00  0.11788203084E+04  0.11788203084E+04  0.25500000920E-02 0.  1.
       -2   -1    0    0    0  501  0.00000000000E+00  0.00000000000E+00 -0.13577513760E+03  0.13577513763E+03  0.25500000920E-02 0. -1.
    10030    2    1    2    0    0  0.00000000000E+00  0.00000000000E+00  0.10430451708E+04  0.13145954460E+04  0.80013621240E+03 0.  0.
        1    1    3    3  502    0  0.97606964354E+02 -0.31923479653E+03  0.15926281435E+03  0.36986838046E+03  0.50400001928E-02 0. -1.
       -1    1    3    3    0  502 -0.97606964354E+02  0.31923479653E+03  0.88378235645E+03  0.94472706556E+03  0.50400001928E-02 0.  1.
</event>
<event>
 5   0  0.1617491E-03  0.7984182E+03  0.7818609E-02  0.9562309E-01
        1   -1    0    0  501    0  0.00000000000E+00  0.00000000000E+00  0.13343130061E+04  0.13343130061E+04  0.50400001928E-02 0. -1.
       -1   -1    0    0    0  501  0.00000000000E+00  0.00000000000E+00 -0.11943818216E+03  0.11943818227E+03  0.50400001928E-02 0.  1.
    10030    2    1    2    0    0  0.00000000000E+00  0.00000000000E+00  0.12148748239E+04  0.14537511884E+04  0.79841823618E+03 0.  0.
        1    1    3    3  502    0  0.13942638022E+03 -0.20140603838E+03  0.33487812098E+02  0.24723580117E+03  0.50400001928E-02 0.  1.
       -1    1    3    3    0  502 -0.13942638022E+03  0.20140603838E+03  0.11813870118E+04  0.12065153872E+04  0.50400001928E-02 0. -1.
</event>
<event>
 5   0  0.2873212E-03  0.8000897E+03  0.7818609E-02  0.9559887E-01
        2   -1    0    0  501    0  0.00000000000E+00  0.00000000000E+00  0.22568160003E+04  0.22568160003E+04  0.25500000920E-02 0.  1.
       -2   -1    0    0    0  501  0.00000000000E+00  0.00000000000E+00 -0.70912245844E+02  0.70912245890E+02  0.25500000920E-02 0. -1.
    10030    2    1    2    0    0  0.00000000000E+00  0.00000000000E+00  0.21859037544E+04  0.23277282462E+04  0.80008972270E+03 0.  0.
        2    1    3    3  502    0 -0.30923509832E+03 -0.12543929976E+03  0.17348180011E+04  0.17666224444E+04  0.25500000920E-02 0.  1.
       -2    1    3    3    0  502  0.30923509832E+03  0.12543929976E+03  0.45108575331E+03  0.56110580178E+03  0.25500000920E-02 0. -1.
</event>
<event>
 5   0  0.2763587E-03  0.8004866E+03  0.7818609E-02  0.9559313E-01
       -2   -1    0    0    0  501  0.00000000000E+00  0.00000000000E+00  0.11865999647E+03  0.11865999650E+03  0.25500000920E-02 0. -1.
        2   -1    0    0  501    0  0.00000000000E+00  0.00000000000E+00 -0.13500313309E+04  0.13500313309E+04  0.25500000920E-02 0.  1.
    10030    2    1    2    0    0  0.00000000000E+00  0.00000000000E+00 -0.12313713344E+04  0.14686913274E+04  0.80048663444E+03 0.  0.
        3    1    3    3  502    0  0.23142837403E+02 -0.39836325043E+03 -0.55866564691E+03  0.68653928179E+03  0.10100000352E+00 0.  1.
       -3    1    3    3    0  502 -0.23142837403E+02  0.39836325043E+03 -0.67270568750E+03  0.78215204559E+03  0.10100000352E+00 0. -1.
</event>
<event>
 5   0  0.1617491E-03  0.7998080E+03  0.7818609E-02  0.9560295E-01
       -1   -1    0    0    0  501  0.00000000000E+00  0.00000000000E+00  0.45394366691E+03  0.45394366693E+03  0.50400001928E-02 0.  1.
        1   -1    0    0  501    0  0.00000000000E+00  0.00000000000E+00 -0.35229751569E+03  0.35229751572E+03  0.50400001928E-02 0. -1.
    10030    2    1    2    0    0  0.00000000000E+00  0.00000000000E+00  0.10164615122E+03  0.80624118266E+03  0.79980804232E+03 0.  0.
        1    1    3    3  502    0 -0.28950982134E+03  0.26914583939E+03 -0.10226468484E+02  0.39542382351E+03  0.50400001928E-02 0.  1.
       -1    1    3    3    0  502  0.28950982134E+03 -0.26914583939E+03  0.11187261970E+03  0.41081735915E+03  0.50400001928E-02 0. -1.
</event>
<event>
 5   0  0.2768834E-03  0.7992652E+03  0.7818609E-02  0.9561081E-01
       -2   -1    0    0    0  501  0.00000000000E+00  0.00000000000E+00  0.14779534470E+03  0.14779534472E+03  0.25500000920E-02 0.  1.
        2   -1    0    0  501    0  0.00000000000E+00  0.00000000000E+00 -0.10805902406E+04  0.10805902406E+04  0.25500000920E-02 0. -1.
    10030    2    1    2    0    0  0.00000000000E+00  0.00000000000E+00 -0.93279489590E+03  0.12283855853E+04  0.79926518029E+03 0.  0.
        4    1    3    3  502    0  0.89349301765E+02  0.18548679487E+03 -0.99280527782E+03  0.10139292783E+04  0.12699999809E+01 0. -1.
       -4    1    3    3    0  502 -0.89349301765E+02 -0.18548679487E+03  0.60010381916E+02  0.21445630705E+03  0.12699999809E+01 0.  1.
</event>
<event>
 5   0  0.1640035E-03  0.7977890E+03  0.7818609E-02  0.9563223E-01
       -1   -1    0    0    0  501  0.00000000000E+00  0.00000000000E+00  0.27403518474E+03  0.27403518479E+03  0.50400001928E-02 0. -1.
        1   -1    0    0  501    0  0.00000000000E+00  0.00000000000E+00 -0.58064378853E+03  0.58064378855E+03  0.50400001928E-02 0.  1.
    10030    2    1    2    0    0  0.00000000000E+00  0.00000000000E+00 -0.30660860379E+03  0.85467897334E+03  0.79778901443E+03 0.  0.
        5    1    3    3  502    0 -0.75241954049E+02  0.91640782408E+01  0.26621893105E+03  0.27683919741E+03  0.46999998093E+01 0. -1.
       -5    1    3    3    0  502  0.75241954049E+02 -0.91640782408E+01 -0.57282753484E+03  0.57783977593E+03  0.46999998093E+01 0.  1.
</event>
<event>
 5   0  0.2690809E-03  0.8001480E+03  0.7818609E-02  0.9559803E-01
        2   -1    0    0  501    0  0.00000000000E+00  0.00000000000E+00  0.13680811621E+04  0.13680811621E+04  0.25500000920E-02 0.  1.
       -2   -1    0    0    0  501  0.00000000000E+00  0.00000000000E+00 -0.11699540051E+03  0.11699540054E+03  0.25500000920E-02 0. -1.
    10030    2    1    2    0    0  0.00000000000E+00  0.00000000000E+00  0.12510857616E+04  0.14850765627E+04  0.80014799511E+03 0.  0.
        5    1    3    3  502    0 -0.19363786447E+03  0.85836844405E+02 -0.43328224682E+01  0.21190670061E+03  0.46999998093E+01 0. -1.
       -5    1    3    3    0  502  0.19363786447E+03 -0.85836844405E+02  0.12554185841E+04  0.12731698621E+04  0.46999998093E+01 0.  1.
</event>
<event>
 5   0  0.2768834E-03  0.8124621E+03  0.7818609E-02  0.9542152E-01
       -2   -1    0    0    0  501  0.00000000000E+00  0.00000000000E+00  0.15417751127E+03  0.15417751129E+03  0.25500000920E-02 0. -1.
        2   -1    0    0  501    0  0.00000000000E+00  0.00000000000E+00 -0.10703484683E+04  0.10703484683E+04  0.25500000920E-02 0.  1.
    10030    2    1    2    0    0  0.00000000000E+00  0.00000000000E+00 -0.91617095707E+03  0.12245259796E+04  0.81246209278E+03 0.  0.
        4    1    3    3  502    0 -0.12186653230E+03 -0.16517803383E+03 -0.98643040528E+03  0.10075623018E+04  0.12699999809E+01 0.  1.
       -4    1    3    3    0  502  0.12186653230E+03  0.16517803383E+03  0.70259448211E+02  0.21696367787E+03  0.12699999809E+01 0. -1.
</event>
<event>
 5   0  0.2763587E-03  0.7998468E+03  0.7818609E-02  0.9560239E-01
       -2   -1    0    0    0  501  0.00000000000E+00  0.00000000000E+00  0.17955281940E+03  0.17955281942E+03  0.25500000920E-02 0.  1.
        2   -1    0    0  501    0  0.00000000000E+00  0.00000000000E+00 -0.89076141452E+03  0.89076141452E+03  0.25500000920E-02 0. -1.
    10030    2    1    2    0    0  0.00000000000E+00  0.00000000000E+00 -0.71120859512E+03  0.10703142339E+04  0.79984679383E+03 0.  0.
        3    1    3    3  502    0  0.33452372125E+03 -0.24799834290E+02 -0.64214662095E+02  0.34153284599E+03  0.10100000352E+00 0.  1.
       -3    1    3    3    0  502 -0.33452372125E+03  0.24799834290E+02 -0.64699393302E+03  0.72878138795E+03  0.10100000352E+00 0. -1.
</event>
<event>
 5   0  0.2690809E-03  0.8003127E+03  0.7818609E-02  0.9559565E-01
       -2   -1    0    0    0  501  0.00000000000E+00  0.00000000000E+00  0.36032450378E+03  0.36032450379E+03  0.25500000920E-02 0. -1.
        2   -1    0    0  501    0  0.00000000000E+00  0.00000000000E+00 -0.44439142701E+03  0.44439142701E+03  0.25500000920E-02 0.  1.
    10030    2    1    2    0    0  0.00000000000E+00  0.00000000000E+00 -0.84066923225E+02  0.80471593080E+03  0.80031273994E+03 0.  0.
        5    1    3    3  502    0 -0.28682489022E+03  0.34766578339E+02  0.23630317397E+03  0.37328074240E+03  0.46999998093E+01 0. -1.
       -5    1    3    3    0  502  0.28682489022E+03 -0.34766578339E+02 -0.32037009720E+03  0.43143518840E+03  0.46999998093E+01 0.  1.
</event>
<event>
 5   0  0.2768834E-03  0.7987901E+03  0.7818609E-02  0.9561770E-01
       -2   -1    0    0    0  501  0.00000000000E+00  0.00000000000E+00  0.10788812918E+03  0.10788812921E+03  0.25500000920E-02 0.  1.
        2   -1    0    0  501    0  0.00000000000E+00  0.00000000000E+00 -0.14785353225E+04  0.14785353225E+04  0.25500000920E-02 0. -1.
    10030    2    1    2    0    0  0.00000000000E+00  0.00000000000E+00 -0.13706471933E+04  0.15864234518E+04  0.79879010987E+03 0.  0.
        4    1    3    3  502    0 -0.51843862019E+02 -0.31843622865E+03 -0.21775990492E+03  0.38924337738E+03  0.12699999809E+01 0.  1.
       -4    1    3    3    0  502  0.51843862019E+02  0.31843622865E+03 -0.11528872884E+04  0.11971800744E+04  0.12699999809E+01 0. -1.
</event>
<event>
 5   0  0.2763587E-03  0.8008415E+03  0.7818609E-02  0.9558800E-01
       -2   -1    0    0    0  501  0.00000000000E+00  0.00000000000E+00  0.31914870392E+03  0.31914870393E+03  0.25500000920E-02 0. -1.
        2   -1    0    0  501    0  0.00000000000E+00  0.00000000000E+00 -0.50238890685E+03  0.50238890685E+03  0.25500000920E-02 0.  1.
    10030    2    1    2    0    0  0.00000000000E+00  0.00000000000E+00 -0.18324020293E+03  0.82153761079E+03  0.80084147868E+03 0.  0.
        3    1    3    3  502    0  0.21967463132E+03 -0.12807955259E+03  0.22568797938E+03  0.33999469066E+03  0.10100000352E+00 0. -1.
       -3    1    3    3    0  502 -0.21967463132E+03  0.12807955259E+03 -0.40892818231E+03  0.48154292013E+03  0.10100000352E+00 0.  1.
</event>
<event>
 5   0  0.1095350E-03  0.8066019E+03  0.7818609E-02  0.9550510E-01
        3   -1    0    0  501    0  0.00000000000E+00  0.00000000000E+00  0.20100312690E+03  0.20100315227E+03  0.10100000352E+00 0. -1.
       -3   -1    0    0    0  501  0.00000000000E+00  0.00000000000E+00 -0.80919958063E+03  0.80919958694E+03  0.10100000352E+00 0.  1.
    10030    2    1    2    0    0  0.00000000000E+00  0.00000000000E+00 -0.60819645374E+03  0.10102027392E+04  0.80660191418E+03 0.  0.
        1    1    3    3  502    0 -0.37643154462E+03 -0.13299969960E+03 -0.23256735130E+03  0.46203593020E+03  0.50400001928E-02 0. -1.
       -1    1    3    3    0  502  0.37643154462E+03  0.13299969960E+03 -0.37562910244E+03  0.54816680901E+03  0.50400001928E-02 0.  1.
</event>
<event>
 5   0  0.1640035E-03  0.7990835E+03  0.7818609E-02  0.9561345E-01
       -1   -1    0    0    0  501  0.00000000000E+00  0.00000000000E+00  0.62026508296E+03  0.62026508298E+03  0.50400001928E-02 0. -1.
        1   -1    0    0  501    0  0.00000000000E+00  0.00000000000E+00 -0.25736355787E+03  0.25736355792E+03  0.50400001928E-02 0.  1.
    10030    2    1    2    0    0  0.00000000000E+00  0.00000000000E+00  0.36290152508E+03  0.87762864090E+03  0.79908354658E+03 0.  0.
        5    1    3    3  502    0 -0.29593973441E+03 -0.19687761739E+03  0.38178155762E+03  0.52165157947E+03  0.46999998093E+01 0. -1.
       -5    1    3    3    0  502  0.29593973441E+03  0.19687761739E+03 -0.18880032535E+02  0.35597706142E+03  0.46999998093E+01 0.  1.
</event>
<event>
 5   0  0.2910501E-03  0.8053312E+03  0.7818609E-02  0.9552332E-01
        2   -1    0    0  501    0  0.00000000000E+00  0.00000000000E+00  0.29108541029E+03  0.29108541030E+03  0.25500000920E-02 0. -1.
       -2   -1    0    0    0  501  0.00000000000E+00  0.00000000000E+00 -0.55701727918E+03  0.55701727919E+03  0.25500000920E-02 0.  1.
    10030    2    1    2    0    0  0.00000000000E+00  0.00000000000E+00 -0.26593186889E+03  0.84810268949E+03  0.80533124429E+03 0.  0.
        1    1    3    3  502    0  0.25741767389E+03 -0.66797154077E+02 -0.45137100416E+03  0.52389073483E+03  0.50400001928E-02 0.  1.
       -1    1    3    3    0  502 -0.25741767389E+03  0.66797154077E+02  0.18543913527E+03  0.32421195465E+03  0.50400001928E-02 0. -1.
</event>
<event>
 5   0  0.1617491E-03  0.7994013E+03  0.7818609E-02  0.9560884E-01
       -1   -1    0    0    0  501  0.00000000000E+00  0.00000000000E+00  0.17498320583E+03  0.17498320590E+03  0.50400001928E-02 0. -1.
        1   -1    0    0  501    0  0.00000000000E+00  0.00000000000E+00 -0.91300535556E+03  0.91300535558E+03  0.50400001928E-02 0.  1.
    10030    2    1    2    0    0  0.00000000000E+00  0.00000000000E+00 -0.73802214973E+03  0.10879885615E+04  0.79940128622E+03 0.  0.
        1    1    3    3  502    0  0.22750281801E+03 -0.19804507818E+03 -0.72595041844E+03  0.78611919914E+03  0.50400001928E-02 0.  1.
       -1    1    3    3    0  502 -0.22750281801E+03  0.19804507818E+03 -0.12071731286E+02  0.30186936233E+03  0.50400001928E-02 0. -1.
</event>
<event>
 5   0  0.2768834E-03  0.7952280E+03  0.7818609E-02  0.9566950E-01
        2   -1    0    0  501    0  0.00000000000E+00  0.00000000000E+00  0.85891260679E+03  0.85891260679E+03  0.25500000920E-02 0. -1.
       -2   -1    0    0    0  501  0.00000000000E+00  0.00000000000E+00 -0.18406633226E+03  0.18406633228E+03  0.25500000920E-02 0.  1.
    10030    2    1    2    0    0  0.00000000000E+00  0.00000000000E+00  0.67484627452E+03  0.10429789391E+04  0.79522800071E+03 0.  0.
        4    1    3    3  502    0 -0.15615562105E+03  0.73215042645E+02 -0.13245176833E+03  0.21746288026E+03  0.12699999809E+01 0.  1.
       -4    1    3    3    0  502  0.15615562105E+03 -0.73215042645E+02  0.80729804286E+03  0.82551605881E+03  0.12699999809E+01 0. -1.
</event>
<event>
 5   0  0.2768834E-03  0.8008118E+03  0.7818609E-02  0.9558843E-01
       -2   -1    0    0    0  501  0.00000000000E+00  0.00000000000E+00  0.21776427116E+03  0.21776427117E+03  0.25500000920E-02 0. -1.
        2   -1    0    0  501    0  0.00000000000E+00  0.00000000000E+00 -0.73623128736E+03  0.73623128736E+03  0.25500000920E-02 0.  1.
    10030    2    1    2    0    0  0.00000000000E+00  0.00000000000E+00 -0.51846701620E+03  0.95399555853E+03  0.80081176241E+03 0.  0.
        4    1    3    3  502    0 -0.69794964751E+02 -0.29722969951E+03 -0.56783495801E+03  0.64471310194E+03  0.12699999809E+01 0.  1.
       -4    1    3    3    0  502  0.69794964751E+02  0.29722969951E+03  0.49367941809E+02  0.30928245659E+03  0.12699999809E+01 0. -1.
</event>
<event>
 5   0  0.1095350E-03  0.7996838E+03  0.7818609E-02  0.9560475E-01
        3   -1    0    0  501    0  0.00000000000E+00  0.00000000000E+00  0.30030140272E+03  0.30030141970E+03  0.10100000352E+00 0. -1.
       -3   -1    0    0    0  501  0.00000000000E+00  0.00000000000E+00 -0.53237691440E+03  0.53237692398E+03  0.10100000352E+00 0.  1.
    10030    2    1    2    0    0  0.00000000000E+00  0.00000000000E+00 -0.23207551168E+03  0.83267834368E+03  0.79968380058E+03 0.  0.
        2    1    3    3  502    0  0.32082398746E+03 -0.44159957756E+02  0.12814905496E+03  0.34828194483E+03  0.25500000920E-02 0.  1.
       -2    1    3    3    0  502 -0.32082398746E+03  0.44159957756E+02 -0.36022456664E+03  0.48439639885E+03  0.25500000920E-02 0. -1.
</event>
<event>
 5   0  0.2768834E-03  0.8010560E+03  0.7818609E-02  0.9558490E-01
        2   -1    0    0  501    0  0.00000000000E+00  0.00000000000E+00  0.61025713354E+03  0.61025713355E+03  0.25500000920E-02 0. -1.
       -2   -1    0    0    0  501  0.00000000000E+00  0.00000000000E+00 -0.26287716700E+03  0.26287716701E+03  0.25500000920E-02 0.  1.
    10030    2    1    2    0    0  0.00000000000E+00  0.00000000000E+00  0.34737996654E+03  0.87313430056E+03  0.80105596912E+03 0.  0.
        4    1    3    3  502    0  0.19351164472E+03  0.15610909670E+03 -0.16857778150E+03  0.30039455393E+03  0.12699999809E+01 0.  1.
       -4    1    3    3    0  502 -0.19351164472E+03 -0.15610909670E+03  0.51595774804E+03  0.57273974664E+03  0.12699999809E+01 0. -1.
</event>
<event>
 5   0  0.2910501E-03  0.8014830E+03  0.7818609E-02  0.9557873E-01
       -2   -1    0    0    0  501  0.00000000000E+00  0.00000000000E+00  0.24518395479E+03  0.24518395481E+03  0.25500000920E-02 0. -1.
        2   -1    0    0  501    0  0.00000000000E+00  0.00000000000E+00 -0.65499287828E+03  0.65499287829E+03  0.25500000920E-02 0.  1.
    10030    2    1    2    0    0  0.00000000000E+00  0.00000000000E+00 -0.40980892349E+03  0.90017683309E+03  0.80148298614E+03 0.  0.
        1    1    3    3  502    0 -0.16209512648E+03 -0.11269986493E+03  0.18677593511E+03  0.27177442769E+03  0.50400001928E-02 0. -1.
       -1    1    3    3    0  502  0.16209512648E+03  0.11269986493E+03 -0.59658485860E+03  0.62840240541E+03  0.50400001928E-02 0.  1.
</event>
<event>
 5   0  0.1712793E-03  0.7932711E+03  0.7818609E-02  0.9569808E-01
        1   -1    0    0  501    0  0.00000000000E+00  0.00000000000E+00  0.51951199231E+03  0.51951199233E+03  0.50400001928E-02 0.  1.
       -1   -1    0    0    0  501  0.00000000000E+00  0.00000000000E+00 -0.30282216553E+03  0.30282216557E+03  0.50400001928E-02 0. -1.
    10030    2    1    2    0    0  0.00000000000E+00  0.00000000000E+00  0.21668982678E+03  0.82233415790E+03  0.79327106730E+03 0.  0.
        4    1    3    3  502    0  0.37177104895E+02 -0.43254635590E+02 -0.29854671658E+03  0.30394877120E+03  0.12699999809E+01 0. -1.
       -4    1    3    3    0  502 -0.37177104895E+02  0.43254635590E+02  0.51523654336E+03  0.51838538670E+03  0.12699999809E+01 0.  1.
</event>
<event>
 5   0  0.1095350E-03  0.8041025E+03  0.7818609E-02  0.9554098E-01
       -3   -1    0    0    0  501  0.00000000000E+00  0.00000000000E+00  0.94632496039E+03  0.94632496578E+03  0.10100000352E+00 0. -1.
        3   -1    0    0  501    0  0.00000000000E+00  0.00000000000E+00 -0.17081360007E+03  0.17081362993E+03  0.10100000352E+00 0.  1.
    10030    2    1    2    0    0  0.00000000000E+00  0.00000000000E+00  0.77551136032E+03  0.11171385957E+04  0.80410246364E+03 0.  0.
        2    1    3    3  502    0  0.24134540713E+03  0.33459778635E+02  0.83206645192E+03  0.86700734872E+03  0.25500000920E-02 0. -1.
       -2    1    3    3    0  502 -0.24134540713E+03 -0.33459778635E+02 -0.56555091593E+02  0.25013124699E+03  0.25500000920E-02 0.  1.
</event>
<event>
 5   0  0.1656051E-03  0.7985503E+03  0.7818609E-02  0.9562118E-01
       -1   -1    0    0    0  501  0.00000000000E+00  0.00000000000E+00  0.52802220022E+03  0.52802220024E+03  0.50400001928E-02 0. -1.
        1   -1    0    0  501    0  0.00000000000E+00  0.00000000000E+00 -0.30192036257E+03  0.30192036262E+03  0.50400001928E-02 0.  1.
    10030    2    1    2    0    0  0.00000000000E+00  0.00000000000E+00  0.22610183765E+03  0.82994256286E+03  0.79855032193E+03 0.  0.
        3    1    3    3  502    0 -0.36805269979E+03  0.12849152683E+03  0.20274405653E+03  0.43940644618E+03  0.10100000352E+00 0. -1.
       -3    1    3    3    0  502  0.36805269979E+03 -0.12849152683E+03  0.23357781118E+02  0.39053611668E+03  0.10100000352E+00 0.  1.
</event>
<event>
 5   0  0.2768834E-03  0.8008175E+03  0.7818609E-02  0.9558835E-01
        2   -1    0    0  501    0  0.00000000000E+00  0.00000000000E+00  0.70818944873E+03  0.70818944874E+03  0.25500000920E-02 0. -1.
       -2   -1    0    0    0  501  0.00000000000E+00  0.00000000000E+00 -0.22639022232E+03  0.22639022234E+03  0.25500000920E-02 0.  1.
    10030    2    1    2    0    0  0.00000000000E+00  0.00000000000E+00  0.48179922641E+03  0.93457967108E+03  0.80081749920E+03 0.  0.
        4    1    3    3  502    0 -0.31140733097E+03 -0.24065853830E+03  0.32693208739E+03  0.51164173061E+03  0.12699999809E+01 0. -1.
       -4    1    3    3    0  502  0.31140733097E+03  0.24065853830E+03  0.15486713902E+03  0.42293794047E+03  0.12699999809E+01 0.  1.
</event>
<event>
 5   0  0.2910501E-03  0.8002444E+03  0.7818609E-02  0.9559663E-01
       -2   -1    0    0    0  501  0.00000000000E+00  0.00000000000E+00  0.36671376396E+03  0.36671376397E+03  0.25500000920E-02 0. -1.
        2   -1    0    0  501    0  0.00000000000E+00  0.00000000000E+00 -0.43657418404E+03  0.43657418405E+03  0.25500000920E-02 0.  1.
    10030    2    1    2    0    0  0.00000000000E+00  0.00000000000E+00 -0.69860420081E+02  0.80328794801E+03  0.80024436838E+03 0.  0.
        1    1    3    3  502    0 -0.37830934584E+03 -0.12048701874E+03 -0.84744341856E+02  0.40597621400E+03  0.50400001928E-02 0.  1.
       -1    1    3    3    0  502  0.37830934584E+03  0.12048701874E+03  0.14883921776E+02  0.39731173401E+03  0.50400001928E-02 0. -1.
</event>
<event>
 5   0  0.2768834E-03  0.7970170E+03  0.7818609E-02  0.9564345E-01
        2   -1    0    0  501    0  0.00000000000E+00  0.00000000000E+00  0.13607631507E+04  0.13607631507E+04  0.25500000920E-02 0. -1.
       -2   -1    0    0    0  501  0.00000000000E+00  0.00000000000E+00 -0.11670585574E+03  0.11670585577E+03  0.25500000920E-02 0.  1.
    10030    2    1    2    0    0  0.00000000000E+00  0.00000000000E+00  0.12440572949E+04  0.14774690064E+04  0.79701700856E+03 0.  0.
        4    1    3    3  502    0  0.11809925948E+03 -0.21575203623E+03  0.12032638807E+04  0.12281457388E+04  0.12699999809E+01 0. -1.
       -4    1    3    3    0  502 -0.11809925948E+03  0.21575203623E+03  0.40793414190E+02  0.24932326761E+03  0.12699999809E+01 0.  1.
</event>
<event>
 5   0  0.2690809E-03  0.8044239E+03  0.7818609E-02  0.9553636E-01
        2   -1    0    0  501    0  0.00000000000E+00  0.00000000000E+00  0.25895011678E+03  0.25895011679E+03  0.25500000920E-02 0. -1.
       -2   -1    0    0    0  501  0.00000000000E+00  0.00000000000E+00 -0.62473217339E+03  0.62473217340E+03  0.25500000920E-02 0.  1.
    10030    2    1    2    0    0  0.00000000000E+00  0.00000000000E+00 -0.36578205661E+03  0.88368229019E+03  0.80442394113E+03 0.  0.
        5    1    3    3  502    0  0.30728776728E+03  0.17142342306E+03 -0.39686618872E+03  0.53041174916E+03  0.46999998093E+01 0.  1.
       -5    1    3    3    0  502 -0.30728776728E+03 -0.17142342306E+03  0.31084132111E+02  0.35327054103E+03  0.46999998093E+01 0. -1.
</event>
<event>
 5   0  0.2873212E-03  0.8003295E+03  0.7818609E-02  0.9559540E-01
       -2   -1    0    0    0  501  0.00000000000E+00  0.00000000000E+00  0.16147321193E+03  0.16147321195E+03  0.25500000920E-02 0. -1.
        2   -1    0    0  501    0  0.00000000000E+00  0.00000000000E+00 -0.99169289082E+03  0.99169289083E+03  0.25500000920E-02 0.  1.
    10030    2    1    2    0    0  0.00000000000E+00  0.00000000000E+00 -0.83021967889E+03  0.11531661028E+04  0.80032952299E+03 0.  0.
        2    1    3    3  502    0  0.83123395302E+02 -0.36543400524E+03 -0.61724374464E+03  0.72210896084E+03  0.25500000920E-02 0.  1.
       -2    1    3    3    0  502 -0.83123395302E+02  0.36543400524E+03 -0.21297593426E+03  0.43105714193E+03  0.25500000920E-02 0. -1.
</event>
<event>
 5   0  0.1656051E-03  0.8015299E+03  0.7818609E-02  0.9557805E-01
       -1   -1    0    0    0  501  0.00000000000E+00  0.00000000000E+00  0.13409324220E+03  0.13409324229E+03  0.50400001928E-02 0. -1.
        1   -1    0    0  501    0  0.00000000000E+00  0.00000000000E+00 -0.11977676609E+04  0.11977676609E+04  0.50400001928E-02 0.  1.
    10030    2    1    2    0    0  0.00000000000E+00  0.00000000000E+00 -0.10636744187E+04  0.13318609032E+04  0.80152990991E+03 0.  0.
        3    1    3    3  502    0  0.39133040316E+02  0.17325298056E+02  0.13028533267E+03  0.13713438266E+03  0.10100000352E+00 0. -1.
       -3    1    3    3    0  502 -0.39133040316E+02 -0.17325298056E+02 -0.11939597514E+04  0.11947265205E+04  0.10100000352E+00 0.  1.
</event>
<event>
 5   0  0.2910501E-03  0.8000823E+03  0.7818609E-02  0.9559898E-01
        2   -1    0    0  501    0  0.00000000000E+00  0.00000000000E+00  0.14864817490E+04  0.14864817490E+04  0.25500000920E-02 0.  1.
       -2   -1    0    0    0  501  0.00000000000E+00  0.00000000000E+00 -0.10765884423E+03  0.10765884426E+03  0.25500000920E-02 0. -1.
    10030    2    1    2    0    0  0.00000000000E+00  0.00000000000E+00  0.13788229048E+04  0.15941405933E+04  0.80008226350E+03 0.  0.
        1    1    3    3  502    0  0.13911483231E+03 -0.10550586836E+01  0.14367310890E+04  0.14434508207E+04  0.50400001928E-02 0.  1.
       -1    1    3    3    0  502 -0.13911483231E+03  0.10550586836E+01 -0.57908184240E+02  0.15068977253E+03  0.50400001928E-02 0. -1.
</event>
<event>
 5   0  0.1637228E-03  0.7957163E+03  0.7818609E-02  0.9566238E-01
        1   -1    0    0  501    0  0.00000000000E+00  0.00000000000E+00  0.16390351989E+04  0.16390351989E+04  0.50400001928E-02 0. -1.
       -1   -1    0    0    0  501  0.00000000000E+00  0.00000000000E+00 -0.96575794162E+02  0.96575794294E+02  0.50400001928E-02 0.  1.
    10030    2    1    2    0    0  0.00000000000E+00  0.00000000000E+00  0.15424594048E+04  0.17356109932E+04  0.79571634674E+03 0.  0.
        2    1    3    3  502    0  0.31672494396E+03 -0.22974816387E+03  0.92840002232E+03  0.10074847445E+04  0.25500000920E-02 0.  1.
       -2    1    3    3    0  502 -0.31672494396E+03  0.22974816387E+03  0.61405938245E+03  0.72812624875E+03  0.25500000920E-02 0. -1.
</event>
<event>
 5   0  0.1712793E-03  0.7953278E+03  0.7818609E-02  0.9566805E-01
        1   -1    0    0  501    0  0.00000000000E+00  0.00000000000E+00  0.21028811173E+03  0.21028811179E+03  0.50400001928E-02 0.  1.
       -1   -1    0    0    0  501  0.00000000000E+00  0.00000000000E+00 -0.75199967909E+03  0.75199967911E+03  0.50400001928E-02 0. -1.
    10030    2    1    2    0    0  0.00000000000E+00  0.00000000000E+00 -0.54171156736E+03  0.96228779090E+03  0.79532783825E+03 0.  0.
        4    1    3    3  502    0  0.15797515185E+03  0.34387689435E+02 -0.71043758054E+03  0.72860265614E+03  0.12699999809E+01 0. -1.
       -4    1    3    3    0  502 -0.15797515185E+03 -0.34387689435E+02  0.16872601318E+03  0.23368513476E+03  0.12699999809E+01 0.  1.
</event>
<event>
 5   0  0.2763587E-03  0.7981339E+03  0.7818609E-02  0.9562722E-01
       -2   -1    0    0    0  501  0.00000000000E+00  0.00000000000E+00  0.63491800683E+02  0.63491800734E+02  0.25500000920E-02 0. -1.
        2   -1    0    0  501    0  0.00000000000E+00  0.00000000000E+00 -0.25082676579E+04  0.25082676579E+04  0.25500000920E-02 0.  1.
    10030    2    1    2    0    0  0.00000000000E+00  0.00000000000E+00 -0.24447758572E+04  0.25717594587E+04  0.79813389920E+03 0.  0.
        3    1    3    3  502    0  0.11644637360E+03  0.18854998920E+03 -0.15300277416E+03  0.26929670524E+03  0.10100000352E+00 0. -1.
       -3    1    3    3    0  502 -0.11644637360E+03 -0.18854998920E+03 -0.22917730831E+04  0.23024627534E+04  0.10100000352E+00 0.  1.
</event>
<event>
 5   0  0.2690809E-03  0.8013415E+03  0.7818609E-02  0.9558077E-01
       -2   -1    0    0    0  501  0.00000000000E+00  0.00000000000E+00  0.44791601769E+03  0.44791601770E+03  0.25500000920E-02 0. -1.
        2   -1    0    0  501    0  0.00000000000E+00  0.00000000000E+00 -0.35840878374E+03  0.35840878375E+03  0.25500000920E-02 0.  1.
    10030    2    1    2    0    0  0.00000000000E+00  0.00000000000E+00  0.89507233951E+02  0.80632480145E+03  0.80134146312E+03 0.  0.
        5    1    3    3  502    0  0.21387555268E+03 -0.33213052484E+03 -0.22456278613E+02  0.39570167046E+03  0.46999998093E+01 0. -1.
       -5    1    3    3    0  502 -0.21387555268E+03  0.33213052484E+03  0.11196351256E+03  0.41062313099E+03  0.46999998093E+01 0.  1.
</event>
<event>
 5   0  0.1095350E-03  0.7999316E+03  0.7818609E-02  0.9560116E-01
       -3   -1    0    0    0  501  0.00000000000E+00  0.00000000000E+00  0.44851164963E+03  0.44851166100E+03  0.10100000352E+00 0.  1.
        3   -1    0    0  501    0  0.00000000000E+00  0.00000000000E+00 -0.35667439496E+03  0.35667440926E+03  0.10100000352E+00 0. -1.
    10030    2    1    2    0    0  0.00000000000E+00  0.00000000000E+00  0.91837254670E+02  0.80518607026E+03  0.79993157607E+03 0.  0.
        3    1    3    3  502    0  0.37315777486E+03 -0.13413883523E+03  0.98536944610E+02  0.40859453215E+03  0.10100000352E+00 0.  1.
       -3    1    3    3    0  502 -0.37315777486E+03  0.13413883523E+03 -0.66996899405E+01  0.39659153811E+03  0.10100000352E+00 0. -1.
</event>
<event>
 5   0  0.1095350E-03  0.8006697E+03  0.7818609E-02  0.9559048E-01
       -3   -1    0    0    0  501  0.00000000000E+00  0.00000000000E+00  0.21481364343E+04  0.21481364367E+04  0.10100000352E+00 0.  1.
        3   -1    0    0  501    0  0.00000000000E+00  0.00000000000E+00 -0.74607892547E+02  0.74607960911E+02  0.10100000352E+00 0. -1.
    10030    2    1    2    0    0  0.00000000000E+00  0.00000000000E+00  0.20735285417E+04  0.22227443976E+04  0.80066974686E+03 0.  0.
        2    1    3    3  502    0  0.16528125799E+03 -0.23219317312E+03  0.25630578048E+03  0.38330694880E+03  0.25500000920E-02 0. -1.
       -2    1    3    3    0  502 -0.16528125799E+03  0.23219317312E+03  0.18172227613E+04  0.18394374488E+04  0.25500000920E-02 0.  1.
</event>
<event>
 5   0  0.2690809E-03  0.8003821E+03  0.7818609E-02  0.9559464E-01
       -2   -1    0    0    0  501  0.00000000000E+00  0.00000000000E+00  0.13394829056E+03  0.13394829058E+03  0.25500000920E-02 0.  1.
        2   -1    0    0  501    0  0.00000000000E+00  0.00000000000E+00 -0.11956320632E+04  0.11956320632E+04  0.25500000920E-02 0. -1.
    10030    2    1    2    0    0  0.00000000000E+00  0.00000000000E+00 -0.10616837726E+04  0.13295803537E+04  0.80038208629E+03 0.  0.
        5    1    3    3  502    0  0.10388679229E+03 -0.33991796943E+03 -0.22546398647E+03  0.42094274046E+03  0.46999998093E+01 0. -1.
       -5    1    3    3    0  502 -0.10388679229E+03  0.33991796943E+03 -0.83621978614E+03  0.90863761329E+03  0.46999998093E+01 0.  1.
</event>
<event>
 5   0  0.2910501E-03  0.7985958E+03  0.7818609E-02  0.9562052E-01
        2   -1    0    0  501    0  0.00000000000E+00  0.00000000000E+00  0.92242387594E+02  0.92242387629E+02  0.25500000920E-02 0.  1.
       -2   -1    0    0    0  501  0.00000000000E+00  0.00000000000E+00 -0.17284764855E+04  0.17284764855E+04  0.25500000920E-02 0. -1.
    10030    2    1    2    0    0  0.00000000000E+00  0.00000000000E+00 -0.16362340980E+04  0.18207188732E+04  0.79859576247E+03 0.  0.
        1    1    3    3  502    0  0.30227889627E+03 -0.18691184728E+03 -0.12330979468E+04  0.12832922957E+04  0.50400001928E-02 0. -1.
       -1    1    3    3    0  502 -0.30227889627E+03  0.18691184728E+03 -0.40313615114E+03  0.53742657746E+03  0.50400001928E-02 0.  1.
</event>
<event>
 5   0  0.1712793E-03  0.8004754E+03  0.7818609E-02  0.9559329E-01
        1   -1    0    0  501    0  0.00000000000E+00  0.00000000000E+00  0.74807657950E+03  0.74807657952E+03  0.50400001928E-02 0. -1.
       -1   -1    0    0    0  501  0.00000000000E+00  0.00000000000E+00 -0.21413612576E+03  0.21413612582E+03  0.50400001928E-02 0.  1.
    10030    2    1    2    0    0  0.00000000000E+00  0.00000000000E+00  0.53394045374E+03  0.96221270533E+03  0.80047541009E+03 0.  0.
        4    1    3    3  502    0  0.26364493384E+03 -0.49238774408E+02  0.62407362322E+03  0.67926622774E+03  0.12699999809E+01 0. -1.
       -4    1    3    3    0  502 -0.26364493384E+03  0.49238774408E+02 -0.90133169478E+02  0.28294647760E+03  0.12699999809E+01 0.  1.
</event>
<event>
 5   0  0.1640035E-03  0.7999244E+03  0.7818609E-02  0.9560127E-01
        1   -1    0    0  501    0  0.00000000000E+00  0.00000000000E+00  0.79345910596E+03  0.79345910598E+03  0.50400001928E-02 0. -1.
       -1   -1    0    0    0  501  0.00000000000E+00  0.00000000000E+00 -0.20161060582E+03  0.20161060588E+03  0.50400001928E-02 0.  1.
    10030    2    1    2    0    0  0.00000000000E+00  0.00000000000E+00  0.59184850014E+03  0.99506971186E+03  0.79992442414E+03 0.  0.
        5    1    3    3  502    0  0.38440637400E+03  0.10994436281E+03  0.28401486703E+03  0.49045138187E+03  0.46999998093E+01 0.  1.
       -5    1    3    3    0  502 -0.38440637400E+03 -0.10994436281E+03  0.30783363311E+03  0.50461832999E+03  0.46999998093E+01 0. -1.
</event>
<event>
 5   0  0.2690809E-03  0.7986861E+03  0.7818609E-02  0.9561921E-01
        2   -1    0    0  501    0  0.00000000000E+00  0.00000000000E+00  0.90243838301E+03  0.90243838302E+03  0.25500000920E-02 0. -1.
       -2   -1    0    0    0  501  0.00000000000E+00  0.00000000000E+00 -0.17671551120E+03  0.17671551122E+03  0.25500000920E-02 0.  1.
    10030    2    1    2    0    0  0.00000000000E+00  0.00000000000E+00  0.72572287181E+03  0.10791538942E+04  0.79868607147E+03 0.  0.
        5    1    3    3  502    0 -0.21940854257E+03  0.29982138683E+03  0.56061073523E+03  0.67256186259E+03  0.46999998093E+01 0.  1.
       -5    1    3    3    0  502  0.21940854257E+03 -0.29982138683E+03  0.16511213658E+03  0.40659203165E+03  0.46999998093E+01 0. -1.
</event>
<event>
 5   0  0.2873212E-03  0.7997143E+03  0.7818609E-02  0.9560431E-01
        2   -1    0    0  501    0  0.00000000000E+00  0.00000000000E+00  0.24882599120E+03  0.24882599121E+03  0.25500000920E-02 0. -1.
       -2   -1    0    0    0  501  0.00000000000E+00  0.00000000000E+00 -0.64256050583E+03  0.64256050583E+03  0.25500000920E-02 0.  1.
    10030    2    1    2    0    0  0.00000000000E+00  0.00000000000E+00 -0.39373451463E+03  0.89138649705E+03  0.79971433594E+03 0.  0.
        2    1    3    3  502    0 -0.34307987727E+03 -0.11579595507E+03 -0.77959511457E+01  0.36217852263E+03  0.25500000920E-02 0. -1.
       -2    1    3    3    0  502  0.34307987727E+03  0.11579595507E+03 -0.38593856348E+03  0.52920797442E+03  0.25500000920E-02 0.  1.
</event>
<event>
 5   0  0.2763587E-03  0.7904200E+03  0.7818609E-02  0.9573988E-01
       -2   -1    0    0    0  501  0.00000000000E+00  0.00000000000E+00  0.17826457271E+03  0.17826457273E+03  0.25500000920E-02 0.  1.
        2   -1    0    0  501    0  0.00000000000E+00  0.00000000000E+00 -0.87617479635E+03  0.87617479635E+03  0.25500000920E-02 0. -1.
    10030    2    1    2    0    0  0.00000000000E+00  0.00000000000E+00 -0.69791022364E+03  0.10544393691E+04  0.79041995345E+03 0.  0.
        3    1    3    3  502    0 -0.23787121157E+03  0.31411308956E+03 -0.38988094832E+03  0.55430759546E+03  0.10100000352E+00 0.  1.
       -3    1    3    3    0  502  0.23787121157E+03 -0.31411308956E+03 -0.30802927532E+03  0.50013177362E+03  0.10100000352E+00 0. -1.
</event>
<event>
 5   0  0.1617491E-03  0.8001306E+03  0.7818609E-02  0.9559828E-01
        1   -1    0    0  501    0  0.00000000000E+00  0.00000000000E+00  0.57156076237E+03  0.57156076239E+03  0.50400001928E-02 0.  1.
       -1   -1    0    0    0  501  0.00000000000E+00  0.00000000000E+00 -0.28002661752E+03  0.28002661757E+03  0.50400001928E-02 0. -1.
    10030    2    1    2    0    0  0.00000000000E+00  0.00000000000E+00  0.29153414485E+03  0.85158737996E+03  0.80013055691E+03 0.  0.
        1    1    3    3  502    0 -0.13251020865E+03 -0.18343530173E+03 -0.20536631550E+03  0.30558597626E+03  0.50400001928E-02 0. -1.
       -1    1    3    3    0  502  0.13251020865E+03  0.18343530173E+03  0.49690046035E+03  0.54600140370E+03  0.50400001928E-02 0.  1.
</event>
<event>
 5   0  0.2763587E-03  0.8001517E+03  0.7818609E-02  0.9559798E-01
        2   -1    0    0  501    0  0.00000000000E+00  0.00000000000E+00  0.95554457344E+03  0.95554457344E+03  0.25500000920E-02 0.  1.
       -2   -1    0    0    0  501  0.00000000000E+00  0.00000000000E+00 -0.16750730826E+03  0.16750730828E+03  0.25500000920E-02 0. -1.
    10030    2    1    2    0    0  0.00000000000E+00  0.00000000000E+00  0.78803726518E+03  0.11230518817E+04  0.80015173419E+03 0.  0.
        3    1    3    3  502    0 -0.10415597881E+03 -0.87585831484E+02  0.92206068698E+03  0.93204917600E+03  0.10100000352E+00 0.  1.
       -3    1    3    3    0  502  0.10415597881E+03  0.87585831484E+02 -0.13402342180E+03  0.19100270572E+03  0.10100000352E+00 0. -1.
</event>
<event>
 5   0  0.2690809E-03  0.7971218E+03  0.7818609E-02  0.9564193E-01
        2   -1    0    0  501    0  0.00000000000E+00  0.00000000000E+00  0.76242080532E+03  0.76242080533E+03  0.25500000920E-02 0.  1.
       -2   -1    0    0    0  501  0.00000000000E+00  0.00000000000E+00 -0.20835054387E+03  0.20835054388E+03  0.25500000920E-02 0. -1.
    10030    2    1    2    0    0  0.00000000000E+00  0.00000000000E+00  0.55407026146E+03  0.97077134921E+03  0.79712179609E+03 0.  0.
        5    1    3    3  502    0 -0.14117122012E+02  0.10201919482E+03 -0.19182991136E+03  0.21777973766E+03  0.46999998093E+01 0. -1.
       -5    1    3    3    0  502  0.14117122012E+02 -0.10201919482E+03  0.74590017282E+03  0.75299161154E+03  0.46999998093E+01 0.  1.
</event>
<event>
 5   0  0.1617491E-03  0.7991470E+03  0.7818609E-02  0.9561253E-01
       -1   -1    0    0    0  501  0.00000000000E+00  0.00000000000E+00  0.65204010507E+03  0.65204010509E+03  0.50400001928E-02 0.  1.
        1   -1    0    0  501    0  0.00000000000E+00  0.00000000000E+00 -0.24486068806E+03  0.24486068812E+03  0.50400001928E-02 0. -1.
    10030    2    1    2    0    0  0.00000000000E+00  0.00000000000E+00  0.40717941700E+03  0.89690079320E+03  0.79914701727E+03 0.  0.
        1    1    3    3  502    0 -0.18794506905E+03  0.29549484336E+03 -0.12347143733E+02  0.35041832631E+03  0.50400001928E-02 0. -1.
       -1    1    3    3    0  502  0.18794506905E+03 -0.29549484336E+03  0.41952656074E+03  0.54648246689E+03  0.50400001928E-02 0.  1.
</event>
<event>
 5   0  0.1637228E-03  0.8001960E+03  0.7818609E-02  0.9559733E-01
       -1   -1    0    0    0  501  0.00000000000E+00  0.00000000000E+00  0.14733210062E+03  0.14733210071E+03  0.50400001928E-02 0. -1.
        1   -1    0    0  501    0  0.00000000000E+00  0.00000000000E+00 -0.10865142386E+04  0.10865142386E+04  0.50400001928E-02 0.  1.
    10030    2    1    2    0    0  0.00000000000E+00  0.00000000000E+00 -0.93918213795E+03  0.12338463393E+04  0.80019603895E+03 0.  0.
        2    1    3    3  502    0 -0.18261330699E+03  0.14126930998E+03 -0.97343612747E+03  0.10004411687E+04  0.25500000920E-02 0.  1.
       -2    1    3    3    0  502  0.18261330699E+03 -0.14126930998E+03  0.34253989529E+02  0.23340517055E+03  0.25500000920E-02 0. -1.
</event>
<event>
 5   0  0.2768834E-03  0.7976068E+03  0.7818609E-02  0.9563488E-01
        2   -1    0    0  501    0  0.00000000000E+00  0.00000000000E+00  0.65493749414E+03  0.65493749414E+03  0.25500000920E-02 0.  1.
       -2   -1    0    0    0  501  0.00000000000E+00  0.00000000000E+00 -0.24283867582E+03  0.24283867583E+03  0.25500000920E-02 0. -1.
    10030    2    1    2    0    0  0.00000000000E+00  0.00000000000E+00  0.41209881832E+03  0.89777616998E+03  0.79760680496E+03 0.  0.
        4    1    3    3  502    0  0.11361723056E+02  0.37949095080E+03  0.68653632372E+02  0.38582043054E+03  0.12699999809E+01 0. -1.
       -4    1    3    3    0  502 -0.11361723056E+02 -0.37949095080E+03  0.34344518595E+03  0.51195573943E+03  0.12699999809E+01 0.  1.
</event>
<event>
 5   0  0.2768834E-03  0.7993158E+03  0.7818609E-02  0.9561008E-01
       -2   -1    0    0    0  501  0.00000000000E+00  0.00000000000E+00  0.27548506449E+03  0.27548506451E+03  0.25500000920E-02 0.  1.
        2   -1    0    0  501    0  0.00000000000E+00  0.00000000000E+00 -0.57980077519E+03  0.57980077520E+03  0.25500000920E-02 0. -1.
    10030    2    1    2    0    0  0.00000000000E+00  0.00000000000E+00 -0.30431571070E+03  0.85528583970E+03  0.79931584234E+03 0.  0.
        4    1    3    3  502    0  0.25091835632E+03 -0.28210936816E+03 -0.11910924091E+02  0.37774224036E+03  0.12699999809E+01 0.  1.
       -4    1    3    3    0  502 -0.25091835632E+03  0.28210936816E+03 -0.29240478661E+03  0.47754359934E+03  0.12699999809E+01 0. -1.
</event>
<event>
 5   0  0.2873212E-03  0.7994918E+03  0.7818609E-02  0.9560753E-01
        2   -1    0    0  501    0  0.00000000000E+00  0.00000000000E+00  0.33515006145E+03  0.33515006146E+03  0.25500000920E-02 0.  1.
       -2   -1    0    0    0  501  0.00000000000E+00  0.00000000000E+00 -0.47679170902E+03  0.47679170903E+03  0.25500000920E-02 0. -1.
    10030    2    1    2    0    0  0.00000000000E+00  0.00000000000E+00 -0.14164164757E+03  0.81194177049E+03  0.79949176502E+03 0.  0.
        2    1    3    3  502    0 -0.41529339904E+02 -0.39732563429E+03 -0.56300452400E+02  0.40343783497E+03  0.25500000920E-02 0.  1.
       -2    1    3    3    0  502  0.41529339904E+02  0.39732563429E+03 -0.85341195169E+02  0.40850393552E+03  0.25500000920E-02 0. -1.
</event>
<event>
 5   0  0.2910501E-03  0.8003771E+03  0.7818609E-02  0.9559471E-01
        2   -1    0    0  501    0  0.00000000000E+00  0.00000000000E+00  0.78025475192E+03  0.78025475193E+03  0.25500000920E-02 0.  1.
       -2   -1    0    0    0  501  0.00000000000E+00  0.00000000000E+00 -0.20525460848E+03  0.20525460849E+03  0.25500000920E-02 0. -1.
    10030    2    1    2    0    0  0.00000000000E+00  0.00000000000E+00  0.57500014345E+03  0.98550936042E+03  0.80037712018E+03 0.  0.
        1    1    3    3  502    0 -0.78824544397E+02  0.38804179469E+03  0.35888547443E+03  0.53440483438E+03  0.50400001928E-02 0. -1.
       -1    1    3    3    0  502  0.78824544397E+02 -0.38804179469E+03  0.21611466902E+03  0.45110452604E+03  0.50400001928E-02 0.  1.
</event>
<event>
 5   0  0.2768834E-03  0.8055675E+03  0.7818609E-02  0.9551993E-01
       -2   -1    0    0    0  501  0.00000000000E+00  0.00000000000E+00  0.43175270476E+03  0.43175270477E+03  0.25500000920E-02 0.  1.
        2   -1    0    0  501    0  0.00000000000E+00  0.00000000000E+00 -0.37575848699E+03  0.37575848700E+03  0.25500000920E-02 0. -1.
    10030    2    1    2    0    0  0.00000000000E+00  0.00000000000E+00  0.55994217773E+02  0.80751119177E+03  0.80556748470E+03 0.  0.
        4    1    3    3  502    0 -0.21714495962E+03  0.74801614633E+02 -0.30368782746E+03  0.38075599074E+03  0.12699999809E+01 0. -1.
       -4    1    3    3    0  502  0.21714495962E+03 -0.74801614633E+02  0.35968204523E+03  0.42675520103E+03  0.12699999809E+01 0.  1.
</event>
<event>
 5   0  0.2690809E-03  0.8026730E+03  0.7818609E-02  0.9556156E-01
       -2   -1    0    0    0  501  0.00000000000E+00  0.00000000000E+00  0.18937672908E+03  0.18937672909E+03  0.25500000920E-02 0. -1.
        2   -1    0    0  501    0  0.00000000000E+00  0.00000000000E+00 -0.85053207814E+03  0.85053207815E+03  0.25500000920E-02 0.  1.
    10030    2    1    2    0    0  0.00000000000E+00  0.00000000000E+00 -0.66115534906E+03  0.10399088072E+04  0.80267299181E+03 0.  0.
        5    1    3    3  502    0 -0.29735469551E+03  0.26885495928E+03 -0.30647582194E+03  0.50463087847E+03  0.46999998093E+01 0. -1.
       -5    1    3    3    0  502  0.29735469551E+03 -0.26885495928E+03 -0.35467952713E+03  0.53527792877E+03  0.46999998093E+01 0.  1.
</event>
<event>
 5   0  0.1617491E-03  0.7989139E+03  0.7818609E-02  0.9561591E-01
       -1   -1    0    0    0  501  0.00000000000E+00  0.00000000000E+00  0.40916006349E+03  0.40916006352E+03  0.50400001928E-02 0.  1.
        1   -1    0    0  501    0  0.00000000000E+00  0.00000000000E+00 -0.38998395545E+03  0.38998395548E+03  0.50400001928E-02 0. -1.
    10030    2    1    2    0    0  0.00000000000E+00  0.00000000000E+00  0.19176108044E+02  0.79914401900E+03  0.79891391275E+03 0.  0.
        1    1    3    3  502    0 -0.21768934847E+03  0.13214231892E+03  0.31743571708E+03  0.40695906353E+03  0.50400001928E-02 0.  1.
       -1    1    3    3    0  502  0.21768934847E+03 -0.13214231892E+03 -0.29825960904E+03  0.39218495547E+03  0.50400001928E-02 0. -1.
</event>
<event>
 5   0  0.1617491E-03  0.7996269E+03  0.7818609E-02  0.9560557E-01
       -1   -1    0    0    0  501  0.00000000000E+00  0.00000000000E+00  0.11135028435E+03  0.11135028446E+03  0.50400001928E-02 0. -1.
        1   -1    0    0  501    0  0.00000000000E+00  0.00000000000E+00 -0.14355668387E+04  0.14355668387E+04  0.50400001928E-02 0.  1.
    10030    2    1    2    0    0  0.00000000000E+00  0.00000000000E+00 -0.13242165543E+04  0.15469171231E+04  0.79962685243E+03 0.  0.
        1    1    3    3  502    0 -0.18201702511E+03 -0.19754244873E+03 -0.12350011644E+04  0.12638754260E+04  0.50400001928E-02 0.  1.
       -1    1    3    3    0  502  0.18201702511E+03  0.19754244873E+03 -0.89215389944E+02  0.28304169711E+03  0.50400001928E-02 0. -1.
</event>
<event>
 5   0  0.1712793E-03  0.8022103E+03  0.7818609E-02  0.9556823E-01
        1   -1    0    0  501    0  0.00000000000E+00  0.00000000000E+00  0.10931382984E+04  0.10931382984E+04  0.50400001928E-02 0. -1.
       -1   -1    0    0    0  501  0.00000000000E+00  0.00000000000E+00 -0.14717749508E+03  0.14717749516E+03  0.50400001928E-02 0.  1.
    10030    2    1    2    0    0  0.00000000000E+00  0.00000000000E+00  0.94596080330E+03  0.12403157935E+04  0.80221033798E+03 0.  0.
        4    1    3    3  502    0 -0.32777086009E+02 -0.15387068527E+03 -0.97480751747E+02  0.18508007730E+03  0.12699999809E+01 0.  1.
       -4    1    3    3    0  502  0.32777086009E+02  0.15387068527E+03  0.10434415550E+04  0.10552357162E+04  0.12699999809E+01 0. -1.
</event>
<event>
 5   0  0.1617491E-03  0.7998442E+03  0.7818609E-02  0.9560243E-01
       -1   -1    0    0    0  501  0.00000000000E+00  0.00000000000E+00  0.32430023216E+03  0.32430023220E+03  0.50400001928E-02 0.  1.
        1   -1    0    0  501    0  0.00000000000E+00  0.00000000000E+00 -0.49317787639E+03  0.49317787642E+03  0.50400001928E-02 0. -1.
    10030    2    1    2    0    0  0.00000000000E+00  0.00000000000E+00 -0.16887764423E+03  0.81747810862E+03  0.79984423443E+03 0.  0.
        1    1    3    3  502    0  0.11216747017E+03  0.39503003749E+02  0.30581128196E+03  0.32811974776E+03  0.50400001928E-02 0.  1.
       -1    1    3    3    0  502 -0.11216747017E+03 -0.39503003749E+02 -0.47468892619E+03  0.48935836086E+03  0.50400001928E-02 0. -1.
</event>
<event>
 5   0  0.2910501E-03  0.7992626E+03  0.7818609E-02  0.9561085E-01
        2   -1    0    0  501    0  0.00000000000E+00  0.00000000000E+00  0.11856088108E+04  0.11856088108E+04  0.25500000920E-02 0. -1.
       -2   -1    0    0    0  501  0.00000000000E+00  0.00000000000E+00 -0.13470308859E+03  0.13470308862E+03  0.25500000920E-02 0.  1.
    10030    2    1    2    0    0  0.00000000000E+00  0.00000000000E+00  0.10509057222E+04  0.13203118994E+04  0.79926258186E+03 0.  0.
        1    1    3    3  502    0  0.85777329081E+02  0.13136332543E+03  0.11326090372E+04  0.11434235019E+04  0.50400001928E-02 0. -1.
       -1    1    3    3    0  502 -0.85777329081E+02 -0.13136332543E+03 -0.81703315049E+02  0.17688839750E+03  0.50400001928E-02 0.  1.
</event>
<event>
 5   0  0.2768834E-03  0.7989651E+03  0.7818609E-02  0.9561516E-01
        2   -1    0    0  501    0  0.00000000000E+00  0.00000000000E+00  0.83651954300E+03  0.83651954301E+03  0.25500000920E-02 0. -1.
       -2   -1    0    0    0  501  0.00000000000E+00  0.00000000000E+00 -0.19077416027E+03  0.19077416028E+03  0.25500000920E-02 0.  1.
    10030    2    1    2    0    0  0.00000000000E+00  0.00000000000E+00  0.64574538274E+03  0.10272937033E+04  0.79896511406E+03 0.  0.
        4    1    3    3  502    0  0.19103034776E+03  0.17883750251E+03  0.71097663496E+03  0.75760466896E+03  0.12699999809E+01 0. -1.
       -4    1    3    3    0  502 -0.19103034776E+03 -0.17883750251E+03 -0.65231252224E+02  0.26968903433E+03  0.12699999809E+01 0.  1.
</event>
<event>
 5   0  0.2873212E-03  0.8005400E+03  0.7818609E-02  0.9559236E-01
       -2   -1    0    0    0  501  0.00000000000E+00  0.00000000000E+00  0.23293064552E+03  0.23293064554E+03  0.25500000920E-02 0.  1.
        2   -1    0    0  501    0  0.00000000000E+00  0.00000000000E+00 -0.68782733736E+03  0.68782733737E+03  0.25500000920E-02 0. -1.
    10030    2    1    2    0    0  0.00000000000E+00  0.00000000000E+00 -0.45489669184E+03  0.92075798290E+03  0.80053998203E+03 0.  0.
        2    1    3    3  502    0 -0.38259724936E+03 -0.39504843734E+02 -0.10001904946E+03  0.39742307200E+03  0.25500000920E-02 0.  1.
       -2    1    3    3    0  502  0.38259724936E+03  0.39504843734E+02 -0.35487764238E+03  0.52333491090E+03  0.25500000920E-02 0. -1.
</event>
<event>
 5   0  0.1640035E-03  0.8002556E+03  0.7818609E-02  0.9559647E-01
        1   -1    0    0  501    0  0.00000000000E+00  0.00000000000E+00  0.12778303787E+04  0.12778303787E+04  0.50400001928E-02 0. -1.
       -1   -1    0    0    0  501  0.00000000000E+00  0.00000000000E+00 -0.12529227239E+03  0.12529227249E+03  0.50400001928E-02 0.  1.
    10030    2    1    2    0    0  0.00000000000E+00  0.00000000000E+00  0.11525381063E+04  0.14031226512E+04  0.80025563902E+03 0.  0.
        5    1    3    3  502    0 -0.31908799270E+03 -0.15511280744E+03  0.90053349079E+03  0.96791517611E+03  0.46999998093E+01 0. -1.
       -5    1    3    3    0  502  0.31908799270E+03  0.15511280744E+03  0.25200461548E+03  0.43520747504E+03  0.46999998093E+01 0.  1.
</event>
<event>
 5   0  0.1656051E-03  0.8019769E+03  0.7818609E-02  0.9557160E-01
       -1   -1    0    0    0  501  0.00000000000E+00  0.00000000000E+00  0.27024877454E+03  0.27024877459E+03  0.50400001928E-02 0. -1.
        1   -1    0    0  501    0  0.00000000000E+00  0.00000000000E+00 -0.59497674981E+03  0.59497674984E+03  0.50400001928E-02 0.  1.
    10030    2    1    2    0    0  0.00000000000E+00  0.00000000000E+00 -0.32472797527E+03  0.86522552443E+03  0.80197690129E+03 0.  0.
        3    1    3    3  502    0  0.59091960207E+02  0.35543094124E+03 -0.35222205066E+03  0.50386843216E+03  0.10100000352E+00 0. -1.
       -3    1    3    3    0  502 -0.59091960207E+02 -0.35543094124E+03  0.27494075393E+02  0.36135709227E+03  0.10100000352E+00 0.  1.
</event>
<event>
 5   0  0.2910501E-03  0.8000434E+03  0.7818609E-02  0.9559954E-01
       -2   -1    0    0    0  501  0.00000000000E+00  0.00000000000E+00  0.23416279207E+03  0.23416279209E+03  0.25500000920E-02 0. -1.
        2   -1    0    0  501    0  0.00000000000E+00  0.00000000000E+00 -0.68335940290E+03  0.68335940291E+03  0.25500000920E-02 0.  1.
    10030    2    1    2    0    0  0.00000000000E+00  0.00000000000E+00 -0.44919661083E+03  0.91752219499E+03  0.80004336328E+03 0.  0.
        1    1    3    3  502    0  0.84152402058E+02 -0.15299666054E+03  0.18814919060E+03  0.25668993524E+03  0.50400001928E-02 0. -1.
       -1    1    3    3    0  502 -0.84152402058E+02  0.15299666054E+03 -0.63734580143E+03  0.66083225975E+03  0.50400001928E-02 0.  1.
</event>
<event>
 5   0  0.1712793E-03  0.7998149E+03  0.7818609E-02  0.9560285E-01
        1   -1    0    0  501    0  0.00000000000E+00  0.00000000000E+00  0.27483726272E+03  0.27483726276E+03  0.50400001928E-02 0.  1.
       -1   -1    0    0    0  501  0.00000000000E+00  0.00000000000E+00 -0.58189329689E+03  0.58189329691E+03  0.50400001928E-02 0. -1.
    10030    2    1    2    0    0  0.00000000000E+00  0.00000000000E+00 -0.30705603417E+03  0.85673055967E+03  0.79981488093E+03 0.  0.
        4    1    3    3  502    0  0.19782897833E+03  0.19725305979E+03 -0.46003598540E+03  0.53821909575E+03  0.12699999809E+01 0. -1.
       -4    1    3    3    0  502 -0.19782897833E+03 -0.19725305979E+03  0.15297995124E+03  0.31851146392E+03  0.12699999809E+01 0.  1.
</event>
<event>
 5   0  0.1656051E-03  0.8003533E+03  0.7818609E-02  0.9559506E-01
        1   -1    0    0  501    0  0.00000000000E+00  0.00000000000E+00  0.15567745403E+04  0.15567745404E+04  0.50400001928E-02 0.  1.
       -1   -1    0    0    0  501  0.00000000000E+00  0.00000000000E+00 -0.10286739931E+03  0.10286739943E+03  0.50400001928E-02 0. -1.
    10030    2    1    2    0    0  0.00000000000E+00  0.00000000000E+00  0.14539071410E+04  0.16596419398E+04  0.80035329295E+03 0.  0.
        3    1    3    3  502    0  0.31941365350E+03 -0.11870854379E+03  0.29186260304E+03  0.44866534261E+03  0.10100000352E+00 0. -1.
       -3    1    3    3    0  502 -0.31941365350E+03  0.11870854379E+03  0.11620445380E+04  0.12109765972E+04  0.10100000352E+00 0.  1.
</event>
<event>
 5   0  0.1617491E-03  0.8007118E+03  0.7818609E-02  0.9558987E-01
        1   -1    0    0  501    0  0.00000000000E+00  0.00000000000E+00  0.12528777184E+04  0.12528777184E+04  0.50400001928E-02 0. -1.
       -1   -1    0    0    0  501  0.00000000000E+00  0.00000000000E+00 -0.12793335735E+03  0.12793335745E+03  0.50400001928E-02 0.  1.
    10030    2    1    2    0    0  0.00000000000E+00  0.00000000000E+00  0.11249443610E+04  0.13808110759E+04  0.80071181567E+03 0.  0.
        1    1    3    3  502    0 -0.60439442567E+02  0.32248958490E+03  0.95809796486E+03  0.10127211704E+04  0.50400001928E-02 0. -1.
       -1    1    3    3    0  502  0.60439442567E+02 -0.32248958490E+03  0.16684639618E+03  0.36808990550E+03  0.50400001928E-02 0.  1.
</event>
<event>
 5   0  0.1095350E-03  0.7983496E+03  0.7818609E-02  0.9562409E-01
       -3   -1    0    0    0  501  0.00000000000E+00  0.00000000000E+00  0.74950880002E+02  0.74950948053E+02  0.10100000352E+00 0. -1.
        3   -1    0    0  501    0  0.00000000000E+00  0.00000000000E+00 -0.21259313437E+04  0.21259313461E+04  0.10100000352E+00 0.  1.
    10030    2    1    2    0    0  0.00000000000E+00  0.00000000000E+00 -0.20509804637E+04  0.22008822942E+04  0.79834955392E+03 0.  0.
        1    1    3    3  502    0 -0.28823254521E+02  0.14265585061E+03 -0.20501822862E+04  0.20553415479E+04  0.50400001928E-02 0.  1.
       -1    1    3    3    0  502  0.28823254521E+02 -0.14265585061E+03 -0.79817749406E+00  0.14554074628E+03  0.50400001928E-02 0. -1.
</event>
<event>
 5   0  0.1640035E-03  0.7988393E+03  0.7818609E-02  0.9561699E-01
       -1   -1    0    0    0  501  0.00000000000E+00  0.00000000000E+00  0.22003737800E+03  0.22003737805E+03  0.50400001928E-02 0. -1.
        1   -1    0    0  501    0  0.00000000000E+00  0.00000000000E+00 -0.72504075923E+03  0.72504075925E+03  0.50400001928E-02 0.  1.
    10030    2    1    2    0    0  0.00000000000E+00  0.00000000000E+00 -0.50500338123E+03  0.94507813730E+03  0.79883932712E+03 0.  0.
        5    1    3    3  502    0 -0.13833965714E+03  0.17442638207E+02  0.19027397518E+03  0.23594148002E+03  0.46999998093E+01 0. -1.
       -5    1    3    3    0  502  0.13833965714E+03 -0.17442638207E+02 -0.69527735641E+03  0.70913665728E+03  0.46999998093E+01 0.  1.
</event>
<event>
 5   0  0.1656051E-03  0.7980513E+03  0.7818609E-02  0.9562842E-01
        1   -1    0    0  501    0  0.00000000000E+00  0.00000000000E+00  0.25821871739E+03  0.25821871744E+03  0.50400001928E-02 0. -1.
       -1   -1    0    0    0  501  0.00000000000E+00  0.00000000000E+00 -0.61661475895E+03  0.61661475897E+03  0.50400001928E-02 0.  1.
    10030    2    1    2    0    0  0.00000000000E+00  0.00000000000E+00 -0.35839604156E+03  0.87483347641E+03  0.79805130715E+03 0.  0.
        3    1    3    3  502    0  0.33390465276E+03  0.36483215939E+02 -0.41532454330E+03  0.53415150346E+03  0.10100000352E+00 0.  1.
       -3    1    3    3    0  502 -0.33390465276E+03 -0.36483215939E+02  0.56928501738E+02  0.34068197295E+03  0.10100000352E+00 0. -1.
</event>
<event>
 5   0  0.2768834E-03  0.8009900E+03  0.7818609E-02  0.9558585E-01
       -2   -1    0    0    0  501  0.00000000000E+00  0.00000000000E+00  0.20846366503E+03  0.20846366505E+03  0.25500000920E-02 0.  1.
        2   -1    0    0  501    0  0.00000000000E+00  0.00000000000E+00 -0.76942057051E+03  0.76942057051E+03  0.25500000920E-02 0. -1.
    10030    2    1    2    0    0  0.00000000000E+00  0.00000000000E+00 -0.56095690548E+03  0.97788423556E+03  0.80098996770E+03 0.  0.
        4    1    3    3  502    0  0.16987717166E+03 -0.26636821218E+03 -0.58097574531E+03  0.66132042721E+03  0.12699999809E+01 0. -1.
       -4    1    3    3    0  502 -0.16987717166E+03  0.26636821218E+03  0.20018839832E+02  0.31656380835E+03  0.12699999809E+01 0.  1.
</event>
<event>
 5   0  0.2910501E-03  0.8008866E+03  0.7818609E-02  0.9558735E-01
       -2   -1    0    0    0  501  0.00000000000E+00  0.00000000000E+00  0.11015598145E+03  0.11015598148E+03  0.25500000920E-02 0. -1.
        2   -1    0    0  501    0  0.00000000000E+00  0.00000000000E+00 -0.14557070773E+04  0.14557070773E+04  0.25500000920E-02 0.  1.
    10030    2    1    2    0    0  0.00000000000E+00  0.00000000000E+00 -0.13455510958E+04  0.15658630588E+04  0.80088661325E+03 0.  0.
        1    1    3    3  502    0  0.32144676632E+03 -0.84044041738E+02 -0.23574800228E+03  0.40739237246E+03  0.50400001928E-02 0. -1.
       -1    1    3    3    0  502 -0.32144676632E+03  0.84044041738E+02 -0.11098030936E+04  0.11584706863E+04  0.50400001928E-02 0.  1.
</event>
<event>
 5   0  0.1712793E-03  0.7998664E+03  0.7818609E-02  0.9560211E-01
       -1   -1    0    0    0  501  0.00000000000E+00  0.00000000000E+00  0.45405434646E+03  0.45405434649E+03  0.50400001928E-02 0.  1.
        1   -1    0    0  501    0  0.00000000000E+00  0.00000000000E+00 -0.35226299876E+03  0.35226299879E+03  0.50400001928E-02 0. -1.
    10030    2    1    2    0    0  0.00000000000E+00  0.00000000000E+00  0.10179134770E+03  0.80631734528E+03  0.79986635311E+03 0.  0.
        4    1    3    3  502    0  0.80059000123E+02 -0.28867097736E+03  0.31799403480E+03  0.43687778124E+03  0.12699999809E+01 0.  1.
       -4    1    3    3    0  502 -0.80059000123E+02  0.28867097736E+03 -0.21620268710E+03  0.36943956404E+03  0.12699999809E+01 0. -1.
</event>
<event>
 5   0  0.2690809E-03  0.7991674E+03  0.7818609E-02  0.9561223E-01
       -2   -1    0    0    0  501  0.00000000000E+00  0.00000000000E+00  0.14363804360E+03  0.14363804362E+03  0.25500000920E-02 0. -1.
        2   -1    0    0  501    0  0.00000000000E+00  0.00000000000E+00 -0.11115935080E+04  0.11115935080E+04  0.25500000920E-02 0.  1.
    10030    2    1    2    0    0  0.00000000000E+00  0.00000000000E+00 -0.96795546441E+03  0.12552315516E+04  0.79916735865E+03 0.  0.
        5    1    3    3  502    0 -0.91354029322E+02  0.22444790793E+03  0.14999047022E+02  0.24283633059E+03  0.46999998093E+01 0. -1.
       -5    1    3    3    0  502  0.91354029322E+02 -0.22444790793E+03 -0.98295451143E+03  0.10123952210E+04  0.46999998093E+01 0.  1.
</event>
<event>
 5   0  0.1712793E-03  0.8003170E+03  0.7818609E-02  0.9559558E-01
        1   -1    0    0  501    0  0.00000000000E+00  0.00000000000E+00  0.95332137838E+03  0.95332137839E+03  0.50400001928E-02 0.  1.
       -1   -1    0    0    0  501  0.00000000000E+00  0.00000000000E+00 -0.16796732701E+03  0.16796732708E+03  0.50400001928E-02 0. -1.
    10030    2    1    2    0    0  0.00000000000E+00  0.00000000000E+00  0.78535405137E+03  0.11212887055E+04  0.80031704656E+03 0.  0.
        4    1    3    3  502    0 -0.24773399496E+03  0.17574615148E+03  0.27685525578E+02  0.30500318563E+03  0.12699999809E+01 0. -1.
       -4    1    3    3    0  502  0.24773399496E+03 -0.17574615148E+03  0.75766852580E+03  0.81628551984E+03  0.12699999809E+01 0.  1.
</event>
<event>
 5   0  0.1617491E-03  0.8105395E+03  0.7818609E-02  0.9544886E-01
        1   -1    0    0  501    0  0.00000000000E+00  0.00000000000E+00  0.34718014400E+03  0.34718014404E+03  0.50400001928E-02 0. -1.
       -1   -1    0    0    0  501  0.00000000000E+00  0.00000000000E+00 -0.47307878559E+03  0.47307878561E+03  0.50400001928E-02 0.  1.
    10030    2    1    2    0    0  0.00000000000E+00  0.00000000000E+00 -0.12589864158E+03  0.82025892965E+03  0.81053947697E+03 0.  0.
        1    1    3    3  502    0 -0.30579548842E+03  0.81711088982E+02  0.19317842585E+03  0.37081732300E+03  0.50400001928E-02 0. -1.
       -1    1    3    3    0  502  0.30579548842E+03 -0.81711088982E+02 -0.31907706744E+03  0.44944160665E+03  0.50400001928E-02 0.  1.
</event>
<event>
 5   0  0.1617491E-03  0.8003969E+03  0.7818609E-02  0.9559443E-01
       -1   -1    0    0    0  501  0.00000000000E+00  0.00000000000E+00  0.72752128334E+03  0.72752128335E+03  0.50400001928E-02 0. -1.
        1   -1    0    0  501    0  0.00000000000E+00  0.00000000000E+00 -0.22014308535E+03  0.22014308541E+03  0.50400001928E-02 0.  1.
    10030    2    1    2    0    0  0.00000000000E+00  0.00000000000E+00  0.50737819798E+03  0.94766436876E+03  0.80039685159E+03 0.  0.
        1    1    3    3  502    0  0.32801586088E+02  0.30660261326E+03  0.55572960524E+03  0.63554425548E+03  0.50400001928E-02 0. -1.
       -1    1    3    3    0  502 -0.32801586088E+02 -0.30660261326E+03 -0.48351407254E+02  0.31212011329E+03  0.50400001928E-02 0.  1.
</event>
<event>
 5   0  0.1656051E-03  0.8001957E+03  0.7818609E-02  0.9559734E-01
        1   -1    0    0  501    0  0.00000000000E+00  0.00000000000E+00  0.93563095216E+03  0.93563095217E+03  0.50400001928E-02 0.  1.
       -1   -1    0    0    0  501  0.00000000000E+00  0.00000000000E+00 -0.17109125125E+03  0.17109125132E+03  0.50400001928E-02 0. -1.
    10030    2    1    2    0    0  0.00000000000E+00  0.00000000000E+00  0.76453970091E+03  0.11067222035E+04  0.80019565198E+03 0.  0.
        3    1    3    3  502    0  0.38345244880E+03  0.47188853224E+02  0.23843319126E+03  0.45399665776E+03  0.10100000352E+00 0. -1.
       -3    1    3    3    0  502 -0.38345244880E+03 -0.47188853224E+02  0.52610650965E+03  0.65272554574E+03  0.10100000352E+00 0.  1.
</event>
<event>
 5   0  0.2690809E-03  0.7979879E+03  0.7818609E-02  0.9562934E-01
       -2   -1    0    0    0  501  0.00000000000E+00  0.00000000000E+00  0.23148859344E+03  0.23148859345E+03  0.25500000920E-02 0. -1.
        2   -1    0    0  501    0  0.00000000000E+00  0.00000000000E+00 -0.68770632368E+03  0.68770632368E+03  0.25500000920E-02 0.  1.
    10030    2    1    2    0    0  0.00000000000E+00  0.00000000000E+00 -0.45621773024E+03  0.91919491713E+03  0.79798789358E+03 0.  0.
        5    1    3    3  502    0 -0.25558099227E+03  0.20943261687E+03  0.29437059721E+02  0.33177145009E+03  0.46999998093E+01 0. -1.
       -5    1    3    3    0  502  0.25558099227E+03 -0.20943261687E+03 -0.48565478996E+03  0.58742346704E+03  0.46999998093E+01 0.  1.
</event>
<event>
 5   0  0.2910501E-03  0.7987993E+03  0.7818609E-02  0.9561757E-01
        2   -1    0    0  501    0  0.00000000000E+00  0.00000000000E+00  0.69341413796E+03  0.69341413796E+03  0.25500000920E-02 0.  1.
       -2   -1    0    0    0  501  0.00000000000E+00  0.00000000000E+00 -0.23005022034E+03  0.23005022036E+03  0.25500000920E-02 0. -1.
    10030    2    1    2    0    0  0.00000000000E+00  0.00000000000E+00  0.46336391762E+03  0.92346435832E+03  0.79879928702E+03 0.  0.
        1    1    3    3  502    0  0.16957957945E+03 -0.19839867399E+03  0.58119025281E+03  0.63710389859E+03  0.50400001928E-02 0.  1.
       -1    1    3    3    0  502 -0.16957957945E+03  0.19839867399E+03 -0.11782633520E+03  0.28636045973E+03  0.50400001928E-02 0. -1.
</event>
<event>
 5   0  0.1712793E-03  0.7999687E+03  0.7818609E-02  0.9560062E-01
       -1   -1    0    0    0  501  0.00000000000E+00  0.00000000000E+00  0.33511352584E+03  0.33511352587E+03  0.50400001928E-02 0.  1.
        1   -1    0    0  501    0  0.00000000000E+00  0.00000000000E+00 -0.47741277657E+03  0.47741277659E+03  0.50400001928E-02 0. -1.
    10030    2    1    2    0    0  0.00000000000E+00  0.00000000000E+00 -0.14229925073E+03  0.81252630247E+03  0.79996869654E+03 0.  0.
        4    1    3    3  502    0 -0.18538543564E+03 -0.16667905332E+03  0.24654818548E+03  0.35062413954E+03  0.12699999809E+01 0.  1.
       -4    1    3    3    0  502  0.18538543564E+03  0.16667905332E+03 -0.38884743621E+03  0.46190216292E+03  0.12699999809E+01 0. -1.
</event>
<event>
 5   0  0.1656051E-03  0.8001045E+03  0.7818609E-02  0.9559866E-01
        1   -1    0    0  501    0  0.00000000000E+00  0.00000000000E+00  0.17545499774E+04  0.17545499774E+04  0.50400001928E-02 0.  1.
       -1   -1    0    0    0  501  0.00000000000E+00  0.00000000000E+00 -0.91215290353E+02  0.91215290492E+02  0.50400001928E-02 0. -1.
    10030    2    1    2    0    0  0.00000000000E+00  0.00000000000E+00  0.16633346871E+04  0.18457652679E+04  0.80010445759E+03 0.  0.
        3    1    3    3  502    0  0.35196427061E+03  0.68876622146E+02  0.12405752755E+04  0.12913751822E+04  0.10100000352E+00 0. -1.
       -3    1    3    3    0  502 -0.35196427061E+03 -0.68876622146E+02  0.42275941159E+03  0.55439008573E+03  0.10100000352E+00 0.  1.
</event>
<event>
 5   0  0.2690809E-03  0.7951219E+03  0.7818609E-02  0.9567105E-01
       -2   -1    0    0    0  501  0.00000000000E+00  0.00000000000E+00  0.11603371924E+03  0.11603371927E+03  0.25500000920E-02 0. -1.
        2   -1    0    0  501    0  0.00000000000E+00  0.00000000000E+00 -0.13621445833E+04  0.13621445833E+04  0.25500000920E-02 0.  1.
    10030    2    1    2    0    0  0.00000000000E+00  0.00000000000E+00 -0.12461108641E+04  0.14781783026E+04  0.79512188291E+03 0.  0.
        5    1    3    3  502    0  0.99722217831E+02  0.38295842402E+03 -0.69337939899E+03  0.79837256729E+03  0.46999998093E+01 0.  1.
       -5    1    3    3    0  502 -0.99722217831E+02 -0.38295842402E+03 -0.55273146507E+03  0.67980573529E+03  0.46999998093E+01 0. -1.
</event>
<event>
 5   0  0.1656051E-03  0.7922472E+03  0.7818609E-02  0.9571307E-01
        1   -1    0    0  501    0  0.00000000000E+00  0.00000000000E+00  0.43011504234E+03  0.43011504237E+03  0.50400001928E-02 0.  1.
       -1   -1    0    0    0  501  0.00000000000E+00  0.00000000000E+00 -0.36481849474E+03  0.36481849478E+03  0.50400001928E-02 0. -1.
    10030    2    1    2    0    0  0.00000000000E+00  0.00000000000E+00  0.65296547597E+02  0.79493353715E+03  0.79224724004E+03 0.  0.
        3    1    3    3  502    0 -0.31753460651E+02  0.26365385437E+03  0.32757052473E+03  0.42169194451E+03  0.10100000352E+00 0.  1.
       -3    1    3    3    0  502  0.31753460651E+02 -0.26365385437E+03 -0.26227397714E+03  0.37324159264E+03  0.10100000352E+00 0. -1.
</event>
<event>
 5   0  0.1617491E-03  0.7995379E+03  0.7818609E-02  0.9560686E-01
       -1   -1    0    0    0  501  0.00000000000E+00  0.00000000000E+00  0.80854999554E+02  0.80854999711E+02  0.50400001928E-02 0.  1.
        1   -1    0    0  501    0  0.00000000000E+00  0.00000000000E+00 -0.19765656938E+04  0.19765656938E+04  0.50400001928E-02 0. -1.
    10030    2    1    2    0    0  0.00000000000E+00  0.00000000000E+00 -0.18957106943E+04  0.20574206936E+04  0.79953791270E+03 0.  0.
        1    1    3    3  502    0  0.21453765012E+03  0.29898164083E+03 -0.54590887813E+03  0.65835623193E+03  0.50400001928E-02 0.  1.
       -1    1    3    3    0  502 -0.21453765012E+03 -0.29898164083E+03 -0.13498018162E+04  0.13990644616E+04  0.50400001928E-02 0. -1.
</event>
<event>
 5   0  0.2768834E-03  0.7994116E+03  0.7818609E-02  0.9560869E-01
        2   -1    0    0  501    0  0.00000000000E+00  0.00000000000E+00  0.76264447175E+03  0.76264447176E+03  0.25500000920E-02 0.  1.
       -2   -1    0    0    0  501  0.00000000000E+00  0.00000000000E+00 -0.20948779348E+03  0.20948779349E+03  0.25500000920E-02 0. -1.
    10030    2    1    2    0    0  0.00000000000E+00  0.00000000000E+00  0.55315667828E+03  0.97213226525E+03  0.79941155259E+03 0.  0.
        4    1    3    3  502    0 -0.24008937647E+03  0.94380786978E+02  0.64785009014E+03  0.69732488399E+03  0.12699999809E+01 0.  1.
       -4    1    3    3    0  502  0.24008937647E+03 -0.94380786978E+02 -0.94693411860E+02  0.27480738126E+03  0.12699999809E+01 0. -1.
</event>
<event>
 5   0  0.2873212E-03  0.7992349E+03  0.7818609E-02  0.9561125E-01
        2   -1    0    0  501    0  0.00000000000E+00  0.00000000000E+00  0.12230761812E+04  0.12230761812E+04  0.25500000920E-02 0.  1.
       -2   -1    0    0    0  501  0.00000000000E+00  0.00000000000E+00 -0.13056760319E+03  0.13056760321E+03  0.25500000920E-02 0. -1.
    10030    2    1    2    0    0  0.00000000000E+00  0.00000000000E+00  0.10925085780E+04  0.13536437844E+04  0.79923494795E+03 0.  0.
        2    1    3    3  502    0  0.34627139321E+03  0.14187799213E+03  0.78373669370E+03  0.86849090235E+03  0.25500000920E-02 0.  1.
       -2    1    3    3    0  502 -0.34627139321E+03 -0.14187799213E+03  0.30877188427E+03  0.48515288202E+03  0.25500000920E-02 0. -1.
</event>
<event>
 5   0  0.1637228E-03  0.7982885E+03  0.7818609E-02  0.9562498E-01
       -1   -1    0    0    0  501  0.00000000000E+00  0.00000000000E+00  0.47777209024E+03  0.47777209026E+03  0.50400001928E-02 0. -1.
        1   -1    0    0  501    0  0.00000000000E+00  0.00000000000E+00 -0.33345630397E+03  0.33345630401E+03  0.50400001928E-02 0.  1.
    10030    2    1    2    0    0  0.00000000000E+00  0.00000000000E+00  0.14431578626E+03  0.81122839427E+03  0.79828845758E+03 0.  0.
        2    1    3    3  502    0 -0.77318384221E+02 -0.13106876938E+03 -0.30282064100E+03  0.33890632255E+03  0.25500000920E-02 0.  1.
       -2    1    3    3    0  502  0.77318384221E+02  0.13106876938E+03  0.44713642726E+03  0.47232207172E+03  0.25500000920E-02 0. -1.
</event>
<event>
 5   0  0.2873212E-03  0.8003983E+03  0.7818609E-02  0.9559441E-01
        2   -1    0    0  501    0  0.00000000000E+00  0.00000000000E+00  0.21373917399E+04  0.21373917399E+04  0.25500000920E-02 0. -1.
       -2   -1    0    0    0  501  0.00000000000E+00  0.00000000000E+00 -0.74932148604E+02  0.74932148647E+02  0.25500000920E-02 0.  1.
    10030    2    1    2    0    0  0.00000000000E+00  0.00000000000E+00  0.20624595913E+04  0.22123238885E+04  0.80039828967E+03 0.  0.
        2    1    3    3  502    0  0.47626113860E+02  0.10608335313E+03  0.20896667114E+04  0.20928996367E+04  0.25500000920E-02 0. -1.
       -2    1    3    3    0  502 -0.47626113860E+02 -0.10608335313E+03 -0.27207120129E+02  0.11942425183E+03  0.25500000920E-02 0.  1.
</event>
<event>
 5   0  0.1637228E-03  0.8047037E+03  0.7818609E-02  0.9553234E-01
       -1   -1    0    0    0  501  0.00000000000E+00  0.00000000000E+00  0.79302069623E+03  0.79302069624E+03  0.50400001928E-02 0.  1.
        1   -1    0    0  501    0  0.00000000000E+00  0.00000000000E+00 -0.20413968778E+03  0.20413968784E+03  0.50400001928E-02 0. -1.
    10030    2    1    2    0    0  0.00000000000E+00  0.00000000000E+00  0.58888100845E+03  0.99716038408E+03  0.80470366562E+03 0.  0.
        2    1    3    3  502    0  0.29453188699E+03  0.93739815399E+02 -0.24751612902E+02  0.31007874451E+03  0.25500000920E-02 0. -1.
       -2    1    3    3    0  502 -0.29453188699E+03 -0.93739815399E+02  0.61363262136E+03  0.68708163958E+03  0.25500000920E-02 0.  1.
</event>
<event>
 5   0  0.1095350E-03  0.8012910E+03  0.7818609E-02  0.9558150E-01
       -3   -1    0    0    0  501  0.00000000000E+00  0.00000000000E+00  0.43737932563E+03  0.43737933729E+03  0.10100000352E+00 0. -1.
        3   -1    0    0  501    0  0.00000000000E+00  0.00000000000E+00 -0.36699678504E+03  0.36699679894E+03  0.10100000352E+00 0.  1.
    10030    2    1    2    0    0  0.00000000000E+00  0.00000000000E+00  0.70382540582E+02  0.80437613623E+03  0.80129099990E+03 0.  0.
        2    1    3    3  502    0 -0.22573519755E+03 -0.18797209815E+02  0.36692860756E+03  0.43121493198E+03  0.25500000920E-02 0. -1.
       -2    1    3    3    0  502  0.22573519755E+03  0.18797209815E+02 -0.29654606698E+03  0.37316120425E+03  0.25500000920E-02 0.  1.
</event>
<event>
 5   0  0.1617491E-03  0.8001268E+03  0.7818609E-02  0.9559834E-01
       -1   -1    0    0    0  501  0.00000000000E+00  0.00000000000E+00  0.46334421107E+03  0.46334421109E+03  0.50400001928E-02 0. -1.
        1   -1    0    0  501    0  0.00000000000E+00  0.00000000000E+00 -0.34542510976E+03  0.34542510979E+03  0.50400001928E-02 0.  1.
    10030    2    1    2    0    0  0.00000000000E+00  0.00000000000E+00  0.11791910131E+03  0.80876932089E+03  0.80012680242E+03 0.  0.
        1    1    3    3  502    0 -0.28776868408E+03 -0.24207127309E+03  0.19696785127E+03  0.42450636185E+03  0.50400001928E-02 0.  1.
       -1    1    3    3    0  502  0.28776868408E+03  0.24207127309E+03 -0.79048749960E+02  0.38426295904E+03  0.50400001928E-02 0. -1.
</event>
<event>
 5   0  0.2873212E-03  0.8027246E+03  0.7818609E-02  0.9556082E-01
       -2   -1    0    0    0  501  0.00000000000E+00  0.00000000000E+00  0.18742150870E+03  0.18742150872E+03  0.25500000920E-02 0. -1.
        2   -1    0    0  501    0  0.00000000000E+00  0.00000000000E+00 -0.85951551376E+03  0.85951551377E+03  0.25500000920E-02 0.  1.
    10030    2    1    2    0    0  0.00000000000E+00  0.00000000000E+00 -0.67209400506E+03  0.10469370225E+04  0.80272459625E+03 0.  0.
        2    1    3    3  502    0  0.31967460396E+02 -0.29615899460E+03  0.14787375883E+02  0.29824609821E+03  0.25500000920E-02 0. -1.
       -2    1    3    3    0  502 -0.31967460396E+02  0.29615899460E+03 -0.68688138094E+03  0.74869092428E+03  0.25500000920E-02 0.  1.
</event>
<event>
 5   0  0.2768834E-03  0.7998725E+03  0.7818609E-02  0.9560202E-01
        2   -1    0    0  501    0  0.00000000000E+00  0.00000000000E+00  0.30331116058E+04  0.30331116058E+04  0.25500000920E-02 0.  1.
       -2   -1    0    0    0  501  0.00000000000E+00  0.00000000000E+00 -0.52734299210E+02  0.52734299272E+02  0.25500000920E-02 0. -1.
    10030    2    1    2    0    0  0.00000000000E+00  0.00000000000E+00  0.29803773066E+04  0.30858459051E+04  0.79987252748E+03 0.  0.
        4    1    3    3  502    0  0.25534163117E+03  0.30780764681E+03  0.14840812971E+04  0.15370243347E+04  0.12699999809E+01 0.  1.
       -4    1    3    3    0  502 -0.25534163117E+03 -0.30780764681E+03  0.14962960095E+04  0.15488215704E+04  0.12699999809E+01 0. -1.
</event>
<event>
 5   0  0.2910501E-03  0.7784932E+03  0.7818609E-02  0.9591680E-01
       -2   -1    0    0    0  501  0.00000000000E+00  0.00000000000E+00  0.16194652806E+04  0.16194652806E+04  0.25500000920E-02 0. -1.
        2   -1    0    0  501    0  0.00000000000E+00  0.00000000000E+00 -0.93557383070E+02  0.93557383105E+02  0.25500000920E-02 0.  1.
    10030    2    1    2    0    0  0.00000000000E+00  0.00000000000E+00  0.15259078976E+04  0.17130226637E+04  0.77849324637E+03 0.  0.
        1    1    3    3  502    0  0.16907759975E+03  0.23169151402E+03  0.13419847386E+04  0.13722941489E+04  0.50400001928E-02 0. -1.
       -1    1    3    3    0  502 -0.16907759975E+03 -0.23169151402E+03  0.18392315896E+03  0.34072851485E+03  0.50400001928E-02 0.  1.
</event>
<event>
 5   0  0.2910501E-03  0.8012168E+03  0.7818609E-02  0.9558258E-01
       -2   -1    0    0    0  501  0.00000000000E+00  0.00000000000E+00  0.24397253968E+03  0.24397253970E+03  0.25500000920E-02 0.  1.
        2   -1    0    0  501    0  0.00000000000E+00  0.00000000000E+00 -0.65780799405E+03  0.65780799405E+03  0.25500000920E-02 0. -1.
    10030    2    1    2    0    0  0.00000000000E+00  0.00000000000E+00 -0.41383545436E+03  0.90178053375E+03  0.80121679199E+03 0.  0.
        1    1    3    3  502    0  0.49098454650E-01  0.73576369270E+02  0.23630268303E+03  0.24749230808E+03  0.50400001928E-02 0.  1.
       -1    1    3    3    0  502 -0.49098454650E-01 -0.73576369270E+02 -0.65013813739E+03  0.65428822567E+03  0.50400001928E-02 0. -1.
</event>
<event>
 5   0  0.1637228E-03  0.8002833E+03  0.7818609E-02  0.9559607E-01
       -1   -1    0    0    0  501  0.00000000000E+00  0.00000000000E+00  0.27004442391E+03  0.27004442396E+03  0.50400001928E-02 0.  1.
        1   -1    0    0  501    0  0.00000000000E+00  0.00000000000E+00 -0.59291481686E+03  0.59291481688E+03  0.50400001928E-02 0. -1.
    10030    2    1    2    0    0  0.00000000000E+00  0.00000000000E+00 -0.32287039295E+03  0.86295924084E+03  0.80028330028E+03 0.  0.
        2    1    3    3  502    0 -0.16811610268E+03  0.18951797287E+03  0.17255299908E+03  0.30652018452E+03  0.25500000920E-02 0.  1.
       -2    1    3    3    0  502  0.16811610268E+03 -0.18951797287E+03 -0.49542339203E+03  0.55643905632E+03  0.25500000920E-02 0. -1.
</event>
<event>
 5   0  0.1095350E-03  0.8010718E+03  0.7818609E-02  0.9558467E-01
       -4   -1    0    0    0  501  0.00000000000E+00  0.00000000000E+00  0.27594631165E+03  0.27594923412E+03  0.12699999809E+01 0. -1.
        4   -1    0    0  501    0  0.00000000000E+00  0.00000000000E+00 -0.58137096739E+03  0.58137235454E+03  0.12699999809E+01 0.  1.
    10030    2    1    2    0    0  0.00000000000E+00  0.00000000000E+00 -0.30542465575E+03  0.85732158867E+03  0.80107183576E+03 0.  0.
        4    1    3    3  502    0 -0.70811151705E+02  0.17323391484E+03  0.22627667371E+03  0.29364426510E+03  0.12699999809E+01 0. -1.
       -4    1    3    3    0  502  0.70811151705E+02 -0.17323391484E+03 -0.53170132946E+03  0.56367732357E+03  0.12699999809E+01 0.  1.
</event>
<event>
 5   0  0.2910501E-03  0.8175339E+03  0.7818609E-02  0.9534979E-01
        2   -1    0    0  501    0  0.00000000000E+00  0.00000000000E+00  0.11247558751E+04  0.11247558751E+04  0.25500000920E-02 0. -1.
       -2   -1    0    0    0  501  0.00000000000E+00  0.00000000000E+00 -0.14855704663E+03  0.14855704665E+03  0.25500000920E-02 0.  1.
    10030    2    1    2    0    0  0.00000000000E+00  0.00000000000E+00  0.97619882844E+03  0.12733129217E+04  0.81753387940E+03 0.  0.
        1    1    3    3  502    0  0.16713471596E+02  0.73782444641E+02  0.11137574803E+04  0.11163238393E+04  0.50400001928E-02 0. -1.
       -1    1    3    3    0  502 -0.16713471596E+02 -0.73782444641E+02 -0.13755865186E+03  0.15698908241E+03  0.50400001928E-02 0.  1.
</event>
<event>
 5   0  0.2690809E-03  0.8024891E+03  0.7818609E-02  0.9556421E-01
        2   -1    0    0  501    0  0.00000000000E+00  0.00000000000E+00  0.80287592241E+03  0.80287592242E+03  0.25500000920E-02 0.  1.
       -2   -1    0    0    0  501  0.00000000000E+00  0.00000000000E+00 -0.20052560237E+03  0.20052560239E+03  0.25500000920E-02 0. -1.
    10030    2    1    2    0    0  0.00000000000E+00  0.00000000000E+00  0.60235032004E+03  0.10034015248E+04  0.80248907278E+03 0.  0.
        5    1    3    3  502    0  0.19178688448E+03 -0.11513280520E+03 -0.11528595406E+03  0.25169567556E+03  0.46999998093E+01 0. -1.
       -5    1    3    3    0  502 -0.19178688448E+03  0.11513280520E+03  0.71763627410E+03  0.75170584925E+03  0.46999998093E+01 0.  1.
</event>
<event>
 5   0  0.2768834E-03  0.7995868E+03  0.7818609E-02  0.9560615E-01
       -2   -1    0    0    0  501  0.00000000000E+00  0.00000000000E+00  0.52142854177E+03  0.52142854178E+03  0.25500000920E-02 0. -1.
        2   -1    0    0  501    0  0.00000000000E+00  0.00000000000E+00 -0.30653244508E+03  0.30653244510E+03  0.25500000920E-02 0.  1.
    10030    2    1    2    0    0  0.00000000000E+00  0.00000000000E+00  0.21489609669E+03  0.82796098688E+03  0.79958680793E+03 0.  0.
        4    1    3    3  502    0 -0.24407535163E+03  0.33199622003E+02 -0.21862018063E+03  0.32934994831E+03  0.12699999809E+01 0.  1.
       -4    1    3    3    0  502  0.24407535163E+03 -0.33199622003E+02  0.43351627732E+03  0.49861103856E+03  0.12699999809E+01 0. -1.
</event>
<event>
 5   0  0.1617491E-03  0.8040405E+03  0.7818609E-02  0.9554187E-01
        1   -1    0    0  501    0  0.00000000000E+00  0.00000000000E+00  0.33142154238E+03  0.33142154242E+03  0.50400001928E-02 0.  1.
       -1   -1    0    0    0  501  0.00000000000E+00  0.00000000000E+00 -0.48765779393E+03  0.48765779396E+03  0.50400001928E-02 0. -1.
    10030    2    1    2    0    0  0.00000000000E+00  0.00000000000E+00 -0.15623625156E+03  0.81907933637E+03  0.80404054187E+03 0.  0.
        1    1    3    3  502    0 -0.88777765122E+02  0.22348734953E+02  0.32066168186E+03  0.33347394467E+03  0.50400001928E-02 0.  1.
       -1    1    3    3    0  502  0.88777765122E+02 -0.22348734953E+02 -0.47689793342E+03  0.48560539171E+03  0.50400001928E-02 0. -1.
</event>
<event>
 5   0  0.2763587E-03  0.7974702E+03  0.7818609E-02  0.9563686E-01
       -2   -1    0    0    0  501  0.00000000000E+00  0.00000000000E+00  0.90845699788E+02  0.90845699824E+02  0.25500000920E-02 0. -1.
        2   -1    0    0  501    0  0.00000000000E+00  0.00000000000E+00 -0.17501067474E+04  0.17501067474E+04  0.25500000920E-02 0.  1.
    10030    2    1    2    0    0  0.00000000000E+00  0.00000000000E+00 -0.16592610477E+04  0.18409524473E+04  0.79747018053E+03 0.  0.
        3    1    3    3  502    0 -0.10299184076E+03  0.38323268234E+03 -0.73977554120E+03  0.83948941008E+03  0.10100000352E+00 0. -1.
       -3    1    3    3    0  502  0.10299184076E+03 -0.38323268234E+03 -0.91948550646E+03  0.10014630372E+04  0.10100000352E+00 0.  1.
</event>
<event>
 5   0  0.2910501E-03  0.7997224E+03  0.7818609E-02  0.9560419E-01
        2   -1    0    0  501    0  0.00000000000E+00  0.00000000000E+00  0.15668536220E+04  0.15668536220E+04  0.25500000920E-02 0.  1.
       -2   -1    0    0    0  501  0.00000000000E+00  0.00000000000E+00 -0.10204461338E+03  0.10204461341E+03  0.25500000920E-02 0. -1.
    10030    2    1    2    0    0  0.00000000000E+00  0.00000000000E+00  0.14648090086E+04  0.16688982354E+04  0.79972238209E+03 0.  0.
        1    1    3    3  502    0  0.33710598162E+03  0.13404411020E+03  0.10833468109E+04  0.11424747608E+04  0.50400001928E-02 0.  1.
       -1    1    3    3    0  502 -0.33710598162E+03 -0.13404411020E+03  0.38146219774E+03  0.52642347464E+03  0.50400001928E-02 0. -1.
</event>
<event>
 5   0  0.1712793E-03  0.7993787E+03  0.7818609E-02  0.9560917E-01
        1   -1    0    0  501    0  0.00000000000E+00  0.00000000000E+00  0.19486541261E+03  0.19486541268E+03  0.50400001928E-02 0. -1.
       -1   -1    0    0    0  501  0.00000000000E+00  0.00000000000E+00 -0.81980466859E+03  0.81980466860E+03  0.50400001928E-02 0.  1.
    10030    2    1    2    0    0  0.00000000000E+00  0.00000000000E+00 -0.62493925597E+03  0.10146700813E+04  0.79937869636E+03 0.  0.
        4    1    3    3  502    0 -0.26156436585E+03  0.10341055777E+03 -0.67292238818E+03  0.72933929988E+03  0.12699999809E+01 0.  1.
       -4    1    3    3    0  502  0.26156436585E+03 -0.10341055777E+03  0.47983132204E+02  0.28533078140E+03  0.12699999809E+01 0. -1.
</event>
<event>
 5   0  0.2763587E-03  0.8023365E+03  0.7818609E-02  0.9556641E-01
       -2   -1    0    0    0  501  0.00000000000E+00  0.00000000000E+00  0.18395740051E+03  0.18395740052E+03  0.25500000920E-02 0.  1.
        2   -1    0    0  501    0  0.00000000000E+00  0.00000000000E+00 -0.87485455064E+03  0.87485455064E+03  0.25500000920E-02 0. -1.
    10030    2    1    2    0    0  0.00000000000E+00  0.00000000000E+00 -0.69089715013E+03  0.10588119512E+04  0.80233651037E+03 0.  0.
        3    1    3    3  502    0 -0.11039408551E+03  0.19178198524E+03  0.96132794829E+02  0.24126480975E+03  0.10100000352E+00 0.  1.
       -3    1    3    3    0  502  0.11039408551E+03 -0.19178198524E+03 -0.78702994496E+03  0.81754714142E+03  0.10100000352E+00 0. -1.
</event>
<event>
 5   0  0.2910501E-03  0.8001504E+03  0.7818609E-02  0.9559799E-01
        2   -1    0    0  501    0  0.00000000000E+00  0.00000000000E+00  0.10037180204E+04  0.10037180204E+04  0.25500000920E-02 0.  1.
       -2   -1    0    0    0  501  0.00000000000E+00  0.00000000000E+00 -0.15946726749E+03  0.15946726752E+03  0.25500000920E-02 0. -1.
    10030    2    1    2    0    0  0.00000000000E+00  0.00000000000E+00  0.84425075291E+03  0.11631852879E+04  0.80015041102E+03 0.  0.
        1    1    3    3  502    0 -0.90163904369E+02  0.27093921802E+03  0.82948178186E+03  0.87725573009E+03  0.50400001928E-02 0.  1.
       -1    1    3    3    0  502  0.90163904369E+02 -0.27093921802E+03  0.14768971045E+02  0.28592955783E+03  0.50400001928E-02 0. -1.
</event>
<event>
 5   0  0.1637228E-03  0.8009288E+03  0.7818609E-02  0.9558674E-01
       -1   -1    0    0    0  501  0.00000000000E+00  0.00000000000E+00  0.29867164145E+03  0.29867164150E+03  0.50400001928E-02 0.  1.
        1   -1    0    0  501    0  0.00000000000E+00  0.00000000000E+00 -0.53695001301E+03  0.53695001304E+03  0.50400001928E-02 0. -1.
    10030    2    1    2    0    0  0.00000000000E+00  0.00000000000E+00 -0.23827837156E+03  0.83562165453E+03  0.80092881529E+03 0.  0.
        2    1    3    3  502    0 -0.33604875597E+03  0.21308201240E+03 -0.72027599999E+02  0.40437691028E+03  0.25500000920E-02 0.  1.
       -2    1    3    3    0  502  0.33604875597E+03 -0.21308201240E+03 -0.16625077156E+03  0.43124474426E+03  0.25500000920E-02 0. -1.
</event>
<event>
 5   0  0.2690809E-03  0.7960851E+03  0.7818609E-02  0.9565701E-01
       -2   -1    0    0    0  501  0.00000000000E+00  0.00000000000E+00  0.19123402623E+03  0.19123402624E+03  0.25500000920E-02 0.  1.
        2   -1    0    0  501    0  0.00000000000E+00  0.00000000000E+00 -0.82850244869E+03  0.82850244869E+03  0.25500000920E-02 0. -1.
    10030    2    1    2    0    0  0.00000000000E+00  0.00000000000E+00 -0.63726842246E+03  0.10197364749E+04  0.79608506835E+03 0.  0.
        5    1    3    3  502    0 -0.12228910240E+03  0.36215526428E+03 -0.46072441903E+03  0.59866529906E+03  0.46999998093E+01 0.  1.
       -5    1    3    3    0  502  0.12228910240E+03 -0.36215526428E+03 -0.17654400343E+03  0.42107117588E+03  0.46999998093E+01 0. -1.
</event>
<event>
 5   0  0.1617491E-03  0.7978712E+03  0.7818609E-02  0.9563104E-01
        1   -1    0    0  501    0  0.00000000000E+00  0.00000000000E+00  0.67360521217E+03  0.67360521219E+03  0.50400001928E-02 0. -1.
       -1   -1    0    0    0  501  0.00000000000E+00  0.00000000000E+00 -0.23626542623E+03  0.23626542629E+03  0.50400001928E-02 0.  1.
    10030    2    1    2    0    0  0.00000000000E+00  0.00000000000E+00  0.43733978594E+03  0.90987063847E+03  0.79787122419E+03 0.  0.
        1    1    3    3  502    0 -0.33413768434E+03 -0.19127862214E+03  0.33780539368E+03  0.51219916772E+03  0.50400001928E-02 0. -1.
       -1    1    3    3    0  502  0.33413768434E+03  0.19127862214E+03  0.99534392252E+02  0.39767147075E+03  0.50400001928E-02 0.  1.
</event>
<event>
 5   0  0.2910501E-03  0.8008029E+03  0.7818609E-02  0.9558856E-01
        2   -1    0    0  501    0  0.00000000000E+00  0.00000000000E+00  0.74663948400E+03  0.74663948401E+03  0.25500000920E-02 0.  1.
       -2   -1    0    0    0  501  0.00000000000E+00  0.00000000000E+00 -0.21472385469E+03  0.21472385470E+03  0.25500000920E-02 0. -1.
    10030    2    1    2    0    0  0.00000000000E+00  0.00000000000E+00  0.53191562931E+03  0.96136333871E+03  0.80080286732E+03 0.  0.
        1    1    3    3  502    0  0.22291255362E+03 -0.33013783337E+03  0.31457896509E+03  0.50758341273E+03  0.50400001928E-02 0. -1.
       -1    1    3    3    0  502 -0.22291255362E+03  0.33013783337E+03  0.21733666422E+03  0.45377992598E+03  0.50400001928E-02 0.  1.
</event>
<event>
 5   0  0.2873212E-03  0.7992889E+03  0.7818609E-02  0.9561047E-01
       -2   -1    0    0    0  501  0.00000000000E+00  0.00000000000E+00  0.46149369941E+03  0.46149369941E+03  0.25500000920E-02 0. -1.
        2   -1    0    0  501    0  0.00000000000E+00  0.00000000000E+00 -0.34608424052E+03  0.34608424053E+03  0.25500000920E-02 0.  1.
    10030    2    1    2    0    0  0.00000000000E+00  0.00000000000E+00  0.11540945889E+03  0.80757793995E+03  0.79928892516E+03 0.  0.
        2    1    3    3  502    0  0.12296115444E+03  0.29005118967E+03 -0.19074485609E+03  0.36828350256E+03  0.25500000920E-02 0. -1.
       -2    1    3    3    0  502 -0.12296115444E+03 -0.29005118967E+03  0.30615431498E+03  0.43929443738E+03  0.25500000920E-02 0.  1.
</event>
<event>
 5   0  0.1640035E-03  0.7934237E+03  0.7818609E-02  0.9569585E-01
       -1   -1    0    0    0  501  0.00000000000E+00  0.00000000000E+00  0.16510892026E+03  0.16510892033E+03  0.50400001928E-02 0. -1.
        1   -1    0    0  501    0  0.00000000000E+00  0.00000000000E+00 -0.95319068846E+03  0.95319068848E+03  0.50400001928E-02 0.  1.
    10030    2    1    2    0    0  0.00000000000E+00  0.00000000000E+00 -0.78808176821E+03  0.11182996088E+04  0.79342368359E+03 0.  0.
        5    1    3    3  502    0  0.20392957703E+03  0.18884692916E+03 -0.79296501547E+03  0.84027735945E+03  0.46999998093E+01 0.  1.
       -5    1    3    3    0  502 -0.20392957703E+03 -0.18884692916E+03  0.48832472650E+01  0.27802224936E+03  0.46999998093E+01 0. -1.
</event>
<event>
 5   0  0.1656051E-03  0.7991791E+03  0.7818609E-02  0.9561206E-01
        1   -1    0    0  501    0  0.00000000000E+00  0.00000000000E+00  0.52838693115E+03  0.52838693118E+03  0.50400001928E-02 0.  1.
       -1   -1    0    0    0  501  0.00000000000E+00  0.00000000000E+00 -0.30218728325E+03  0.30218728329E+03  0.50400001928E-02 0. -1.
    10030    2    1    2    0    0  0.00000000000E+00  0.00000000000E+00  0.22619964790E+03  0.83057421447E+03  0.79917910698E+03 0.  0.
        3    1    3    3  502    0  0.13703474693E+03 -0.72224571453E+02  0.49591334025E+03  0.51954303174E+03  0.10100000352E+00 0.  1.
       -3    1    3    3    0  502 -0.13703474693E+03  0.72224571453E+02 -0.26971369235E+03  0.31103118273E+03  0.10100000352E+00 0. -1.
</event>
<event>
 5   0  0.2763587E-03  0.8173675E+03  0.7818609E-02  0.9535213E-01
       -2   -1    0    0    0  501  0.00000000000E+00  0.00000000000E+00  0.56362061935E+03  0.56362061935E+03  0.25500000920E-02 0. -1.
        2   -1    0    0  501    0  0.00000000000E+00  0.00000000000E+00 -0.29633832352E+03  0.29633832353E+03  0.25500000920E-02 0.  1.
    10030    2    1    2    0    0  0.00000000000E+00  0.00000000000E+00  0.26728229583E+03  0.85995894288E+03  0.81736745579E+03 0.  0.
        3    1    3    3  502    0 -0.15306407043E+03 -0.35584157552E+03  0.27070036318E+03  0.47257860018E+03  0.10100000352E+00 0. -1.
       -3    1    3    3    0  502  0.15306407043E+03  0.35584157552E+03 -0.34180673520E+01  0.38738034270E+03  0.10100000352E+00 0.  1.
</event>
<event>
 5   0  0.2690809E-03  0.7999289E+03  0.7818609E-02  0.9560120E-01
        2   -1    0    0  501    0  0.00000000000E+00  0.00000000000E+00  0.75821080441E+03  0.75821080441E+03  0.25500000920E-02 0.  1.
       -2   -1    0    0    0  501  0.00000000000E+00  0.00000000000E+00 -0.21098561253E+03  0.21098561255E+03  0.25500000920E-02 0. -1.
    10030    2    1    2    0    0  0.00000000000E+00  0.00000000000E+00  0.54722519188E+03  0.96919641696E+03  0.79992892436E+03 0.  0.
        5    1    3    3  502    0 -0.83158270029E+02 -0.38190887667E+03  0.37627616605E+03  0.54256384978E+03  0.46999998093E+01 0.  1.
       -5    1    3    3    0  502  0.83158270029E+02  0.38190887667E+03  0.17094902583E+03  0.42663256719E+03  0.46999998093E+01 0. -1.
</event>
<event>
 5   0  0.1640035E-03  0.7998073E+03  0.7818609E-02  0.9560296E-01
        1   -1    0    0  501    0  0.00000000000E+00  0.00000000000E+00  0.66572606124E+03  0.66572606125E+03  0.50400001928E-02 0.  1.
       -1   -1    0    0    0  501  0.00000000000E+00  0.00000000000E+00 -0.24022331056E+03  0.24022331062E+03  0.50400001928E-02 0. -1.
    10030    2    1    2    0    0  0.00000000000E+00  0.00000000000E+00  0.42550275067E+03  0.90594937187E+03  0.79980727276E+03 0.  0.
        5    1    3    3  502    0  0.31539442397E+03 -0.11531878043E+02  0.49088683018E+03  0.58360825639E+03  0.46999998093E+01 0.  1.
       -5    1    3    3    0  502 -0.31539442397E+03  0.11531878043E+02 -0.65384079504E+02  0.32234111549E+03  0.46999998093E+01 0. -1.
</event>
<event>
 5   0  0.2910501E-03  0.7994174E+03  0.7818609E-02  0.9560861E-01
       -2   -1    0    0    0  501  0.00000000000E+00  0.00000000000E+00  0.25651464430E+03  0.25651464431E+03  0.25500000920E-02 0.  1.
        2   -1    0    0  501    0  0.00000000000E+00  0.00000000000E+00 -0.62283785205E+03  0.62283785206E+03  0.25500000920E-02 0. -1.
    10030    2    1    2    0    0  0.00000000000E+00  0.00000000000E+00 -0.36632320775E+03  0.87935249637E+03  0.79941736305E+03 0.  0.
        1    1    3    3  502    0  0.21721023815E+03 -0.33553749911E+03 -0.18442979080E+03  0.44020455316E+03  0.50400001928E-02 0. -1.
       -1    1    3    3    0  502 -0.21721023815E+03  0.33553749911E+03 -0.18189341696E+03  0.43914794321E+03  0.50400001928E-02 0.  1.
</event>
<event>
 5   0  0.1617491E-03  0.7997994E+03  0.7818609E-02  0.9560308E-01
        1   -1    0    0  501    0  0.00000000000E+00  0.00000000000E+00  0.26544791934E+03  0.26544791938E+03  0.50400001928E-02 0.  1.
       -1   -1    0    0    0  501  0.00000000000E+00  0.00000000000E+00 -0.60245253628E+03  0.60245253630E+03  0.50400001928E-02 0. -1.
    10030    2    1    2    0    0  0.00000000000E+00  0.00000000000E+00 -0.33700461694E+03  0.86790045568E+03  0.79979940556E+03 0.  0.
        1    1    3    3  502    0  0.28861669834E+03 -0.19715855983E+03  0.42331231684E+02  0.35208383870E+03  0.50400001928E-02 0.  1.
       -1    1    3    3    0  502 -0.28861669834E+03  0.19715855983E+03 -0.37933584862E+03  0.51581661698E+03  0.50400001928E-02 0. -1.
</event>
<event>
 5   0  0.2763587E-03  0.7924420E+03  0.7818609E-02  0.9571022E-01
        2   -1    0    0  501    0  0.00000000000E+00  0.00000000000E+00  0.15240992682E+04  0.15240992682E+04  0.25500000920E-02 0.  1.
       -2   -1    0    0    0  501  0.00000000000E+00  0.00000000000E+00 -0.10300582039E+03  0.10300582042E+03  0.25500000920E-02 0. -1.
    10030    2    1    2    0    0  0.00000000000E+00  0.00000000000E+00  0.14210934478E+04  0.16271050886E+04  0.79244203701E+03 0.  0.
        3    1    3    3  502    0  0.24225576373E+03  0.67506805086E+02  0.13392194406E+04  0.13626275148E+04  0.10100000352E+00 0.  1.
       -3    1    3    3    0  502 -0.24225576373E+03 -0.67506805086E+02  0.81874007178E+02  0.26447757380E+03  0.10100000352E+00 0. -1.
</event>
<event>
 5   0  0.2768834E-03  0.7961309E+03  0.7818609E-02  0.9565634E-01
       -2   -1    0    0    0  501  0.00000000000E+00  0.00000000000E+00  0.10156616786E+04  0.10156616786E+04  0.25500000920E-02 0.  1.
        2   -1    0    0  501    0  0.00000000000E+00  0.00000000000E+00 -0.15601269672E+03  0.15601269675E+03  0.25500000920E-02 0. -1.
    10030    2    1    2    0    0  0.00000000000E+00  0.00000000000E+00  0.85964898188E+03  0.11716743754E+04  0.79613093760E+03 0.  0.
        4    1    3    3  502    0  0.52884150063E+02 -0.25288517579E+02 -0.14962270147E+03  0.16070098987E+03  0.12699999809E+01 0. -1.
       -4    1    3    3    0  502 -0.52884150063E+02  0.25288517579E+02  0.10092716833E+04  0.10109733855E+04  0.12699999809E+01 0.  1.
</event>
<event>
 5   0  0.2873212E-03  0.8004199E+03  0.7818609E-02  0.9559409E-01
       -2   -1    0    0    0  501  0.00000000000E+00  0.00000000000E+00  0.20474718447E+03  0.20474718448E+03  0.25500000920E-02 0.  1.
        2   -1    0    0  501    0  0.00000000000E+00  0.00000000000E+00 -0.78227210139E+03  0.78227210139E+03  0.25500000920E-02 0. -1.
    10030    2    1    2    0    0  0.00000000000E+00  0.00000000000E+00 -0.57752491692E+03  0.98701928587E+03  0.80041991543E+03 0.  0.
        2    1    3    3  502    0  0.18017388992E+03 -0.20056531588E+02  0.15121180039E+03  0.23607181884E+03  0.25500000920E-02 0.  1.
       -2    1    3    3    0  502 -0.18017388992E+03  0.20056531588E+02 -0.72873671732E+03  0.75094746703E+03  0.25500000920E-02 0. -1.
</event>
<event>
 5   0  0.2768834E-03  0.7928692E+03  0.7818609E-02  0.9570396E-01
       -2   -1    0    0    0  501  0.00000000000E+00  0.00000000000E+00  0.11535406270E+04  0.11535406270E+04  0.25500000920E-02 0. -1.
        2   -1    0    0  501    0  0.00000000000E+00  0.00000000000E+00 -0.13624175340E+03  0.13624175342E+03  0.25500000920E-02 0.  1.
    10030    2    1    2    0    0  0.00000000000E+00  0.00000000000E+00  0.10172988736E+04  0.12897823804E+04  0.79286921408E+03 0.  0.
        4    1    3    3  502    0 -0.38510900556E+03 -0.61154997135E+02  0.62493379341E+03  0.73660894569E+03  0.12699999809E+01 0.  1.
       -4    1    3    3    0  502  0.38510900556E+03  0.61154997135E+02  0.39236508020E+03  0.55317343473E+03  0.12699999809E+01 0. -1.
</event>
<event>
 5   0  0.2910501E-03  0.8016800E+03  0.7818609E-02  0.9557589E-01
       -2   -1    0    0    0  501  0.00000000000E+00  0.00000000000E+00  0.24267191170E+03  0.24267191172E+03  0.25500000920E-02 0.  1.
        2   -1    0    0  501    0  0.00000000000E+00  0.00000000000E+00 -0.66209849683E+03  0.66209849683E+03  0.25500000920E-02 0. -1.
    10030    2    1    2    0    0  0.00000000000E+00  0.00000000000E+00 -0.41942658512E+03  0.90477040855E+03  0.80168000591E+03 0.  0.
        1    1    3    3  502    0 -0.35331926395E+03  0.65346354662E+02 -0.91916378863E+01  0.35942890059E+03  0.50400001928E-02 0.  1.
       -1    1    3    3    0  502  0.35331926395E+03 -0.65346354662E+02 -0.41023494723E+03  0.54534150796E+03  0.50400001928E-02 0. -1.
</event>
<event>
 5   0  0.1640035E-03  0.8010013E+03  0.7818609E-02  0.9558569E-01
        1   -1    0    0  501    0  0.00000000000E+00  0.00000000000E+00  0.34823055806E+03  0.34823055809E+03  0.50400001928E-02 0.  1.
       -1   -1    0    0    0  501  0.00000000000E+00  0.00000000000E+00 -0.46061662098E+03  0.46061662101E+03  0.50400001928E-02 0. -1.
    10030    2    1    2    0    0  0.00000000000E+00  0.00000000000E+00 -0.11238606293E+03  0.80884717910E+03  0.80100133084E+03 0.  0.
        5    1    3    3  502    0  0.83832655265E+01 -0.39517144819E+03 -0.12122838284E+03  0.41345999010E+03  0.46999998093E+01 0. -1.
       -5    1    3    3    0  502 -0.83832655265E+01  0.39517144819E+03  0.88423199164E+01  0.39538718900E+03  0.46999998093E+01 0.  1.
</event>
<event>
 5   0  0.1617491E-03  0.8012028E+03  0.7818609E-02  0.9558278E-01
       -1   -1    0    0    0  501  0.00000000000E+00  0.00000000000E+00  0.13553030940E+04  0.13553030941E+04  0.50400001928E-02 0. -1.
        1   -1    0    0  501    0  0.00000000000E+00  0.00000000000E+00 -0.11841004342E+03  0.11841004353E+03  0.50400001928E-02 0.  1.
    10030    2    1    2    0    0  0.00000000000E+00  0.00000000000E+00  0.12368930506E+04  0.14737131376E+04  0.80120284148E+03 0.  0.
        1    1    3    3  502    0 -0.21012481242E+02  0.40003176681E+03  0.61142804804E+03  0.73096593408E+03  0.50400001928E-02 0.  1.
       -1    1    3    3    0  502  0.21012481242E+02 -0.40003176681E+03  0.62546500258E+03  0.74274720350E+03  0.50400001928E-02 0. -1.
</event>
<event>
 5   0  0.2910501E-03  0.8036902E+03  0.7818609E-02  0.9554691E-01
        2   -1    0    0  501    0  0.00000000000E+00  0.00000000000E+00  0.54412859435E+03  0.54412859436E+03  0.25500000920E-02 0. -1.
       -2   -1    0    0    0  501  0.00000000000E+00  0.00000000000E+00 -0.29676711469E+03  0.29676711470E+03  0.25500000920E-02 0.  1.
    10030    2    1    2    0    0  0.00000000000E+00  0.00000000000E+00  0.24736147966E+03  0.84089570907E+03  0.80369017159E+03 0.  0.
        1    1    3    3  502    0  0.34185609761E+03  0.34302770051E+02  0.34174495238E+03  0.48459455631E+03  0.50400001928E-02 0. -1.
       -1    1    3    3    0  502 -0.34185609761E+03 -0.34302770051E+02 -0.94383472715E+02  0.35630115275E+03  0.50400001928E-02 0.  1.
</event>
<event>
 5   0  0.1637228E-03  0.8002664E+03  0.7818609E-02  0.9559632E-01
        1   -1    0    0  501    0  0.00000000000E+00  0.00000000000E+00  0.23599259877E+03  0.23599259882E+03  0.50400001928E-02 0.  1.
       -1   -1    0    0    0  501  0.00000000000E+00  0.00000000000E+00 -0.67843899177E+03  0.67843899179E+03  0.50400001928E-02 0. -1.
    10030    2    1    2    0    0  0.00000000000E+00  0.00000000000E+00 -0.44244639301E+03  0.91443159061E+03  0.80026640766E+03 0.  0.
        2    1    3    3  502    0  0.94737446539E+02 -0.16964333854E+03 -0.62091304627E+03  0.65060514686E+03  0.25500000920E-02 0. -1.
       -2    1    3    3    0  502 -0.94737446539E+02  0.16964333854E+03  0.17846665326E+03  0.26382644375E+03  0.25500000920E-02 0.  1.
</event>
<event>
 5   0  0.1656051E-03  0.7981010E+03  0.7818609E-02  0.9562770E-01
        1   -1    0    0  501    0  0.00000000000E+00  0.00000000000E+00  0.55264774830E+03  0.55264774832E+03  0.50400001928E-02 0. -1.
       -1   -1    0    0    0  501  0.00000000000E+00  0.00000000000E+00 -0.28814247224E+03  0.28814247229E+03  0.50400001928E-02 0.  1.
    10030    2    1    2    0    0  0.00000000000E+00  0.00000000000E+00  0.26450527605E+03  0.84079022060E+03  0.79810096730E+03 0.  0.
        3    1    3    3  502    0 -0.36171936097E+03  0.81761245492E+02  0.28749653665E+03  0.46923348788E+03  0.10100000352E+00 0.  1.
       -3    1    3    3    0  502  0.36171936097E+03 -0.81761245492E+02 -0.22991260596E+02  0.37155673272E+03  0.10100000352E+00 0. -1.
</event>
<event>
 5   0  0.1712793E-03  0.8017413E+03  0.7818609E-02  0.9557500E-01
       -1   -1    0    0    0  501  0.00000000000E+00  0.00000000000E+00  0.10140489805E+04  0.10140489806E+04  0.50400001928E-02 0.  1.
        1   -1    0    0  501    0  0.00000000000E+00  0.00000000000E+00 -0.15847093198E+03  0.15847093206E+03  0.50400001928E-02 0. -1.
    10030    2    1    2    0    0  0.00000000000E+00  0.00000000000E+00  0.85557804856E+03  0.11725199126E+04  0.80174132255E+03 0.  0.
        4    1    3    3  502    0 -0.27558851449E+03  0.21422658286E+03  0.13951754222E+03  0.37591064844E+03  0.12699999809E+01 0. -1.
       -4    1    3    3    0  502  0.27558851449E+03 -0.21422658286E+03  0.71606050634E+03  0.79660926417E+03  0.12699999809E+01 0.  1.
</event>
<event>
 5   0  0.2910501E-03  0.7997384E+03  0.7818609E-02  0.9560396E-01
       -2   -1    0    0    0  501  0.00000000000E+00  0.00000000000E+00  0.80450234425E+02  0.80450234466E+02  0.25500000920E-02 0.  1.
        2   -1    0    0  501    0  0.00000000000E+00  0.00000000000E+00 -0.19875065222E+04  0.19875065222E+04  0.25500000920E-02 0. -1.
    10030    2    1    2    0    0  0.00000000000E+00  0.00000000000E+00 -0.19070562878E+04  0.20679567567E+04  0.79973837141E+03 0.  0.
        1    1    3    3  502    0  0.38950134982E+02 -0.20023072396E+03 -0.18428521718E+04  0.18541072199E+04  0.50400001928E-02 0. -1.
       -1    1    3    3    0  502 -0.38950134982E+02  0.20023072396E+03 -0.64204115973E+02  0.21384953674E+03  0.50400001928E-02 0.  1.
</event>
<event>
 5   0  0.1637228E-03  0.8002171E+03  0.7818609E-02  0.9559703E-01
       -1   -1    0    0    0  501  0.00000000000E+00  0.00000000000E+00  0.28563341307E+03  0.28563341312E+03  0.50400001928E-02 0. -1.
        1   -1    0    0  501    0  0.00000000000E+00  0.00000000000E+00 -0.56046256818E+03  0.56046256821E+03  0.50400001928E-02 0.  1.
    10030    2    1    2    0    0  0.00000000000E+00  0.00000000000E+00 -0.27482915511E+03  0.84609598132E+03  0.80021706125E+03 0.  0.
        2    1    3    3  502    0 -0.17038768117E+03  0.15905633942E+03  0.20643163256E+03  0.31135975965E+03  0.25500000920E-02 0. -1.
       -2    1    3    3    0  502  0.17038768117E+03 -0.15905633942E+03 -0.48126078767E+03  0.53473622167E+03  0.25500000920E-02 0.  1.
</event>
<event>
 5   0  0.1656051E-03  0.7768349E+03  0.7818609E-02  0.9594166E-01
       -1   -1    0    0    0  501  0.00000000000E+00  0.00000000000E+00  0.28993206899E+03  0.28993206904E+03  0.50400001928E-02 0. -1.
        1   -1    0    0  501    0  0.00000000000E+00  0.00000000000E+00 -0.52035674708E+03  0.52035674710E+03  0.50400001928E-02 0.  1.
    10030    2    1    2    0    0  0.00000000000E+00  0.00000000000E+00 -0.23042467809E+03  0.81028881614E+03  0.77683488161E+03 0.  0.
        3    1    3    3  502    0  0.26855265121E+03  0.18614901271E+03  0.10382154240E+03  0.34285697349E+03  0.10100000352E+00 0. -1.
       -3    1    3    3    0  502 -0.26855265121E+03 -0.18614901271E+03 -0.33424622049E+03  0.46743184265E+03  0.10100000352E+00 0.  1.
</event>
<event>
 5   0  0.1640035E-03  0.8000002E+03  0.7818609E-02  0.9560017E-01
        1   -1    0    0  501    0  0.00000000000E+00  0.00000000000E+00  0.91062801151E+03  0.91062801152E+03  0.50400001928E-02 0.  1.
       -1   -1    0    0    0  501  0.00000000000E+00  0.00000000000E+00 -0.17570299760E+03  0.17570299767E+03  0.50400001928E-02 0. -1.
    10030    2    1    2    0    0  0.00000000000E+00  0.00000000000E+00  0.73492501390E+03  0.10863310092E+04  0.80000017842E+03 0.  0.
        5    1    3    3  502    0  0.30057227004E+03 -0.20125266605E+03  0.59923115166E+03  0.69996170483E+03  0.46999998093E+01 0.  1.
       -5    1    3    3    0  502 -0.30057227004E+03  0.20125266605E+03  0.13569386225E+03  0.38636930437E+03  0.46999998093E+01 0. -1.
</event>
<event>
 5   0  0.2910501E-03  0.8026303E+03  0.7818609E-02  0.9556218E-01
       -2   -1    0    0    0  501  0.00000000000E+00  0.00000000000E+00  0.22835526201E+03  0.22835526202E+03  0.25500000920E-02 0.  1.
        2   -1    0    0  501    0  0.00000000000E+00  0.00000000000E+00 -0.70527760892E+03  0.70527760893E+03  0.25500000920E-02 0. -1.
    10030    2    1    2    0    0  0.00000000000E+00  0.00000000000E+00 -0.47692234692E+03  0.93363287095E+03  0.80263030888E+03 0.  0.
        1    1    3    3  502    0 -0.10855568021E+03  0.23401439590E+03  0.11913433999E+03  0.28414796178E+03  0.50400001928E-02 0.  1.
       -1    1    3    3    0  502  0.10855568021E+03 -0.23401439590E+03 -0.59605668691E+03  0.64948490916E+03  0.50400001928E-02 0. -1.
</event>
<event>
 5   0  0.1095350E-03  0.7966322E+03  0.7818609E-02  0.9564905E-01
       -3   -1    0    0    0  501  0.00000000000E+00  0.00000000000E+00  0.13783399969E+03  0.13783403669E+03  0.10100000352E+00 0.  1.
        3   -1    0    0  501    0  0.00000000000E+00  0.00000000000E+00 -0.11510635531E+04  0.11510635576E+04  0.10100000352E+00 0. -1.
    10030    2    1    2    0    0  0.00000000000E+00  0.00000000000E+00 -0.10132295535E+04  0.12888975943E+04  0.79663221157E+03 0.  0.
        4    1    3    3  502    0 -0.18699879440E+03  0.34880833320E+03 -0.57930130528E+03  0.70158920859E+03  0.12699999809E+01 0. -1.
       -4    1    3    3    0  502  0.18699879440E+03 -0.34880833320E+03 -0.43392824818E+03  0.58730838568E+03  0.12699999809E+01 0.  1.
</event>
<event>
 5   0  0.1640035E-03  0.7979237E+03  0.7818609E-02  0.9563027E-01
       -1   -1    0    0    0  501  0.00000000000E+00  0.00000000000E+00  0.27324870410E+03  0.27324870414E+03  0.50400001928E-02 0. -1.
        1   -1    0    0  501    0  0.00000000000E+00  0.00000000000E+00 -0.58251162474E+03  0.58251162477E+03  0.50400001928E-02 0.  1.
    10030    2    1    2    0    0  0.00000000000E+00  0.00000000000E+00 -0.30926292065E+03  0.85576032891E+03  0.79792367207E+03 0.  0.
        5    1    3    3  502    0  0.95112846030E+02 -0.27904442340E+03 -0.44288077596E+03  0.53205048203E+03  0.46999998093E+01 0.  1.
       -5    1    3    3    0  502 -0.95112846030E+02  0.27904442340E+03  0.13361785532E+03  0.32370984688E+03  0.46999998093E+01 0. -1.
</event>
<event>
 5   0  0.1095350E-03  0.7999698E+03  0.7818609E-02  0.9560061E-01
        3   -1    0    0  501    0  0.00000000000E+00  0.00000000000E+00  0.67319834141E+03  0.67319834898E+03  0.10100000352E+00 0.  1.
       -3   -1    0    0    0  501  0.00000000000E+00  0.00000000000E+00 -0.23765345531E+03  0.23765347677E+03  0.10100000352E+00 0. -1.
    10030    2    1    2    0    0  0.00000000000E+00  0.00000000000E+00  0.43554488610E+03  0.91085182575E+03  0.79996981235E+03 0.  0.
        5    1    3    3  502    0 -0.17777095917E+03 -0.13306301985E+03 -0.16098804503E+03  0.27431281745E+03  0.46999998093E+01 0. -1.
       -5    1    3    3    0  502  0.17777095917E+03  0.13306301985E+03  0.59653293113E+03  0.63653900831E+03  0.46999998093E+01 0.  1.
</event>
<event>
 5   0  0.2873212E-03  0.8023321E+03  0.7818609E-02  0.9556648E-01
       -2   -1    0    0    0  501  0.00000000000E+00  0.00000000000E+00  0.86038094176E+03  0.86038094177E+03  0.25500000920E-02 0.  1.
        2   -1    0    0  501    0  0.00000000000E+00  0.00000000000E+00 -0.18704991401E+03  0.18704991403E+03  0.25500000920E-02 0. -1.
    10030    2    1    2    0    0  0.00000000000E+00  0.00000000000E+00  0.67333102775E+03  0.10474308558E+04  0.80233205391E+03 0.  0.
        2    1    3    3  502    0 -0.79763507117E+02 -0.22827940442E+03  0.75454341859E+03  0.79234429013E+03  0.25500000920E-02 0.  1.
       -2    1    3    3    0  502  0.79763507117E+02  0.22827940442E+03 -0.81212390839E+02  0.25508656567E+03  0.25500000920E-02 0. -1.
</event>
<event>
 5   0  0.1637228E-03  0.8005797E+03  0.7818609E-02  0.9559178E-01
        1   -1    0    0  501    0  0.00000000000E+00  0.00000000000E+00  0.10433142662E+04  0.10433142662E+04  0.50400001928E-02 0.  1.
       -1   -1    0    0    0  501  0.00000000000E+00  0.00000000000E+00 -0.15357976866E+03  0.15357976874E+03  0.50400001928E-02 0. -1.
    10030    2    1    2    0    0  0.00000000000E+00  0.00000000000E+00  0.88973449754E+03  0.11968940350E+04  0.80057969922E+03 0.  0.
        2    1    3    3  502    0  0.32714877848E+03 -0.89584528744E+01  0.10027763693E+03  0.34228961658E+03  0.25500000920E-02 0. -1.
       -2    1    3    3    0  502 -0.32714877848E+03  0.89584528744E+01  0.78945686061E+03  0.85460441838E+03  0.25500000920E-02 0.  1.
</event>
<event>
 5   0  0.2690809E-03  0.8000752E+03  0.7818609E-02  0.9559908E-01
       -2   -1    0    0    0  501  0.00000000000E+00  0.00000000000E+00  0.37297951549E+03  0.37297951550E+03  0.25500000920E-02 0.  1.
        2   -1    0    0  501    0  0.00000000000E+00  0.00000000000E+00 -0.42905860920E+03  0.42905860920E+03  0.25500000920E-02 0. -1.
    10030    2    1    2    0    0  0.00000000000E+00  0.00000000000E+00 -0.56079093701E+02  0.80203812471E+03  0.80007517693E+03 0.  0.
        5    1    3    3  502    0 -0.37404045577E+02  0.23419491086E+03  0.29487133380E+03  0.37844089683E+03  0.46999998093E+01 0.  1.
       -5    1    3    3    0  502  0.37404045577E+02 -0.23419491086E+03 -0.35095042750E+03  0.42359722787E+03  0.46999998093E+01 0. -1.
</event>
<event>
 5   0  0.2768834E-03  0.7996751E+03  0.7818609E-02  0.9560488E-01
       -2   -1    0    0    0  501  0.00000000000E+00  0.00000000000E+00  0.99332701872E+02  0.99332701904E+02  0.25500000920E-02 0. -1.
        2   -1    0    0  501    0  0.00000000000E+00  0.00000000000E+00 -0.16094403825E+04  0.16094403825E+04  0.25500000920E-02 0.  1.
    10030    2    1    2    0    0  0.00000000000E+00  0.00000000000E+00 -0.15101076807E+04  0.17087730844E+04  0.79967508834E+03 0.  0.
        4    1    3    3  502    0 -0.93409570912E+01  0.12654196268E+03  0.55165185483E+02  0.13836521379E+03  0.12699999809E+01 0. -1.
       -4    1    3    3    0  502  0.93409570912E+01 -0.12654196268E+03 -0.15652728661E+04  0.15704078706E+04  0.12699999809E+01 0.  1.
</event>
<event>
 5   0  0.2768834E-03  0.8010606E+03  0.7818609E-02  0.9558483E-01
        2   -1    0    0  501    0  0.00000000000E+00  0.00000000000E+00  0.73166657216E+03  0.73166657216E+03  0.25500000920E-02 0.  1.
       -2   -1    0    0    0  501  0.00000000000E+00  0.00000000000E+00 -0.21925907643E+03  0.21925907645E+03  0.25500000920E-02 0. -1.
    10030    2    1    2    0    0  0.00000000000E+00  0.00000000000E+00  0.51240749573E+03  0.95092564861E+03  0.80106063910E+03 0.  0.
        4    1    3    3  502    0  0.86714875219E+01  0.59238225786E+02  0.72632252132E+03  0.72878692357E+03  0.12699999809E+01 0.  1.
       -4    1    3    3    0  502 -0.86714875219E+01 -0.59238225786E+02 -0.21391502559E+03  0.22213872504E+03  0.12699999809E+01 0. -1.
</event>
<event>
 5   0  0.1640035E-03  0.8013791E+03  0.7818609E-02  0.9558023E-01
       -1   -1    0    0    0  501  0.00000000000E+00  0.00000000000E+00  0.33820597901E+03  0.33820597904E+03  0.50400001928E-02 0.  1.
        1   -1    0    0  501    0  0.00000000000E+00  0.00000000000E+00 -0.47471697399E+03  0.47471697402E+03  0.50400001928E-02 0. -1.
    10030    2    1    2    0    0  0.00000000000E+00  0.00000000000E+00 -0.13651099499E+03  0.81292295307E+03  0.80137910870E+03 0.  0.
        5    1    3    3  502    0 -0.22435721965E+03  0.10105215909E+03 -0.38901017044E+03  0.46032456329E+03  0.46999998093E+01 0. -1.
       -5    1    3    3    0  502  0.22435721965E+03 -0.10105215909E+03  0.25249917546E+03  0.35259838977E+03  0.46999998093E+01 0.  1.
</event>
<event>
 5   0  0.1640035E-03  0.8014559E+03  0.7818609E-02  0.9557912E-01
       -1   -1    0    0    0  501  0.00000000000E+00  0.00000000000E+00  0.20413715914E+03  0.20413715920E+03  0.50400001928E-02 0.  1.
        1   -1    0    0  501    0  0.00000000000E+00  0.00000000000E+00 -0.78664212539E+03  0.78664212541E+03  0.50400001928E-02 0. -1.
    10030    2    1    2    0    0  0.00000000000E+00  0.00000000000E+00 -0.58250496625E+03  0.99077928461E+03  0.80145589717E+03 0.  0.
        5    1    3    3  502    0  0.31301410316E+03  0.17499560556E+03 -0.51225505698E+03  0.62532281594E+03  0.46999998093E+01 0. -1.
       -5    1    3    3    0  502 -0.31301410316E+03 -0.17499560556E+03 -0.70249909272E+02  0.36545646867E+03  0.46999998093E+01 0.  1.
</event>
<event>
 5   0  0.1640035E-03  0.7972435E+03  0.7818609E-02  0.9564016E-01
        1   -1    0    0  501    0  0.00000000000E+00  0.00000000000E+00  0.13743353892E+04  0.13743353892E+04  0.50400001928E-02 0.  1.
       -1   -1    0    0    0  501  0.00000000000E+00  0.00000000000E+00 -0.11561902312E+03  0.11561902323E+03  0.50400001928E-02 0. -1.
    10030    2    1    2    0    0  0.00000000000E+00  0.00000000000E+00  0.12587163661E+04  0.14899544124E+04  0.79724353925E+03 0.  0.
        5    1    3    3  502    0 -0.22672334022E+03 -0.13703025617E+03  0.11859478230E+04  0.12151852093E+04  0.46999998093E+01 0.  1.
       -5    1    3    3    0  502  0.22672334022E+03  0.13703025617E+03  0.72768543075E+02  0.27476920309E+03  0.46999998093E+01 0. -1.
</event>
<event>
 5   0  0.2910501E-03  0.8002992E+03  0.7818609E-02  0.9559584E-01
       -2   -1    0    0    0  501  0.00000000000E+00  0.00000000000E+00  0.49237990149E+03  0.49237990150E+03  0.25500000920E-02 0.  1.
        2   -1    0    0  501    0  0.00000000000E+00  0.00000000000E+00 -0.32519545230E+03  0.32519545231E+03  0.25500000920E-02 0. -1.
    10030    2    1    2    0    0  0.00000000000E+00  0.00000000000E+00  0.16718444920E+03  0.81757535380E+03  0.80029920598E+03 0.  0.
        1    1    3    3  502    0  0.85269781705E+02 -0.17015166784E+03  0.44318098948E+03  0.48231930835E+03  0.50400001928E-02 0.  1.
       -1    1    3    3    0  502 -0.85269781705E+02  0.17015166784E+03 -0.27599654029E+03  0.33525604546E+03  0.50400001928E-02 0. -1.
</event>
<event>
 5   0  0.2690809E-03  0.7959965E+03  0.7818609E-02  0.9565830E-01
       -2   -1    0    0    0  501  0.00000000000E+00  0.00000000000E+00  0.21165595348E+03  0.21165595349E+03  0.25500000920E-02 0.  1.
        2   -1    0    0  501    0  0.00000000000E+00  0.00000000000E+00 -0.74839668918E+03  0.74839668919E+03  0.25500000920E-02 0. -1.
    10030    2    1    2    0    0  0.00000000000E+00  0.00000000000E+00 -0.53674073570E+03  0.96005264268E+03  0.79599651969E+03 0.  0.
        5    1    3    3  502    0 -0.14559351075E+03  0.54537679964E+02 -0.71021970393E+03  0.72705291881E+03  0.46999998093E+01 0. -1.
       -5    1    3    3    0  502  0.14559351075E+03 -0.54537679964E+02  0.17347896822E+03  0.23299972387E+03  0.46999998093E+01 0.  1.
</event>
<event>
 5   0  0.1656051E-03  0.8045323E+03  0.7818609E-02  0.9553480E-01
       -1   -1    0    0    0  501  0.00000000000E+00  0.00000000000E+00  0.28414981722E+03  0.28414981726E+03  0.50400001928E-02 0.  1.
        1   -1    0    0  501    0  0.00000000000E+00  0.00000000000E+00 -0.56948140839E+03  0.56948140841E+03  0.50400001928E-02 0. -1.
    10030    2    1    2    0    0  0.00000000000E+00  0.00000000000E+00 -0.28533159117E+03  0.85363122567E+03  0.80453225698E+03 0.  0.
        3    1    3    3  502    0 -0.26858516542E+03  0.86511871570E+02 -0.44686037288E+03  0.52849455821E+03  0.10100000352E+00 0. -1.
       -3    1    3    3    0  502  0.26858516542E+03 -0.86511871570E+02  0.16152878171E+03  0.32513666746E+03  0.10100000352E+00 0.  1.
</event>
<event>
 5   0  0.2768834E-03  0.8022347E+03  0.7818609E-02  0.9556788E-01
        2   -1    0    0  501    0  0.00000000000E+00  0.00000000000E+00  0.29206765796E+03  0.29206765797E+03  0.25500000920E-02 0.  1.
       -2   -1    0    0    0  501  0.00000000000E+00  0.00000000000E+00 -0.55088307762E+03  0.55088307762E+03  0.25500000920E-02 0. -1.
    10030    2    1    2    0    0  0.00000000000E+00  0.00000000000E+00 -0.25881541965E+03  0.84295073560E+03  0.80223470456E+03 0.  0.
        4    1    3    3  502    0 -0.33834559410E+03  0.48795848238E+02  0.91087152340E+02  0.35377571719E+03  0.12699999809E+01 0.  1.
       -4    1    3    3    0  502  0.33834559410E+03 -0.48795848238E+02 -0.34990257199E+03  0.48917501841E+03  0.12699999809E+01 0. -1.
</event>
<event>
 5   0  0.2910501E-03  0.7984488E+03  0.7818609E-02  0.9562265E-01
       -2   -1    0    0    0  501  0.00000000000E+00  0.00000000000E+00  0.35606595550E+03  0.35606595551E+03  0.25500000920E-02 0.  1.
        2   -1    0    0  501    0  0.00000000000E+00  0.00000000000E+00 -0.44761405831E+03  0.44761405832E+03  0.25500000920E-02 0. -1.
    10030    2    1    2    0    0  0.00000000000E+00  0.00000000000E+00 -0.91548102806E+02  0.80368001383E+03  0.79844881458E+03 0.  0.
        1    1    3    3  502    0 -0.13441543483E+03 -0.26735111399E+03  0.22022235307E+03  0.37154005449E+03  0.50400001928E-02 0.  1.
       -1    1    3    3    0  502  0.13441543483E+03  0.26735111399E+03 -0.31177045587E+03  0.43213995934E+03  0.50400001928E-02 0. -1.
</event>
<event>
 5   0  0.1095350E-03  0.8091009E+03  0.7818609E-02  0.9546937E-01
        3   -1    0    0  501    0  0.00000000000E+00  0.00000000000E+00  0.50185676483E+03  0.50185677500E+03  0.10100000352E+00 0. -1.
       -3   -1    0    0    0  501  0.00000000000E+00  0.00000000000E+00 -0.32611111820E+03  0.32611113384E+03  0.10100000352E+00 0.  1.
    10030    2    1    2    0    0  0.00000000000E+00  0.00000000000E+00  0.17574564663E+03  0.82796790884E+03  0.80910093669E+03 0.  0.
        5    1    3    3  502    0 -0.18478112961E+03 -0.56939663406E+02 -0.27573340200E+03  0.33680437958E+03  0.46999998093E+01 0.  1.
       -5    1    3    3    0  502  0.18478112961E+03  0.56939663406E+02  0.45147904863E+03  0.49116352926E+03  0.46999998093E+01 0. -1.
</event>
<event>
 5   0  0.1617491E-03  0.8013578E+03  0.7818609E-02  0.9558054E-01
       -1   -1    0    0    0  501  0.00000000000E+00  0.00000000000E+00  0.58475205351E+03  0.58475205353E+03  0.50400001928E-02 0.  1.
        1   -1    0    0  501    0  0.00000000000E+00  0.00000000000E+00 -0.27454984296E+03  0.27454984300E+03  0.50400001928E-02 0. -1.
    10030    2    1    2    0    0  0.00000000000E+00  0.00000000000E+00  0.31020221055E+03  0.85930189653E+03  0.80135780894E+03 0.  0.
        1    1    3    3  502    0 -0.55363912661E+02  0.18267919277E+03 -0.22265976539E+03  0.29328181233E+03  0.50400001928E-02 0. -1.
       -1    1    3    3    0  502  0.55363912661E+02 -0.18267919277E+03  0.53286197594E+03  0.56602008420E+03  0.50400001928E-02 0.  1.
</event>
<event>
 5   0  0.2763587E-03  0.8015050E+03  0.7818609E-02  0.9557841E-01
       -2   -1    0    0    0  501  0.00000000000E+00  0.00000000000E+00  0.14837876886E+03  0.14837876888E+03  0.25500000920E-02 0. -1.
        2   -1    0    0  501    0  0.00000000000E+00  0.00000000000E+00 -0.10823824839E+04  0.10823824839E+04  0.25500000920E-02 0.  1.
    10030    2    1    2    0    0  0.00000000000E+00  0.00000000000E+00 -0.93400371500E+03  0.12307612527E+04  0.80150503530E+03 0.  0.
        3    1    3    3  502    0 -0.19210646577E+03  0.28278620850E+02  0.71317454260E+02  0.20685928568E+03  0.10100000352E+00 0. -1.
       -3    1    3    3    0  502  0.19210646577E+03 -0.28278620850E+02 -0.10053211693E+04  0.10239019671E+04  0.10100000352E+00 0.  1.
</event>
<event>
 5   0  0.1656051E-03  0.8001389E+03  0.7818609E-02  0.9559816E-01
        1   -1    0    0  501    0  0.00000000000E+00  0.00000000000E+00  0.36548461727E+03  0.36548461730E+03  0.50400001928E-02 0.  1.
       -1   -1    0    0    0  501  0.00000000000E+00  0.00000000000E+00 -0.43792696906E+03  0.43792696909E+03  0.50400001928E-02 0. -1.
    10030    2    1    2    0    0  0.00000000000E+00  0.00000000000E+00 -0.72442351795E+02  0.80341158639E+03  0.80013891470E+03 0.  0.
        3    1    3    3  502    0 -0.21697000672E+03  0.24760724253E+03  0.19201942168E+03  0.38112569957E+03  0.10100000352E+00 0.  1.
       -3    1    3    3    0  502  0.21697000672E+03 -0.24760724253E+03 -0.26446177348E+03  0.42228588682E+03  0.10100000352E+00 0. -1.
</event>
<event>
 5   0  0.1640035E-03  0.7982665E+03  0.7818609E-02  0.9562530E-01
        1   -1    0    0  501    0  0.00000000000E+00  0.00000000000E+00  0.34227402542E+03  0.34227402545E+03  0.50400001928E-02 0. -1.
       -1   -1    0    0    0  501  0.00000000000E+00  0.00000000000E+00 -0.46543803805E+03  0.46543803808E+03  0.50400001928E-02 0.  1.
    10030    2    1    2    0    0  0.00000000000E+00  0.00000000000E+00 -0.12316401264E+03  0.80771206353E+03  0.79826649909E+03 0.  0.
        5    1    3    3  502    0  0.33994510638E+03  0.21571263883E+02 -0.27202680675E+03  0.43594571722E+03  0.46999998093E+01 0.  1.
       -5    1    3    3    0  502 -0.33994510638E+03 -0.21571263883E+02  0.14886279411E+03  0.37176634631E+03  0.46999998093E+01 0. -1.
</event>
<event>
 5   0  0.1095350E-03  0.7999783E+03  0.7818609E-02  0.9560048E-01
        3   -1    0    0  501    0  0.00000000000E+00  0.00000000000E+00  0.88942029597E+03  0.88942030170E+03  0.10100000352E+00 0.  1.
       -3   -1    0    0    0  501  0.00000000000E+00  0.00000000000E+00 -0.17988268833E+03  0.17988271668E+03  0.10100000352E+00 0. -1.
    10030    2    1    2    0    0  0.00000000000E+00  0.00000000000E+00  0.70953760764E+03  0.10693030184E+04  0.79997833001E+03 0.  0.
        5    1    3    3  502    0  0.13838513124E+03 -0.91566800118E+02 -0.13166398396E+03  0.21187830966E+03  0.46999998093E+01 0. -1.
       -5    1    3    3    0  502 -0.13838513124E+03  0.91566800118E+02  0.84120159160E+03  0.85742470873E+03  0.46999998093E+01 0.  1.
</event>
<event>
 5   0  0.1617491E-03  0.7810167E+03  0.7818609E-02  0.9587909E-01
        1   -1    0    0  501    0  0.00000000000E+00  0.00000000000E+00  0.62158359179E+03  0.62158359181E+03  0.50400001928E-02 0.  1.
       -1   -1    0    0    0  501  0.00000000000E+00  0.00000000000E+00 -0.24533587421E+03  0.24533587426E+03  0.50400001928E-02 0. -1.
    10030    2    1    2    0    0  0.00000000000E+00  0.00000000000E+00  0.37624771759E+03  0.86691946607E+03  0.78101665518E+03 0.  0.
        1    1    3    3  502    0 -0.23363837614E+03 -0.19059780194E+03 -0.87328538586E+02  0.31391190896E+03  0.50400001928E-02 0. -1.
       -1    1    3    3    0  502  0.23363837614E+03  0.19059780194E+03  0.46357625617E+03  0.55300755711E+03  0.50400001928E-02 0.  1.
</event>
<event>
 5   0  0.1617491E-03  0.8016108E+03  0.7818609E-02  0.9557689E-01
       -1   -1    0    0    0  501  0.00000000000E+00  0.00000000000E+00  0.35443035956E+03  0.35443035959E+03  0.50400001928E-02 0. -1.
        1   -1    0    0  501    0  0.00000000000E+00  0.00000000000E+00 -0.45324827457E+03  0.45324827460E+03  0.50400001928E-02 0.  1.
    10030    2    1    2    0    0  0.00000000000E+00  0.00000000000E+00 -0.98817915009E+02  0.80767863419E+03  0.80161075080E+03 0.  0.
        1    1    3    3  502    0  0.26069328952E+03 -0.30417268397E+03 -0.62270221573E+02  0.40541286782E+03  0.50400001928E-02 0. -1.
       -1    1    3    3    0  502 -0.26069328952E+03  0.30417268397E+03 -0.36547693436E+02  0.40226576637E+03  0.50400001928E-02 0.  1.
</event>
<event>
 5   0  0.1095350E-03  0.7991030E+03  0.7818609E-02  0.9561316E-01
       -3   -1    0    0    0  501  0.00000000000E+00  0.00000000000E+00  0.86239280135E+03  0.86239280727E+03  0.10100000352E+00 0.  1.
        3   -1    0    0  501    0  0.00000000000E+00  0.00000000000E+00 -0.18511447881E+03  0.18511450636E+03  0.10100000352E+00 0. -1.
    10030    2    1    2    0    0  0.00000000000E+00  0.00000000000E+00  0.67727832255E+03  0.10475073136E+04  0.79910302584E+03 0.  0.
        5    1    3    3  502    0  0.29866597535E+02 -0.39683205596E+03  0.38501500069E+03  0.55373850782E+03  0.46999998093E+01 0.  1.
       -5    1    3    3    0  502 -0.29866597535E+02  0.39683205596E+03  0.29226332186E+03  0.49376880581E+03  0.46999998093E+01 0. -1.
</event>
<event>
 5   0  0.2763587E-03  0.8011317E+03  0.7818609E-02  0.9558381E-01
       -2   -1    0    0    0  501  0.00000000000E+00  0.00000000000E+00  0.27658332796E+03  0.27658332798E+03  0.25500000920E-02 0.  1.
        2   -1    0    0  501    0  0.00000000000E+00  0.00000000000E+00 -0.58012531370E+03  0.58012531371E+03  0.25500000920E-02 0. -1.
    10030    2    1    2    0    0  0.00000000000E+00  0.00000000000E+00 -0.30354198574E+03  0.85670864168E+03  0.80113167434E+03 0.  0.
        3    1    3    3  502    0  0.16171765742E+03 -0.94389656651E+02  0.22690029689E+03  0.29418661243E+03  0.10100000352E+00 0.  1.
       -3    1    3    3    0  502 -0.16171765742E+03  0.94389656651E+02 -0.53044228262E+03  0.56252202926E+03  0.10100000352E+00 0. -1.
</event>
<event>
 5   0  0.1617491E-03  0.8001773E+03  0.7818609E-02  0.9559761E-01
        1   -1    0    0  501    0  0.00000000000E+00  0.00000000000E+00  0.33096418659E+03  0.33096418663E+03  0.50400001928E-02 0. -1.
       -1   -1    0    0    0  501  0.00000000000E+00  0.00000000000E+00 -0.48365028986E+03  0.48365028989E+03  0.50400001928E-02 0.  1.
    10030    2    1    2    0    0  0.00000000000E+00  0.00000000000E+00 -0.15268610327E+03  0.81461447652E+03  0.80017729237E+03 0.  0.
        1    1    3    3  502    0  0.75270661037E+02  0.99299266444E+02  0.31070715136E+03  0.33476103516E+03  0.50400001928E-02 0. -1.
       -1    1    3    3    0  502 -0.75270661037E+02 -0.99299266444E+02 -0.46339325463E+03  0.47985344136E+03  0.50400001928E-02 0.  1.
</event>
<event>
 5   0  0.1637228E-03  0.8001264E+03  0.7818609E-02  0.9559834E-01
       -1   -1    0    0    0  501  0.00000000000E+00  0.00000000000E+00  0.28718276736E+03  0.28718276741E+03  0.50400001928E-02 0. -1.
        1   -1    0    0  501    0  0.00000000000E+00  0.00000000000E+00 -0.55731261394E+03  0.55731261396E+03  0.50400001928E-02 0.  1.
    10030    2    1    2    0    0  0.00000000000E+00  0.00000000000E+00 -0.27012984658E+03  0.84449538137E+03  0.80012643698E+03 0.  0.
        2    1    3    3  502    0 -0.35841515841E+03  0.68718892002E+02  0.37935501819E+02  0.36690981753E+03  0.25500000920E-02 0. -1.
       -2    1    3    3    0  502  0.35841515841E+03 -0.68718892002E+02 -0.30806534840E+03  0.47758556384E+03  0.25500000920E-02 0.  1.
</event>
<event>
 5   0  0.1640035E-03  0.8005906E+03  0.7818609E-02  0.9559163E-01
       -1   -1    0    0    0  501  0.00000000000E+00  0.00000000000E+00  0.22147405304E+03  0.22147405310E+03  0.50400001928E-02 0. -1.
        1   -1    0    0  501    0  0.00000000000E+00  0.00000000000E+00 -0.72349937431E+03  0.72349937432E+03  0.50400001928E-02 0.  1.
    10030    2    1    2    0    0  0.00000000000E+00  0.00000000000E+00 -0.50202532126E+03  0.94497342742E+03  0.80059062907E+03 0.  0.
        5    1    3    3  502    0 -0.25896942790E+02  0.18692682021E+03  0.16563748005E+03  0.25113771631E+03  0.46999998093E+01 0. -1.
       -5    1    3    3    0  502  0.25896942790E+02 -0.18692682021E+03 -0.66766280131E+03  0.69383571111E+03  0.46999998093E+01 0.  1.
</event>
<event>
 5   0  0.2910501E-03  0.7948951E+03  0.7818609E-02  0.9567436E-01
       -2   -1    0    0    0  501  0.00000000000E+00  0.00000000000E+00  0.23177935043E+03  0.23177935045E+03  0.25500000920E-02 0. -1.
        2   -1    0    0  501    0  0.00000000000E+00  0.00000000000E+00 -0.68152989164E+03  0.68152989164E+03  0.25500000920E-02 0.  1.
    10030    2    1    2    0    0  0.00000000000E+00  0.00000000000E+00 -0.44975054120E+03  0.91330924209E+03  0.79489510149E+03 0.  0.
        1    1    3    3  502    0 -0.12334783823E+03 -0.23374615955E+03  0.11618178484E+03  0.28870428375E+03  0.50400001928E-02 0. -1.
       -1    1    3    3    0  502  0.12334783823E+03  0.23374615955E+03 -0.56593232604E+03  0.62460495834E+03  0.50400001928E-02 0.  1.
</event>
<event>
 5   0  0.2763587E-03  0.7993125E+03  0.7818609E-02  0.9561013E-01
       -2   -1    0    0    0  501  0.00000000000E+00  0.00000000000E+00  0.10445970030E+03  0.10445970033E+03  0.25500000920E-02 0. -1.
        2   -1    0    0  501    0  0.00000000000E+00  0.00000000000E+00 -0.15290597726E+04  0.15290597726E+04  0.25500000920E-02 0.  1.
    10030    2    1    2    0    0  0.00000000000E+00  0.00000000000E+00 -0.14246000723E+04  0.16335194730E+04  0.79931251866E+03 0.  0.
        3    1    3    3  502    0  0.43215088410E+01  0.22768669572E+03 -0.41105527088E+02  0.23140782486E+03  0.10100000352E+00 0. -1.
       -3    1    3    3    0  502 -0.43215088410E+01 -0.22768669572E+03 -0.13834945453E+04  0.14021116481E+04  0.10100000352E+00 0.  1.
</event>
<event>
 5   0  0.1712793E-03  0.8012827E+03  0.7818609E-02  0.9558162E-01
       -1   -1    0    0    0  501  0.00000000000E+00  0.00000000000E+00  0.33170717683E+03  0.33170717686E+03  0.50400001928E-02 0.  1.
        1   -1    0    0  501    0  0.00000000000E+00  0.00000000000E+00 -0.48390119134E+03  0.48390119137E+03  0.50400001928E-02 0. -1.
    10030    2    1    2    0    0  0.00000000000E+00  0.00000000000E+00 -0.15219401452E+03  0.81560836823E+03  0.80128271682E+03 0.  0.
        4    1    3    3  502    0  0.32782408908E+03 -0.29537892039E+02  0.15639578798E+03  0.36442060294E+03  0.12699999809E+01 0.  1.
       -4    1    3    3    0  502 -0.32782408908E+03  0.29537892039E+02 -0.30858980249E+03  0.45118776529E+03  0.12699999809E+01 0. -1.
</event>
<event>
 5   0  0.1637228E-03  0.8005576E+03  0.7818609E-02  0.9559210E-01
       -1   -1    0    0    0  501  0.00000000000E+00  0.00000000000E+00  0.31653586111E+03  0.31653586115E+03  0.50400001928E-02 0. -1.
        1   -1    0    0  501    0  0.00000000000E+00  0.00000000000E+00 -0.50617680180E+03  0.50617680183E+03  0.50400001928E-02 0.  1.
    10030    2    1    2    0    0  0.00000000000E+00  0.00000000000E+00 -0.18964094069E+03  0.82271266298E+03  0.80055758034E+03 0.  0.
        2    1    3    3  502    0 -0.82627988414E+02  0.12456117496E+03  0.28677799694E+03  0.32339525400E+03  0.25500000920E-02 0. -1.
       -2    1    3    3    0  502  0.82627988414E+02 -0.12456117496E+03 -0.47641893763E+03  0.49931740898E+03  0.25500000920E-02 0.  1.
</event>
<event>
 5   0  0.1712793E-03  0.7990694E+03  0.7818609E-02  0.9561365E-01
        1   -1    0    0  501    0  0.00000000000E+00  0.00000000000E+00  0.19345646534E+03  0.19345646541E+03  0.50400001928E-02 0.  1.
       -1   -1    0    0    0  501  0.00000000000E+00  0.00000000000E+00 -0.82513643730E+03  0.82513643732E+03  0.50400001928E-02 0. -1.
    10030    2    1    2    0    0  0.00000000000E+00  0.00000000000E+00 -0.63167997196E+03  0.10185929027E+04  0.79906940531E+03 0.  0.
        4    1    3    3  502    0 -0.16467158823E+03 -0.21149850162E+03 -0.69350697617E+03  0.74350648084E+03  0.12699999809E+01 0. -1.
       -4    1    3    3    0  502  0.16467158823E+03  0.21149850162E+03  0.61827004202E+02  0.27508642189E+03  0.12699999809E+01 0.  1.
</event>
<event>
 5   0  0.1617491E-03  0.8039744E+03  0.7818609E-02  0.9554282E-01
        1   -1    0    0  501    0  0.00000000000E+00  0.00000000000E+00  0.17764658936E+04  0.17764658936E+04  0.50400001928E-02 0.  1.
       -1   -1    0    0    0  501  0.00000000000E+00  0.00000000000E+00 -0.90963587869E+02  0.90963588009E+02  0.50400001928E-02 0. -1.
    10030    2    1    2    0    0  0.00000000000E+00  0.00000000000E+00  0.16855023057E+04  0.18674294816E+04  0.80397440642E+03 0.  0.
        1    1    3    3  502    0 -0.35270651369E+03 -0.83924622463E+01  0.39522942958E+03  0.52979111001E+03  0.50400001928E-02 0. -1.
       -1    1    3    3    0  502  0.35270651369E+03  0.83924622463E+01  0.12902728761E+04  0.13376383716E+04  0.50400001928E-02 0.  1.
</event>
<event>
 5   0  0.1095350E-03  0.7992589E+03  0.7818609E-02  0.9561090E-01
       -3   -1    0    0    0  501  0.00000000000E+00  0.00000000000E+00  0.35480862057E+03  0.35480863494E+03  0.10100000352E+00 0. -1.
        3   -1    0    0  501    0  0.00000000000E+00  0.00000000000E+00 -0.45011219977E+03  0.45011221110E+03  0.10100000352E+00 0.  1.
    10030    2    1    2    0    0  0.00000000000E+00  0.00000000000E+00 -0.95303579204E+02  0.80492084604E+03  0.79925890435E+03 0.  0.
        2    1    3    3  502    0 -0.98871572114E+02 -0.37630722249E+03  0.44213844279E+02  0.39158342343E+03  0.25500000920E-02 0. -1.
       -2    1    3    3    0  502  0.98871572114E+02  0.37630722249E+03 -0.13951742348E+03  0.41333742262E+03  0.25500000920E-02 0.  1.
</event>
<event>
 5   0  0.1712793E-03  0.8012854E+03  0.7818609E-02  0.9558158E-01
       -1   -1    0    0    0  501  0.00000000000E+00  0.00000000000E+00  0.21123011498E+03  0.21123011504E+03  0.50400001928E-02 0.  1.
        1   -1    0    0  501    0  0.00000000000E+00  0.00000000000E+00 -0.75990389310E+03  0.75990389312E+03  0.50400001928E-02 0. -1.
    10030    2    1    2    0    0  0.00000000000E+00  0.00000000000E+00 -0.54867377812E+03  0.97113400815E+03  0.80128543416E+03 0.  0.
        4    1    3    3  502    0  0.27054747230E+03 -0.25741345459E+03 -0.45019936078E+03  0.58492623357E+03  0.12699999809E+01 0. -1.
       -4    1    3    3    0  502 -0.27054747230E+03  0.25741345459E+03 -0.98474417344E+02  0.38620777458E+03  0.12699999809E+01 0.  1.
</event>
<event>
 5   0  0.2768834E-03  0.7995253E+03  0.7818609E-02  0.9560704E-01
       -2   -1    0    0    0  501  0.00000000000E+00  0.00000000000E+00  0.76334202502E+02  0.76334202544E+02  0.25500000920E-02 0.  1.
        2   -1    0    0  501    0  0.00000000000E+00  0.00000000000E+00 -0.20935593936E+04  0.20935593936E+04  0.25500000920E-02 0. -1.
    10030    2    1    2    0    0  0.00000000000E+00  0.00000000000E+00 -0.20172251911E+04  0.21698935962E+04  0.79952532606E+03 0.  0.
        4    1    3    3  502    0 -0.38604632618E+03  0.83237106052E+02 -0.84024990071E+03  0.92842969057E+03  0.12699999809E+01 0.  1.
       -4    1    3    3    0  502  0.38604632618E+03 -0.83237106052E+02 -0.11769752904E+04  0.12414639056E+04  0.12699999809E+01 0. -1.
</event>
<event>
 5   0  0.1095350E-03  0.8002611E+03  0.7818609E-02  0.9559639E-01
       -3   -1    0    0    0  501  0.00000000000E+00  0.00000000000E+00  0.15977752265E+03  0.15977755457E+03  0.10100000352E+00 0.  1.
        3   -1    0    0  501    0  0.00000000000E+00  0.00000000000E+00 -0.10020461020E+04  0.10020461071E+04  0.10100000352E+00 0. -1.
    10030    2    1    2    0    0  0.00000000000E+00  0.00000000000E+00 -0.84226857935E+03  0.11618236617E+04  0.80026112052E+03 0.  0.
        1    1    3    3  502    0 -0.37848320528E+03  0.11089924589E+02 -0.60892827389E+03  0.71705380961E+03  0.50400001928E-02 0. -1.
       -1    1    3    3    0  502  0.37848320528E+03 -0.11089924589E+02 -0.23334030546E+03  0.44476985205E+03  0.50400001928E-02 0.  1.
</event>
<event>
 5   0  0.2768834E-03  0.7969874E+03  0.7818609E-02  0.9564388E-01
        2   -1    0    0  501    0  0.00000000000E+00  0.00000000000E+00  0.11007952160E+04  0.11007952160E+04  0.25500000920E-02 0. -1.
       -2   -1    0    0    0  501  0.00000000000E+00  0.00000000000E+00 -0.14425681295E+03  0.14425681298E+03  0.25500000920E-02 0.  1.
    10030    2    1    2    0    0  0.00000000000E+00  0.00000000000E+00  0.95653840306E+03  0.12450520290E+04  0.79698735145E+03 0.  0.
        4    1    3    3  502    0  0.74385853286E+01  0.12576745215E+03 -0.11232183009E+03  0.16879156077E+03  0.12699999809E+01 0.  1.
       -4    1    3    3    0  502 -0.74385853286E+01 -0.12576745215E+03  0.10688602331E+04  0.10762604682E+04  0.12699999809E+01 0. -1.
</event>
<event>
 5   0  0.1617491E-03  0.8055999E+03  0.7818609E-02  0.9551947E-01
       -1   -1    0    0    0  501  0.00000000000E+00  0.00000000000E+00  0.23447771474E+03  0.23447771480E+03  0.50400001928E-02 0. -1.
        1   -1    0    0  501    0  0.00000000000E+00  0.00000000000E+00 -0.69195398101E+03  0.69195398103E+03  0.50400001928E-02 0.  1.
    10030    2    1    2    0    0  0.00000000000E+00  0.00000000000E+00 -0.45747626627E+03  0.92643169583E+03  0.80559987142E+03 0.  0.
        1    1    3    3  502    0  0.39447571790E+03 -0.80870230173E+02 -0.24004681118E+03  0.46880012556E+03  0.50400001928E-02 0. -1.
       -1    1    3    3    0  502 -0.39447571790E+03  0.80870230173E+02 -0.21742945509E+03  0.45763157027E+03  0.50400001928E-02 0.  1.
</event>
<event>
 5   0  0.1712793E-03  0.7987142E+03  0.7818609E-02  0.9561880E-01
        1   -1    0    0  501    0  0.00000000000E+00  0.00000000000E+00  0.52659241894E+03  0.52659241896E+03  0.50400001928E-02 0. -1.
       -1   -1    0    0    0  501  0.00000000000E+00  0.00000000000E+00 -0.30286438515E+03  0.30286438519E+03  0.50400001928E-02 0.  1.
    10030    2    1    2    0    0  0.00000000000E+00  0.00000000000E+00  0.22372803379E+03  0.82945680415E+03  0.79871418971E+03 0.  0.
        4    1    3    3  502    0  0.29408751729E+03 -0.10597094346E+03  0.36995998341E+03  0.48434420706E+03  0.12699999809E+01 0. -1.
       -4    1    3    3    0  502 -0.29408751729E+03  0.10597094346E+03 -0.14623194962E+03  0.34511259709E+03  0.12699999809E+01 0.  1.
</event>
<event>
 5   0  0.2768834E-03  0.7998474E+03  0.7818609E-02  0.9560238E-01
       -2   -1    0    0    0  501  0.00000000000E+00  0.00000000000E+00  0.39265232313E+03  0.39265232314E+03  0.25500000920E-02 0.  1.
        2   -1    0    0  501    0  0.00000000000E+00  0.00000000000E+00 -0.40732978153E+03  0.40732978154E+03  0.25500000920E-02 0. -1.
    10030    2    1    2    0    0  0.00000000000E+00  0.00000000000E+00 -0.14677458401E+02  0.79998210468E+03  0.79984744797E+03 0.  0.
        4    1    3    3  502    0  0.17896462290E+02 -0.16536485956E+03 -0.37109151934E+03  0.40666490968E+03  0.12699999809E+01 0. -1.
       -4    1    3    3    0  502 -0.17896462290E+02  0.16536485956E+03  0.35641406094E+03  0.39331719499E+03  0.12699999809E+01 0.  1.
</event>
<event>
 5   0  0.2768834E-03  0.7972862E+03  0.7818609E-02  0.9563954E-01
        2   -1    0    0  501    0  0.00000000000E+00  0.00000000000E+00  0.14017597466E+04  0.14017597467E+04  0.25500000920E-02 0.  1.
       -2   -1    0    0    0  501  0.00000000000E+00  0.00000000000E+00 -0.11336915529E+03  0.11336915532E+03  0.25500000920E-02 0. -1.
    10030    2    1    2    0    0  0.00000000000E+00  0.00000000000E+00  0.12883905914E+04  0.15151289020E+04  0.79728619308E+03 0.  0.
        4    1    3    3  502    0 -0.26575802334E+03  0.22877136695E+03  0.28387305474E+03  0.45116425990E+03  0.12699999809E+01 0. -1.
       -4    1    3    3    0  502  0.26575802334E+03 -0.22877136695E+03  0.10045175366E+04  0.10639646421E+04  0.12699999809E+01 0.  1.
</event>
<event>
 5   0  0.2690809E-03  0.7995330E+03  0.7818609E-02  0.9560693E-01
       -2   -1    0    0    0  501  0.00000000000E+00  0.00000000000E+00  0.35861994691E+03  0.35861994692E+03  0.25500000920E-02 0. -1.
        2   -1    0    0  501    0  0.00000000000E+00  0.00000000000E+00 -0.44563402550E+03  0.44563402551E+03  0.25500000920E-02 0.  1.
    10030    2    1    2    0    0  0.00000000000E+00  0.00000000000E+00 -0.87014078590E+02  0.80425397243E+03  0.79953299013E+03 0.  0.
        5    1    3    3  502    0 -0.14139705774E+03  0.87275434669E+02  0.32220679920E+03  0.36255956874E+03  0.46999998093E+01 0. -1.
       -5    1    3    3    0  502  0.14139705774E+03 -0.87275434669E+02 -0.40922087779E+03  0.44169440369E+03  0.46999998093E+01 0.  1.
</event>
<event>
 5   0  0.2910501E-03  0.7975076E+03  0.7818609E-02  0.9563632E-01
       -2   -1    0    0    0  501  0.00000000000E+00  0.00000000000E+00  0.80343025660E+02  0.80343025700E+02  0.25500000920E-02 0. -1.
        2   -1    0    0  501    0  0.00000000000E+00  0.00000000000E+00 -0.19790714532E+04  0.19790714532E+04  0.25500000920E-02 0.  1.
    10030    2    1    2    0    0  0.00000000000E+00  0.00000000000E+00 -0.18987284275E+04  0.20594144789E+04  0.79750758889E+03 0.  0.
        1    1    3    3  502    0 -0.36427420137E+03  0.12617827201E+03 -0.12125567815E+04  0.12723641769E+04  0.50400001928E-02 0.  1.
       -1    1    3    3    0  502  0.36427420137E+03 -0.12617827201E+03 -0.68617164596E+03  0.78705030199E+03  0.50400001928E-02 0. -1.
</event>
<event>
 5   0  0.1640035E-03  0.7991641E+03  0.7818609E-02  0.9561228E-01
       -1   -1    0    0    0  501  0.00000000000E+00  0.00000000000E+00  0.17864449693E+03  0.17864449700E+03  0.50400001928E-02 0. -1.
        1   -1    0    0  501    0  0.00000000000E+00  0.00000000000E+00 -0.89376290036E+03  0.89376290037E+03  0.50400001928E-02 0.  1.
    10030    2    1    2    0    0  0.00000000000E+00  0.00000000000E+00 -0.71511840343E+03  0.10724073974E+04  0.79916412270E+03 0.  0.
        5    1    3    3  502    0 -0.28692354040E+03 -0.20698017714E+03 -0.60672804376E+03  0.70235811439E+03  0.46999998093E+01 0.  1.
       -5    1    3    3    0  502  0.28692354040E+03  0.20698017714E+03 -0.10839035967E+03  0.37004928298E+03  0.46999998093E+01 0. -1.
</event>
<event>
 5   0  0.2690809E-03  0.8028253E+03  0.7818609E-02  0.9555937E-01
       -2   -1    0    0    0  501  0.00000000000E+00  0.00000000000E+00  0.10887769360E+03  0.10887769363E+03  0.25500000920E-02 0.  1.
        2   -1    0    0  501    0  0.00000000000E+00  0.00000000000E+00 -0.14799369222E+04  0.14799369222E+04  0.25500000920E-02 0. -1.
    10030    2    1    2    0    0  0.00000000000E+00  0.00000000000E+00 -0.13710592286E+04  0.15888146158E+04  0.80282530799E+03 0.  0.
        5    1    3    3  502    0  0.12269934048E+03  0.36033651773E+03 -0.43354321881E+03  0.57695697131E+03  0.46999998093E+01 0.  1.
       -5    1    3    3    0  502 -0.12269934048E+03 -0.36033651773E+03 -0.93751600979E+03  0.10118576445E+04  0.46999998093E+01 0. -1.
</event>
<event>
 5   0  0.1095350E-03  0.7998374E+03  0.7818609E-02  0.9560252E-01
       -4   -1    0    0    0  501  0.00000000000E+00  0.00000000000E+00  0.34214496306E+03  0.34214732010E+03  0.12699999809E+01 0. -1.
        4   -1    0    0  501    0  0.00000000000E+00  0.00000000000E+00 -0.46744314658E+03  0.46744487182E+03  0.12699999809E+01 0.  1.
    10030    2    1    2    0    0  0.00000000000E+00  0.00000000000E+00 -0.12529818352E+03  0.80959219192E+03  0.79983740999E+03 0.  0.
        5    1    3    3  502    0  0.10746223313E+03 -0.31763566799E+03  0.15788964297E+03  0.37066396977E+03  0.46999998093E+01 0. -1.
       -5    1    3    3    0  502 -0.10746223313E+03  0.31763566799E+03 -0.28318782649E+03  0.43892822215E+03  0.46999998093E+01 0.  1.
</event>
<event>
 5   0  0.2690809E-03  0.8017454E+03  0.7818609E-02  0.9557494E-01
        2   -1    0    0  501    0  0.00000000000E+00  0.00000000000E+00  0.57940884498E+03  0.57940884499E+03  0.25500000920E-02 0. -1.
       -2   -1    0    0    0  501  0.00000000000E+00  0.00000000000E+00 -0.27734977944E+03  0.27734977945E+03  0.25500000920E-02 0.  1.
    10030    2    1    2    0    0  0.00000000000E+00  0.00000000000E+00  0.30205906554E+03  0.85675862444E+03  0.80174538445E+03 0.  0.
        5    1    3    3  502    0  0.31595186569E+03  0.29826412905E+02  0.41270242105E+03  0.52063478052E+03  0.46999998093E+01 0. -1.
       -5    1    3    3    0  502 -0.31595186569E+03 -0.29826412905E+02 -0.11064335551E+03  0.33612384393E+03  0.46999998093E+01 0.  1.
</event>
<event>
 5   0  0.1656051E-03  0.8049487E+03  0.7818609E-02  0.9552882E-01
       -1   -1    0    0    0  501  0.00000000000E+00  0.00000000000E+00  0.61384565542E+03  0.61384565544E+03  0.50400001928E-02 0.  1.
        1   -1    0    0  501    0  0.00000000000E+00  0.00000000000E+00 -0.26388653426E+03  0.26388653430E+03  0.50400001928E-02 0. -1.
    10030    2    1    2    0    0  0.00000000000E+00  0.00000000000E+00  0.34995912116E+03  0.87773218974E+03  0.80494870049E+03 0.  0.
        3    1    3    3  502    0  0.23013819524E+03 -0.32999326612E+03  0.18724122653E+03  0.44375492302E+03  0.10100000352E+00 0. -1.
       -3    1    3    3    0  502 -0.23013819524E+03  0.32999326612E+03  0.16271789463E+03  0.43397726672E+03  0.10100000352E+00 0.  1.
</event>
<event>
 5   0  0.1712793E-03  0.7997645E+03  0.7818609E-02  0.9560358E-01
       -1   -1    0    0    0  501  0.00000000000E+00  0.00000000000E+00  0.12595212773E+03  0.12595212783E+03  0.50400001928E-02 0.  1.
        1   -1    0    0  501    0  0.00000000000E+00  0.00000000000E+00 -0.12695762175E+04  0.12695762175E+04  0.50400001928E-02 0. -1.
    10030    2    1    2    0    0  0.00000000000E+00  0.00000000000E+00 -0.11436240898E+04  0.13955283453E+04  0.79976453030E+03 0.  0.
        4    1    3    3  502    0  0.29598685619E+03 -0.39729304562E+02 -0.10778829746E+03  0.31750049866E+03  0.12699999809E+01 0.  1.
       -4    1    3    3    0  502 -0.29598685619E+03  0.39729304562E+02 -0.10358357923E+04  0.10780278467E+04  0.12699999809E+01 0. -1.
</event>
<event>
 5   0  0.1656051E-03  0.7999930E+03  0.7818609E-02  0.9560027E-01
       -1   -1    0    0    0  501  0.00000000000E+00  0.00000000000E+00  0.27704129620E+03  0.27704129625E+03  0.50400001928E-02 0.  1.
        1   -1    0    0  501    0  0.00000000000E+00  0.00000000000E+00 -0.57752118355E+03  0.57752118357E+03  0.50400001928E-02 0. -1.
    10030    2    1    2    0    0  0.00000000000E+00  0.00000000000E+00 -0.30047988735E+03  0.85456247982E+03  0.79999304323E+03 0.  0.
        3    1    3    3  502    0 -0.15267703632E+03  0.34934103283E+03 -0.27952353363E+03  0.47273972828E+03  0.10100000352E+00 0.  1.
       -3    1    3    3    0  502  0.15267703632E+03 -0.34934103283E+03 -0.20956353722E+02  0.38182275155E+03  0.10100000352E+00 0. -1.
</event>
<event>
 5   0  0.1656051E-03  0.7952510E+03  0.7818609E-02  0.9566917E-01
       -1   -1    0    0    0  501  0.00000000000E+00  0.00000000000E+00  0.37281331422E+03  0.37281331425E+03  0.50400001928E-02 0. -1.
        1   -1    0    0  501    0  0.00000000000E+00  0.00000000000E+00 -0.42408904388E+03  0.42408904391E+03  0.50400001928E-02 0.  1.
    10030    2    1    2    0    0  0.00000000000E+00  0.00000000000E+00 -0.51275729661E+02  0.79690235816E+03  0.79525100942E+03 0.  0.
        3    1    3    3  502    0 -0.18512662290E+03  0.25314331686E+03  0.21931322871E+03  0.38269009377E+03  0.10100000352E+00 0. -1.
       -3    1    3    3    0  502  0.18512662290E+03 -0.25314331686E+03 -0.27058895837E+03  0.41421226439E+03  0.10100000352E+00 0.  1.
</event>
<event>
 5   0  0.2873212E-03  0.7996233E+03  0.7818609E-02  0.9560562E-01
        2   -1    0    0  501    0  0.00000000000E+00  0.00000000000E+00  0.12406663056E+04  0.12406663056E+04  0.25500000920E-02 0. -1.
       -2   -1    0    0    0  501  0.00000000000E+00  0.00000000000E+00 -0.12884154556E+03  0.12884154559E+03  0.25500000920E-02 0.  1.
    10030    2    1    2    0    0  0.00000000000E+00  0.00000000000E+00  0.11118247601E+04  0.13695078512E+04  0.79962332223E+03 0.  0.
        2    1    3    3  502    0 -0.37141697657E+03 -0.14027782517E+03  0.47519889811E+03  0.61922728581E+03  0.25500000920E-02 0.  1.
       -2    1    3    3    0  502  0.37141697657E+03  0.14027782517E+03  0.63662586196E+03  0.75028056541E+03  0.25500000920E-02 0. -1.
</event>
<event>
 5   0  0.1640035E-03  0.8001922E+03  0.7818609E-02  0.9559739E-01
       -1   -1    0    0    0  501  0.00000000000E+00  0.00000000000E+00  0.20565715899E+03  0.20565715905E+03  0.50400001928E-02 0. -1.
        1   -1    0    0  501    0  0.00000000000E+00  0.00000000000E+00 -0.77836763531E+03  0.77836763533E+03  0.50400001928E-02 0.  1.
    10030    2    1    2    0    0  0.00000000000E+00  0.00000000000E+00 -0.57271047632E+03  0.98402479438E+03  0.80019216833E+03 0.  0.
        5    1    3    3  502    0  0.19126294619E+03  0.28549493870E+03 -0.53827374732E+03  0.63863102936E+03  0.46999998093E+01 0.  1.
       -5    1    3    3    0  502 -0.19126294619E+03 -0.28549493870E+03 -0.34436729006E+02  0.34539376502E+03  0.46999998093E+01 0. -1.
</event>
<event>
 5   0  0.1637228E-03  0.7993329E+03  0.7818609E-02  0.9560983E-01
        1   -1    0    0  501    0  0.00000000000E+00  0.00000000000E+00  0.43175409205E+03  0.43175409208E+03  0.50400001928E-02 0.  1.
       -1   -1    0    0    0  501  0.00000000000E+00  0.00000000000E+00 -0.36996356967E+03  0.36996356971E+03  0.50400001928E-02 0. -1.
    10030    2    1    2    0    0  0.00000000000E+00  0.00000000000E+00  0.61790522383E+02  0.80171766179E+03  0.79933293474E+03 0.  0.
        2    1    3    3  502    0  0.10364137658E+01 -0.40551077408E+02  0.42968405928E+03  0.43159454913E+03  0.25500000920E-02 0.  1.
       -2    1    3    3    0  502 -0.10364137658E+01  0.40551077408E+02 -0.36789353689E+03  0.37012311266E+03  0.25500000920E-02 0. -1.
</event>
<event>
 5   0  0.1656051E-03  0.8002178E+03  0.7818609E-02  0.9559702E-01
        1   -1    0    0  501    0  0.00000000000E+00  0.00000000000E+00  0.25654299684E+03  0.25654299689E+03  0.50400001928E-02 0.  1.
       -1   -1    0    0    0  501  0.00000000000E+00  0.00000000000E+00 -0.62401673152E+03  0.62401673154E+03  0.50400001928E-02 0. -1.
    10030    2    1    2    0    0  0.00000000000E+00  0.00000000000E+00 -0.36747373468E+03  0.88055972843E+03  0.80021777639E+03 0.  0.
        3    1    3    3  502    0  0.41532077786E+02  0.25888876950E+03 -0.51630320243E+03  0.57906589909E+03  0.10100000352E+00 0. -1.
       -3    1    3    3    0  502 -0.41532077786E+02 -0.25888876950E+03  0.14882946774E+03  0.30149382934E+03  0.10100000352E+00 0.  1.
</event>
<event>
 5   0  0.2910501E-03  0.8038004E+03  0.7818609E-02  0.9554532E-01
        2   -1    0    0  501    0  0.00000000000E+00  0.00000000000E+00  0.94454486129E+03  0.94454486129E+03  0.25500000920E-02 0.  1.
       -2   -1    0    0    0  501  0.00000000000E+00  0.00000000000E+00 -0.17100699583E+03  0.17100699585E+03  0.25500000920E-02 0. -1.
    10030    2    1    2    0    0  0.00000000000E+00  0.00000000000E+00  0.77353786545E+03  0.11155518571E+04  0.80380042093E+03 0.  0.
        1    1    3    3  502    0 -0.21869231216E+03 -0.71838873722E+02 -0.70455780959E+02  0.24073048887E+03  0.50400001928E-02 0. -1.
       -1    1    3    3    0  502  0.21869231216E+03  0.71838873722E+02  0.84399364641E+03  0.87482136827E+03  0.50400001928E-02 0.  1.
</event>
<event>
 5   0  0.2873212E-03  0.7996118E+03  0.7818609E-02  0.9560579E-01
        2   -1    0    0  501    0  0.00000000000E+00  0.00000000000E+00  0.19221601023E+04  0.19221601023E+04  0.25500000920E-02 0. -1.
       -2   -1    0    0    0  501  0.00000000000E+00  0.00000000000E+00 -0.83158918352E+02  0.83158918391E+02  0.25500000920E-02 0.  1.
    10030    2    1    2    0    0  0.00000000000E+00  0.00000000000E+00  0.18390011840E+04  0.20053190207E+04  0.79961179343E+03 0.  0.
        2    1    3    3  502    0  0.45968253093E+02  0.31842782697E+03  0.32425669760E+03  0.45678415825E+03  0.25500000920E-02 0.  1.
       -2    1    3    3    0  502 -0.45968253093E+02 -0.31842782697E+03  0.15147444863E+04  0.15485348624E+04  0.25500000920E-02 0. -1.
</event>
<event>
 5   0  0.1656051E-03  0.8003838E+03  0.7818609E-02  0.9559462E-01
        1   -1    0    0  501    0  0.00000000000E+00  0.00000000000E+00  0.11212551849E+04  0.11212551850E+04  0.50400001928E-02 0.  1.
       -1   -1    0    0    0  501  0.00000000000E+00  0.00000000000E+00 -0.14283417660E+03  0.14283417669E+03  0.50400001928E-02 0. -1.
    10030    2    1    2    0    0  0.00000000000E+00  0.00000000000E+00  0.97842100834E+03  0.12640893617E+04  0.80038381085E+03 0.  0.
        3    1    3    3  502    0 -0.37145985776E+03  0.11047559755E+03  0.64687929901E+03  0.75408230404E+03  0.10100000352E+00 0.  1.
       -3    1    3    3    0  502  0.37145985776E+03 -0.11047559755E+03  0.33154170933E+03  0.51000705761E+03  0.10100000352E+00 0. -1.
</event>
<event>
 5   0  0.2910501E-03  0.8000717E+03  0.7818609E-02  0.9559913E-01
        2   -1    0    0  501    0  0.00000000000E+00  0.00000000000E+00  0.64216573527E+03  0.64216573528E+03  0.25500000920E-02 0.  1.
       -2   -1    0    0    0  501  0.00000000000E+00  0.00000000000E+00 -0.24920150927E+03  0.24920150929E+03  0.25500000920E-02 0. -1.
    10030    2    1    2    0    0  0.00000000000E+00  0.00000000000E+00  0.39296422600E+03  0.89136724456E+03  0.80007167290E+03 0.  0.
        1    1    3    3  502    0 -0.32140803159E+03  0.18521012524E+02 -0.68063166828E+02  0.32905735880E+03  0.50400001928E-02 0. -1.
       -1    1    3    3    0  502  0.32140803159E+03 -0.18521012524E+02  0.46102739282E+03  0.56230988577E+03  0.50400001928E-02 0.  1.
</event>
<event>
 5   0  0.1617491E-03  0.7991332E+03  0.7818609E-02  0.9561273E-01
        1   -1    0    0  501    0  0.00000000000E+00  0.00000000000E+00  0.12778141073E+04  0.12778141073E+04  0.50400001928E-02 0.  1.
       -1   -1    0    0    0  501  0.00000000000E+00  0.00000000000E+00 -0.12494262694E+03  0.12494262705E+03  0.50400001928E-02 0. -1.
    10030    2    1    2    0    0  0.00000000000E+00  0.00000000000E+00  0.11528714803E+04  0.14027567343E+04  0.79913315884E+03 0.  0.
        1    1    3    3  502    0 -0.10086365497E+03  0.22615153447E+03  0.11268862562E+04  0.11537723466E+04  0.50400001928E-02 0.  1.
       -1    1    3    3    0  502  0.10086365497E+03 -0.22615153447E+03  0.25985224180E+02  0.24898438774E+03  0.50400001928E-02 0. -1.
</event>
<event>
 5   0  0.1656051E-03  0.7992638E+03  0.7818609E-02  0.9561083E-01
        1   -1    0    0  501    0  0.00000000000E+00  0.00000000000E+00  0.57139055524E+03  0.57139055526E+03  0.50400001928E-02 0. -1.
       -1   -1    0    0    0  501  0.00000000000E+00  0.00000000000E+00 -0.27950347775E+03  0.27950347779E+03  0.50400001928E-02 0.  1.
    10030    2    1    2    0    0  0.00000000000E+00  0.00000000000E+00  0.29188707749E+03  0.85089403305E+03  0.79926377966E+03 0.  0.
        3    1    3    3  502    0 -0.15495765758E+03 -0.23203087882E+03 -0.15864187405E+03  0.32096332933E+03  0.10100000352E+00 0.  1.
       -3    1    3    3    0  502  0.15495765758E+03  0.23203087882E+03  0.45052895154E+03  0.52993070372E+03  0.10100000352E+00 0. -1.
</event>
<event>
 5   0  0.2768834E-03  0.8000867E+03  0.7818609E-02  0.9559892E-01
       -2   -1    0    0    0  501  0.00000000000E+00  0.00000000000E+00  0.12401238570E+03  0.12401238572E+03  0.25500000920E-02 0. -1.
        2   -1    0    0  501    0  0.00000000000E+00  0.00000000000E+00 -0.12904734005E+04  0.12904734005E+04  0.25500000920E-02 0.  1.
    10030    2    1    2    0    0  0.00000000000E+00  0.00000000000E+00 -0.11664610148E+04  0.14144857862E+04  0.80008670802E+03 0.  0.
        4    1    3    3  502    0 -0.65577644522E+02 -0.37940448688E+02 -0.12776707482E+04  0.12799156452E+04  0.12699999809E+01 0.  1.
       -4    1    3    3    0  502  0.65577644522E+02  0.37940448688E+02  0.11120973349E+03  0.13457014094E+03  0.12699999809E+01 0. -1.
</event>
<event>
 5   0  0.1095350E-03  0.7990033E+03  0.7818609E-02  0.9561461E-01
       -4   -1    0    0    0  501  0.00000000000E+00  0.00000000000E+00  0.26214872007E+03  0.26215179636E+03  0.12699999809E+01 0. -1.
        4   -1    0    0  501    0  0.00000000000E+00  0.00000000000E+00 -0.60881343312E+03  0.60881475775E+03  0.12699999809E+01 0.  1.
    10030    2    1    2    0    0  0.00000000000E+00  0.00000000000E+00 -0.34666471305E+03  0.87096655411E+03  0.79900332609E+03 0.  0.
        2    1    3    3  502    0 -0.22581387787E+03 -0.43140073516E+01 -0.53254360545E+03  0.57845761280E+03  0.25500000920E-02 0.  1.
       -2    1    3    3    0  502  0.22581387787E+03  0.43140073516E+01  0.18587889239E+03  0.29250894131E+03  0.25500000920E-02 0. -1.
</event>
<event>
 5   0  0.1095350E-03  0.8003089E+03  0.7818609E-02  0.9559570E-01
        3   -1    0    0  501    0  0.00000000000E+00  0.00000000000E+00  0.72740250102E+03  0.72740250803E+03  0.10100000352E+00 0.  1.
       -3   -1    0    0    0  501  0.00000000000E+00  0.00000000000E+00 -0.22013062550E+03  0.22013064867E+03  0.10100000352E+00 0. -1.
    10030    2    1    2    0    0  0.00000000000E+00  0.00000000000E+00  0.50727187552E+03  0.94753315670E+03  0.80030889497E+03 0.  0.
        4    1    3    3  502    0 -0.93151268372E+02 -0.37559276070E+03  0.37423071118E+03  0.53832826303E+03  0.12699999809E+01 0. -1.
       -4    1    3    3    0  502  0.93151268372E+02  0.37559276070E+03  0.13304116434E+03  0.40920489367E+03  0.12699999809E+01 0.  1.
</event>
<event>
 5   0  0.2910501E-03  0.8006404E+03  0.7818609E-02  0.9559091E-01
        2   -1    0    0  501    0  0.00000000000E+00  0.00000000000E+00  0.85054975927E+03  0.85054975928E+03  0.25500000920E-02 0.  1.
       -2   -1    0    0    0  501  0.00000000000E+00  0.00000000000E+00 -0.18841489507E+03  0.18841489509E+03  0.25500000920E-02 0. -1.
    10030    2    1    2    0    0  0.00000000000E+00  0.00000000000E+00  0.66213486420E+03  0.10389646544E+04  0.80064035286E+03 0.  0.
        1    1    3    3  502    0 -0.23952514855E+03 -0.18834241411E+03 -0.58542394308E+01  0.30476127359E+03  0.50400001928E-02 0. -1.
       -1    1    3    3    0  502  0.23952514855E+03  0.18834241411E+03  0.66798910363E+03  0.73420338077E+03  0.50400001928E-02 0.  1.
</event>
<event>
 5   0  0.2690809E-03  0.7993131E+03  0.7818609E-02  0.9561012E-01
       -2   -1    0    0    0  501  0.00000000000E+00  0.00000000000E+00  0.18786399276E+03  0.18786399278E+03  0.25500000920E-02 0.  1.
        2   -1    0    0  501    0  0.00000000000E+00  0.00000000000E+00 -0.85021807909E+03  0.85021807910E+03  0.25500000920E-02 0. -1.
    10030    2    1    2    0    0  0.00000000000E+00  0.00000000000E+00 -0.66235408633E+03  0.10380820719E+04  0.79931311278E+03 0.  0.
        5    1    3    3  502    0  0.20149558802E+03  0.34374887165E+02 -0.77715217185E+03  0.80359796731E+03  0.46999998093E+01 0. -1.
       -5    1    3    3    0  502 -0.20149558802E+03 -0.34374887165E+02  0.11479808551E+03  0.23448410456E+03  0.46999998093E+01 0.  1.
</event>
<event>
 5   0  0.2768834E-03  0.7992956E+03  0.7818609E-02  0.9561037E-01
        2   -1    0    0  501    0  0.00000000000E+00  0.00000000000E+00  0.99418267208E+03  0.99418267209E+03  0.25500000920E-02 0. -1.
       -2   -1    0    0    0  501  0.00000000000E+00  0.00000000000E+00 -0.16065294929E+03  0.16065294931E+03  0.25500000920E-02 0.  1.
    10030    2    1    2    0    0  0.00000000000E+00  0.00000000000E+00  0.83352972279E+03  0.11548356214E+04  0.79929563597E+03 0.  0.
        4    1    3    3  502    0  0.18488939657E+03 -0.14542607178E+03  0.88356347794E+03  0.91434067161E+03  0.12699999809E+01 0. -1.
       -4    1    3    3    0  502 -0.18488939657E+03  0.14542607178E+03 -0.50033755147E+02  0.24049494979E+03  0.12699999809E+01 0.  1.
</event>
<event>
 5   0  0.1656051E-03  0.7984597E+03  0.7818609E-02  0.9562249E-01
        1   -1    0    0  501    0  0.00000000000E+00  0.00000000000E+00  0.50607743746E+03  0.50607743748E+03  0.50400001928E-02 0.  1.
       -1   -1    0    0    0  501  0.00000000000E+00  0.00000000000E+00 -0.31494091504E+03  0.31494091508E+03  0.50400001928E-02 0. -1.
    10030    2    1    2    0    0  0.00000000000E+00  0.00000000000E+00  0.19113652241E+03  0.82101835256E+03  0.79845974541E+03 0.  0.
        3    1    3    3  502    0 -0.50698661456E+02  0.39592950781E+03  0.10312095923E+03  0.41226747612E+03  0.10100000352E+00 0.  1.
       -3    1    3    3    0  502  0.50698661456E+02 -0.39592950781E+03  0.88015563183E+02  0.40875087644E+03  0.10100000352E+00 0. -1.
</event>
<event>
 5   0  0.1656051E-03  0.7988290E+03  0.7818609E-02  0.9561714E-01
       -1   -1    0    0    0  501  0.00000000000E+00  0.00000000000E+00  0.30240208376E+03  0.30240208380E+03  0.50400001928E-02 0. -1.
        1   -1    0    0  501    0  0.00000000000E+00  0.00000000000E+00 -0.52754913659E+03  0.52754913661E+03  0.50400001928E-02 0.  1.
    10030    2    1    2    0    0  0.00000000000E+00  0.00000000000E+00 -0.22514705283E+03  0.82995122042E+03  0.79882903858E+03 0.  0.
        3    1    3    3  502    0  0.70746262467E+02 -0.30050931398E+03  0.15071836307E+03  0.34355045715E+03  0.10100000352E+00 0. -1.
       -3    1    3    3    0  502 -0.70746262467E+02  0.30050931398E+03 -0.37586541589E+03  0.48640076327E+03  0.10100000352E+00 0.  1.
</event>
<event>
 5   0  0.2763587E-03  0.8009160E+03  0.7818609E-02  0.9558692E-01
        2   -1    0    0  501    0  0.00000000000E+00  0.00000000000E+00  0.83529774983E+03  0.83529774983E+03  0.25500000920E-02 0. -1.
       -2   -1    0    0    0  501  0.00000000000E+00  0.00000000000E+00 -0.19198738388E+03  0.19198738389E+03  0.25500000920E-02 0.  1.
    10030    2    1    2    0    0  0.00000000000E+00  0.00000000000E+00  0.64331036595E+03  0.10272851337E+04  0.80091604993E+03 0.  0.
        3    1    3    3  502    0  0.28409423031E+03  0.96514525320E+02 -0.18526925347E+02  0.30061244561E+03  0.10100000352E+00 0.  1.
       -3    1    3    3    0  502 -0.28409423031E+03 -0.96514525320E+02  0.66183729130E+03  0.72667268811E+03  0.10100000352E+00 0. -1.
</event>
<event>
 5   0  0.2768834E-03  0.8001289E+03  0.7818609E-02  0.9559831E-01
        2   -1    0    0  501    0  0.00000000000E+00  0.00000000000E+00  0.11210769987E+04  0.11210769987E+04  0.25500000920E-02 0. -1.
       -2   -1    0    0    0  501  0.00000000000E+00  0.00000000000E+00 -0.14276590321E+03  0.14276590323E+03  0.25500000920E-02 0.  1.
    10030    2    1    2    0    0  0.00000000000E+00  0.00000000000E+00  0.97831109553E+03  0.12638429020E+04  0.80012891537E+03 0.  0.
        4    1    3    3  502    0 -0.15943016855E+03 -0.15814694481E+03 -0.33819590337E+02  0.22709868425E+03  0.12699999809E+01 0.  1.
       -4    1    3    3    0  502  0.15943016855E+03  0.15814694481E+03  0.10121306859E+04  0.10367442177E+04  0.12699999809E+01 0. -1.
</event>
<event>
 5   0  0.1637228E-03  0.7987575E+03  0.7818609E-02  0.9561817E-01
        1   -1    0    0  501    0  0.00000000000E+00  0.00000000000E+00  0.82468987959E+03  0.82468987960E+03  0.50400001928E-02 0.  1.
       -1   -1    0    0    0  501  0.00000000000E+00  0.00000000000E+00 -0.19341014773E+03  0.19341014779E+03  0.50400001928E-02 0. -1.
    10030    2    1    2    0    0  0.00000000000E+00  0.00000000000E+00  0.63127973186E+03  0.10181000274E+04  0.79875751384E+03 0.  0.
        2    1    3    3  502    0 -0.34163017245E+03 -0.19487902308E+03  0.22720046014E+03  0.45421256858E+03  0.25500000920E-02 0.  1.
       -2    1    3    3    0  502  0.34163017245E+03  0.19487902308E+03  0.40407927173E+03  0.56388745881E+03  0.25500000920E-02 0. -1.
</event>
<event>
 5   0  0.1617491E-03  0.7987544E+03  0.7818609E-02  0.9561822E-01
       -1   -1    0    0    0  501  0.00000000000E+00  0.00000000000E+00  0.18730965324E+03  0.18730965331E+03  0.50400001928E-02 0.  1.
        1   -1    0    0  501    0  0.00000000000E+00  0.00000000000E+00 -0.85154267185E+03  0.85154267187E+03  0.50400001928E-02 0. -1.
    10030    2    1    2    0    0  0.00000000000E+00  0.00000000000E+00 -0.66423301862E+03  0.10388523252E+04  0.79875443692E+03 0.  0.
        1    1    3    3  502    0  0.18886124013E+03  0.12914529115E+03  0.93625918027E+02  0.24721020772E+03  0.50400001928E-02 0.  1.
       -1    1    3    3    0  502 -0.18886124013E+03 -0.12914529115E+03 -0.75785893664E+03  0.79164211745E+03  0.50400001928E-02 0. -1.
</event>
<event>
 5   0  0.1637228E-03  0.7999246E+03  0.7818609E-02  0.9560126E-01
       -1   -1    0    0    0  501  0.00000000000E+00  0.00000000000E+00  0.26917147391E+03  0.26917147396E+03  0.50400001928E-02 0. -1.
        1   -1    0    0  501    0  0.00000000000E+00  0.00000000000E+00 -0.59430454837E+03  0.59430454840E+03  0.50400001928E-02 0.  1.
    10030    2    1    2    0    0  0.00000000000E+00  0.00000000000E+00 -0.32513307446E+03  0.86347602235E+03  0.79992457461E+03 0.  0.
        2    1    3    3  502    0 -0.39643930961E+03 -0.42537737481E+02 -0.19663750948E+03  0.44456708769E+03  0.25500000920E-02 0. -1.
       -2    1    3    3    0  502  0.39643930961E+03  0.42537737481E+02 -0.12849556498E+03  0.41890893466E+03  0.25500000920E-02 0.  1.
</event>
<event>
 5   0  0.1095350E-03  0.7999797E+03  0.7818609E-02  0.9560046E-01
        3   -1    0    0  501    0  0.00000000000E+00  0.00000000000E+00  0.58135389170E+03  0.58135390047E+03  0.10100000352E+00 0.  1.
       -3   -1    0    0    0  501  0.00000000000E+00  0.00000000000E+00 -0.27520565540E+03  0.27520567394E+03  0.10100000352E+00 0. -1.
    10030    2    1    2    0    0  0.00000000000E+00  0.00000000000E+00  0.30614823630E+03  0.85655957441E+03  0.79997972595E+03 0.  0.
        1    1    3    3  502    0  0.19912799529E+03  0.16427116264E+03 -0.17407608320E+03  0.31135101758E+03  0.50400001928E-02 0. -1.
       -1    1    3    3    0  502 -0.19912799529E+03 -0.16427116264E+03  0.48022431949E+03  0.54520855683E+03  0.50400001928E-02 0.  1.
</event>
<event>
 5   0  0.2768834E-03  0.8051679E+03  0.7818609E-02  0.9552567E-01
       -2   -1    0    0    0  501  0.00000000000E+00  0.00000000000E+00  0.15259354238E+03  0.15259354240E+03  0.25500000920E-02 0.  1.
        2   -1    0    0  501    0  0.00000000000E+00  0.00000000000E+00 -0.10621278656E+04  0.10621278656E+04  0.25500000920E-02 0. -1.
    10030    2    1    2    0    0  0.00000000000E+00  0.00000000000E+00 -0.90953432320E+03  0.12147214080E+04  0.80516794144E+03 0.  0.
        4    1    3    3  502    0 -0.23518401004E+03 -0.30313234166E+03 -0.27078840562E+03  0.46960484309E+03  0.12699999809E+01 0.  1.
       -4    1    3    3    0  502  0.23518401004E+03  0.30313234166E+03 -0.63874591758E+03  0.74511656489E+03  0.12699999809E+01 0. -1.
</event>
<event>
 5   0  0.2768834E-03  0.7985123E+03  0.7818609E-02  0.9562173E-01
       -2   -1    0    0    0  501  0.00000000000E+00  0.00000000000E+00  0.13900465754E+03  0.13900465757E+03  0.25500000920E-02 0. -1.
        2   -1    0    0  501    0  0.00000000000E+00  0.00000000000E+00 -0.11467634316E+04  0.11467634316E+04  0.25500000920E-02 0.  1.
    10030    2    1    2    0    0  0.00000000000E+00  0.00000000000E+00 -0.10077587740E+04  0.12857680892E+04  0.79851226192E+03 0.  0.
        4    1    3    3  502    0  0.22975280845E+03  0.20979830806E+03 -0.90675939780E+03  0.95865317058E+03  0.12699999809E+01 0.  1.
       -4    1    3    3    0  502 -0.22975280845E+03 -0.20979830806E+03 -0.10099937625E+03  0.32711491858E+03  0.12699999809E+01 0. -1.
</event>
<event>
 5   0  0.2690809E-03  0.8011445E+03  0.7818609E-02  0.9558362E-01
       -2   -1    0    0    0  501  0.00000000000E+00  0.00000000000E+00  0.18531669514E+03  0.18531669516E+03  0.25500000920E-02 0. -1.
        2   -1    0    0  501    0  0.00000000000E+00  0.00000000000E+00 -0.86585893035E+03  0.86585893036E+03  0.25500000920E-02 0.  1.
    10030    2    1    2    0    0  0.00000000000E+00  0.00000000000E+00 -0.68054223521E+03  0.10511756255E+04  0.80114446997E+03 0.  0.
        5    1    3    3  502    0  0.16085845647E+03  0.27102929161E+03 -0.66460940318E+03  0.73556785460E+03  0.46999998093E+01 0.  1.
       -5    1    3    3    0  502 -0.16085845647E+03 -0.27102929161E+03 -0.15932832034E+02  0.31560777092E+03  0.46999998093E+01 0. -1.
</event>
<event>
 5   0  0.1095350E-03  0.8019486E+03  0.7818609E-02  0.9557201E-01
       -3   -1    0    0    0  501  0.00000000000E+00  0.00000000000E+00  0.61939810008E+03  0.61939810832E+03  0.10100000352E+00 0.  1.
        3   -1    0    0  501    0  0.00000000000E+00  0.00000000000E+00 -0.25957518531E+03  0.25957520496E+03  0.10100000352E+00 0. -1.
    10030    2    1    2    0    0  0.00000000000E+00  0.00000000000E+00  0.35982291477E+03  0.87897331328E+03  0.80194859902E+03 0.  0.
        5    1    3    3  502    0 -0.32660387546E+03 -0.22899185244E+03  0.13537715442E+03  0.42125577015E+03  0.46999998093E+01 0. -1.
       -5    1    3    3    0  502  0.32660387546E+03  0.22899185244E+03  0.22444576035E+03  0.45771754313E+03  0.46999998093E+01 0.  1.
</event>
<event>
 5   0  0.1656051E-03  0.7996005E+03  0.7818609E-02  0.9560596E-01
        1   -1    0    0  501    0  0.00000000000E+00  0.00000000000E+00  0.14299884745E+04  0.14299884745E+04  0.50400001928E-02 0. -1.
       -1   -1    0    0    0  501  0.00000000000E+00  0.00000000000E+00 -0.11177729974E+03  0.11177729985E+03  0.50400001928E-02 0.  1.
    10030    2    1    2    0    0  0.00000000000E+00  0.00000000000E+00  0.13182111747E+04  0.15417657743E+04  0.79960052632E+03 0.  0.
        3    1    3    3  502    0 -0.11275991950E+03 -0.22495625597E+03  0.12581434375E+04  0.12830608076E+04  0.10100000352E+00 0. -1.
       -3    1    3    3    0  502  0.11275991950E+03  0.22495625597E+03  0.60067737254E+02  0.25870496672E+03  0.10100000352E+00 0.  1.
</event>
<event>
 5   0  0.1637228E-03  0.7974435E+03  0.7818609E-02  0.9563725E-01
       -1   -1    0    0    0  501  0.00000000000E+00  0.00000000000E+00  0.17607992956E+03  0.17607992963E+03  0.50400001928E-02 0.  1.
        1   -1    0    0  501    0  0.00000000000E+00  0.00000000000E+00 -0.90287982379E+03  0.90287982380E+03  0.50400001928E-02 0. -1.
    10030    2    1    2    0    0  0.00000000000E+00  0.00000000000E+00 -0.72679989422E+03  0.10789597534E+04  0.79744345460E+03 0.  0.
        2    1    3    3  502    0  0.28804770773E+03 -0.20496176738E+03 -0.11392131191E+03  0.37142815366E+03  0.25500000920E-02 0. -1.
       -2    1    3    3    0  502 -0.28804770773E+03  0.20496176738E+03 -0.61287858231E+03  0.70753159978E+03  0.25500000920E-02 0.  1.
</event>
<event>
 5   0  0.2910501E-03  0.8015998E+03  0.7818609E-02  0.9557704E-01
        2   -1    0    0  501    0  0.00000000000E+00  0.00000000000E+00  0.87699750565E+03  0.87699750566E+03  0.25500000920E-02 0.  1.
       -2   -1    0    0    0  501  0.00000000000E+00  0.00000000000E+00 -0.18317106959E+03  0.18317106960E+03  0.25500000920E-02 0. -1.
    10030    2    1    2    0    0  0.00000000000E+00  0.00000000000E+00  0.69382643607E+03  0.10601685753E+04  0.80159982821E+03 0.  0.
        1    1    3    3  502    0  0.14224023480E+03  0.24997461892E+03 -0.22272171163E+02  0.28847121891E+03  0.50400001928E-02 0. -1.
       -1    1    3    3    0  502 -0.14224023480E+03 -0.24997461892E+03  0.71609860723E+03  0.77169735635E+03  0.50400001928E-02 0.  1.
</event>
<event>
 5   0  0.1712793E-03  0.8003295E+03  0.7818609E-02  0.9559540E-01
        1   -1    0    0  501    0  0.00000000000E+00  0.00000000000E+00  0.39685081679E+03  0.39685081683E+03  0.50400001928E-02 0. -1.
       -1   -1    0    0    0  501  0.00000000000E+00  0.00000000000E+00 -0.40350635869E+03  0.40350635872E+03  0.50400001928E-02 0.  1.
    10030    2    1    2    0    0  0.00000000000E+00  0.00000000000E+00 -0.66555418949E+01  0.80035717555E+03  0.80032950227E+03 0.  0.
        4    1    3    3  502    0  0.22110891147E+03  0.26494567714E+03 -0.20593006876E+03  0.40186337067E+03  0.12699999809E+01 0.  1.
       -4    1    3    3    0  502 -0.22110891147E+03 -0.26494567714E+03  0.19927452686E+03  0.39849380488E+03  0.12699999809E+01 0. -1.
</event>
<event>
 5   0  0.2910501E-03  0.7992168E+03  0.7818609E-02  0.9561151E-01
        2   -1    0    0  501    0  0.00000000000E+00  0.00000000000E+00  0.67849214826E+03  0.67849214827E+03  0.25500000920E-02 0.  1.
       -2   -1    0    0    0  501  0.00000000000E+00  0.00000000000E+00 -0.23535555008E+03  0.23535555010E+03  0.25500000920E-02 0. -1.
    10030    2    1    2    0    0  0.00000000000E+00  0.00000000000E+00  0.44313659818E+03  0.91384769836E+03  0.79921684865E+03 0.  0.
        1    1    3    3  502    0  0.18869052061E+03 -0.34237056044E+02 -0.17930198906E+03  0.26253664864E+03  0.50400001928E-02 0. -1.
       -1    1    3    3    0  502 -0.18869052061E+03  0.34237056044E+02  0.62243858724E+03  0.65131104972E+03  0.50400001928E-02 0.  1.
</event>
<event>
 5   0  0.1095350E-03  0.7998810E+03  0.7818609E-02  0.9560189E-01
        3   -1    0    0  501    0  0.00000000000E+00  0.00000000000E+00  0.16468175327E+03  0.16468178425E+03  0.10100000352E+00 0.  1.
       -3   -1    0    0    0  501  0.00000000000E+00  0.00000000000E+00 -0.97128166110E+03  0.97128166635E+03  0.10100000352E+00 0. -1.
    10030    2    1    2    0    0  0.00000000000E+00  0.00000000000E+00 -0.80659990782E+03  0.11359634506E+04  0.79988095976E+03 0.  0.
        2    1    3    3  502    0 -0.16951470158E+03 -0.22611771878E+03 -0.80520414525E+03  0.85335700169E+03  0.25500000920E-02 0.  1.
       -2    1    3    3    0  502  0.16951470158E+03  0.22611771878E+03 -0.13957625701E+01  0.28260644890E+03  0.25500000920E-02 0. -1.
</event>
<event>
 5   0  0.2873212E-03  0.8001085E+03  0.7818609E-02  0.9559860E-01
       -2   -1    0    0    0  501  0.00000000000E+00  0.00000000000E+00  0.34543187524E+03  0.34543187525E+03  0.25500000920E-02 0.  1.
        2   -1    0    0  501    0  0.00000000000E+00  0.00000000000E+00 -0.46331398603E+03  0.46331398604E+03  0.25500000920E-02 0. -1.
    10030    2    1    2    0    0  0.00000000000E+00  0.00000000000E+00 -0.11788211080E+03  0.80874586128E+03  0.80010854020E+03 0.  0.
        2    1    3    3  502    0 -0.31081572991E+03  0.42849047877E+02  0.19193366756E+03  0.36780564380E+03  0.25500000920E-02 0.  1.
       -2    1    3    3    0  502  0.31081572991E+03 -0.42849047877E+02 -0.30981577836E+03  0.44094021748E+03  0.25500000920E-02 0. -1.
</event>
<event>
 5   0  0.1712793E-03  0.7984236E+03  0.7818609E-02  0.9562302E-01
       -1   -1    0    0    0  501  0.00000000000E+00  0.00000000000E+00  0.37327616320E+03  0.37327616323E+03  0.50400001928E-02 0. -1.
        1   -1    0    0  501    0  0.00000000000E+00  0.00000000000E+00 -0.42694948389E+03  0.42694948392E+03  0.50400001928E-02 0.  1.
    10030    2    1    2    0    0  0.00000000000E+00  0.00000000000E+00 -0.53673320689E+02  0.80022564715E+03  0.79842361000E+03 0.  0.
        4    1    3    3  502    0  0.96765156153E+02  0.62310411327E+02 -0.40995897562E+03  0.42580988410E+03  0.12699999809E+01 0.  1.
       -4    1    3    3    0  502 -0.96765156153E+02 -0.62310411327E+02  0.35628565494E+03  0.37441576305E+03  0.12699999809E+01 0. -1.
</event>
<event>
 5   0  0.2768834E-03  0.7989359E+03  0.7818609E-02  0.9561559E-01
        2   -1    0    0  501    0  0.00000000000E+00  0.00000000000E+00  0.73850469172E+03  0.73850469172E+03  0.25500000920E-02 0.  1.
       -2   -1    0    0    0  501  0.00000000000E+00  0.00000000000E+00 -0.21607800903E+03  0.21607800905E+03  0.25500000920E-02 0. -1.
    10030    2    1    2    0    0  0.00000000000E+00  0.00000000000E+00  0.52242668269E+03  0.95458270077E+03  0.79893585089E+03 0.  0.
        4    1    3    3  502    0 -0.36304518462E+03  0.13468831137E+03  0.37846546833E+03  0.54146142144E+03  0.12699999809E+01 0. -1.
       -4    1    3    3    0  502  0.36304518462E+03 -0.13468831137E+03  0.14396121436E+03  0.41312127933E+03  0.12699999809E+01 0.  1.
</event>
<event>
 5   0  0.1656051E-03  0.7981072E+03  0.7818609E-02  0.9562761E-01
        1   -1    0    0  501    0  0.00000000000E+00  0.00000000000E+00  0.49014485983E+03  0.49014485985E+03  0.50400001928E-02 0.  1.
       -1   -1    0    0    0  501  0.00000000000E+00  0.00000000000E+00 -0.32489125878E+03  0.32489125882E+03  0.50400001928E-02 0. -1.
    10030    2    1    2    0    0  0.00000000000E+00  0.00000000000E+00  0.16525360105E+03  0.81503611867E+03  0.79810721214E+03 0.  0.
        3    1    3    3  502    0 -0.27285391327E+03  0.38632533719E+02  0.37736975832E+03  0.46727901231E+03  0.10100000352E+00 0.  1.
       -3    1    3    3    0  502  0.27285391327E+03 -0.38632533719E+02 -0.21211615727E+03  0.34775710636E+03  0.10100000352E+00 0. -1.
</event>
<event>
 5   0  0.2690809E-03  0.7994027E+03  0.7818609E-02  0.9560882E-01
        2   -1    0    0  501    0  0.00000000000E+00  0.00000000000E+00  0.82628832516E+03  0.82628832517E+03  0.25500000920E-02 0. -1.
       -2   -1    0    0    0  501  0.00000000000E+00  0.00000000000E+00 -0.19334797972E+03  0.19334797974E+03  0.25500000920E-02 0.  1.
    10030    2    1    2    0    0  0.00000000000E+00  0.00000000000E+00  0.63294034544E+03  0.10196363049E+04  0.79940272291E+03 0.  0.
        5    1    3    3  502    0  0.99427280379E+02  0.24957075492E+02 -0.17625912879E+03  0.20395590254E+03  0.46999998093E+01 0.  1.
       -5    1    3    3    0  502 -0.99427280379E+02 -0.24957075492E+02  0.80919947423E+03  0.81568040236E+03  0.46999998093E+01 0. -1.
</event>
<event>
 5   0  0.2690809E-03  0.7988645E+03  0.7818609E-02  0.9561662E-01
       -2   -1    0    0    0  501  0.00000000000E+00  0.00000000000E+00  0.96095015306E+02  0.96095015340E+02  0.25500000920E-02 0. -1.
        2   -1    0    0  501    0  0.00000000000E+00  0.00000000000E+00 -0.16602953667E+04  0.16602953667E+04  0.25500000920E-02 0.  1.
    10030    2    1    2    0    0  0.00000000000E+00  0.00000000000E+00 -0.15642003514E+04  0.17563903821E+04  0.79886446587E+03 0.  0.
        5    1    3    3  502    0  0.10003206000E+03  0.10826534957E+03  0.34043459704E+02  0.15135668499E+03  0.46999998093E+01 0. -1.
       -5    1    3    3    0  502 -0.10003206000E+03 -0.10826534957E+03 -0.15982438111E+04  0.16050336971E+04  0.46999998093E+01 0.  1.
</event>
<event>
 5   0  0.2910501E-03  0.7998356E+03  0.7818609E-02  0.9560255E-01
        2   -1    0    0  501    0  0.00000000000E+00  0.00000000000E+00  0.26938530032E+03  0.26938530033E+03  0.25500000920E-02 0.  1.
       -2   -1    0    0    0  501  0.00000000000E+00  0.00000000000E+00 -0.59370079327E+03  0.59370079327E+03  0.25500000920E-02 0. -1.
    10030    2    1    2    0    0  0.00000000000E+00  0.00000000000E+00 -0.32431549295E+03  0.86308609360E+03  0.79983564937E+03 0.  0.
        1    1    3    3  502    0  0.23354047387E+01  0.29791834648E+03  0.12572287771E+03  0.32336826883E+03  0.50400001928E-02 0.  1.
       -1    1    3    3    0  502 -0.23354047387E+01 -0.29791834648E+03 -0.45003837065E+03  0.53971782477E+03  0.50400001928E-02 0. -1.
</event>
<event>
 5   0  0.1637228E-03  0.8007558E+03  0.7818609E-02  0.9558924E-01
        1   -1    0    0  501    0  0.00000000000E+00  0.00000000000E+00  0.33271042211E+03  0.33271042214E+03  0.50400001928E-02 0. -1.
       -1   -1    0    0    0  501  0.00000000000E+00  0.00000000000E+00 -0.48180769977E+03  0.48180769980E+03  0.50400001928E-02 0.  1.
    10030    2    1    2    0    0  0.00000000000E+00  0.00000000000E+00 -0.14909727767E+03  0.81451812194E+03  0.80075575100E+03 0.  0.
        2    1    3    3  502    0  0.12100827683E+03 -0.28609316649E+03 -0.33149681195E+03  0.45429334061E+03  0.25500000920E-02 0.  1.
       -2    1    3    3    0  502 -0.12100827683E+03  0.28609316649E+03  0.18239953429E+03  0.36022478134E+03  0.25500000920E-02 0. -1.
</event>
<event>
 5   0  0.1656051E-03  0.8013696E+03  0.7818609E-02  0.9558037E-01
        1   -1    0    0  501    0  0.00000000000E+00  0.00000000000E+00  0.42213682815E+03  0.42213682818E+03  0.50400001928E-02 0.  1.
       -1   -1    0    0    0  501  0.00000000000E+00  0.00000000000E+00 -0.38032291591E+03  0.38032291594E+03  0.50400001928E-02 0. -1.
    10030    2    1    2    0    0  0.00000000000E+00  0.00000000000E+00  0.41813912236E+02  0.80245974412E+03  0.80136960117E+03 0.  0.
        3    1    3    3  502    0 -0.13011272252E+02  0.32599471916E+03  0.25383131425E+03  0.41336690291E+03  0.10100000352E+00 0.  1.
       -3    1    3    3    0  502  0.13011272252E+02 -0.32599471916E+03 -0.21201740201E+03  0.38909284121E+03  0.10100000352E+00 0. -1.
</event>
<event>
 5   0  0.1617491E-03  0.8006057E+03  0.7818609E-02  0.9559141E-01
        1   -1    0    0  501    0  0.00000000000E+00  0.00000000000E+00  0.62451671050E+03  0.62451671052E+03  0.50400001928E-02 0. -1.
       -1   -1    0    0    0  501  0.00000000000E+00  0.00000000000E+00 -0.25658621336E+03  0.25658621341E+03  0.50400001928E-02 0.  1.
    10030    2    1    2    0    0  0.00000000000E+00  0.00000000000E+00  0.36793049714E+03  0.88110292393E+03  0.80060571559E+03 0.  0.
        1    1    3    3  502    0 -0.33646767900E+02  0.70974897401E+02  0.61595256508E+03  0.62094049917E+03  0.50400001928E-02 0. -1.
       -1    1    3    3    0  502  0.33646767900E+02 -0.70974897401E+02 -0.24802206793E+03  0.26016242476E+03  0.50400001928E-02 0.  1.
</event>
<event>
 5   0  0.2768834E-03  0.7972688E+03  0.7818609E-02  0.9563979E-01
       -2   -1    0    0    0  501  0.00000000000E+00  0.00000000000E+00  0.11108656566E+03  0.11108656569E+03  0.25500000920E-02 0.  1.
        2   -1    0    0  501    0  0.00000000000E+00  0.00000000000E+00 -0.14305003374E+04  0.14305003375E+04  0.25500000920E-02 0. -1.
    10030    2    1    2    0    0  0.00000000000E+00  0.00000000000E+00 -0.13194137718E+04  0.15415869031E+04  0.79726876195E+03 0.  0.
        4    1    3    3  502    0  0.64169409810E+02 -0.90975591956E+02  0.80412983716E+02  0.13733947844E+03  0.12699999809E+01 0.  1.
       -4    1    3    3    0  502 -0.64169409810E+02  0.90975591956E+02 -0.13998267555E+04  0.14042474247E+04  0.12699999809E+01 0. -1.
</event>
<event>
 5   0  0.1640035E-03  0.8154649E+03  0.7818609E-02  0.9537898E-01
        1   -1    0    0  501    0  0.00000000000E+00  0.00000000000E+00  0.89780821021E+03  0.89780821022E+03  0.50400001928E-02 0.  1.
       -1   -1    0    0    0  501  0.00000000000E+00  0.00000000000E+00 -0.18516845026E+03  0.18516845033E+03  0.50400001928E-02 0. -1.
    10030    2    1    2    0    0  0.00000000000E+00  0.00000000000E+00  0.71263975995E+03  0.10829766605E+04  0.81546491024E+03 0.  0.
        5    1    3    3  502    0 -0.85183478376E+02  0.39619386367E+03  0.41568025033E+03  0.58054970770E+03  0.46999998093E+01 0. -1.
       -5    1    3    3    0  502  0.85183478376E+02 -0.39619386367E+03  0.29695950961E+03  0.50242695285E+03  0.46999998093E+01 0.  1.
</event>
<event>
 5   0  0.1712793E-03  0.8015348E+03  0.7818609E-02  0.9557798E-01
       -1   -1    0    0    0  501  0.00000000000E+00  0.00000000000E+00  0.31471451241E+03  0.31471451245E+03  0.50400001928E-02 0. -1.
        1   -1    0    0  501    0  0.00000000000E+00  0.00000000000E+00 -0.51034992078E+03  0.51034992080E+03  0.50400001928E-02 0.  1.
    10030    2    1    2    0    0  0.00000000000E+00  0.00000000000E+00 -0.19563540836E+03  0.82506443325E+03  0.80153484392E+03 0.  0.
        4    1    3    3  502    0  0.12294348797E+03  0.43128789672E+02  0.29230363891E+03  0.32002847366E+03  0.12699999809E+01 0. -1.
       -4    1    3    3    0  502 -0.12294348797E+03 -0.43128789672E+02 -0.48793904727E+03  0.50503595960E+03  0.12699999809E+01 0.  1.
</event>
<event>
 5   0  0.1637228E-03  0.7997248E+03  0.7818609E-02  0.9560416E-01
        1   -1    0    0  501    0  0.00000000000E+00  0.00000000000E+00  0.78926294054E+03  0.78926294056E+03  0.50400001928E-02 0.  1.
       -1   -1    0    0    0  501  0.00000000000E+00  0.00000000000E+00 -0.20258132883E+03  0.20258132889E+03  0.50400001928E-02 0. -1.
    10030    2    1    2    0    0  0.00000000000E+00  0.00000000000E+00  0.58668161171E+03  0.99184426945E+03  0.79972479099E+03 0.  0.
        2    1    3    3  502    0 -0.21218526469E+03 -0.32942204172E+03  0.39215910383E+03  0.55437372850E+03  0.25500000920E-02 0.  1.
       -2    1    3    3    0  502  0.21218526469E+03  0.32942204172E+03  0.19452250788E+03  0.43747054096E+03  0.25500000920E-02 0. -1.
</event>
<event>
 5   0  0.2763587E-03  0.8002911E+03  0.7818609E-02  0.9559596E-01
        2   -1    0    0  501    0  0.00000000000E+00  0.00000000000E+00  0.20418201602E+04  0.20418201602E+04  0.25500000920E-02 0. -1.
       -2   -1    0    0    0  501  0.00000000000E+00  0.00000000000E+00 -0.78418501315E+02  0.78418501356E+02  0.25500000920E-02 0.  1.
    10030    2    1    2    0    0  0.00000000000E+00  0.00000000000E+00  0.19634016589E+04  0.21202386616E+04  0.80029113943E+03 0.  0.
        3    1    3    3  502    0 -0.34368616646E+03  0.37640464798E+02  0.15153919606E+04  0.15543325867E+04  0.10100000352E+00 0. -1.
       -3    1    3    3    0  502  0.34368616646E+03 -0.37640464798E+02  0.44800969825E+03  0.56590607483E+03  0.10100000352E+00 0.  1.
</event>
<event>
 5   0  0.2768834E-03  0.8004826E+03  0.7818609E-02  0.9559319E-01
        2   -1    0    0  501    0  0.00000000000E+00  0.00000000000E+00  0.91862694725E+03  0.91862694725E+03  0.25500000920E-02 0. -1.
       -2   -1    0    0    0  501  0.00000000000E+00  0.00000000000E+00 -0.17438320824E+03  0.17438320826E+03  0.25500000920E-02 0.  1.
    10030    2    1    2    0    0  0.00000000000E+00  0.00000000000E+00  0.74424373901E+03  0.10930101555E+04  0.80048264004E+03 0.  0.
        4    1    3    3  502    0  0.18029197118E+03 -0.35709993412E+03  0.35453241213E+03  0.53452820503E+03  0.12699999809E+01 0. -1.
       -4    1    3    3    0  502 -0.18029197118E+03  0.35709993412E+03  0.38971132688E+03  0.55848195049E+03  0.12699999809E+01 0.  1.
</event>
<event>
 5   0  0.2763587E-03  0.8008186E+03  0.7818609E-02  0.9558833E-01
       -2   -1    0    0    0  501  0.00000000000E+00  0.00000000000E+00  0.21972664210E+03  0.21972664212E+03  0.25500000920E-02 0.  1.
        2   -1    0    0  501    0  0.00000000000E+00  0.00000000000E+00 -0.72966852879E+03  0.72966852880E+03  0.25500000920E-02 0. -1.
    10030    2    1    2    0    0  0.00000000000E+00  0.00000000000E+00 -0.50994188669E+03  0.94939517092E+03  0.80081862039E+03 0.  0.
        3    1    3    3  502    0 -0.48815710431E+02  0.31377992794E+03 -0.54412089112E+03  0.63000664371E+03  0.10100000352E+00 0. -1.
       -3    1    3    3    0  502  0.48815710431E+02 -0.31377992794E+03  0.34179004435E+02  0.31938852720E+03  0.10100000352E+00 0.  1.
</event>
<event>
 5   0  0.2763587E-03  0.8089798E+03  0.7818609E-02  0.9547109E-01
       -2   -1    0    0    0  501  0.00000000000E+00  0.00000000000E+00  0.99875213824E+02  0.99875213857E+02  0.25500000920E-02 0. -1.
        2   -1    0    0  501    0  0.00000000000E+00  0.00000000000E+00 -0.16381649679E+04  0.16381649679E+04  0.25500000920E-02 0.  1.
    10030    2    1    2    0    0  0.00000000000E+00  0.00000000000E+00 -0.15382897541E+04  0.17380401818E+04  0.80897979327E+03 0.  0.
        3    1    3    3  502    0  0.24681522166E+03 -0.65224731842E+02 -0.14432196048E+04  0.14656243915E+04  0.10100000352E+00 0.  1.
       -3    1    3    3    0  502 -0.24681522166E+03  0.65224731842E+02 -0.95070149348E+02  0.27241579026E+03  0.10100000352E+00 0. -1.
</event>
<event>
 5   0  0.1640035E-03  0.7978178E+03  0.7818609E-02  0.9563181E-01
       -1   -1    0    0    0  501  0.00000000000E+00  0.00000000000E+00  0.10951327764E+03  0.10951327776E+03  0.50400001928E-02 0. -1.
        1   -1    0    0  501    0  0.00000000000E+00  0.00000000000E+00 -0.14530503635E+04  0.14530503635E+04  0.50400001928E-02 0.  1.
    10030    2    1    2    0    0  0.00000000000E+00  0.00000000000E+00 -0.13435370858E+04  0.15625636412E+04  0.79781779368E+03 0.  0.
        5    1    3    3  502    0  0.86371817077E+02 -0.31722318973E+03 -0.22939882513E+03  0.40091963517E+03  0.46999998093E+01 0. -1.
       -5    1    3    3    0  502 -0.86371817077E+02  0.31722318973E+03 -0.11141382607E+04  0.11616440061E+04  0.46999998093E+01 0.  1.
</event>
<event>
 5   0  0.1712793E-03  0.7981670E+03  0.7818609E-02  0.9562674E-01
       -1   -1    0    0    0  501  0.00000000000E+00  0.00000000000E+00  0.32833643408E+03  0.32833643412E+03  0.50400001928E-02 0. -1.
        1   -1    0    0  501    0  0.00000000000E+00  0.00000000000E+00 -0.48507449214E+03  0.48507449216E+03  0.50400001928E-02 0.  1.
    10030    2    1    2    0    0  0.00000000000E+00  0.00000000000E+00 -0.15673805805E+03  0.81341092629E+03  0.79816697261E+03 0.  0.
        4    1    3    3  502    0 -0.25005363865E+03 -0.29202791708E+03 -0.18745967566E+03  0.42772639556E+03  0.12699999809E+01 0.  1.
       -4    1    3    3    0  502  0.25005363865E+03  0.29202791708E+03  0.30721617609E+02  0.38568453073E+03  0.12699999809E+01 0. -1.
</event>
<event>
 5   0  0.1640035E-03  0.7937247E+03  0.7818609E-02  0.9569145E-01
       -1   -1    0    0    0  501  0.00000000000E+00  0.00000000000E+00  0.11482743086E+03  0.11482743097E+03  0.50400001928E-02 0.  1.
        1   -1    0    0  501    0  0.00000000000E+00  0.00000000000E+00 -0.13716209252E+04  0.13716209252E+04  0.50400001928E-02 0. -1.
    10030    2    1    2    0    0  0.00000000000E+00  0.00000000000E+00 -0.12567934944E+04  0.14864483562E+04  0.79372465514E+03 0.  0.
        5    1    3    3  502    0  0.13340814262E+03  0.36663343017E+03 -0.49257632314E+03  0.62838788081E+03  0.46999998093E+01 0.  1.
       -5    1    3    3    0  502 -0.13340814262E+03 -0.36663343017E+03 -0.76421717122E+03  0.85806047539E+03  0.46999998093E+01 0. -1.
</event>
<event>
 5   0  0.1617491E-03  0.7989623E+03  0.7818609E-02  0.9561520E-01
       -1   -1    0    0    0  501  0.00000000000E+00  0.00000000000E+00  0.41023536667E+03  0.41023536670E+03  0.50400001928E-02 0. -1.
        1   -1    0    0  501    0  0.00000000000E+00  0.00000000000E+00 -0.38900888410E+03  0.38900888414E+03  0.50400001928E-02 0.  1.
    10030    2    1    2    0    0  0.00000000000E+00  0.00000000000E+00  0.21226482563E+02  0.79924425083E+03  0.79896233261E+03 0.  0.
        1    1    3    3  502    0  0.23373354615E+02 -0.37966786166E+03 -0.11145933576E+03  0.39638009843E+03  0.50400001928E-02 0.  1.
       -1    1    3    3    0  502 -0.23373354615E+02  0.37966786166E+03  0.13268581832E+03  0.40286415240E+03  0.50400001928E-02 0. -1.
</event>
<event>
 5   0  0.2768834E-03  0.8047142E+03  0.7818609E-02  0.9553218E-01
       -2   -1    0    0    0  501  0.00000000000E+00  0.00000000000E+00  0.29776990667E+03  0.29776990668E+03  0.25500000920E-02 0. -1.
        2   -1    0    0  501    0  0.00000000000E+00  0.00000000000E+00 -0.54367902322E+03  0.54367902323E+03  0.25500000920E-02 0.  1.
    10030    2    1    2    0    0  0.00000000000E+00  0.00000000000E+00 -0.24590911655E+03  0.84144892991E+03  0.80471424000E+03 0.  0.
        4    1    3    3  502    0  0.74100147597E+02 -0.37446446392E+03 -0.25594197083E+03  0.45958935143E+03  0.12699999809E+01 0. -1.
       -4    1    3    3    0  502 -0.74100147597E+02  0.37446446392E+03  0.10032854281E+02  0.38185957848E+03  0.12699999809E+01 0.  1.
</event>
<event>
 5   0  0.2910501E-03  0.7999417E+03  0.7818609E-02  0.9560101E-01
        2   -1    0    0  501    0  0.00000000000E+00  0.00000000000E+00  0.98769342641E+03  0.98769342641E+03  0.25500000920E-02 0.  1.
       -2   -1    0    0    0  501  0.00000000000E+00  0.00000000000E+00 -0.16196998090E+03  0.16196998092E+03  0.25500000920E-02 0. -1.
    10030    2    1    2    0    0  0.00000000000E+00  0.00000000000E+00  0.82572344551E+03  0.11496634073E+04  0.79994171145E+03 0.  0.
        1    1    3    3  502    0 -0.89075602455E+02  0.11737202516E+03  0.94726623006E+03  0.95865737668E+03  0.50400001928E-02 0.  1.
       -1    1    3    3    0  502  0.89075602455E+02 -0.11737202516E+03 -0.12154278455E+03  0.19100603065E+03  0.50400001928E-02 0. -1.
</event>
<event>
 5   0  0.2873212E-03  0.7996654E+03  0.7818609E-02  0.9560502E-01
       -2   -1    0    0    0  501  0.00000000000E+00  0.00000000000E+00  0.17419294215E+03  0.17419294216E+03  0.25500000920E-02 0. -1.
        2   -1    0    0  501    0  0.00000000000E+00  0.00000000000E+00 -0.91775359398E+03  0.91775359399E+03  0.25500000920E-02 0.  1.
    10030    2    1    2    0    0  0.00000000000E+00  0.00000000000E+00 -0.74356065184E+03  0.10919465362E+04  0.79966542682E+03 0.  0.
        2    1    3    3  502    0 -0.86390921761E+02  0.20277312070E+03 -0.82730621616E+03  0.85616348038E+03  0.25500000920E-02 0.  1.
       -2    1    3    3    0  502  0.86390921761E+02 -0.20277312070E+03  0.83745564318E+02  0.23578305577E+03  0.25500000920E-02 0. -1.
</event>
<event>
 5   0  0.1656051E-03  0.7990683E+03  0.7818609E-02  0.9561367E-01
       -1   -1    0    0    0  501  0.00000000000E+00  0.00000000000E+00  0.19092608351E+03  0.19092608357E+03  0.50400001928E-02 0.  1.
        1   -1    0    0  501    0  0.00000000000E+00  0.00000000000E+00 -0.83606991091E+03  0.83606991092E+03  0.50400001928E-02 0. -1.
    10030    2    1    2    0    0  0.00000000000E+00  0.00000000000E+00 -0.64514382740E+03  0.10269959945E+04  0.79906834168E+03 0.  0.
        3    1    3    3  502    0 -0.37727206269E+03 -0.11819557845E+03 -0.39666183030E+03  0.56004019665E+03  0.10100000352E+00 0. -1.
       -3    1    3    3    0  502  0.37727206269E+03  0.11819557845E+03 -0.24848199710E+03  0.46695579784E+03  0.10100000352E+00 0.  1.
</event>
<event>
 5   0  0.2763587E-03  0.7994435E+03  0.7818609E-02  0.9560823E-01
        2   -1    0    0  501    0  0.00000000000E+00  0.00000000000E+00  0.32624499423E+03  0.32624499424E+03  0.25500000920E-02 0.  1.
       -2   -1    0    0    0  501  0.00000000000E+00  0.00000000000E+00 -0.48974688067E+03  0.48974688068E+03  0.25500000920E-02 0. -1.
    10030    2    1    2    0    0  0.00000000000E+00  0.00000000000E+00 -0.16350188644E+03  0.81599187492E+03  0.79944347709E+03 0.  0.
        3    1    3    3  502    0 -0.23678431668E+03 -0.27938194858E+03  0.81740751303E+02  0.37523678716E+03  0.10100000352E+00 0.  1.
       -3    1    3    3    0  502  0.23678431668E+03  0.27938194858E+03 -0.24524263774E+03  0.44075508776E+03  0.10100000352E+00 0. -1.
</event>
<event>
 5   0  0.2690809E-03  0.8004819E+03  0.7818609E-02  0.9559320E-01
        2   -1    0    0  501    0  0.00000000000E+00  0.00000000000E+00  0.74250910620E+03  0.74250910621E+03  0.25500000920E-02 0. -1.
       -2   -1    0    0    0  501  0.00000000000E+00  0.00000000000E+00 -0.21574525741E+03  0.21574525742E+03  0.25500000920E-02 0.  1.
    10030    2    1    2    0    0  0.00000000000E+00  0.00000000000E+00  0.52676384880E+03  0.95825436363E+03  0.80048190050E+03 0.  0.
        5    1    3    3  502    0 -0.77531582237E+02 -0.19561237511E+03 -0.14415067274E+03  0.25510165423E+03  0.46999998093E+01 0.  1.
       -5    1    3    3    0  502  0.77531582237E+02  0.19561237511E+03  0.67091452154E+03  0.70315270941E+03  0.46999998093E+01 0. -1.
</event>
<event>
 5   0  0.2910501E-03  0.7999870E+03  0.7818609E-02  0.9560036E-01
        2   -1    0    0  501    0  0.00000000000E+00  0.00000000000E+00  0.24378319623E+04  0.24378319623E+04  0.25500000920E-02 0.  1.
       -2   -1    0    0    0  501  0.00000000000E+00  0.00000000000E+00 -0.65629948695E+02  0.65629948744E+02  0.25500000920E-02 0. -1.
    10030    2    1    2    0    0  0.00000000000E+00  0.00000000000E+00  0.23722020136E+04  0.25034619111E+04  0.79998696659E+03 0.  0.
        1    1    3    3  502    0  0.41005183587E+01 -0.39020198611E+03  0.14610660493E+04  0.15122792086E+04  0.50400001928E-02 0.  1.
       -1    1    3    3    0  502 -0.41005183587E+01  0.39020198611E+03  0.91113596429E+03  0.99118270246E+03  0.50400001928E-02 0. -1.
</event>
<event>
 5   0  0.1656051E-03  0.8002870E+03  0.7818609E-02  0.9559602E-01
        1   -1    0    0  501    0  0.00000000000E+00  0.00000000000E+00  0.63655994504E+03  0.63655994506E+03  0.50400001928E-02 0.  1.
       -1   -1    0    0    0  501  0.00000000000E+00  0.00000000000E+00 -0.25153142348E+03  0.25153142353E+03  0.50400001928E-02 0. -1.
    10030    2    1    2    0    0  0.00000000000E+00  0.00000000000E+00  0.38502852155E+03  0.88809136859E+03  0.80028702135E+03 0.  0.
        3    1    3    3  502    0  0.10366712252E+03  0.38642946736E+03  0.19955141863E+03  0.44709661642E+03  0.10100000352E+00 0.  1.
       -3    1    3    3    0  502 -0.10366712252E+03 -0.38642946736E+03  0.18547710292E+03  0.44099475217E+03  0.10100000352E+00 0. -1.
</event>
<event>
 5   0  0.1712793E-03  0.8040269E+03  0.7818609E-02  0.9554207E-01
        1   -1    0    0  501    0  0.00000000000E+00  0.00000000000E+00  0.11527180685E+04  0.11527180685E+04  0.50400001928E-02 0.  1.
       -1   -1    0    0    0  501  0.00000000000E+00  0.00000000000E+00 -0.14020324648E+03  0.14020324657E+03  0.50400001928E-02 0. -1.
    10030    2    1    2    0    0  0.00000000000E+00  0.00000000000E+00  0.10125148220E+04  0.12929213150E+04  0.80402690387E+03 0.  0.
        4    1    3    3  502    0 -0.13273025120E+03  0.60647327454E+02 -0.96105015368E+02  0.17473753114E+03  0.12699999809E+01 0. -1.
       -4    1    3    3    0  502  0.13273025120E+03 -0.60647327454E+02  0.11086198373E+04  0.11181837839E+04  0.12699999809E+01 0.  1.
</event>
<event>
 5   0  0.1656051E-03  0.8046749E+03  0.7818609E-02  0.9553275E-01
       -1   -1    0    0    0  501  0.00000000000E+00  0.00000000000E+00  0.26396754248E+03  0.26396754253E+03  0.50400001928E-02 0.  1.
        1   -1    0    0  501    0  0.00000000000E+00  0.00000000000E+00 -0.61323992861E+03  0.61323992864E+03  0.50400001928E-02 0. -1.
    10030    2    1    2    0    0  0.00000000000E+00  0.00000000000E+00 -0.34927238614E+03  0.87720747116E+03  0.80467493297E+03 0.  0.
        3    1    3    3  502    0 -0.57026278765E+02  0.33232687024E+03  0.64654347107E+02  0.34332687042E+03  0.10100000352E+00 0.  1.
       -3    1    3    3    0  502  0.57026278765E+02 -0.33232687024E+03 -0.41392673324E+03  0.53388060074E+03  0.10100000352E+00 0. -1.
</event>
<event>
 5   0  0.2768834E-03  0.7992019E+03  0.7818609E-02  0.9561173E-01
       -2   -1    0    0    0  501  0.00000000000E+00  0.00000000000E+00  0.14990993289E+03  0.14990993292E+03  0.25500000920E-02 0. -1.
        2   -1    0    0  501    0  0.00000000000E+00  0.00000000000E+00 -0.10651789290E+04  0.10651789290E+04  0.25500000920E-02 0.  1.
    10030    2    1    2    0    0  0.00000000000E+00  0.00000000000E+00 -0.91526899612E+03  0.12150888619E+04  0.79920185631E+03 0.  0.
        4    1    3    3  502    0  0.80988502560E+02  0.17095972168E+03 -0.99278360989E+03  0.10106469576E+04  0.12699999809E+01 0.  1.
       -4    1    3    3    0  502 -0.80988502560E+02 -0.17095972168E+03  0.77514613779E+02  0.20444190430E+03  0.12699999809E+01 0. -1.
</event>
<event>
 5   0  0.2690809E-03  0.7986649E+03  0.7818609E-02  0.9561952E-01
        2   -1    0    0  501    0  0.00000000000E+00  0.00000000000E+00  0.16224624849E+04  0.16224624849E+04  0.25500000920E-02 0.  1.
       -2   -1    0    0    0  501  0.00000000000E+00  0.00000000000E+00 -0.98286657591E+02  0.98286657624E+02  0.25500000920E-02 0. -1.
    10030    2    1    2    0    0  0.00000000000E+00  0.00000000000E+00  0.15241758273E+04  0.17207491425E+04  0.79866492281E+03 0.  0.
        5    1    3    3  502    0  0.19828305221E+03  0.43056435579E+02  0.21122148085E+02  0.20405455294E+03  0.46999998093E+01 0. -1.
       -5    1    3    3    0  502 -0.19828305221E+03 -0.43056435579E+02  0.15030536792E+04  0.15166945895E+04  0.46999998093E+01 0.  1.
</event>
<event>
 5   0  0.2873212E-03  0.8011355E+03  0.7818609E-02  0.9558375E-01
        2   -1    0    0  501    0  0.00000000000E+00  0.00000000000E+00  0.14647831394E+03  0.14647831396E+03  0.25500000920E-02 0. -1.
       -2   -1    0    0    0  501  0.00000000000E+00  0.00000000000E+00 -0.10954148750E+04  0.10954148750E+04  0.25500000920E-02 0.  1.
    10030    2    1    2    0    0  0.00000000000E+00  0.00000000000E+00 -0.94893656101E+03  0.12418931889E+04  0.80113550406E+03 0.  0.
        2    1    3    3  502    0 -0.87227915348E+02 -0.97859560264E+02 -0.10612206715E+04  0.10692869196E+04  0.25500000920E-02 0.  1.
       -2    1    3    3    0  502  0.87227915348E+02  0.97859560264E+02  0.11228411047E+03  0.17260626936E+03  0.25500000920E-02 0. -1.
</event>
<event>
 5   0  0.2763587E-03  0.8000741E+03  0.7818609E-02  0.9559910E-01
       -2   -1    0    0    0  501  0.00000000000E+00  0.00000000000E+00  0.24733227824E+03  0.24733227825E+03  0.25500000920E-02 0. -1.
        2   -1    0    0  501    0  0.00000000000E+00  0.00000000000E+00 -0.64702284200E+03  0.64702284201E+03  0.25500000920E-02 0.  1.
    10030    2    1    2    0    0  0.00000000000E+00  0.00000000000E+00 -0.39969056376E+03  0.89435512026E+03  0.80007408055E+03 0.  0.
        3    1    3    3  502    0  0.12284031181E+03  0.14631807102E+03  0.19304166945E+03  0.27159494925E+03  0.10100000352E+00 0. -1.
       -3    1    3    3    0  502 -0.12284031181E+03 -0.14631807102E+03 -0.59273223321E+03  0.62276017101E+03  0.10100000352E+00 0.  1.
</event>
<event>
 5   0  0.2873212E-03  0.7992496E+03  0.7818609E-02  0.9561104E-01
       -2   -1    0    0    0  501  0.00000000000E+00  0.00000000000E+00  0.55030184716E+03  0.55030184717E+03  0.25500000920E-02 0. -1.
        2   -1    0    0  501    0  0.00000000000E+00  0.00000000000E+00 -0.29020431830E+03  0.29020431831E+03  0.25500000920E-02 0.  1.
    10030    2    1    2    0    0  0.00000000000E+00  0.00000000000E+00  0.26009752886E+03  0.84050616548E+03  0.79924957910E+03 0.  0.
        2    1    3    3  502    0  0.33932433937E+03  0.15182964125E+03 -0.24172986656E+02  0.37252863050E+03  0.25500000920E-02 0.  1.
       -2    1    3    3    0  502 -0.33932433937E+03 -0.15182964125E+03  0.28427051552E+03  0.46797753498E+03  0.25500000920E-02 0. -1.
</event>
<event>
 5   0  0.2763587E-03  0.8023349E+03  0.7818609E-02  0.9556644E-01
       -2   -1    0    0    0  501  0.00000000000E+00  0.00000000000E+00  0.90254136013E+02  0.90254136049E+02  0.25500000920E-02 0.  1.
        2   -1    0    0  501    0  0.00000000000E+00  0.00000000000E+00 -0.17831353502E+04  0.17831353502E+04  0.25500000920E-02 0. -1.
    10030    2    1    2    0    0  0.00000000000E+00  0.00000000000E+00 -0.16928812142E+04  0.18733894863E+04  0.80233494368E+03 0.  0.
        3    1    3    3  502    0 -0.35641736804E+03  0.86871426799E+02 -0.46738168258E+03  0.59415960183E+03  0.10100000352E+00 0.  1.
       -3    1    3    3    0  502  0.35641736804E+03 -0.86871426799E+02 -0.12254995316E+04  0.12792298844E+04  0.10100000352E+00 0. -1.
</event>
<event>
 5   0  0.2763587E-03  0.7985898E+03  0.7818609E-02  0.9562061E-01
        2   -1    0    0  501    0  0.00000000000E+00  0.00000000000E+00  0.60147540224E+03  0.60147540225E+03  0.25500000920E-02 0. -1.
       -2   -1    0    0    0  501  0.00000000000E+00  0.00000000000E+00 -0.26507556233E+03  0.26507556234E+03  0.25500000920E-02 0.  1.
    10030    2    1    2    0    0  0.00000000000E+00  0.00000000000E+00  0.33639983991E+03  0.86655096459E+03  0.79858983335E+03 0.  0.
        3    1    3    3  502    0 -0.21196230390E+03  0.24037413888E+03  0.42664701462E+03  0.53360606275E+03  0.10100000352E+00 0. -1.
       -3    1    3    3    0  502  0.21196230390E+03 -0.24037413888E+03 -0.90247174706E+02  0.33294490184E+03  0.10100000352E+00 0.  1.
</event>
<event>
 5   0  0.2768834E-03  0.7995141E+03  0.7818609E-02  0.9560721E-01
       -2   -1    0    0    0  501  0.00000000000E+00  0.00000000000E+00  0.42626239942E+03  0.42626239942E+03  0.25500000920E-02 0.  1.
        2   -1    0    0  501    0  0.00000000000E+00  0.00000000000E+00 -0.37489984284E+03  0.37489984284E+03  0.25500000920E-02 0. -1.
    10030    2    1    2    0    0  0.00000000000E+00  0.00000000000E+00  0.51362556581E+02  0.80116224227E+03  0.79951411884E+03 0.  0.
        4    1    3    3  502    0  0.17093940059E+03  0.27671506670E+03  0.25856644342E+03  0.41551140222E+03  0.12699999809E+01 0.  1.
       -4    1    3    3    0  502 -0.17093940059E+03 -0.27671506670E+03 -0.20720388684E+03  0.38565084005E+03  0.12699999809E+01 0. -1.
</event>
<event>
 5   0  0.1656051E-03  0.7997585E+03  0.7818609E-02  0.9560367E-01
        1   -1    0    0  501    0  0.00000000000E+00  0.00000000000E+00  0.81454304760E+03  0.81454304762E+03  0.50400001928E-02 0.  1.
       -1   -1    0    0    0  501  0.00000000000E+00  0.00000000000E+00 -0.19631056749E+03  0.19631056755E+03  0.50400001928E-02 0. -1.
    10030    2    1    2    0    0  0.00000000000E+00  0.00000000000E+00  0.61823248011E+03  0.10108536152E+04  0.79975848344E+03 0.  0.
        3    1    3    3  502    0 -0.15902249040E+03  0.32025794445E+03  0.53539514537E+03  0.64381773455E+03  0.10100000352E+00 0.  1.
       -3    1    3    3    0  502  0.15902249040E+03 -0.32025794445E+03  0.82837334740E+02  0.36703588062E+03  0.10100000352E+00 0. -1.
</event>
<event>
 5   0  0.1637228E-03  0.7988309E+03  0.7818609E-02  0.9561711E-01
       -1   -1    0    0    0  501  0.00000000000E+00  0.00000000000E+00  0.28158586335E+03  0.28158586340E+03  0.50400001928E-02 0.  1.
        1   -1    0    0  501    0  0.00000000000E+00  0.00000000000E+00 -0.56655086196E+03  0.56655086198E+03  0.50400001928E-02 0. -1.
    10030    2    1    2    0    0  0.00000000000E+00  0.00000000000E+00 -0.28496499861E+03  0.84813672538E+03  0.79883092987E+03 0.  0.
        2    1    3    3  502    0  0.18238536272E+03  0.22109140973E+03  0.15287273411E+03  0.32483211792E+03  0.25500000920E-02 0.  1.
       -2    1    3    3    0  502 -0.18238536272E+03 -0.22109140973E+03 -0.43783773272E+03  0.52330460746E+03  0.25500000920E-02 0. -1.
</event>
<event>
 5   0  0.1637228E-03  0.8009379E+03  0.7818609E-02  0.9558660E-01
       -1   -1    0    0    0  501  0.00000000000E+00  0.00000000000E+00  0.74505374323E+03  0.74505374324E+03  0.50400001928E-02 0. -1.
        1   -1    0    0  501    0  0.00000000000E+00  0.00000000000E+00 -0.21525345184E+03  0.21525345190E+03  0.50400001928E-02 0.  1.
    10030    2    1    2    0    0  0.00000000000E+00  0.00000000000E+00  0.52980029138E+03  0.96030719515E+03  0.80093792537E+03 0.  0.
        2    1    3    3  502    0 -0.18028279165E+03  0.35245019789E+03  0.19244015097E+03  0.44017750814E+03  0.25500000920E-02 0.  1.
       -2    1    3    3    0  502  0.18028279165E+03 -0.35245019789E+03  0.33736014042E+03  0.52012968701E+03  0.25500000920E-02 0. -1.
</event>
<event>
 5   0  0.1656051E-03  0.8045650E+03  0.7818609E-02  0.9553433E-01
        1   -1    0    0  501    0  0.00000000000E+00  0.00000000000E+00  0.83732594022E+03  0.83732594024E+03  0.50400001928E-02 0.  1.
       -1   -1    0    0    0  501  0.00000000000E+00  0.00000000000E+00 -0.19327146420E+03  0.19327146427E+03  0.50400001928E-02 0. -1.
    10030    2    1    2    0    0  0.00000000000E+00  0.00000000000E+00  0.64405447602E+03  0.10305974045E+04  0.80456500179E+03 0.  0.
        3    1    3    3  502    0  0.36474113203E+03 -0.12292183290E+03  0.47187682257E+03  0.60894467423E+03  0.10100000352E+00 0.  1.
       -3    1    3    3    0  502 -0.36474113203E+03  0.12292183290E+03  0.17217765345E+03  0.42165273028E+03  0.10100000352E+00 0. -1.
</event>
<event>
 5   0  0.2910501E-03  0.7994487E+03  0.7818609E-02  0.9560815E-01
       -2   -1    0    0    0  501  0.00000000000E+00  0.00000000000E+00  0.38735551380E+03  0.38735551381E+03  0.25500000920E-02 0. -1.
        2   -1    0    0  501    0  0.00000000000E+00  0.00000000000E+00 -0.41248812819E+03  0.41248812820E+03  0.25500000920E-02 0.  1.
    10030    2    1    2    0    0  0.00000000000E+00  0.00000000000E+00 -0.25132614389E+02  0.79984364201E+03  0.79944868713E+03 0.  0.
        1    1    3    3  502    0  0.35213241482E+03 -0.40821918705E+02 -0.19736241468E+03  0.40572846754E+03  0.50400001928E-02 0.  1.
       -1    1    3    3    0  502 -0.35213241482E+03  0.40821918705E+02  0.17222980029E+03  0.39411517447E+03  0.50400001928E-02 0. -1.
</event>
<event>
 5   0  0.1656051E-03  0.7992311E+03  0.7818609E-02  0.9561131E-01
       -1   -1    0    0    0  501  0.00000000000E+00  0.00000000000E+00  0.49365425152E+03  0.49365425154E+03  0.50400001928E-02 0.  1.
        1   -1    0    0  501    0  0.00000000000E+00  0.00000000000E+00 -0.32349079584E+03  0.32349079588E+03  0.50400001928E-02 0. -1.
    10030    2    1    2    0    0  0.00000000000E+00  0.00000000000E+00  0.17016345567E+03  0.81714504742E+03  0.79923114734E+03 0.  0.
        3    1    3    3  502    0  0.40232267023E+02  0.40414781281E+02  0.48947274308E+03  0.49278348823E+03  0.10100000352E+00 0.  1.
       -3    1    3    3    0  502 -0.40232267023E+02 -0.40414781281E+02 -0.31930928741E+03  0.32436155919E+03  0.10100000352E+00 0. -1.
</event>
<event>
 5   0  0.2763587E-03  0.7926211E+03  0.7818609E-02  0.9570760E-01
       -2   -1    0    0    0  501  0.00000000000E+00  0.00000000000E+00  0.18918664438E+03  0.18918664440E+03  0.25500000920E-02 0.  1.
        2   -1    0    0  501    0  0.00000000000E+00  0.00000000000E+00 -0.83019624523E+03  0.83019624524E+03  0.25500000920E-02 0. -1.
    10030    2    1    2    0    0  0.00000000000E+00  0.00000000000E+00 -0.64100960085E+03  0.10193828896E+04  0.79262107422E+03 0.  0.
        3    1    3    3  502    0 -0.15135128540E+03 -0.60162725373E+02  0.14415559169E+03  0.21750312627E+03  0.10100000352E+00 0.  1.
       -3    1    3    3    0  502  0.15135128540E+03  0.60162725373E+02 -0.78516519254E+03  0.80187976337E+03  0.10100000352E+00 0. -1.
</event>
<event>
 5   0  0.1617491E-03  0.7999970E+03  0.7818609E-02  0.9560021E-01
       -1   -1    0    0    0  501  0.00000000000E+00  0.00000000000E+00  0.86516439948E+02  0.86516440095E+02  0.50400001928E-02 0. -1.
        1   -1    0    0  501    0  0.00000000000E+00  0.00000000000E+00 -0.18493455546E+04  0.18493455546E+04  0.50400001928E-02 0.  1.
    10030    2    1    2    0    0  0.00000000000E+00  0.00000000000E+00 -0.17628291147E+04  0.19358619947E+04  0.79999698442E+03 0.  0.
        1    1    3    3  502    0  0.25394749668E+03 -0.30902014739E+03 -0.87173182972E+03  0.95911373962E+03  0.50400001928E-02 0.  1.
       -1    1    3    3    0  502 -0.25394749668E+03  0.30902014739E+03 -0.89109728497E+03  0.97674825512E+03  0.50400001928E-02 0. -1.
</event>
<event>
 5   0  0.2768834E-03  0.8010919E+03  0.7818609E-02  0.9558438E-01
       -2   -1    0    0    0  501  0.00000000000E+00  0.00000000000E+00  0.45168912455E+03  0.45168912456E+03  0.25500000920E-02 0. -1.
        2   -1    0    0  501    0  0.00000000000E+00  0.00000000000E+00 -0.35519354917E+03  0.35519354918E+03  0.25500000920E-02 0.  1.
    10030    2    1    2    0    0  0.00000000000E+00  0.00000000000E+00  0.96495575381E+02  0.80688267373E+03  0.80109191302E+03 0.  0.
        4    1    3    3  502    0  0.34133330975E+03  0.13184354228E+03  0.21234972208E+03  0.42306638410E+03  0.12699999809E+01 0. -1.
       -4    1    3    3    0  502 -0.34133330975E+03 -0.13184354228E+03 -0.11585414670E+03  0.38381628964E+03  0.12699999809E+01 0.  1.
</event>
<event>
 5   0  0.2768834E-03  0.8000728E+03  0.7818609E-02  0.9559912E-01
        2   -1    0    0  501    0  0.00000000000E+00  0.00000000000E+00  0.20326060410E+03  0.20326060411E+03  0.25500000920E-02 0. -1.
       -2   -1    0    0    0  501  0.00000000000E+00  0.00000000000E+00 -0.78731012050E+03  0.78731012051E+03  0.25500000920E-02 0.  1.
    10030    2    1    2    0    0  0.00000000000E+00  0.00000000000E+00 -0.58404951641E+03  0.99057072462E+03  0.80007282347E+03 0.  0.
        4    1    3    3  502    0 -0.57181042493E+02  0.92605882578E+02  0.18457486117E+03  0.21427788823E+03  0.12699999809E+01 0. -1.
       -4    1    3    3    0  502  0.57181042493E+02 -0.92605882578E+02 -0.76862437758E+03  0.77629283638E+03  0.12699999809E+01 0.  1.
</event>
<event>
 5   0  0.1640035E-03  0.7984139E+03  0.7818609E-02  0.9562316E-01
       -1   -1    0    0    0  501  0.00000000000E+00  0.00000000000E+00  0.16677766052E+03  0.16677766060E+03  0.50400001928E-02 0.  1.
        1   -1    0    0  501    0  0.00000000000E+00  0.00000000000E+00 -0.95556069699E+03  0.95556069700E+03  0.50400001928E-02 0. -1.
    10030    2    1    2    0    0  0.00000000000E+00  0.00000000000E+00 -0.78878303647E+03  0.11223383576E+04  0.79841387157E+03 0.  0.
        5    1    3    3  502    0 -0.30875815316E+03 -0.16019094794E+03 -0.11910428957E+03  0.36769642198E+03  0.46999998093E+01 0.  1.
       -5    1    3    3    0  502  0.30875815316E+03  0.16019094794E+03 -0.66967874690E+03  0.75464193562E+03  0.46999998093E+01 0. -1.
</event>
<event>
 5   0  0.1656051E-03  0.7986815E+03  0.7818609E-02  0.9561928E-01
       -1   -1    0    0    0  501  0.00000000000E+00  0.00000000000E+00  0.20107244128E+03  0.20107244134E+03  0.50400001928E-02 0. -1.
        1   -1    0    0  501    0  0.00000000000E+00  0.00000000000E+00 -0.79311238371E+03  0.79311238373E+03  0.50400001928E-02 0.  1.
    10030    2    1    2    0    0  0.00000000000E+00  0.00000000000E+00 -0.59203994244E+03  0.99418482507E+03  0.79868152161E+03 0.  0.
        3    1    3    3  502    0 -0.13248364477E+03  0.28787564352E+03  0.64615000633E+01  0.31696382041E+03  0.10100000352E+00 0. -1.
       -3    1    3    3    0  502  0.13248364477E+03 -0.28787564352E+03 -0.59850144250E+03  0.67722100466E+03  0.10100000352E+00 0.  1.
</event>
<event>
 5   0  0.1637228E-03  0.7999907E+03  0.7818609E-02  0.9560031E-01
        1   -1    0    0  501    0  0.00000000000E+00  0.00000000000E+00  0.55104869575E+03  0.55104869577E+03  0.50400001928E-02 0.  1.
       -1   -1    0    0    0  501  0.00000000000E+00  0.00000000000E+00 -0.29034870390E+03  0.29034870394E+03  0.50400001928E-02 0. -1.
    10030    2    1    2    0    0  0.00000000000E+00  0.00000000000E+00  0.26069999186E+03  0.84139739971E+03  0.79999068650E+03 0.  0.
        2    1    3    3  502    0 -0.20374107604E+03  0.29886864822E+03 -0.49261926165E+02  0.36504743846E+03  0.25500000920E-02 0. -1.
       -2    1    3    3    0  502  0.20374107604E+03 -0.29886864822E+03  0.30996191802E+03  0.47634996125E+03  0.25500000920E-02 0.  1.
</event>
<event>
 5   0  0.2768834E-03  0.7993593E+03  0.7818609E-02  0.9560945E-01
        2   -1    0    0  501    0  0.00000000000E+00  0.00000000000E+00  0.18839060193E+04  0.18839060193E+04  0.25500000920E-02 0. -1.
       -2   -1    0    0    0  501  0.00000000000E+00  0.00000000000E+00 -0.84793940291E+02  0.84793940329E+02  0.25500000920E-02 0.  1.
    10030    2    1    2    0    0  0.00000000000E+00  0.00000000000E+00  0.17991120790E+04  0.19686999596E+04  0.79935927980E+03 0.  0.
        4    1    3    3  502    0  0.31146297215E+03 -0.98075786050E+02  0.33195567556E+03  0.46564388352E+03  0.12699999809E+01 0.  1.
       -4    1    3    3    0  502 -0.31146297215E+03  0.98075786050E+02  0.14671564034E+04  0.15030560761E+04  0.12699999809E+01 0. -1.
</event>
<event>
 5   0  0.1656051E-03  0.7996518E+03  0.7818609E-02  0.9560521E-01
        1   -1    0    0  501    0  0.00000000000E+00  0.00000000000E+00  0.87232505872E+03  0.87232505874E+03  0.50400001928E-02 0. -1.
       -1   -1    0    0    0  501  0.00000000000E+00  0.00000000000E+00 -0.18325824589E+03  0.18325824596E+03  0.50400001928E-02 0.  1.
    10030    2    1    2    0    0  0.00000000000E+00  0.00000000000E+00  0.68906681283E+03  0.10555833047E+04  0.79965182462E+03 0.  0.
        3    1    3    3  502    0 -0.25742916876E+03 -0.28039186652E+03  0.18301485422E+03  0.42235509090E+03  0.10100000352E+00 0.  1.
       -3    1    3    3    0  502  0.25742916876E+03  0.28039186652E+03  0.50605195861E+03  0.63322821381E+03  0.10100000352E+00 0. -1.
</event>
<event>
 5   0  0.2873212E-03  0.8038492E+03  0.7818609E-02  0.9554462E-01
        2   -1    0    0  501    0  0.00000000000E+00  0.00000000000E+00  0.13217162713E+04  0.13217162713E+04  0.25500000920E-02 0. -1.
       -2   -1    0    0    0  501  0.00000000000E+00  0.00000000000E+00 -0.12222243471E+03  0.12222243474E+03  0.25500000920E-02 0.  1.
    10030    2    1    2    0    0  0.00000000000E+00  0.00000000000E+00  0.11994938366E+04  0.14439387060E+04  0.80384919156E+03 0.  0.
        2    1    3    3  502    0 -0.12211858173E+03  0.25064999417E+03  0.11197539041E+04  0.11539441812E+04  0.25500000920E-02 0. -1.
       -2    1    3    3    0  502  0.12211858173E+03 -0.25064999417E+03  0.79739932459E+02  0.28999452480E+03  0.25500000920E-02 0.  1.
</event>
<event>
 5   0  0.2768834E-03  0.8009986E+03  0.7818609E-02  0.9558573E-01
        2   -1    0    0  501    0  0.00000000000E+00  0.00000000000E+00  0.47698823122E+03  0.47698823123E+03  0.25500000920E-02 0.  1.
       -2   -1    0    0    0  501  0.00000000000E+00  0.00000000000E+00 -0.33627599126E+03  0.33627599127E+03  0.25500000920E-02 0. -1.
    10030    2    1    2    0    0  0.00000000000E+00  0.00000000000E+00  0.14071223996E+03  0.81326422250E+03  0.80099860245E+03 0.  0.
        4    1    3    3  502    0  0.13905745613E+03 -0.22007687780E+03 -0.23865160655E+03  0.35316711407E+03  0.12699999809E+01 0. -1.
       -4    1    3    3    0  502 -0.13905745613E+03  0.22007687780E+03  0.37936384651E+03  0.46009710843E+03  0.12699999809E+01 0.  1.
</event>
<event>
 5   0  0.1640035E-03  0.8005707E+03  0.7818609E-02  0.9559191E-01
       -1   -1    0    0    0  501  0.00000000000E+00  0.00000000000E+00  0.26486322879E+03  0.26486322884E+03  0.50400001928E-02 0. -1.
        1   -1    0    0  501    0  0.00000000000E+00  0.00000000000E+00 -0.60494754535E+03  0.60494754537E+03  0.50400001928E-02 0.  1.
    10030    2    1    2    0    0  0.00000000000E+00  0.00000000000E+00 -0.34008431656E+03  0.86981077420E+03  0.80057069679E+03 0.  0.
        5    1    3    3  502    0  0.33126173226E+03  0.12885447486E+03 -0.36999280490E+03  0.51308340124E+03  0.46999998093E+01 0.  1.
       -5    1    3    3    0  502 -0.33126173226E+03 -0.12885447486E+03  0.29908488336E+02  0.35672737297E+03  0.46999998093E+01 0. -1.
</event>
<event>
 5   0  0.1095350E-03  0.8002339E+03  0.7818609E-02  0.9559679E-01
       -4   -1    0    0    0  501  0.00000000000E+00  0.00000000000E+00  0.15328830711E+03  0.15329356802E+03  0.12699999809E+01 0. -1.
        4   -1    0    0  501    0  0.00000000000E+00  0.00000000000E+00 -0.10443715711E+04  0.10443723433E+04  0.12699999809E+01 0.  1.
    10030    2    1    2    0    0  0.00000000000E+00  0.00000000000E+00 -0.89108326403E+03  0.11976659114E+04  0.80023387318E+03 0.  0.
        1    1    3    3  502    0 -0.91759585296E+02  0.13071044415E+03 -0.99460537779E+03  0.10073454717E+04  0.50400001928E-02 0.  1.
       -1    1    3    3    0  502  0.91759585296E+02 -0.13071044415E+03  0.10352211376E+03  0.19032043970E+03  0.50400001928E-02 0. -1.
</event>
<event>
 5   0  0.2873212E-03  0.8003452E+03  0.7818609E-02  0.9559518E-01
       -2   -1    0    0    0  501  0.00000000000E+00  0.00000000000E+00  0.97020964248E+02  0.97020964282E+02  0.25500000920E-02 0. -1.
        2   -1    0    0  501    0  0.00000000000E+00  0.00000000000E+00 -0.16505514518E+04  0.16505514518E+04  0.25500000920E-02 0.  1.
    10030    2    1    2    0    0  0.00000000000E+00  0.00000000000E+00 -0.15535304876E+04  0.17475724161E+04  0.80034515911E+03 0.  0.
        2    1    3    3  502    0 -0.14042459142E+02  0.34760479155E+03 -0.12085942642E+04  0.12576670376E+04  0.25500000920E-02 0.  1.
       -2    1    3    3    0  502  0.14042459142E+02 -0.34760479155E+03 -0.34493622333E+03  0.48990537855E+03  0.25500000920E-02 0. -1.
</event>
<event>
 5   0  0.2763587E-03  0.7996424E+03  0.7818609E-02  0.9560535E-01
       -2   -1    0    0    0  501  0.00000000000E+00  0.00000000000E+00  0.16576840119E+03  0.16576840121E+03  0.25500000920E-02 0.  1.
        2   -1    0    0  501    0  0.00000000000E+00  0.00000000000E+00 -0.96433933842E+03  0.96433933843E+03  0.25500000920E-02 0. -1.
    10030    2    1    2    0    0  0.00000000000E+00  0.00000000000E+00 -0.79857093723E+03  0.11301077396E+04  0.79964239595E+03 0.  0.
        3    1    3    3  502    0  0.20328165530E+02 -0.39895970260E+03 -0.42271764448E+03  0.58161180849E+03  0.10100000352E+00 0. -1.
       -3    1    3    3    0  502 -0.20328165530E+02  0.39895970260E+03 -0.37585329275E+03  0.54849593115E+03  0.10100000352E+00 0.  1.
</event>
<event>
 5   0  0.2690809E-03  0.7993704E+03  0.7818609E-02  0.9560929E-01
        2   -1    0    0  501    0  0.00000000000E+00  0.00000000000E+00  0.15793344364E+04  0.15793344364E+04  0.25500000920E-02 0.  1.
       -2   -1    0    0    0  501  0.00000000000E+00  0.00000000000E+00 -0.10114909871E+03  0.10114909875E+03  0.25500000920E-02 0. -1.
    10030    2    1    2    0    0  0.00000000000E+00  0.00000000000E+00  0.14781853377E+04  0.16804835351E+04  0.79937038934E+03 0.  0.
        5    1    3    3  502    0 -0.86897451081E+02 -0.14152350741E+03  0.15033038215E+04  0.15124564588E+04  0.46999998093E+01 0.  1.
       -5    1    3    3    0  502  0.86897451081E+02  0.14152350741E+03 -0.25118483788E+02  0.16802707633E+03  0.46999998093E+01 0. -1.
</event>
<event>
 5   0  0.1637228E-03  0.8003005E+03  0.7818609E-02  0.9559582E-01
        1   -1    0    0  501    0  0.00000000000E+00  0.00000000000E+00  0.10824780739E+04  0.10824780739E+04  0.50400001928E-02 0. -1.
       -1   -1    0    0    0  501  0.00000000000E+00  0.00000000000E+00 -0.14792004608E+03  0.14792004617E+03  0.50400001928E-02 0.  1.
    10030    2    1    2    0    0  0.00000000000E+00  0.00000000000E+00  0.93455802780E+03  0.12303981201E+04  0.80030046016E+03 0.  0.
        2    1    3    3  502    0  0.17898616984E+02  0.37983464782E+03  0.27571443886E+03  0.46969476469E+03  0.25500000920E-02 0.  1.
       -2    1    3    3    0  502 -0.17898616984E+02 -0.37983464782E+03  0.65884358894E+03  0.76070335537E+03  0.25500000920E-02 0. -1.
</event>
<event>
 5   0  0.2873212E-03  0.7985401E+03  0.7818609E-02  0.9562133E-01
        2   -1    0    0  501    0  0.00000000000E+00  0.00000000000E+00  0.84414016800E+03  0.84414016800E+03  0.25500000920E-02 0. -1.
       -2   -1    0    0    0  501  0.00000000000E+00  0.00000000000E+00 -0.18885084389E+03  0.18885084390E+03  0.25500000920E-02 0.  1.
    10030    2    1    2    0    0  0.00000000000E+00  0.00000000000E+00  0.65528932411E+03  0.10329910119E+04  0.79854012572E+03 0.  0.
        2    1    3    3  502    0  0.35089088367E+03  0.19036767678E+03  0.33700146244E+03  0.52243109622E+03  0.25500000920E-02 0.  1.
       -2    1    3    3    0  502 -0.35089088367E+03 -0.19036767678E+03  0.31828786168E+03  0.51055991569E+03  0.25500000920E-02 0. -1.
</event>
<event>
 5   0  0.1637228E-03  0.8078125E+03  0.7818609E-02  0.9548777E-01
        1   -1    0    0  501    0  0.00000000000E+00  0.00000000000E+00  0.25548880264E+03  0.25548880269E+03  0.50400001928E-02 0.  1.
       -1   -1    0    0    0  501  0.00000000000E+00  0.00000000000E+00 -0.63854165739E+03  0.63854165741E+03  0.50400001928E-02 0. -1.
    10030    2    1    2    0    0  0.00000000000E+00  0.00000000000E+00 -0.38305285475E+03  0.89403046010E+03  0.80781246218E+03 0.  0.
        2    1    3    3  502    0  0.23288636143E+03  0.22075693769E+03  0.79951044319E+02  0.33069903594E+03  0.25500000920E-02 0.  1.
       -2    1    3    3    0  502 -0.23288636143E+03 -0.22075693769E+03 -0.46300389907E+03  0.56333142416E+03  0.25500000920E-02 0. -1.
</event>
<event>
 5   0  0.2690809E-03  0.8000510E+03  0.7818609E-02  0.9559943E-01
        2   -1    0    0  501    0  0.00000000000E+00  0.00000000000E+00  0.41039922962E+03  0.41039922963E+03  0.25500000920E-02 0.  1.
       -2   -1    0    0    0  501  0.00000000000E+00  0.00000000000E+00 -0.38991398249E+03  0.38991398250E+03  0.25500000920E-02 0. -1.
    10030    2    1    2    0    0  0.00000000000E+00  0.00000000000E+00  0.20485247128E+02  0.80031321213E+03  0.80005099347E+03 0.  0.
        5    1    3    3  502    0  0.35008514703E+02  0.18319781170E+03  0.36421065005E+03  0.40921696192E+03  0.46999998093E+01 0.  1.
       -5    1    3    3    0  502 -0.35008514703E+02 -0.18319781170E+03 -0.34372540293E+03  0.39109625021E+03  0.46999998093E+01 0. -1.
</event>
<event>
 5   0  0.1712793E-03  0.8133991E+03  0.7818609E-02  0.9540823E-01
       -1   -1    0    0    0  501  0.00000000000E+00  0.00000000000E+00  0.49908996231E+03  0.49908996233E+03  0.50400001928E-02 0.  1.
        1   -1    0    0  501    0  0.00000000000E+00  0.00000000000E+00 -0.33141220956E+03  0.33141220960E+03  0.50400001928E-02 0. -1.
    10030    2    1    2    0    0  0.00000000000E+00  0.00000000000E+00  0.16767775274E+03  0.83050217193E+03  0.81339905878E+03 0.  0.
        4    1    3    3  502    0 -0.63256305868E+02  0.11328974815E+03  0.47738735309E+03  0.49470822214E+03  0.12699999809E+01 0.  1.
       -4    1    3    3    0  502  0.63256305868E+02 -0.11328974815E+03 -0.30970960035E+03  0.33579394979E+03  0.12699999809E+01 0. -1.
</event>
<event>
 5   0  0.1637228E-03  0.8012429E+03  0.7818609E-02  0.9558220E-01
       -1   -1    0    0    0  501  0.00000000000E+00  0.00000000000E+00  0.12079347730E+03  0.12079347740E+03  0.50400001928E-02 0.  1.
        1   -1    0    0  501    0  0.00000000000E+00  0.00000000000E+00 -0.13286938209E+04  0.13286938210E+04  0.50400001928E-02 0. -1.
    10030    2    1    2    0    0  0.00000000000E+00  0.00000000000E+00 -0.12079003436E+04  0.14494872984E+04  0.80124290194E+03 0.  0.
        2    1    3    3  502    0  0.54546873453E+02  0.39558125416E+03 -0.54567586537E+03  0.67618195783E+03  0.25500000920E-02 0. -1.
       -2    1    3    3    0  502 -0.54546873453E+02 -0.39558125416E+03 -0.66222447828E+03  0.77330534053E+03  0.25500000920E-02 0.  1.
</event>
<event>
 5   0  0.1617491E-03  0.8015963E+03  0.7818609E-02  0.9557709E-01
        1   -1    0    0  501    0  0.00000000000E+00  0.00000000000E+00  0.32421350275E+03  0.32421350279E+03  0.50400001928E-02 0.  1.
       -1   -1    0    0    0  501  0.00000000000E+00  0.00000000000E+00 -0.49547339656E+03  0.49547339658E+03  0.50400001928E-02 0. -1.
    10030    2    1    2    0    0  0.00000000000E+00  0.00000000000E+00 -0.17125989380E+03  0.81968689938E+03  0.80159632096E+03 0.  0.
        1    1    3    3  502    0  0.76119338072E+02 -0.38830378939E+03 -0.20432271381E+02  0.39622148380E+03  0.50400001928E-02 0.  1.
       -1    1    3    3    0  502 -0.76119338072E+02  0.38830378939E+03 -0.15082762242E+03  0.42346541558E+03  0.50400001928E-02 0. -1.
</event>
<event>
 5   0  0.2690809E-03  0.7999554E+03  0.7818609E-02  0.9560082E-01
        2   -1    0    0  501    0  0.00000000000E+00  0.00000000000E+00  0.43582763230E+03  0.43582763231E+03  0.25500000920E-02 0.  1.
       -2   -1    0    0    0  501  0.00000000000E+00  0.00000000000E+00 -0.36707664095E+03  0.36707664095E+03  0.25500000920E-02 0. -1.
    10030    2    1    2    0    0  0.00000000000E+00  0.00000000000E+00  0.68750991357E+02  0.80290427327E+03  0.79995535701E+03 0.  0.
        5    1    3    3  502    0 -0.25141748952E+03  0.30512095789E+03  0.95017593128E+02  0.40664479092E+03  0.46999998093E+01 0.  1.
       -5    1    3    3    0  502  0.25141748952E+03 -0.30512095789E+03 -0.26266601771E+02  0.39625948234E+03  0.46999998093E+01 0. -1.
</event>
<event>
 5   0  0.1640035E-03  0.7993634E+03  0.7818609E-02  0.9560939E-01
       -1   -1    0    0    0  501  0.00000000000E+00  0.00000000000E+00  0.14276392735E+03  0.14276392744E+03  0.50400001928E-02 0. -1.
        1   -1    0    0  501    0  0.00000000000E+00  0.00000000000E+00 -0.11189483333E+04  0.11189483333E+04  0.50400001928E-02 0.  1.
    10030    2    1    2    0    0  0.00000000000E+00  0.00000000000E+00 -0.97618440596E+03  0.12617122608E+04  0.79936339329E+03 0.  0.
        5    1    3    3  502    0  0.15384543738E+03  0.23833721485E+03 -0.93243340474E+03  0.97464208347E+03  0.46999998093E+01 0.  1.
       -5    1    3    3    0  502 -0.15384543738E+03 -0.23833721485E+03 -0.43751001211E+02  0.28707017729E+03  0.46999998093E+01 0. -1.
</event>
<event>
 5   0  0.1656051E-03  0.8004188E+03  0.7818609E-02  0.9559411E-01
        1   -1    0    0  501    0  0.00000000000E+00  0.00000000000E+00  0.85949361965E+03  0.85949361966E+03  0.50400001928E-02 0.  1.
       -1   -1    0    0    0  501  0.00000000000E+00  0.00000000000E+00 -0.18635105690E+03  0.18635105696E+03  0.50400001928E-02 0. -1.
    10030    2    1    2    0    0  0.00000000000E+00  0.00000000000E+00  0.67314256275E+03  0.10458446766E+04  0.80041875156E+03 0.  0.
        3    1    3    3  502    0  0.21327171719E+03  0.11782580887E+02  0.77878873578E+03  0.80754910671E+03  0.10100000352E+00 0.  1.
       -3    1    3    3    0  502 -0.21327171719E+03 -0.11782580887E+02 -0.10564617303E+03  0.23829556992E+03  0.10100000352E+00 0. -1.
</event>
<event>
 5   0  0.2910501E-03  0.8121687E+03  0.7818609E-02  0.9542569E-01
       -2   -1    0    0    0  501  0.00000000000E+00  0.00000000000E+00  0.33469605388E+03  0.33469605389E+03  0.25500000920E-02 0. -1.
        2   -1    0    0  501    0  0.00000000000E+00  0.00000000000E+00 -0.49269921715E+03  0.49269921716E+03  0.25500000920E-02 0.  1.
    10030    2    1    2    0    0  0.00000000000E+00  0.00000000000E+00 -0.15800316327E+03  0.82739527105E+03  0.81216866164E+03 0.  0.
        1    1    3    3  502    0 -0.10382296324E+03 -0.28210623266E+03 -0.35714285086E+03  0.46681275705E+03  0.50400001928E-02 0.  1.
       -1    1    3    3    0  502  0.10382296324E+03  0.28210623266E+03  0.19913968759E+03  0.36058251400E+03  0.50400001928E-02 0. -1.
</event>
<event>
 5   0  0.1617491E-03  0.8004830E+03  0.7818609E-02  0.9559318E-01
        1   -1    0    0  501    0  0.00000000000E+00  0.00000000000E+00  0.12853992706E+04  0.12853992706E+04  0.50400001928E-02 0.  1.
       -1   -1    0    0    0  501  0.00000000000E+00  0.00000000000E+00 -0.12462529785E+03  0.12462529795E+03  0.50400001928E-02 0. -1.
    10030    2    1    2    0    0  0.00000000000E+00  0.00000000000E+00  0.11607739727E+04  0.14100245685E+04  0.80048302176E+03 0.  0.
        1    1    3    3  502    0  0.21183865129E+03  0.14406536905E+03  0.11220569670E+04  0.11509310501E+04  0.50400001928E-02 0.  1.
       -1    1    3    3    0  502 -0.21183865129E+03 -0.14406536905E+03  0.38717005665E+02  0.25909351843E+03  0.50400001928E-02 0. -1.
</event>
<event>
 5   0  0.2763587E-03  0.8011266E+03  0.7818609E-02  0.9558388E-01
       -2   -1    0    0    0  501  0.00000000000E+00  0.00000000000E+00  0.98807509562E+02  0.98807509595E+02  0.25500000920E-02 0.  1.
        2   -1    0    0  501    0  0.00000000000E+00  0.00000000000E+00 -0.16238741784E+04  0.16238741784E+04  0.25500000920E-02 0. -1.
    10030    2    1    2    0    0  0.00000000000E+00  0.00000000000E+00 -0.15250666688E+04  0.17226816880E+04  0.80112661531E+03 0.  0.
        3    1    3    3  502    0  0.41256314554E+02  0.90248521437E+02 -0.15970254490E+04  0.16001053634E+04  0.10100000352E+00 0. -1.
       -3    1    3    3    0  502 -0.41256314554E+02 -0.90248521437E+02  0.71958780135E+02  0.12257632460E+03  0.10100000352E+00 0.  1.
</event>
<event>
 5   0  0.1617491E-03  0.8089918E+03  0.7818609E-02  0.9547092E-01
       -1   -1    0    0    0  501  0.00000000000E+00  0.00000000000E+00  0.42575234966E+03  0.42575234969E+03  0.50400001928E-02 0.  1.
        1   -1    0    0  501    0  0.00000000000E+00  0.00000000000E+00 -0.38430072434E+03  0.38430072437E+03  0.50400001928E-02 0. -1.
    10030    2    1    2    0    0  0.00000000000E+00  0.00000000000E+00  0.41451625329E+02  0.81005307406E+03  0.80899180809E+03 0.  0.
        1    1    3    3  502    0  0.64125165126E+02  0.11876998176E+03  0.40253770343E+03  0.42456442158E+03  0.50400001928E-02 0.  1.
       -1    1    3    3    0  502 -0.64125165126E+02 -0.11876998176E+03 -0.36108607810E+03  0.38548865248E+03  0.50400001928E-02 0. -1.
</event>
<event>
 5   0  0.1712793E-03  0.7980545E+03  0.7818609E-02  0.9562837E-01
       -1   -1    0    0    0  501  0.00000000000E+00  0.00000000000E+00  0.24838731724E+03  0.24838731729E+03  0.50400001928E-02 0. -1.
        1   -1    0    0  501    0  0.00000000000E+00  0.00000000000E+00 -0.64102608125E+03  0.64102608127E+03  0.50400001928E-02 0.  1.
    10030    2    1    2    0    0  0.00000000000E+00  0.00000000000E+00 -0.39263876402E+03  0.88941339856E+03  0.79805450599E+03 0.  0.
        4    1    3    3  502    0 -0.28622177399E+02 -0.21323075009E+03  0.17820882709E+03  0.27936818139E+03  0.12699999809E+01 0. -1.
       -4    1    3    3    0  502  0.28622177399E+02  0.21323075009E+03 -0.57084759110E+03  0.61004521717E+03  0.12699999809E+01 0.  1.
</event>
<event>
 5   0  0.2910501E-03  0.8025582E+03  0.7818609E-02  0.9556322E-01
       -2   -1    0    0    0  501  0.00000000000E+00  0.00000000000E+00  0.58105069409E+03  0.58105069410E+03  0.25500000920E-02 0. -1.
        2   -1    0    0  501    0  0.00000000000E+00  0.00000000000E+00 -0.27712710434E+03  0.27712710435E+03  0.25500000920E-02 0.  1.
    10030    2    1    2    0    0  0.00000000000E+00  0.00000000000E+00  0.30392358976E+03  0.85817779845E+03  0.80255815075E+03 0.  0.
        1    1    3    3  502    0  0.28929790945E+03  0.28268175095E+02  0.44777924515E+03  0.53385262250E+03  0.50400001928E-02 0. -1.
       -1    1    3    3    0  502 -0.28929790945E+03 -0.28268175095E+02 -0.14385565539E+03  0.32432517594E+03  0.50400001928E-02 0.  1.
</event>
<event>
 5   0  0.1617491E-03  0.8001986E+03  0.7818609E-02  0.9559730E-01
        1   -1    0    0  501    0  0.00000000000E+00  0.00000000000E+00  0.13206413842E+04  0.13206413842E+04  0.50400001928E-02 0. -1.
       -1   -1    0    0    0  501  0.00000000000E+00  0.00000000000E+00 -0.12121342596E+03  0.12121342607E+03  0.50400001928E-02 0.  1.
    10030    2    1    2    0    0  0.00000000000E+00  0.00000000000E+00  0.11994279582E+04  0.14418548103E+04  0.80019864215E+03 0.  0.
        1    1    3    3  502    0  0.56382619640E+02 -0.24925581508E+03  0.45006838920E+02  0.25948617829E+03  0.50400001928E-02 0.  1.
       -1    1    3    3    0  502 -0.56382619640E+02  0.24925581508E+03  0.11544211193E+04  0.11823686320E+04  0.50400001928E-02 0. -1.
</event>
<event>
 5   0  0.1617491E-03  0.7950736E+03  0.7818609E-02  0.9567175E-01
       -1   -1    0    0    0  501  0.00000000000E+00  0.00000000000E+00  0.15036410120E+03  0.15036410129E+03  0.50400001928E-02 0.  1.
        1   -1    0    0  501    0  0.00000000000E+00  0.00000000000E+00 -0.10510188734E+04  0.10510188735E+04  0.50400001928E-02 0. -1.
    10030    2    1    2    0    0  0.00000000000E+00  0.00000000000E+00 -0.90065477224E+03  0.12013829747E+04  0.79507360241E+03 0.  0.
        1    1    3    3  502    0 -0.34604877349E+03 -0.61270757786E+00 -0.74598605366E+03  0.82234136545E+03  0.50400001928E-02 0. -1.
       -1    1    3    3    0  502  0.34604877349E+03  0.61270757786E+00 -0.15466871858E+03  0.37904160930E+03  0.50400001928E-02 0.  1.
</event>
<event>
 5   0  0.2763587E-03  0.8004384E+03  0.7818609E-02  0.9559383E-01
        2   -1    0    0  501    0  0.00000000000E+00  0.00000000000E+00  0.15198403118E+04  0.15198403118E+04  0.25500000920E-02 0.  1.
       -2   -1    0    0    0  501  0.00000000000E+00  0.00000000000E+00 -0.10538963367E+03  0.10538963370E+03  0.25500000920E-02 0. -1.
    10030    2    1    2    0    0  0.00000000000E+00  0.00000000000E+00  0.14144506781E+04  0.16252299455E+04  0.80043841416E+03 0.  0.
        3    1    3    3  502    0  0.34085260239E+03 -0.19397550165E+03  0.54519271729E+03  0.67159668030E+03  0.10100000352E+00 0. -1.
       -3    1    3    3    0  502 -0.34085260239E+03  0.19397550165E+03  0.86925796083E+03  0.95363326518E+03  0.10100000352E+00 0.  1.
</event>
<event>
 5   0  0.2690809E-03  0.8007025E+03  0.7818609E-02  0.9559001E-01
        2   -1    0    0  501    0  0.00000000000E+00  0.00000000000E+00  0.55487809672E+03  0.55487809673E+03  0.25500000920E-02 0.  1.
       -2   -1    0    0    0  501  0.00000000000E+00  0.00000000000E+00 -0.28885823846E+03  0.28885823847E+03  0.25500000920E-02 0. -1.
    10030    2    1    2    0    0  0.00000000000E+00  0.00000000000E+00  0.26601985826E+03  0.84373633520E+03  0.80070246555E+03 0.  0.
        5    1    3    3  502    0  0.88177808328E+02 -0.34666899279E+03  0.32240373660E+03  0.48158174365E+03  0.46999998093E+01 0.  1.
       -5    1    3    3    0  502 -0.88177808328E+02  0.34666899279E+03 -0.56383878343E+02  0.36215459155E+03  0.46999998093E+01 0. -1.
</event>
<event>
 5   0  0.2873212E-03  0.7988652E+03  0.7818609E-02  0.9561661E-01
        2   -1    0    0  501    0  0.00000000000E+00  0.00000000000E+00  0.57473675631E+03  0.57473675632E+03  0.25500000920E-02 0. -1.
       -2   -1    0    0    0  501  0.00000000000E+00  0.00000000000E+00 -0.27759905921E+03  0.27759905922E+03  0.25500000920E-02 0.  1.
    10030    2    1    2    0    0  0.00000000000E+00  0.00000000000E+00  0.29713769710E+03  0.85233581554E+03  0.79886515220E+03 0.  0.
        2    1    3    3  502    0 -0.97912469802E+02  0.36201465035E+03  0.18706673386E+01  0.37502661001E+03  0.25500000920E-02 0. -1.
       -2    1    3    3    0  502  0.97912469802E+02 -0.36201465035E+03  0.29526702977E+03  0.47730920553E+03  0.25500000920E-02 0.  1.
</event>
<event>
 5   0  0.2873212E-03  0.8007748E+03  0.7818609E-02  0.9558896E-01
       -2   -1    0    0    0  501  0.00000000000E+00  0.00000000000E+00  0.15716365239E+03  0.15716365241E+03  0.25500000920E-02 0. -1.
        2   -1    0    0  501    0  0.00000000000E+00  0.00000000000E+00 -0.10200201157E+04  0.10200201157E+04  0.25500000920E-02 0.  1.
    10030    2    1    2    0    0  0.00000000000E+00  0.00000000000E+00 -0.86285646328E+03  0.11771837681E+04  0.80077484203E+03 0.  0.
        2    1    3    3  502    0  0.19523529853E+03  0.14746811482E+03  0.34480743310E+02  0.24708821976E+03  0.25500000920E-02 0. -1.
       -2    1    3    3    0  502 -0.19523529853E+03 -0.14746811482E+03 -0.89733720659E+03  0.93009554833E+03  0.25500000920E-02 0.  1.
</event>
<event>
 5   0  0.2763587E-03  0.7996498E+03  0.7818609E-02  0.9560524E-01
        2   -1    0    0  501    0  0.00000000000E+00  0.00000000000E+00  0.34670827851E+03  0.34670827852E+03  0.25500000920E-02 0. -1.
       -2   -1    0    0    0  501  0.00000000000E+00  0.00000000000E+00 -0.46107908772E+03  0.46107908772E+03  0.25500000920E-02 0.  1.
    10030    2    1    2    0    0  0.00000000000E+00  0.00000000000E+00 -0.11437080921E+03  0.80778736624E+03  0.79964976525E+03 0.  0.
        3    1    3    3  502    0 -0.34740336839E+03 -0.29762242833E+02 -0.25484220790E+03  0.43187897911E+03  0.10100000352E+00 0.  1.
       -3    1    3    3    0  502  0.34740336839E+03  0.29762242833E+02  0.14047139869E+03  0.37590838713E+03  0.10100000352E+00 0. -1.
</event>
<event>
 5   0  0.1637228E-03  0.7994723E+03  0.7818609E-02  0.9560781E-01
        1   -1    0    0  501    0  0.00000000000E+00  0.00000000000E+00  0.15195473138E+04  0.15195473138E+04  0.50400001928E-02 0. -1.
       -1   -1    0    0    0  501  0.00000000000E+00  0.00000000000E+00 -0.10515565493E+03  0.10515565505E+03  0.50400001928E-02 0.  1.
    10030    2    1    2    0    0  0.00000000000E+00  0.00000000000E+00  0.14143916588E+04  0.16247029688E+04  0.79947230866E+03 0.  0.
        2    1    3    3  502    0  0.34319552790E+03 -0.47997990974E+02  0.30226874540E+03  0.45984059408E+03  0.25500000920E-02 0.  1.
       -2    1    3    3    0  502 -0.34319552790E+03  0.47997990974E+02  0.11121229134E+04  0.11648623747E+04  0.25500000920E-02 0. -1.
</event>
<event>
 5   0  0.2910501E-03  0.7989603E+03  0.7818609E-02  0.9561523E-01
        2   -1    0    0  501    0  0.00000000000E+00  0.00000000000E+00  0.12664724607E+04  0.12664724607E+04  0.25500000920E-02 0. -1.
       -2   -1    0    0    0  501  0.00000000000E+00  0.00000000000E+00 -0.12600699521E+03  0.12600699524E+03  0.25500000920E-02 0.  1.
    10030    2    1    2    0    0  0.00000000000E+00  0.00000000000E+00  0.11404654655E+04  0.13924794559E+04  0.79896029767E+03 0.  0.
        1    1    3    3  502    0  0.28304642734E+03  0.18542990647E+03  0.94029853678E+03  0.99933020996E+03  0.50400001928E-02 0. -1.
       -1    1    3    3    0  502 -0.28304642734E+03 -0.18542990647E+03  0.20016692869E+03  0.39314924597E+03  0.50400001928E-02 0.  1.
</event>
<event>
 5   0  0.1617491E-03  0.8011003E+03  0.7818609E-02  0.9558426E-01
        1   -1    0    0  501    0  0.00000000000E+00  0.00000000000E+00  0.40400293214E+03  0.40400293217E+03  0.50400001928E-02 0. -1.
       -1   -1    0    0    0  501  0.00000000000E+00  0.00000000000E+00 -0.39712686868E+03  0.39712686872E+03  0.50400001928E-02 0.  1.
    10030    2    1    2    0    0  0.00000000000E+00  0.00000000000E+00  0.68760634573E+01  0.80112980089E+03  0.80110029186E+03 0.  0.
        1    1    3    3  502    0  0.19445937627E+03  0.33494833172E+03 -0.98720444448E+02  0.39968807853E+03  0.50400001928E-02 0. -1.
       -1    1    3    3    0  502 -0.19445937627E+03 -0.33494833172E+03  0.10559650791E+03  0.40144172236E+03  0.50400001928E-02 0.  1.
</event>
<event>
 5   0  0.1656051E-03  0.7960130E+03  0.7818609E-02  0.9565806E-01
        1   -1    0    0  501    0  0.00000000000E+00  0.00000000000E+00  0.42026931573E+03  0.42026931576E+03  0.50400001928E-02 0. -1.
       -1   -1    0    0    0  501  0.00000000000E+00  0.00000000000E+00 -0.37692302110E+03  0.37692302114E+03  0.50400001928E-02 0.  1.
    10030    2    1    2    0    0  0.00000000000E+00  0.00000000000E+00  0.43346294629E+02  0.79719233690E+03  0.79601301544E+03 0.  0.
        3    1    3    3  502    0  0.15631535587E+02  0.69627867943E+02  0.41381012606E+03  0.41991810574E+03  0.10100000352E+00 0. -1.
       -3    1    3    3    0  502 -0.15631535587E+02 -0.69627867943E+02 -0.37046383143E+03  0.37727423116E+03  0.10100000352E+00 0.  1.
</event>
<event>
 5   0  0.1712793E-03  0.7984153E+03  0.7818609E-02  0.9562314E-01
        1   -1    0    0  501    0  0.00000000000E+00  0.00000000000E+00  0.24664271958E+04  0.24664271958E+04  0.50400001928E-02 0.  1.
       -1   -1    0    0    0  501  0.00000000000E+00  0.00000000000E+00 -0.64614414848E+02  0.64614415044E+02  0.50400001928E-02 0. -1.
    10030    2    1    2    0    0  0.00000000000E+00  0.00000000000E+00  0.24018127809E+04  0.25310416108E+04  0.79841530615E+03 0.  0.
        4    1    3    3  502    0  0.25063979011E+03 -0.22846572964E+03  0.53331820519E+03  0.63201804950E+03  0.12699999809E+01 0. -1.
       -4    1    3    3    0  502 -0.25063979011E+03  0.22846572964E+03  0.18684945757E+04  0.18990235613E+04  0.12699999809E+01 0.  1.
</event>
<event>
 5   0  0.2768834E-03  0.8105130E+03  0.7818609E-02  0.9544923E-01
       -2   -1    0    0    0  501  0.00000000000E+00  0.00000000000E+00  0.19126669289E+03  0.19126669291E+03  0.25500000920E-02 0. -1.
        2   -1    0    0  501    0  0.00000000000E+00  0.00000000000E+00 -0.85865890198E+03  0.85865890198E+03  0.25500000920E-02 0.  1.
    10030    2    1    2    0    0  0.00000000000E+00  0.00000000000E+00 -0.66739220909E+03  0.10499255949E+04  0.81051304373E+03 0.  0.
        4    1    3    3  502    0 -0.33091105333E+03 -0.16403693524E+03 -0.11763089757E+03  0.38761950713E+03  0.12699999809E+01 0. -1.
       -4    1    3    3    0  502  0.33091105333E+03  0.16403693524E+03 -0.54976131152E+03  0.66230608777E+03  0.12699999809E+01 0.  1.
</event>
<event>
 5   0  0.1656051E-03  0.8008990E+03  0.7818609E-02  0.9558717E-01
       -1   -1    0    0    0  501  0.00000000000E+00  0.00000000000E+00  0.45989876478E+03  0.45989876481E+03  0.50400001928E-02 0.  1.
        1   -1    0    0  501    0  0.00000000000E+00  0.00000000000E+00 -0.34868498791E+03  0.34868498795E+03  0.50400001928E-02 0. -1.
    10030    2    1    2    0    0  0.00000000000E+00  0.00000000000E+00  0.11121377687E+03  0.80858375275E+03  0.80089898305E+03 0.  0.
        3    1    3    3  502    0 -0.15912486271E+03 -0.33723179028E+03  0.20300011832E+03  0.42456455404E+03  0.10100000352E+00 0.  1.
       -3    1    3    3    0  502  0.15912486271E+03  0.33723179028E+03 -0.91786341452E+02  0.38401919872E+03  0.10100000352E+00 0. -1.
</event>
<event>
 5   0  0.2690809E-03  0.8003405E+03  0.7818609E-02  0.9559524E-01
       -2   -1    0    0    0  501  0.00000000000E+00  0.00000000000E+00  0.52221950645E+03  0.52221950646E+03  0.25500000920E-02 0.  1.
        2   -1    0    0  501    0  0.00000000000E+00  0.00000000000E+00 -0.30664547240E+03  0.30664547241E+03  0.25500000920E-02 0. -1.
    10030    2    1    2    0    0  0.00000000000E+00  0.00000000000E+00  0.21557403405E+03  0.82886497887E+03  0.80034054567E+03 0.  0.
        5    1    3    3  502    0  0.35079004078E+03 -0.22020225963E+02  0.30585067020E+03  0.46594556068E+03  0.46999998093E+01 0.  1.
       -5    1    3    3    0  502 -0.35079004078E+03  0.22020225963E+02 -0.90276636151E+02  0.36291941819E+03  0.46999998093E+01 0. -1.
</event>
<event>
 5   0  0.1656051E-03  0.8006159E+03  0.7818609E-02  0.9559126E-01
       -1   -1    0    0    0  501  0.00000000000E+00  0.00000000000E+00  0.39462049166E+03  0.39462049169E+03  0.50400001928E-02 0. -1.
        1   -1    0    0  501    0  0.00000000000E+00  0.00000000000E+00 -0.40607733008E+03  0.40607733011E+03  0.50400001928E-02 0.  1.
    10030    2    1    2    0    0  0.00000000000E+00  0.00000000000E+00 -0.11456838421E+02  0.80069782180E+03  0.80061585213E+03 0.  0.
        3    1    3    3  502    0 -0.80150586577E+02 -0.36214875729E+03  0.14485454446E+03  0.39819428448E+03  0.10100000352E+00 0. -1.
       -3    1    3    3    0  502  0.80150586577E+02  0.36214875729E+03 -0.15631138288E+03  0.40250353732E+03  0.10100000352E+00 0.  1.
</event>
<event>
 5   0  0.2910501E-03  0.8016001E+03  0.7818609E-02  0.9557704E-01
       -2   -1    0    0    0  501  0.00000000000E+00  0.00000000000E+00  0.17756534496E+03  0.17756534498E+03  0.25500000920E-02 0.  1.
        2   -1    0    0  501    0  0.00000000000E+00  0.00000000000E+00 -0.90468479610E+03  0.90468479610E+03  0.25500000920E-02 0. -1.
    10030    2    1    2    0    0  0.00000000000E+00  0.00000000000E+00 -0.72711945114E+03  0.10822501411E+04  0.80160006964E+03 0.  0.
        1    1    3    3  502    0  0.29932155188E+03  0.22532417531E+03 -0.17131068614E+03  0.41196083140E+03  0.50400001928E-02 0.  1.
       -1    1    3    3    0  502 -0.29932155188E+03 -0.22532417531E+03 -0.55580876500E+03  0.67028930968E+03  0.50400001928E-02 0. -1.
</event>
<event>
 5   0  0.1656051E-03  0.7984377E+03  0.7818609E-02  0.9562281E-01
       -1   -1    0    0    0  501  0.00000000000E+00  0.00000000000E+00  0.13010560683E+03  0.13010560693E+03  0.50400001928E-02 0.  1.
        1   -1    0    0  501    0  0.00000000000E+00  0.00000000000E+00 -0.12249718148E+04  0.12249718148E+04  0.50400001928E-02 0. -1.
    10030    2    1    2    0    0  0.00000000000E+00  0.00000000000E+00 -0.10948662080E+04  0.13550774218E+04  0.79843772805E+03 0.  0.
        3    1    3    3  502    0 -0.60965544968E+02 -0.14433897795E+03  0.75739739953E+02  0.17403176905E+03  0.10100000352E+00 0.  1.
       -3    1    3    3    0  502  0.60965544968E+02  0.14433897795E+03 -0.11706059479E+04  0.11810456527E+04  0.10100000352E+00 0. -1.
</event>
<event>
 5   0  0.2690809E-03  0.7839930E+03  0.7818609E-02  0.9583480E-01
       -2   -1    0    0    0  501  0.00000000000E+00  0.00000000000E+00  0.23997449884E+03  0.23997449885E+03  0.25500000920E-02 0.  1.
        2   -1    0    0  501    0  0.00000000000E+00  0.00000000000E+00 -0.64032329906E+03  0.64032329907E+03  0.25500000920E-02 0. -1.
    10030    2    1    2    0    0  0.00000000000E+00  0.00000000000E+00 -0.40034880022E+03  0.88029779792E+03  0.78399301730E+03 0.  0.
        5    1    3    3  502    0  0.12144424475E+03  0.30380961139E+03 -0.44253647027E+03  0.55037223956E+03  0.46999998093E+01 0. -1.
       -5    1    3    3    0  502 -0.12144424475E+03 -0.30380961139E+03  0.42187670046E+02  0.32992555836E+03  0.46999998093E+01 0.  1.
</event>
<event>
 5   0  0.2763587E-03  0.7999692E+03  0.7818609E-02  0.9560062E-01
       -2   -1    0    0    0  501  0.00000000000E+00  0.00000000000E+00  0.34081544729E+03  0.34081544730E+03  0.25500000920E-02 0.  1.
        2   -1    0    0  501    0  0.00000000000E+00  0.00000000000E+00 -0.46942612601E+03  0.46942612602E+03  0.25500000920E-02 0. -1.
    10030    2    1    2    0    0  0.00000000000E+00  0.00000000000E+00 -0.12861067872E+03  0.81024157332E+03  0.79996918719E+03 0.  0.
        3    1    3    3  502    0  0.30202862886E+03 -0.26155908523E+03 -0.45269931650E+02  0.40209927211E+03  0.10100000352E+00 0.  1.
       -3    1    3    3    0  502 -0.30202862886E+03  0.26155908523E+03 -0.83340747075E+02  0.40814230121E+03  0.10100000352E+00 0. -1.
</event>
<event>
 5   0  0.1095350E-03  0.8012271E+03  0.7818609E-02  0.9558243E-01
       -3   -1    0    0    0  501  0.00000000000E+00  0.00000000000E+00  0.11467661324E+03  0.11467665772E+03  0.10100000352E+00 0.  1.
        3   -1    0    0  501    0  0.00000000000E+00  0.00000000000E+00 -0.13995109669E+04  0.13995109705E+04  0.10100000352E+00 0. -1.
    10030    2    1    2    0    0  0.00000000000E+00  0.00000000000E+00 -0.12848343536E+04  0.15141876282E+04  0.80122709467E+03 0.  0.
        5    1    3    3  502    0  0.26259122787E+03 -0.17262043233E+03 -0.11119079102E+04  0.11554710110E+04  0.46999998093E+01 0. -1.
       -5    1    3    3    0  502 -0.26259122787E+03  0.17262043233E+03 -0.17292644343E+03  0.35871661719E+03  0.46999998093E+01 0.  1.
</event>
<event>
 5   0  0.2763587E-03  0.8006334E+03  0.7818609E-02  0.9559101E-01
       -2   -1    0    0    0  501  0.00000000000E+00  0.00000000000E+00  0.40512392599E+03  0.40512392599E+03  0.25500000920E-02 0. -1.
        2   -1    0    0  501    0  0.00000000000E+00  0.00000000000E+00 -0.39556653084E+03  0.39556653085E+03  0.25500000920E-02 0.  1.
    10030    2    1    2    0    0  0.00000000000E+00  0.00000000000E+00  0.95573951436E+01  0.80069045684E+03  0.80063341416E+03 0.  0.
        3    1    3    3  502    0  0.19818876425E+03  0.23648450087E+03  0.25984539446E+03  0.40338981724E+03  0.10100000352E+00 0. -1.
       -3    1    3    3    0  502 -0.19818876425E+03 -0.23648450087E+03 -0.25028799931E+03  0.39730063961E+03  0.10100000352E+00 0.  1.
</event>
<event>
 5   0  0.1712793E-03  0.8007423E+03  0.7818609E-02  0.9558943E-01
       -1   -1    0    0    0  501  0.00000000000E+00  0.00000000000E+00  0.90529077643E+02  0.90529077784E+02  0.50400001928E-02 0.  1.
        1   -1    0    0  501    0  0.00000000000E+00  0.00000000000E+00 -0.17706692525E+04  0.17706692525E+04  0.50400001928E-02 0. -1.
    10030    2    1    2    0    0  0.00000000000E+00  0.00000000000E+00 -0.16801401748E+04  0.18611983303E+04  0.80074229156E+03 0.  0.
        4    1    3    3  502    0  0.26646862441E+03  0.15313659820E+03 -0.24366434386E+03  0.39221202285E+03  0.12699999809E+01 0. -1.
       -4    1    3    3    0  502 -0.26646862441E+03 -0.15313659820E+03 -0.14364758310E+04  0.14689863074E+04  0.12699999809E+01 0.  1.
</event>
<event>
 5   0  0.1712793E-03  0.8002321E+03  0.7818609E-02  0.9559681E-01
        1   -1    0    0  501    0  0.00000000000E+00  0.00000000000E+00  0.65123023626E+03  0.65123023628E+03  0.50400001928E-02 0.  1.
       -1   -1    0    0    0  501  0.00000000000E+00  0.00000000000E+00 -0.24583144968E+03  0.24583144973E+03  0.50400001928E-02 0. -1.
    10030    2    1    2    0    0  0.00000000000E+00  0.00000000000E+00  0.40539878658E+03  0.89706168601E+03  0.80023214904E+03 0.  0.
        4    1    3    3  502    0  0.31243425830E+03  0.22756370004E+03  0.86791617958E+02  0.39614997310E+03  0.12699999809E+01 0. -1.
       -4    1    3    3    0  502 -0.31243425830E+03 -0.22756370004E+03  0.31860716862E+03  0.50091171291E+03  0.12699999809E+01 0.  1.
</event>
<event>
 5   0  0.1617491E-03  0.7984835E+03  0.7818609E-02  0.9562215E-01
        1   -1    0    0  501    0  0.00000000000E+00  0.00000000000E+00  0.17703854966E+03  0.17703854973E+03  0.50400001928E-02 0. -1.
       -1   -1    0    0    0  501  0.00000000000E+00  0.00000000000E+00 -0.90033489670E+03  0.90033489671E+03  0.50400001928E-02 0.  1.
    10030    2    1    2    0    0  0.00000000000E+00  0.00000000000E+00 -0.72329634704E+03  0.10773734464E+04  0.79848352361E+03 0.  0.
        1    1    3    3  502    0 -0.35629278471E+03 -0.65492747200E+02 -0.13522666363E+03  0.38667828870E+03  0.50400001928E-02 0.  1.
       -1    1    3    3    0  502  0.35629278471E+03  0.65492747200E+02 -0.58806968341E+03  0.69069515775E+03  0.50400001928E-02 0. -1.
</event>
<event>
 5   0  0.1640035E-03  0.8008534E+03  0.7818609E-02  0.9558783E-01
       -1   -1    0    0    0  501  0.00000000000E+00  0.00000000000E+00  0.42345413141E+03  0.42345413144E+03  0.50400001928E-02 0.  1.
        1   -1    0    0  501    0  0.00000000000E+00  0.00000000000E+00 -0.37865154225E+03  0.37865154228E+03  0.50400001928E-02 0. -1.
    10030    2    1    2    0    0  0.00000000000E+00  0.00000000000E+00  0.44802589160E+02  0.80210567372E+03  0.80085344465E+03 0.  0.
        5    1    3    3  502    0 -0.65737945791E+02  0.93612599897E+02 -0.36191039038E+03  0.37958663970E+03  0.46999998093E+01 0. -1.
       -5    1    3    3    0  502  0.65737945791E+02 -0.93612599897E+02  0.40671297954E+03  0.42251903401E+03  0.46999998093E+01 0.  1.
</event>
<event>
 5   0  0.1656051E-03  0.7999192E+03  0.7818609E-02  0.9560134E-01
        1   -1    0    0  501    0  0.00000000000E+00  0.00000000000E+00  0.32153567944E+03  0.32153567948E+03  0.50400001928E-02 0. -1.
       -1   -1    0    0    0  501  0.00000000000E+00  0.00000000000E+00 -0.49751150644E+03  0.49751150647E+03  0.50400001928E-02 0.  1.
    10030    2    1    2    0    0  0.00000000000E+00  0.00000000000E+00 -0.17597582701E+03  0.81904718594E+03  0.79991924662E+03 0.  0.
        3    1    3    3  502    0 -0.29578183320E+03 -0.26661427046E+03 -0.12626673643E+03  0.41774796348E+03  0.10100000352E+00 0.  1.
       -3    1    3    3    0  502  0.29578183320E+03  0.26661427046E+03 -0.49709090579E+02  0.40129922246E+03  0.10100000352E+00 0. -1.
</event>
<event>
 5   0  0.1637228E-03  0.7995673E+03  0.7818609E-02  0.9560644E-01
       -1   -1    0    0    0  501  0.00000000000E+00  0.00000000000E+00  0.28969799394E+03  0.28969799398E+03  0.50400001928E-02 0. -1.
        1   -1    0    0  501    0  0.00000000000E+00  0.00000000000E+00 -0.55170204930E+03  0.55170204933E+03  0.50400001928E-02 0.  1.
    10030    2    1    2    0    0  0.00000000000E+00  0.00000000000E+00 -0.26200405537E+03  0.84140004331E+03  0.79956732540E+03 0.  0.
        2    1    3    3  502    0 -0.22844390879E+03 -0.12067093465E+03  0.19004826732E+03  0.32072798108E+03  0.25500000920E-02 0. -1.
       -2    1    3    3    0  502  0.22844390879E+03  0.12067093465E+03 -0.45205232268E+03  0.52067206223E+03  0.25500000920E-02 0.  1.
</event>
<event>
 5   0  0.1637228E-03  0.8000038E+03  0.7818609E-02  0.9560012E-01
        1   -1    0    0  501    0  0.00000000000E+00  0.00000000000E+00  0.12837277580E+04  0.12837277580E+04  0.50400001928E-02 0. -1.
       -1   -1    0    0    0  501  0.00000000000E+00  0.00000000000E+00 -0.12463821496E+03  0.12463821506E+03  0.50400001928E-02 0.  1.
    10030    2    1    2    0    0  0.00000000000E+00  0.00000000000E+00  0.11590895431E+04  0.14083659731E+04  0.80000384083E+03 0.  0.
        2    1    3    3  502    0  0.64138520072E+02 -0.34890957824E+03  0.25421925805E+03  0.43643908477E+03  0.25500000920E-02 0.  1.
       -2    1    3    3    0  502 -0.64138520072E+02  0.34890957824E+03  0.90487028500E+03  0.97192688832E+03  0.25500000920E-02 0. -1.
</event>
<event>
 5   0  0.2873212E-03  0.8004971E+03  0.7818609E-02  0.9559298E-01
       -2   -1    0    0    0  501  0.00000000000E+00  0.00000000000E+00  0.17316941294E+03  0.17316941295E+03  0.25500000920E-02 0.  1.
        2   -1    0    0  501    0  0.00000000000E+00  0.00000000000E+00 -0.92509936766E+03  0.92509936766E+03  0.25500000920E-02 0. -1.
    10030    2    1    2    0    0  0.00000000000E+00  0.00000000000E+00 -0.75192995472E+03  0.10982687806E+04  0.80049713158E+03 0.  0.
        2    1    3    3  502    0 -0.17525520084E+03 -0.14570796845E+03 -0.82737403277E+03  0.85819169630E+03  0.25500000920E-02 0. -1.
       -2    1    3    3    0  502  0.17525520084E+03  0.14570796845E+03  0.75444078051E+02  0.24007708431E+03  0.25500000920E-02 0.  1.
</event>
<event>
 5   0  0.1640035E-03  0.7998689E+03  0.7818609E-02  0.9560207E-01
       -1   -1    0    0    0  501  0.00000000000E+00  0.00000000000E+00  0.19174760865E+03  0.19174760872E+03  0.50400001928E-02 0. -1.
        1   -1    0    0  501    0  0.00000000000E+00  0.00000000000E+00 -0.83415685903E+03  0.83415685904E+03  0.50400001928E-02 0.  1.
    10030    2    1    2    0    0  0.00000000000E+00  0.00000000000E+00 -0.64240925038E+03  0.10259044678E+04  0.79986894676E+03 0.  0.
        5    1    3    3  502    0 -0.67338914461E+01  0.98848926237E+02  0.17572112808E+03  0.20178320140E+03  0.46999998093E+01 0. -1.
       -5    1    3    3    0  502  0.67338914461E+01 -0.98848926237E+02 -0.81813037846E+03  0.82412126636E+03  0.46999998093E+01 0.  1.
</event>
<event>
 5   0  0.1656051E-03  0.7991550E+03  0.7818609E-02  0.9561241E-01
        1   -1    0    0  501    0  0.00000000000E+00  0.00000000000E+00  0.13204687853E+04  0.13204687853E+04  0.50400001928E-02 0. -1.
       -1   -1    0    0    0  501  0.00000000000E+00  0.00000000000E+00 -0.12091326863E+03  0.12091326873E+03  0.50400001928E-02 0.  1.
    10030    2    1    2    0    0  0.00000000000E+00  0.00000000000E+00  0.11995555167E+04  0.14413820541E+04  0.79915504637E+03 0.  0.
        3    1    3    3  502    0  0.48150658437E+02  0.39565672532E+03  0.65077486290E+03  0.76313213966E+03  0.10100000352E+00 0. -1.
       -3    1    3    3    0  502 -0.48150658437E+02 -0.39565672532E+03  0.54878065378E+03  0.67824991439E+03  0.10100000352E+00 0.  1.
</event>
<event>
 5   0  0.2873212E-03  0.8009515E+03  0.7818609E-02  0.9558641E-01
       -2   -1    0    0    0  501  0.00000000000E+00  0.00000000000E+00  0.14021232216E+03  0.14021232218E+03  0.25500000920E-02 0.  1.
        2   -1    0    0  501    0  0.00000000000E+00  0.00000000000E+00 -0.11438427222E+04  0.11438427222E+04  0.25500000920E-02 0. -1.
    10030    2    1    2    0    0  0.00000000000E+00  0.00000000000E+00 -0.10036304001E+04  0.12840550444E+04  0.80095154481E+03 0.  0.
        2    1    3    3  502    0  0.80150780340E+02  0.32750044448E+03 -0.84826200586E+03  0.91281384702E+03  0.25500000920E-02 0. -1.
       -2    1    3    3    0  502 -0.80150780340E+02 -0.32750044448E+03 -0.15536839423E+03  0.37124119741E+03  0.25500000920E-02 0.  1.
</event>
<event>
 5   0  0.1637228E-03  0.7955126E+03  0.7818609E-02  0.9566535E-01
        1   -1    0    0  501    0  0.00000000000E+00  0.00000000000E+00  0.64651055986E+03  0.64651055988E+03  0.50400001928E-02 0.  1.
       -1   -1    0    0    0  501  0.00000000000E+00  0.00000000000E+00 -0.24471382754E+03  0.24471382759E+03  0.50400001928E-02 0. -1.
    10030    2    1    2    0    0  0.00000000000E+00  0.00000000000E+00  0.40179673232E+03  0.89122438747E+03  0.79551259872E+03 0.  0.
        2    1    3    3  502    0 -0.17256936149E+03  0.12733460870E+03  0.57618835461E+03  0.61480672337E+03  0.25500000920E-02 0.  1.
       -2    1    3    3    0  502  0.17256936149E+03 -0.12733460870E+03 -0.17439162229E+03  0.27641766411E+03  0.25500000920E-02 0. -1.
</event>
<event>
 5   0  0.1640035E-03  0.7997677E+03  0.7818609E-02  0.9560353E-01
        1   -1    0    0  501    0  0.00000000000E+00  0.00000000000E+00  0.49588906105E+03  0.49588906108E+03  0.50400001928E-02 0. -1.
       -1   -1    0    0    0  501  0.00000000000E+00  0.00000000000E+00 -0.32246545634E+03  0.32246545638E+03  0.50400001928E-02 0.  1.
    10030    2    1    2    0    0  0.00000000000E+00  0.00000000000E+00  0.17342360472E+03  0.81835451745E+03  0.79976769725E+03 0.  0.
        5    1    3    3  502    0 -0.44612935841E+02  0.22741067224E+03  0.42013598328E+03  0.47983566181E+03  0.46999998093E+01 0. -1.
       -5    1    3    3    0  502  0.44612935841E+02 -0.22741067224E+03 -0.24671237856E+03  0.33851885565E+03  0.46999998093E+01 0.  1.
</event>
<event>
 5   0  0.2910501E-03  0.7995260E+03  0.7818609E-02  0.9560703E-01
       -2   -1    0    0    0  501  0.00000000000E+00  0.00000000000E+00  0.54544871599E+03  0.54544871600E+03  0.25500000920E-02 0.  1.
        2   -1    0    0  501    0  0.00000000000E+00  0.00000000000E+00 -0.29298897997E+03  0.29298897998E+03  0.25500000920E-02 0. -1.
    10030    2    1    2    0    0  0.00000000000E+00  0.00000000000E+00  0.25245973602E+03  0.83843769598E+03  0.79952601692E+03 0.  0.
        1    1    3    3  502    0 -0.12129664668E+03  0.12484225401E+03 -0.25116257295E+03  0.30558321773E+03  0.50400001928E-02 0. -1.
       -1    1    3    3    0  502  0.12129664668E+03 -0.12484225401E+03  0.50362230896E+03  0.53285447825E+03  0.50400001928E-02 0.  1.
</event>
<event>
 5   0  0.2873212E-03  0.7999220E+03  0.7818609E-02  0.9560130E-01
       -2   -1    0    0    0  501  0.00000000000E+00  0.00000000000E+00  0.18900586541E+03  0.18900586543E+03  0.25500000920E-02 0.  1.
        2   -1    0    0  501    0  0.00000000000E+00  0.00000000000E+00 -0.84636955727E+03  0.84636955728E+03  0.25500000920E-02 0. -1.
    10030    2    1    2    0    0  0.00000000000E+00  0.00000000000E+00 -0.65736369186E+03  0.10353754227E+04  0.79992202281E+03 0.  0.
        2    1    3    3  502    0 -0.14544422290E+02  0.39853518837E+03 -0.28927388301E+03  0.49266744969E+03  0.25500000920E-02 0. -1.
       -2    1    3    3    0  502  0.14544422290E+02 -0.39853518837E+03 -0.36808980885E+03  0.54270797302E+03  0.25500000920E-02 0.  1.
</event>
<event>
 5   0  0.2768834E-03  0.7998667E+03  0.7818609E-02  0.9560210E-01
       -2   -1    0    0    0  501  0.00000000000E+00  0.00000000000E+00  0.27522220445E+03  0.27522220446E+03  0.25500000920E-02 0. -1.
        2   -1    0    0  501    0  0.00000000000E+00  0.00000000000E+00 -0.58115471276E+03  0.58115471277E+03  0.25500000920E-02 0.  1.
    10030    2    1    2    0    0  0.00000000000E+00  0.00000000000E+00 -0.30593250831E+03  0.85637691723E+03  0.79986669184E+03 0.  0.
        4    1    3    3  502    0 -0.39989132264E+02  0.32834880101E+03 -0.39364342187E+03  0.51416808760E+03  0.12699999809E+01 0.  1.
       -4    1    3    3    0  502  0.39989132264E+02 -0.32834880101E+03  0.87710913554E+02  0.34220882963E+03  0.12699999809E+01 0. -1.
</event>
<event>
 5   0  0.2690809E-03  0.7998167E+03  0.7818609E-02  0.9560282E-01
        2   -1    0    0  501    0  0.00000000000E+00  0.00000000000E+00  0.15346621694E+04  0.15346621694E+04  0.25500000920E-02 0.  1.
       -2   -1    0    0    0  501  0.00000000000E+00  0.00000000000E+00 -0.10420970952E+03  0.10420970955E+03  0.25500000920E-02 0. -1.
    10030    2    1    2    0    0  0.00000000000E+00  0.00000000000E+00  0.14304524599E+04  0.16388718790E+04  0.79981672628E+03 0.  0.
        5    1    3    3  502    0 -0.28371523567E+02  0.38430274209E+03  0.93411207003E+03  0.10104855221E+04  0.46999998093E+01 0.  1.
       -5    1    3    3    0  502  0.28371523567E+02 -0.38430274209E+03  0.49634038988E+03  0.62838635692E+03  0.46999998093E+01 0. -1.
</event>
<event>
 5   0  0.2768834E-03  0.8013533E+03  0.7818609E-02  0.9558060E-01
        2   -1    0    0  501    0  0.00000000000E+00  0.00000000000E+00  0.99382158916E+03  0.99382158916E+03  0.25500000920E-02 0. -1.
       -2   -1    0    0    0  501  0.00000000000E+00  0.00000000000E+00 -0.16153982110E+03  0.16153982112E+03  0.25500000920E-02 0.  1.
    10030    2    1    2    0    0  0.00000000000E+00  0.00000000000E+00  0.83228176806E+03  0.11553614103E+04  0.80135325976E+03 0.  0.
        4    1    3    3  502    0 -0.28068771130E+03 -0.23270107935E+03  0.17659656330E+03  0.40512139252E+03  0.12699999809E+01 0.  1.
       -4    1    3    3    0  502  0.28068771130E+03  0.23270107935E+03  0.65568520476E+03  0.75024001776E+03  0.12699999809E+01 0. -1.
</event>
<event>
 5   0  0.2910501E-03  0.8002514E+03  0.7818609E-02  0.9559653E-01
        2   -1    0    0  501    0  0.00000000000E+00  0.00000000000E+00  0.35839077206E+03  0.35839077207E+03  0.25500000920E-02 0.  1.
       -2   -1    0    0    0  501  0.00000000000E+00  0.00000000000E+00 -0.44672066928E+03  0.44672066928E+03  0.25500000920E-02 0. -1.
    10030    2    1    2    0    0  0.00000000000E+00  0.00000000000E+00 -0.88329897210E+02  0.80511144136E+03  0.80025137442E+03 0.  0.
        1    1    3    3  502    0  0.37820419881E+03 -0.98445036044E+02  0.42209374438E+02  0.39307947344E+03  0.50400001928E-02 0.  1.
       -1    1    3    3    0  502 -0.37820419881E+03  0.98445036044E+02 -0.13053927165E+03  0.41203196792E+03  0.50400001928E-02 0. -1.
</event>
<event>
 5   0  0.1637228E-03  0.7983878E+03  0.7818609E-02  0.9562354E-01
        1   -1    0    0  501    0  0.00000000000E+00  0.00000000000E+00  0.91373785881E+03  0.91373785882E+03  0.50400001928E-02 0. -1.
       -1   -1    0    0    0  501  0.00000000000E+00  0.00000000000E+00 -0.17439986203E+03  0.17439986210E+03  0.50400001928E-02 0.  1.
    10030    2    1    2    0    0  0.00000000000E+00  0.00000000000E+00  0.73933799678E+03  0.10881377209E+04  0.79838776683E+03 0.  0.
        2    1    3    3  502    0 -0.32816938472E+03 -0.59660711532E+02  0.66858419638E+03  0.74716756703E+03  0.25500000920E-02 0. -1.
       -2    1    3    3    0  502  0.32816938472E+03  0.59660711532E+02  0.70753800399E+02  0.34097015390E+03  0.25500000920E-02 0.  1.
</event>
<event>
 5   0  0.2873212E-03  0.7989446E+03  0.7818609E-02  0.9561546E-01
        2   -1    0    0  501    0  0.00000000000E+00  0.00000000000E+00  0.21601570526E+04  0.21601570526E+04  0.25500000920E-02 0.  1.
       -2   -1    0    0    0  501  0.00000000000E+00  0.00000000000E+00 -0.73873387959E+02  0.73873388003E+02  0.25500000920E-02 0. -1.
    10030    2    1    2    0    0  0.00000000000E+00  0.00000000000E+00  0.20862836647E+04  0.22340304406E+04  0.79894460397E+03 0.  0.
        2    1    3    3  502    0 -0.24127583595E+03  0.30803407261E+03  0.81806551615E+03  0.90682424296E+03  0.25500000920E-02 0.  1.
       -2    1    3    3    0  502  0.24127583595E+03 -0.30803407261E+03  0.12682181485E+04  0.13272061977E+04  0.25500000920E-02 0. -1.
</event>
<event>
 5   0  0.2763587E-03  0.7991766E+03  0.7818609E-02  0.9561210E-01
       -2   -1    0    0    0  501  0.00000000000E+00  0.00000000000E+00  0.41502834666E+03  0.41502834667E+03  0.25500000920E-02 0. -1.
        2   -1    0    0  501    0  0.00000000000E+00  0.00000000000E+00 -0.38472268297E+03  0.38472268298E+03  0.25500000920E-02 0.  1.
    10030    2    1    2    0    0  0.00000000000E+00  0.00000000000E+00  0.30305663683E+02  0.79975102965E+03  0.79917662389E+03 0.  0.
        3    1    3    3  502    0  0.37462530454E+03  0.11369829924E+03  0.95206496168E+02  0.40290905819E+03  0.10100000352E+00 0. -1.
       -3    1    3    3    0  502 -0.37462530454E+03 -0.11369829924E+03 -0.64900832485E+02  0.39684197146E+03  0.10100000352E+00 0.  1.
</event>
<event>
 5   0  0.1095350E-03  0.8007316E+03  0.7818609E-02  0.9558959E-01
       -4   -1    0    0    0  501  0.00000000000E+00  0.00000000000E+00  0.27946777930E+03  0.27947066494E+03  0.12699999809E+01 0. -1.
        4   -1    0    0  501    0  0.00000000000E+00  0.00000000000E+00 -0.57355788519E+03  0.57355929124E+03  0.12699999809E+01 0.  1.
    10030    2    1    2    0    0  0.00000000000E+00  0.00000000000E+00 -0.29409010590E+03  0.85302995619E+03  0.80073161282E+03 0.  0.
        2    1    3    3  502    0  0.23324673261E+03 -0.29845176537E+03 -0.28518822262E+03  0.47414113601E+03  0.25500000920E-02 0.  1.
       -2    1    3    3    0  502 -0.23324673261E+03  0.29845176537E+03 -0.89018832776E+01  0.37888882018E+03  0.25500000920E-02 0. -1.
</event>
<event>
 5   0  0.2910501E-03  0.7991993E+03  0.7818609E-02  0.9561177E-01
        2   -1    0    0  501    0  0.00000000000E+00  0.00000000000E+00  0.15143979151E+04  0.15143979151E+04  0.25500000920E-02 0. -1.
       -2   -1    0    0    0  501  0.00000000000E+00  0.00000000000E+00 -0.10544117264E+03  0.10544117267E+03  0.25500000920E-02 0.  1.
    10030    2    1    2    0    0  0.00000000000E+00  0.00000000000E+00  0.14089567424E+04  0.16198390877E+04  0.79919932943E+03 0.  0.
        1    1    3    3  502    0  0.68875558151E+02  0.28451614969E+02 -0.91232881056E+02  0.11779972630E+03  0.50400001928E-02 0.  1.
       -1    1    3    3    0  502 -0.68875558151E+02 -0.28451614969E+02  0.15001896235E+04  0.15020393614E+04  0.50400001928E-02 0. -1.
</event>
<event>
 5   0  0.1617491E-03  0.8005329E+03  0.7818609E-02  0.9559246E-01
        1   -1    0    0  501    0  0.00000000000E+00  0.00000000000E+00  0.20952121734E+04  0.20952121734E+04  0.50400001928E-02 0. -1.
       -1   -1    0    0    0  501  0.00000000000E+00  0.00000000000E+00 -0.76466352107E+02  0.76466352274E+02  0.50400001928E-02 0.  1.
    10030    2    1    2    0    0  0.00000000000E+00  0.00000000000E+00  0.20187458213E+04  0.21716785257E+04  0.80053290246E+03 0.  0.
        1    1    3    3  502    0  0.34503908909E+03 -0.15825801155E+03  0.66499093869E+03  0.76570916136E+03  0.50400001928E-02 0.  1.
       -1    1    3    3    0  502 -0.34503908909E+03  0.15825801155E+03  0.13537548826E+04  0.14059693644E+04  0.50400001928E-02 0. -1.
</event>
<event>
 5   0  0.2873212E-03  0.8000890E+03  0.7818609E-02  0.9559888E-01
        2   -1    0    0  501    0  0.00000000000E+00  0.00000000000E+00  0.11685064135E+04  0.11685064135E+04  0.25500000920E-02 0.  1.
       -2   -1    0    0    0  501  0.00000000000E+00  0.00000000000E+00 -0.13695740672E+03  0.13695740675E+03  0.25500000920E-02 0. -1.
    10030    2    1    2    0    0  0.00000000000E+00  0.00000000000E+00  0.10315490068E+04  0.13054638203E+04  0.80008901543E+03 0.  0.
        2    1    3    3  502    0 -0.16126316502E+03  0.23271865923E+03  0.97690446094E+03  0.10171067341E+04  0.25500000920E-02 0.  1.
       -2    1    3    3    0  502  0.16126316502E+03 -0.23271865923E+03  0.54644545867E+02  0.28835708617E+03  0.25500000920E-02 0. -1.
</event>
<event>
 5   0  0.1656051E-03  0.8007378E+03  0.7818609E-02  0.9558950E-01
       -1   -1    0    0    0  501  0.00000000000E+00  0.00000000000E+00  0.21247977914E+03  0.21247977920E+03  0.50400001928E-02 0. -1.
        1   -1    0    0  501    0  0.00000000000E+00  0.00000000000E+00 -0.75440248331E+03  0.75440248333E+03  0.50400001928E-02 0.  1.
    10030    2    1    2    0    0  0.00000000000E+00  0.00000000000E+00 -0.54192270417E+03  0.96688226253E+03  0.80073784243E+03 0.  0.
        3    1    3    3  502    0  0.46431271530E+02  0.17543721542E+02  0.20875027363E+03  0.21457010994E+03  0.10100000352E+00 0. -1.
       -3    1    3    3    0  502 -0.46431271530E+02 -0.17543721542E+02 -0.75067297779E+03  0.75231215259E+03  0.10100000352E+00 0.  1.
</event>
<event>
 5   0  0.2690809E-03  0.8002323E+03  0.7818609E-02  0.9559681E-01
       -2   -1    0    0    0  501  0.00000000000E+00  0.00000000000E+00  0.26544935958E+03  0.26544935959E+03  0.25500000920E-02 0.  1.
        2   -1    0    0  501    0  0.00000000000E+00  0.00000000000E+00 -0.60310159614E+03  0.60310159614E+03  0.25500000920E-02 0. -1.
    10030    2    1    2    0    0  0.00000000000E+00  0.00000000000E+00 -0.33765223656E+03  0.86855095573E+03  0.80023229743E+03 0.  0.
        5    1    3    3  502    0 -0.19175064932E+03  0.33635798235E+03 -0.59392481221E+02  0.39173276685E+03  0.46999998093E+01 0. -1.
       -5    1    3    3    0  502  0.19175064932E+03 -0.33635798235E+03 -0.27825975534E+03  0.47681818888E+03  0.46999998093E+01 0.  1.
</event>
<event>
 5   0  0.1637228E-03  0.7849932E+03  0.7818609E-02  0.9581997E-01
        1   -1    0    0  501    0  0.00000000000E+00  0.00000000000E+00  0.36115613651E+03  0.36115613655E+03  0.50400001928E-02 0. -1.
       -1   -1    0    0    0  501  0.00000000000E+00  0.00000000000E+00 -0.42655669021E+03  0.42655669024E+03  0.50400001928E-02 0.  1.
    10030    2    1    2    0    0  0.00000000000E+00  0.00000000000E+00 -0.65400553693E+02  0.78771282678E+03  0.78499316243E+03 0.  0.
        2    1    3    3  502    0 -0.48154793984E+02  0.38056411358E+03 -0.11608834890E+03  0.40077978178E+03  0.25500000920E-02 0.  1.
       -2    1    3    3    0  502  0.48154793984E+02 -0.38056411358E+03  0.50687795211E+02  0.38693304500E+03  0.25500000920E-02 0. -1.
</event>
<event>
 5   0  0.2768834E-03  0.8006402E+03  0.7818609E-02  0.9559091E-01
       -2   -1    0    0    0  501  0.00000000000E+00  0.00000000000E+00  0.20708520186E+03  0.20708520187E+03  0.25500000920E-02 0. -1.
        2   -1    0    0  501    0  0.00000000000E+00  0.00000000000E+00 -0.77386584207E+03  0.77386584207E+03  0.25500000920E-02 0.  1.
    10030    2    1    2    0    0  0.00000000000E+00  0.00000000000E+00 -0.56678064021E+03  0.98095104394E+03  0.80064015419E+03 0.  0.
        4    1    3    3  502    0  0.15341550187E+03 -0.41940190545E+02  0.16671205349E+03  0.23041227718E+03  0.12699999809E+01 0. -1.
       -4    1    3    3    0  502 -0.15341550187E+03  0.41940190545E+02 -0.73349269370E+03  0.75053876676E+03  0.12699999809E+01 0.  1.
</event>
<event>
 5   0  0.1617491E-03  0.7986943E+03  0.7818609E-02  0.9561909E-01
       -1   -1    0    0    0  501  0.00000000000E+00  0.00000000000E+00  0.48727183078E+03  0.48727183081E+03  0.50400001928E-02 0. -1.
        1   -1    0    0  501    0  0.00000000000E+00  0.00000000000E+00 -0.32728787632E+03  0.32728787636E+03  0.50400001928E-02 0.  1.
    10030    2    1    2    0    0  0.00000000000E+00  0.00000000000E+00  0.15998395446E+03  0.81455970717E+03  0.79869434132E+03 0.  0.
        1    1    3    3  502    0 -0.17922437372E+03  0.14541624721E+03  0.41236583955E+03  0.47255988694E+03  0.50400001928E-02 0. -1.
       -1    1    3    3    0  502  0.17922437372E+03 -0.14541624721E+03 -0.25238188510E+03  0.34199982023E+03  0.50400001928E-02 0.  1.
</event>
<event>
 5   0  0.2910501E-03  0.8000282E+03  0.7818609E-02  0.9559976E-01
       -2   -1    0    0    0  501  0.00000000000E+00  0.00000000000E+00  0.91824390369E+02  0.91824390404E+02  0.25500000920E-02 0. -1.
        2   -1    0    0  501    0  0.00000000000E+00  0.00000000000E+00 -0.17425794486E+04  0.17425794486E+04  0.25500000920E-02 0.  1.
    10030    2    1    2    0    0  0.00000000000E+00  0.00000000000E+00 -0.16507550582E+04  0.18344038390E+04  0.80002823842E+03 0.  0.
        1    1    3    3  502    0 -0.52495367517E+02 -0.27428540548E+03 -0.14820632708E+04  0.15081444844E+04  0.50400001928E-02 0.  1.
       -1    1    3    3    0  502  0.52495367517E+02  0.27428540548E+03 -0.16869178744E+03  0.32625935457E+03  0.50400001928E-02 0. -1.
</event>
<event>
 5   0  0.1712793E-03  0.8043453E+03  0.7818609E-02  0.9553749E-01
       -1   -1    0    0    0  501  0.00000000000E+00  0.00000000000E+00  0.34117434799E+03  0.34117434803E+03  0.50400001928E-02 0.  1.
        1   -1    0    0  501    0  0.00000000000E+00  0.00000000000E+00 -0.47407673851E+03  0.47407673854E+03  0.50400001928E-02 0. -1.
    10030    2    1    2    0    0  0.00000000000E+00  0.00000000000E+00 -0.13290239052E+03  0.81525108656E+03  0.80434525469E+03 0.  0.
        4    1    3    3  502    0  0.58568504336E+02 -0.30171841643E+03  0.19644359924E+03  0.36476838280E+03  0.12699999809E+01 0.  1.
       -4    1    3    3    0  502 -0.58568504336E+02  0.30171841643E+03 -0.32934598977E+03  0.45048270376E+03  0.12699999809E+01 0. -1.
</event>
<event>
 5   0  0.1095350E-03  0.8004358E+03  0.7818609E-02  0.9559386E-01
        3   -1    0    0  501    0  0.00000000000E+00  0.00000000000E+00  0.37610516025E+03  0.37610517381E+03  0.10100000352E+00 0. -1.
       -3   -1    0    0    0  501  0.00000000000E+00  0.00000000000E+00 -0.42587653689E+03  0.42587654887E+03  0.10100000352E+00 0.  1.
    10030    2    1    2    0    0  0.00000000000E+00  0.00000000000E+00 -0.49771376644E+02  0.80198172268E+03  0.80043581478E+03 0.  0.
        4    1    3    3  502    0 -0.17302724571E+03  0.34179818827E+03  0.91132297974E+02  0.39379072856E+03  0.12699999809E+01 0. -1.
       -4    1    3    3    0  502  0.17302724571E+03 -0.34179818827E+03 -0.14090367462E+03  0.40819099412E+03  0.12699999809E+01 0.  1.
</event>
<event>
 5   0  0.2763587E-03  0.7968306E+03  0.7818609E-02  0.9564616E-01
       -2   -1    0    0    0  501  0.00000000000E+00  0.00000000000E+00  0.16479986627E+03  0.16479986629E+03  0.25500000920E-02 0.  1.
        2   -1    0    0  501    0  0.00000000000E+00  0.00000000000E+00 -0.96319709772E+03  0.96319709773E+03  0.25500000920E-02 0. -1.
    10030    2    1    2    0    0  0.00000000000E+00  0.00000000000E+00 -0.79839723146E+03  0.11279969640E+04  0.79683060410E+03 0.  0.
        3    1    3    3  502    0  0.19506299705E+03  0.31983839463E+03 -0.20723632762E+03  0.42812740765E+03  0.10100000352E+00 0.  1.
       -3    1    3    3    0  502 -0.19506299705E+03 -0.31983839463E+03 -0.59116090383E+03  0.69986955636E+03  0.10100000352E+00 0. -1.
</event>
<event>
 5   0  0.1656051E-03  0.8004870E+03  0.7818609E-02  0.9559312E-01
        1   -1    0    0  501    0  0.00000000000E+00  0.00000000000E+00  0.66529559506E+03  0.66529559508E+03  0.50400001928E-02 0.  1.
       -1   -1    0    0    0  501  0.00000000000E+00  0.00000000000E+00 -0.24078749491E+03  0.24078749496E+03  0.50400001928E-02 0. -1.
    10030    2    1    2    0    0  0.00000000000E+00  0.00000000000E+00  0.42450810015E+03  0.90608309004E+03  0.80048700111E+03 0.  0.
        3    1    3    3  502    0 -0.70125552947E+02 -0.19264604627E+03  0.60135090906E+03  0.63533693294E+03  0.10100000352E+00 0.  1.
       -3    1    3    3    0  502  0.70125552947E+02  0.19264604627E+03 -0.17684280891E+03  0.27074615710E+03  0.10100000352E+00 0. -1.
</event>
<event>
 5   0  0.2910501E-03  0.7989907E+03  0.7818609E-02  0.9561479E-01
        2   -1    0    0  501    0  0.00000000000E+00  0.00000000000E+00  0.14428521232E+03  0.14428521234E+03  0.25500000920E-02 0.  1.
       -2   -1    0    0    0  501  0.00000000000E+00  0.00000000000E+00 -0.11061184337E+04  0.11061184337E+04  0.25500000920E-02 0. -1.
    10030    2    1    2    0    0  0.00000000000E+00  0.00000000000E+00 -0.96183322140E+03  0.12504036461E+04  0.79899069599E+03 0.  0.
        1    1    3    3  502    0 -0.17292402300E+02  0.10155657523E+03 -0.10849737006E+04  0.10898535205E+04  0.50400001928E-02 0. -1.
       -1    1    3    3    0  502  0.17292402300E+02 -0.10155657523E+03  0.12314047923E+03  0.16055012551E+03  0.50400001928E-02 0.  1.
</event>
<event>
 5   0  0.1712793E-03  0.8028306E+03  0.7818609E-02  0.9555929E-01
       -1   -1    0    0    0  501  0.00000000000E+00  0.00000000000E+00  0.41612799407E+03  0.41612799410E+03  0.50400001928E-02 0.  1.
        1   -1    0    0  501    0  0.00000000000E+00  0.00000000000E+00 -0.38722281615E+03  0.38722281618E+03  0.50400001928E-02 0. -1.
    10030    2    1    2    0    0  0.00000000000E+00  0.00000000000E+00  0.28905177920E+02  0.80335081028E+03  0.80283062664E+03 0.  0.
        4    1    3    3  502    0  0.27934989799E+03  0.14872725323E+03  0.26154674699E+03  0.41056604234E+03  0.12699999809E+01 0. -1.
       -4    1    3    3    0  502 -0.27934989799E+03 -0.14872725323E+03 -0.23264156907E+03  0.39278476794E+03  0.12699999809E+01 0.  1.
</event>
<event>
 5   0  0.2763587E-03  0.7994012E+03  0.7818609E-02  0.9560884E-01
       -2   -1    0    0    0  501  0.00000000000E+00  0.00000000000E+00  0.11229782692E+03  0.11229782694E+03  0.25500000920E-02 0.  1.
        2   -1    0    0  501    0  0.00000000000E+00  0.00000000000E+00 -0.14226507500E+04  0.14226507500E+04  0.25500000920E-02 0. -1.
    10030    2    1    2    0    0  0.00000000000E+00  0.00000000000E+00 -0.13103529230E+04  0.15349485769E+04  0.79940124519E+03 0.  0.
        3    1    3    3  502    0  0.27486222731E+03 -0.12868384110E+03 -0.15575328061E+03  0.34112735098E+03  0.10100000352E+00 0.  1.
       -3    1    3    3    0  502 -0.27486222731E+03  0.12868384110E+03 -0.11545996424E+04  0.11938212259E+04  0.10100000352E+00 0. -1.
</event>
<event>
 5   0  0.1712793E-03  0.8006011E+03  0.7818609E-02  0.9559147E-01
       -1   -1    0    0    0  501  0.00000000000E+00  0.00000000000E+00  0.15170910249E+03  0.15170910258E+03  0.50400001928E-02 0.  1.
        1   -1    0    0  501    0  0.00000000000E+00  0.00000000000E+00 -0.10562353585E+04  0.10562353585E+04  0.50400001928E-02 0. -1.
    10030    2    1    2    0    0  0.00000000000E+00  0.00000000000E+00 -0.90452625601E+03  0.12079444611E+04  0.80060106999E+03 0.  0.
        4    1    3    3  502    0  0.28141424841E+03 -0.77990621385E+01 -0.88163212527E+03  0.92548993608E+03  0.12699999809E+01 0. -1.
       -4    1    3    3    0  502 -0.28141424841E+03  0.77990621385E+01 -0.22894130747E+02  0.28245452502E+03  0.12699999809E+01 0.  1.
</event>
<event>
 5   0  0.1640035E-03  0.7999226E+03  0.7818609E-02  0.9560129E-01
       -1   -1    0    0    0  501  0.00000000000E+00  0.00000000000E+00  0.60643481991E+03  0.60643481993E+03  0.50400001928E-02 0.  1.
        1   -1    0    0  501    0  0.00000000000E+00  0.00000000000E+00 -0.26378602357E+03  0.26378602362E+03  0.50400001928E-02 0. -1.
    10030    2    1    2    0    0  0.00000000000E+00  0.00000000000E+00  0.34264879634E+03  0.87022084355E+03  0.79992257057E+03 0.  0.
        5    1    3    3  502    0 -0.17883119384E+03  0.22269584703E+02  0.55973065801E+03  0.58804509165E+03  0.46999998093E+01 0.  1.
       -5    1    3    3    0  502  0.17883119384E+03 -0.22269584703E+02 -0.21708186167E+03  0.28217575190E+03  0.46999998093E+01 0. -1.
</event>
<event>
 5   0  0.1712793E-03  0.7998641E+03  0.7818609E-02  0.9560214E-01
       -1   -1    0    0    0  501  0.00000000000E+00  0.00000000000E+00  0.65667382994E+03  0.65667382996E+03  0.50400001928E-02 0.  1.
        1   -1    0    0  501    0  0.00000000000E+00  0.00000000000E+00 -0.24356939745E+03  0.24356939750E+03  0.50400001928E-02 0. -1.
    10030    2    1    2    0    0  0.00000000000E+00  0.00000000000E+00  0.41310443249E+03  0.90024322746E+03  0.79986411123E+03 0.  0.
        4    1    3    3  502    0  0.13520749300E+03  0.34890164345E+03  0.36544493005E+03  0.52303444702E+03  0.12699999809E+01 0.  1.
       -4    1    3    3    0  502 -0.13520749300E+03 -0.34890164345E+03  0.47659502442E+02  0.37720878044E+03  0.12699999809E+01 0. -1.
</event>
<event>
 5   0  0.1656051E-03  0.8009555E+03  0.7818609E-02  0.9558635E-01
       -1   -1    0    0    0  501  0.00000000000E+00  0.00000000000E+00  0.38342033070E+03  0.38342033073E+03  0.50400001928E-02 0. -1.
        1   -1    0    0  501    0  0.00000000000E+00  0.00000000000E+00 -0.41829402461E+03  0.41829402464E+03  0.50400001928E-02 0.  1.
    10030    2    1    2    0    0  0.00000000000E+00  0.00000000000E+00 -0.34873693915E+02  0.80171435537E+03  0.80095551255E+03 0.  0.
        3    1    3    3  502    0 -0.59589088629E+02  0.25136434033E+03 -0.32374561847E+03  0.41418127282E+03  0.10100000352E+00 0.  1.
       -3    1    3    3    0  502  0.59589088629E+02 -0.25136434033E+03  0.28887192455E+03  0.38753308255E+03  0.10100000352E+00 0. -1.
</event>
<event>
 5   0  0.2873212E-03  0.7998950E+03  0.7818609E-02  0.9560169E-01
        2   -1    0    0  501    0  0.00000000000E+00  0.00000000000E+00  0.20617558965E+04  0.20617558965E+04  0.25500000920E-02 0. -1.
       -2   -1    0    0    0  501  0.00000000000E+00  0.00000000000E+00 -0.77583380347E+02  0.77583380389E+02  0.25500000920E-02 0.  1.
    10030    2    1    2    0    0  0.00000000000E+00  0.00000000000E+00  0.19841725162E+04  0.21393392769E+04  0.79989497298E+03 0.  0.
        2    1    3    3  502    0 -0.22065877146E+03  0.22798810361E+03  0.16433159762E+04  0.16736655181E+04  0.25500000920E-02 0. -1.
       -2    1    3    3    0  502  0.22065877146E+03 -0.22798810361E+03  0.34085654000E+03  0.46567375884E+03  0.25500000920E-02 0.  1.
</event>
<event>
 5   0  0.2768834E-03  0.7974924E+03  0.7818609E-02  0.9563654E-01
       -2   -1    0    0    0  501  0.00000000000E+00  0.00000000000E+00  0.19214454866E+03  0.19214454868E+03  0.25500000920E-02 0. -1.
        2   -1    0    0  501    0  0.00000000000E+00  0.00000000000E+00 -0.82749427548E+03  0.82749427549E+03  0.25500000920E-02 0.  1.
    10030    2    1    2    0    0  0.00000000000E+00  0.00000000000E+00 -0.63534972682E+03  0.10196388242E+04  0.79749235506E+03 0.  0.
        4    1    3    3  502    0  0.13479583492E+03  0.37526478459E+03 -0.31534328263E+03  0.50836657489E+03  0.12699999809E+01 0. -1.
       -4    1    3    3    0  502 -0.13479583492E+03 -0.37526478459E+03 -0.32000644419E+03  0.51127224928E+03  0.12699999809E+01 0.  1.
</event>
<event>
 5   0  0.2690809E-03  0.8001476E+03  0.7818609E-02  0.9559804E-01
       -2   -1    0    0    0  501  0.00000000000E+00  0.00000000000E+00  0.43093436940E+03  0.43093436941E+03  0.25500000920E-02 0.  1.
        2   -1    0    0  501    0  0.00000000000E+00  0.00000000000E+00 -0.37142322801E+03  0.37142322802E+03  0.25500000920E-02 0. -1.
    10030    2    1    2    0    0  0.00000000000E+00  0.00000000000E+00  0.59511141386E+02  0.80235759743E+03  0.80014757277E+03 0.  0.
        5    1    3    3  502    0  0.18157738464E+03 -0.79669682917E+02 -0.31865097242E+03  0.37533736453E+03  0.46999998093E+01 0. -1.
       -5    1    3    3    0  502 -0.18157738464E+03  0.79669682917E+02  0.37816211381E+03  0.42702023290E+03  0.46999998093E+01 0.  1.
</event>
<event>
 5   0  0.2690809E-03  0.7983711E+03  0.7818609E-02  0.9562378E-01
        2   -1    0    0  501    0  0.00000000000E+00  0.00000000000E+00  0.70582543256E+03  0.70582543257E+03  0.25500000920E-02 0. -1.
       -2   -1    0    0    0  501  0.00000000000E+00  0.00000000000E+00 -0.22576275851E+03  0.22576275853E+03  0.25500000920E-02 0.  1.
    10030    2    1    2    0    0  0.00000000000E+00  0.00000000000E+00  0.48006267405E+03  0.93158819110E+03  0.79837108338E+03 0.  0.
        5    1    3    3  502    0  0.11525299667E+03  0.10597741672E+03 -0.18840305178E+03  0.24501482815E+03  0.46999998093E+01 0.  1.
       -5    1    3    3    0  502 -0.11525299667E+03 -0.10597741672E+03  0.66846572583E+03  0.68657336294E+03  0.46999998093E+01 0. -1.
</event>
<event>
 5   0  0.1637228E-03  0.7992999E+03  0.7818609E-02  0.9561031E-01
        1   -1    0    0  501    0  0.00000000000E+00  0.00000000000E+00  0.18133472804E+03  0.18133472811E+03  0.50400001928E-02 0.  1.
       -1   -1    0    0    0  501  0.00000000000E+00  0.00000000000E+00 -0.88080247397E+03  0.88080247398E+03  0.50400001928E-02 0. -1.
    10030    2    1    2    0    0  0.00000000000E+00  0.00000000000E+00 -0.69946774593E+03  0.10621372021E+04  0.79929988644E+03 0.  0.
        2    1    3    3  502    0 -0.53748817542E+02  0.12441900603E+03  0.14986378390E+03  0.20205983812E+03  0.25500000920E-02 0.  1.
       -2    1    3    3    0  502  0.53748817542E+02 -0.12441900603E+03 -0.84933152983E+03  0.86007736397E+03  0.25500000920E-02 0. -1.
</event>
<event>
 5   0  0.1617491E-03  0.8013518E+03  0.7818609E-02  0.9558063E-01
       -1   -1    0    0    0  501  0.00000000000E+00  0.00000000000E+00  0.22350030735E+03  0.22350030741E+03  0.50400001928E-02 0.  1.
        1   -1    0    0  501    0  0.00000000000E+00  0.00000000000E+00 -0.71830399917E+03  0.71830399918E+03  0.50400001928E-02 0. -1.
    10030    2    1    2    0    0  0.00000000000E+00  0.00000000000E+00 -0.49480369182E+03  0.94180430659E+03  0.80135176950E+03 0.  0.
        1    1    3    3  502    0 -0.72223150036E+02  0.27754643831E+03  0.81448888706E+02  0.29813106231E+03  0.50400001928E-02 0.  1.
       -1    1    3    3    0  502  0.72223150036E+02 -0.27754643831E+03 -0.57625258052E+03  0.64367324428E+03  0.50400001928E-02 0. -1.
</event>
<event>
 5   0  0.2763587E-03  0.7988034E+03  0.7818609E-02  0.9561751E-01
        2   -1    0    0  501    0  0.00000000000E+00  0.00000000000E+00  0.38414308183E+03  0.38414308184E+03  0.25500000920E-02 0. -1.
       -2   -1    0    0    0  501  0.00000000000E+00  0.00000000000E+00 -0.41526640933E+03  0.41526640934E+03  0.25500000920E-02 0.  1.
    10030    2    1    2    0    0  0.00000000000E+00  0.00000000000E+00 -0.31123327495E+02  0.79940949118E+03  0.79880340077E+03 0.  0.
        3    1    3    3  502    0 -0.16386623399E+03 -0.32131469033E+03 -0.18723317169E+03  0.40638841475E+03  0.10100000352E+00 0.  1.
       -3    1    3    3    0  502  0.16386623399E+03  0.32131469033E+03  0.15610984419E+03  0.39302107643E+03  0.10100000352E+00 0. -1.
</event>
<event>
 5   0  0.2910501E-03  0.8152247E+03  0.7818609E-02  0.9538238E-01
        2   -1    0    0  501    0  0.00000000000E+00  0.00000000000E+00  0.60481914917E+03  0.60481914917E+03  0.25500000920E-02 0. -1.
       -2   -1    0    0    0  501  0.00000000000E+00  0.00000000000E+00 -0.27470660323E+03  0.27470660324E+03  0.25500000920E-02 0.  1.
    10030    2    1    2    0    0  0.00000000000E+00  0.00000000000E+00  0.33011254594E+03  0.87952575241E+03  0.81522466607E+03 0.  0.
        1    1    3    3  502    0 -0.39816217593E+03 -0.81646113316E+02  0.19828506912E+03  0.45223464576E+03  0.50400001928E-02 0. -1.
       -1    1    3    3    0  502  0.39816217593E+03  0.81646113316E+02  0.13182747682E+03  0.42729110666E+03  0.50400001928E-02 0.  1.
</event>
<event>
 5   0  0.1095350E-03  0.7970974E+03  0.7818609E-02  0.9564228E-01
        3   -1    0    0  501    0  0.00000000000E+00  0.00000000000E+00  0.50391274341E+03  0.50391275353E+03  0.10100000352E+00 0. -1.
       -3   -1    0    0    0  501  0.00000000000E+00  0.00000000000E+00 -0.31521540545E+03  0.31521542163E+03  0.10100000352E+00 0.  1.
    10030    2    1    2    0    0  0.00000000000E+00  0.00000000000E+00  0.18869733796E+03  0.81912817516E+03  0.79709741061E+03 0.  0.
        4    1    3    3  502    0  0.27622297863E+03 -0.28704255231E+03  0.81893583956E+02  0.40669488901E+03  0.12699999809E+01 0.  1.
       -4    1    3    3    0  502 -0.27622297863E+03  0.28704255231E+03  0.10680375401E+03  0.41243328615E+03  0.12699999809E+01 0. -1.
</event>
<event>
 5   0  0.2690809E-03  0.8004188E+03  0.7818609E-02  0.9559411E-01
        2   -1    0    0  501    0  0.00000000000E+00  0.00000000000E+00  0.13101710878E+04  0.13101710878E+04  0.25500000920E-02 0. -1.
       -2   -1    0    0    0  501  0.00000000000E+00  0.00000000000E+00 -0.12224934301E+03  0.12224934304E+03  0.25500000920E-02 0.  1.
    10030    2    1    2    0    0  0.00000000000E+00  0.00000000000E+00  0.11879217448E+04  0.14324204308E+04  0.80041877723E+03 0.  0.
        5    1    3    3  502    0  0.14506339122E+03 -0.22662434797E+03  0.63857372759E+02  0.27658965385E+03  0.46999998093E+01 0.  1.
       -5    1    3    3    0  502 -0.14506339122E+03  0.22662434797E+03  0.11240643720E+04  0.11558307770E+04  0.46999998093E+01 0. -1.
</event>
<event>
 5   0  0.1656051E-03  0.7996956E+03  0.7818609E-02  0.9560458E-01
       -1   -1    0    0    0  501  0.00000000000E+00  0.00000000000E+00  0.29888123359E+03  0.29888123363E+03  0.50400001928E-02 0.  1.
        1   -1    0    0  501    0  0.00000000000E+00  0.00000000000E+00 -0.53492240011E+03  0.53492240013E+03  0.50400001928E-02 0. -1.
    10030    2    1    2    0    0  0.00000000000E+00  0.00000000000E+00 -0.23604116652E+03  0.83380363377E+03  0.79969560921E+03 0.  0.
        3    1    3    3  502    0  0.22632523622E+03  0.42524509639E+02 -0.45883648716E+03  0.51338326679E+03  0.10100000352E+00 0. -1.
       -3    1    3    3    0  502 -0.22632523622E+03 -0.42524509639E+02  0.22279532064E+03  0.32042036697E+03  0.10100000352E+00 0.  1.
</event>
<event>
 5   0  0.1095350E-03  0.7989051E+03  0.7818609E-02  0.9561603E-01
       -3   -1    0    0    0  501  0.00000000000E+00  0.00000000000E+00  0.36584539423E+03  0.36584540817E+03  0.10100000352E+00 0.  1.
        3   -1    0    0  501    0  0.00000000000E+00  0.00000000000E+00 -0.43614684640E+03  0.43614685809E+03  0.10100000352E+00 0. -1.
    10030    2    1    2    0    0  0.00000000000E+00  0.00000000000E+00 -0.70301452168E+02  0.80199226626E+03  0.79890506380E+03 0.  0.
        1    1    3    3  502    0 -0.33112148764E+03  0.18436958176E+03 -0.16184755891E+03  0.41210218952E+03  0.50400001928E-02 0. -1.
       -1    1    3    3    0  502  0.33112148764E+03 -0.18436958176E+03  0.91546106747E+02  0.38989007674E+03  0.50400001928E-02 0.  1.
</event>
<event>
 5   0  0.2873212E-03  0.8000890E+03  0.7818609E-02  0.9559888E-01
        2   -1    0    0  501    0  0.00000000000E+00  0.00000000000E+00  0.15405624059E+04  0.15405624059E+04  0.25500000920E-02 0. -1.
       -2   -1    0    0    0  501  0.00000000000E+00  0.00000000000E+00 -0.10388128952E+03  0.10388128955E+03  0.25500000920E-02 0.  1.
    10030    2    1    2    0    0  0.00000000000E+00  0.00000000000E+00  0.14366811164E+04  0.16444436955E+04  0.80008901839E+03 0.  0.
        2    1    3    3  502    0 -0.10481169796E+03 -0.16083859219E+03  0.14397015855E+04  0.14524445600E+04  0.25500000920E-02 0. -1.
       -2    1    3    3    0  502  0.10481169796E+03  0.16083859219E+03 -0.30204690730E+01  0.19199913543E+03  0.25500000920E-02 0.  1.
</event>
<event>
 5   0  0.1617491E-03  0.8001105E+03  0.7818609E-02  0.9559857E-01
       -1   -1    0    0    0  501  0.00000000000E+00  0.00000000000E+00  0.84050401318E+02  0.84050401469E+02  0.50400001928E-02 0.  1.
        1   -1    0    0  501    0  0.00000000000E+00  0.00000000000E+00 -0.19041458488E+04  0.19041458488E+04  0.50400001928E-02 0. -1.
    10030    2    1    2    0    0  0.00000000000E+00  0.00000000000E+00 -0.18200954475E+04  0.19881962503E+04  0.80011054965E+03 0.  0.
        1    1    3    3  502    0  0.26249241510E+03 -0.18420405864E+03 -0.31568941430E+03  0.44999245497E+03  0.50400001928E-02 0.  1.
       -1    1    3    3    0  502 -0.26249241510E+03  0.18420405864E+03 -0.15044060332E+04  0.15382037953E+04  0.50400001928E-02 0. -1.
</event>
<event>
 5   0  0.2763587E-03  0.7997806E+03  0.7818609E-02  0.9560335E-01
       -2   -1    0    0    0  501  0.00000000000E+00  0.00000000000E+00  0.29786064805E+03  0.29786064806E+03  0.25500000920E-02 0.  1.
        2   -1    0    0  501    0  0.00000000000E+00  0.00000000000E+00 -0.53686941062E+03  0.53686941062E+03  0.25500000920E-02 0. -1.
    10030    2    1    2    0    0  0.00000000000E+00  0.00000000000E+00 -0.23900876257E+03  0.83473005868E+03  0.79978064636E+03 0.  0.
        3    1    3    3  502    0  0.24133224433E+03  0.31771379939E+03 -0.14768327899E+03  0.42543351016E+03  0.10100000352E+00 0. -1.
       -3    1    3    3    0  502 -0.24133224433E+03 -0.31771379939E+03 -0.91325483583E+02  0.40929654852E+03  0.10100000352E+00 0.  1.
</event>
<event>
 5   0  0.2873212E-03  0.7761351E+03  0.7818609E-02  0.9595218E-01
        2   -1    0    0  501    0  0.00000000000E+00  0.00000000000E+00  0.10224652411E+04  0.10224652411E+04  0.25500000920E-02 0. -1.
       -2   -1    0    0    0  501  0.00000000000E+00  0.00000000000E+00 -0.14728758400E+03  0.14728758403E+03  0.25500000920E-02 0.  1.
    10030    2    1    2    0    0  0.00000000000E+00  0.00000000000E+00  0.87517765713E+03  0.11697528252E+04  0.77613513027E+03 0.  0.
        2    1    3    3  502    0  0.25758691505E+03  0.22757086519E+03  0.16606346869E+03  0.38172842850E+03  0.25500000920E-02 0.  1.
       -2    1    3    3    0  502 -0.25758691505E+03 -0.22757086519E+03  0.70911418844E+03  0.78802439666E+03  0.25500000920E-02 0. -1.
</event>
<event>
 5   0  0.1617491E-03  0.7983169E+03  0.7818609E-02  0.9562457E-01
       -1   -1    0    0    0  501  0.00000000000E+00  0.00000000000E+00  0.44930293771E+03  0.44930293773E+03  0.50400001928E-02 0.  1.
        1   -1    0    0  501    0  0.00000000000E+00  0.00000000000E+00 -0.35461029992E+03  0.35461029995E+03  0.50400001928E-02 0. -1.
    10030    2    1    2    0    0  0.00000000000E+00  0.00000000000E+00  0.94692637787E+02  0.80391323769E+03  0.79831685319E+03 0.  0.
        1    1    3    3  502    0  0.29583645106E+03  0.44299508812E+02 -0.21878992413E+03  0.37060853091E+03  0.50400001928E-02 0. -1.
       -1    1    3    3    0  502 -0.29583645106E+03 -0.44299508812E+02  0.31348256192E+03  0.43330470677E+03  0.50400001928E-02 0.  1.
</event>
<event>
 5   0  0.2690809E-03  0.7999898E+03  0.7818609E-02  0.9560032E-01
        2   -1    0    0  501    0  0.00000000000E+00  0.00000000000E+00  0.62266452167E+03  0.62266452167E+03  0.25500000920E-02 0.  1.
       -2   -1    0    0    0  501  0.00000000000E+00  0.00000000000E+00 -0.25695365890E+03  0.25695365891E+03  0.25500000920E-02 0. -1.
    10030    2    1    2    0    0  0.00000000000E+00  0.00000000000E+00  0.36571086277E+03  0.87961818058E+03  0.79998981772E+03 0.  0.
        5    1    3    3  502    0  0.83852581149E+02  0.15132855547E+03  0.57936345080E+03  0.60466162867E+03  0.46999998093E+01 0.  1.
       -5    1    3    3    0  502 -0.83852581149E+02 -0.15132855547E+03 -0.21365258803E+03  0.27495655191E+03  0.46999998093E+01 0. -1.
</event>
<event>
 5   0  0.2873212E-03  0.7997608E+03  0.7818609E-02  0.9560363E-01
       -2   -1    0    0    0  501  0.00000000000E+00  0.00000000000E+00  0.15783024977E+03  0.15783024979E+03  0.25500000920E-02 0.  1.
        2   -1    0    0  501    0  0.00000000000E+00  0.00000000000E+00 -0.10131412962E+04  0.10131412962E+04  0.25500000920E-02 0. -1.
    10030    2    1    2    0    0  0.00000000000E+00  0.00000000000E+00 -0.85531104646E+03  0.11709715460E+04  0.79976082388E+03 0.  0.
        2    1    3    3  502    0  0.34836448940E+03  0.13692951549E+03 -0.22164752217E+03  0.43501164786E+03  0.25500000920E-02 0.  1.
       -2    1    3    3    0  502 -0.34836448940E+03 -0.13692951549E+03 -0.63366352429E+03  0.73595989817E+03  0.25500000920E-02 0. -1.
</event>
<event>
 5   0  0.2690809E-03  0.8001776E+03  0.7818609E-02  0.9559760E-01
       -2   -1    0    0    0  501  0.00000000000E+00  0.00000000000E+00  0.30622104662E+03  0.30622104663E+03  0.25500000920E-02 0. -1.
        2   -1    0    0  501    0  0.00000000000E+00  0.00000000000E+00 -0.52273041100E+03  0.52273041101E+03  0.25500000920E-02 0.  1.
    10030    2    1    2    0    0  0.00000000000E+00  0.00000000000E+00 -0.21650936439E+03  0.82895145763E+03  0.80017761419E+03 0.  0.
        5    1    3    3  502    0 -0.29593070290E+03  0.21769717141E+03  0.55813032088E+02  0.37162376661E+03  0.46999998093E+01 0. -1.
       -5    1    3    3    0  502  0.29593070290E+03 -0.21769717141E+03 -0.27232239647E+03  0.45732769103E+03  0.46999998093E+01 0.  1.
</event>
<event>
 5   0  0.1617491E-03  0.8012969E+03  0.7818609E-02  0.9558142E-01
        1   -1    0    0  501    0  0.00000000000E+00  0.00000000000E+00  0.52926549579E+03  0.52926549581E+03  0.50400001928E-02 0.  1.
       -1   -1    0    0    0  501  0.00000000000E+00  0.00000000000E+00 -0.30328668068E+03  0.30328668072E+03  0.50400001928E-02 0. -1.
    10030    2    1    2    0    0  0.00000000000E+00  0.00000000000E+00  0.22597881511E+03  0.83255217653E+03  0.80129688741E+03 0.  0.
        1    1    3    3  502    0  0.31695952053E+03  0.23812638726E+03  0.17314113125E+03  0.43260301123E+03  0.50400001928E-02 0.  1.
       -1    1    3    3    0  502 -0.31695952053E+03 -0.23812638726E+03  0.52837683866E+02  0.39994916531E+03  0.50400001928E-02 0. -1.
</event>
<event>
 5   0  0.2768834E-03  0.7998904E+03  0.7818609E-02  0.9560176E-01
        2   -1    0    0  501    0  0.00000000000E+00  0.00000000000E+00  0.18250098361E+04  0.18250098361E+04  0.25500000920E-02 0. -1.
       -2   -1    0    0    0  501  0.00000000000E+00  0.00000000000E+00 -0.87646747686E+02  0.87646747723E+02  0.25500000920E-02 0.  1.
    10030    2    1    2    0    0  0.00000000000E+00  0.00000000000E+00  0.17373630884E+04  0.19126565838E+04  0.79989043416E+03 0.  0.
        4    1    3    3  502    0  0.34966426178E+03 -0.64381298480E+02  0.43073887303E+03  0.55852272756E+03  0.12699999809E+01 0.  1.
       -4    1    3    3    0  502 -0.34966426178E+03  0.64381298480E+02  0.13066242154E+04  0.13541338562E+04  0.12699999809E+01 0. -1.
</event>
<event>
 5   0  0.2763587E-03  0.7995271E+03  0.7818609E-02  0.9560702E-01
       -2   -1    0    0    0  501  0.00000000000E+00  0.00000000000E+00  0.12692418824E+03  0.12692418827E+03  0.25500000920E-02 0. -1.
        2   -1    0    0  501    0  0.00000000000E+00  0.00000000000E+00 -0.12591052049E+04  0.12591052049E+04  0.25500000920E-02 0.  1.
    10030    2    1    2    0    0  0.00000000000E+00  0.00000000000E+00 -0.11321810167E+04  0.13860293932E+04  0.79952712542E+03 0.  0.
        3    1    3    3  502    0 -0.20106134747E+03 -0.37208534466E+02  0.29409307512E+02  0.20657942311E+03  0.10100000352E+00 0. -1.
       -3    1    3    3    0  502  0.20106134747E+03  0.37208534466E+02 -0.11615903242E+04  0.11794499701E+04  0.10100000352E+00 0.  1.
</event>
<event>
 5   0  0.2690809E-03  0.8005045E+03  0.7818609E-02  0.9559287E-01
        2   -1    0    0  501    0  0.00000000000E+00  0.00000000000E+00  0.10507760455E+04  0.10507760455E+04  0.25500000920E-02 0. -1.
       -2   -1    0    0    0  501  0.00000000000E+00  0.00000000000E+00 -0.15246052469E+03  0.15246052471E+03  0.25500000920E-02 0.  1.
    10030    2    1    2    0    0  0.00000000000E+00  0.00000000000E+00  0.89831552081E+03  0.12032365702E+04  0.80050450903E+03 0.  0.
        5    1    3    3  502    0  0.91653440477E+02  0.22832149866E+03 -0.25327905450E+02  0.24737552970E+03  0.46999998093E+01 0.  1.
       -5    1    3    3    0  502 -0.91653440477E+02 -0.22832149866E+03  0.92364342626E+03  0.95586104051E+03  0.46999998093E+01 0. -1.
</event>
<event>
 5   0  0.2763587E-03  0.8005628E+03  0.7818609E-02  0.9559203E-01
       -2   -1    0    0    0  501  0.00000000000E+00  0.00000000000E+00  0.59115081831E+03  0.59115081831E+03  0.25500000920E-02 0. -1.
        2   -1    0    0  501    0  0.00000000000E+00  0.00000000000E+00 -0.27103945908E+03  0.27103945909E+03  0.25500000920E-02 0.  1.
    10030    2    1    2    0    0  0.00000000000E+00  0.00000000000E+00  0.32011135923E+03  0.86219027740E+03  0.80056279713E+03 0.  0.
        3    1    3    3  502    0 -0.11312882991E+03 -0.38182947417E+03  0.20358098286E+03  0.44725507966E+03  0.10100000352E+00 0.  1.
       -3    1    3    3    0  502  0.11312882991E+03  0.38182947417E+03  0.11653037637E+03  0.41493519774E+03  0.10100000352E+00 0. -1.
</event>
<event>
 5   0  0.1656051E-03  0.8004915E+03  0.7818609E-02  0.9559306E-01
       -1   -1    0    0    0  501  0.00000000000E+00  0.00000000000E+00  0.39368267266E+03  0.39368267269E+03  0.50400001928E-02 0.  1.
        1   -1    0    0  501    0  0.00000000000E+00  0.00000000000E+00 -0.40691824334E+03  0.40691824337E+03  0.50400001928E-02 0. -1.
    10030    2    1    2    0    0  0.00000000000E+00  0.00000000000E+00 -0.13235570681E+02  0.80060091607E+03  0.80049150306E+03 0.  0.
        3    1    3    3  502    0  0.17134627697E+02  0.39587334608E+03  0.49846550136E+02  0.39936698708E+03  0.10100000352E+00 0.  1.
       -3    1    3    3    0  502 -0.17134627697E+02 -0.39587334608E+03 -0.63082120817E+02  0.40123392899E+03  0.10100000352E+00 0. -1.
</event>
<event>
 5   0  0.1656051E-03  0.8006813E+03  0.7818609E-02  0.9559031E-01
       -1   -1    0    0    0  501  0.00000000000E+00  0.00000000000E+00  0.11200359232E+03  0.11200359243E+03  0.50400001928E-02 0.  1.
        1   -1    0    0  501    0  0.00000000000E+00  0.00000000000E+00 -0.14309597939E+04  0.14309597939E+04  0.50400001928E-02 0. -1.
    10030    2    1    2    0    0  0.00000000000E+00  0.00000000000E+00 -0.13189562016E+04  0.15429633863E+04  0.80068130358E+03 0.  0.
        3    1    3    3  502    0 -0.26290945480E+02 -0.31525752979E+03 -0.11322731366E+04  0.11756364191E+04  0.10100000352E+00 0.  1.
       -3    1    3    3    0  502  0.26290945480E+02  0.31525752979E+03 -0.18668306501E+03  0.36732696725E+03  0.10100000352E+00 0. -1.
</event>
<event>
 5   0  0.2768834E-03  0.7975997E+03  0.7818609E-02  0.9563498E-01
       -2   -1    0    0    0  501  0.00000000000E+00  0.00000000000E+00  0.11656125670E+03  0.11656125673E+03  0.25500000920E-02 0.  1.
        2   -1    0    0  501    0  0.00000000000E+00  0.00000000000E+00 -0.13644442688E+04  0.13644442688E+04  0.25500000920E-02 0. -1.
    10030    2    1    2    0    0  0.00000000000E+00  0.00000000000E+00 -0.12478830121E+04  0.14810055256E+04  0.79759974598E+03 0.  0.
        4    1    3    3  502    0  0.20254724461E+03  0.25960917172E+03 -0.20618649935E+03  0.38850584777E+03  0.12699999809E+01 0.  1.
       -4    1    3    3    0  502 -0.20254724461E+03 -0.25960917172E+03 -0.10416965128E+04  0.10924996778E+04  0.12699999809E+01 0. -1.
</event>
<event>
 5   0  0.1640035E-03  0.7998892E+03  0.7818609E-02  0.9560178E-01
        1   -1    0    0  501    0  0.00000000000E+00  0.00000000000E+00  0.95159813080E+03  0.95159813081E+03  0.50400001928E-02 0. -1.
       -1   -1    0    0    0  501  0.00000000000E+00  0.00000000000E+00 -0.16809161578E+03  0.16809161586E+03  0.50400001928E-02 0.  1.
    10030    2    1    2    0    0  0.00000000000E+00  0.00000000000E+00  0.78350651502E+03  0.11196897467E+04  0.79988916090E+03 0.  0.
        5    1    3    3  502    0  0.32004990809E+03 -0.20114631589E+03  0.20901665881E+03  0.43197434846E+03  0.46999998093E+01 0.  1.
       -5    1    3    3    0  502 -0.32004990809E+03  0.20114631589E+03  0.57448985620E+03  0.68771539822E+03  0.46999998093E+01 0. -1.
</event>
<event>
 5   0  0.1095350E-03  0.8005229E+03  0.7818609E-02  0.9559260E-01
        3   -1    0    0  501    0  0.00000000000E+00  0.00000000000E+00  0.23202000063E+03  0.23202002261E+03  0.10100000352E+00 0. -1.
       -3   -1    0    0    0  501  0.00000000000E+00  0.00000000000E+00 -0.69049748766E+03  0.69049749505E+03  0.10100000352E+00 0.  1.
    10030    2    1    2    0    0  0.00000000000E+00  0.00000000000E+00 -0.45847748704E+03  0.92251751766E+03  0.80052293176E+03 0.  0.
        2    1    3    3  502    0  0.32642825537E+03 -0.15487701938E+03 -0.30749374762E+02  0.36261249440E+03  0.25500000920E-02 0.  1.
       -2    1    3    3    0  502 -0.32642825537E+03  0.15487701938E+03 -0.42772811227E+03  0.55990502326E+03  0.25500000920E-02 0. -1.
</event>
<event>
 5   0  0.1656051E-03  0.8005597E+03  0.7818609E-02  0.9559207E-01
        1   -1    0    0  501    0  0.00000000000E+00  0.00000000000E+00  0.12149536419E+04  0.12149536419E+04  0.50400001928E-02 0.  1.
       -1   -1    0    0    0  501  0.00000000000E+00  0.00000000000E+00 -0.13187660285E+03  0.13187660294E+03  0.50400001928E-02 0. -1.
    10030    2    1    2    0    0  0.00000000000E+00  0.00000000000E+00  0.10830770391E+04  0.13468302449E+04  0.80055970168E+03 0.  0.
        3    1    3    3  502    0 -0.58058635930E+02  0.25189902749E+03  0.27385218618E+02  0.25994977526E+03  0.10100000352E+00 0. -1.
       -3    1    3    3    0  502  0.58058635930E+02 -0.25189902749E+03  0.10556918205E+04  0.10868804696E+04  0.10100000352E+00 0.  1.
</event>
<event>
 5   0  0.1640035E-03  0.7979091E+03  0.7818609E-02  0.9563049E-01
        1   -1    0    0  501    0  0.00000000000E+00  0.00000000000E+00  0.50726778014E+03  0.50726778017E+03  0.50400001928E-02 0. -1.
       -1   -1    0    0    0  501  0.00000000000E+00  0.00000000000E+00 -0.31376867891E+03  0.31376867895E+03  0.50400001928E-02 0.  1.
    10030    2    1    2    0    0  0.00000000000E+00  0.00000000000E+00  0.19349910123E+03  0.82103645912E+03  0.79790912078E+03 0.  0.
        5    1    3    3  502    0  0.29990458581E+03 -0.26296953078E+03  0.89701451149E+02  0.40885715727E+03  0.46999998093E+01 0.  1.
       -5    1    3    3    0  502 -0.29990458581E+03  0.26296953078E+03  0.10379765008E+03  0.41217930185E+03  0.46999998093E+01 0. -1.
</event>
<event>
 5   0  0.1656051E-03  0.8001805E+03  0.7818609E-02  0.9559756E-01
       -1   -1    0    0    0  501  0.00000000000E+00  0.00000000000E+00  0.27091428391E+03  0.27091428396E+03  0.50400001928E-02 0.  1.
        1   -1    0    0  501    0  0.00000000000E+00  0.00000000000E+00 -0.59085918220E+03  0.59085918222E+03  0.50400001928E-02 0. -1.
    10030    2    1    2    0    0  0.00000000000E+00  0.00000000000E+00 -0.31994489828E+03  0.86177346618E+03  0.80018046031E+03 0.  0.
        3    1    3    3  502    0  0.12331515032E+03 -0.13284224866E+03  0.22415938413E+03  0.28827266437E+03  0.10100000352E+00 0.  1.
       -3    1    3    3    0  502 -0.12331515032E+03  0.13284224866E+03 -0.54410428242E+03  0.57350080181E+03  0.10100000352E+00 0. -1.
</event>
<event>
 5   0  0.2910501E-03  0.7994632E+03  0.7818609E-02  0.9560794E-01
        2   -1    0    0  501    0  0.00000000000E+00  0.00000000000E+00  0.63573816495E+03  0.63573816496E+03  0.25500000920E-02 0. -1.
       -2   -1    0    0    0  501  0.00000000000E+00  0.00000000000E+00 -0.25133829440E+03  0.25133829442E+03  0.25500000920E-02 0.  1.
    10030    2    1    2    0    0  0.00000000000E+00  0.00000000000E+00  0.38439987055E+03  0.88707645937E+03  0.79946318508E+03 0.  0.
        1    1    3    3  502    0 -0.36774193383E+02 -0.34510626660E+03 -0.27864741186E+02  0.34817685215E+03  0.50400001928E-02 0.  1.
       -1    1    3    3    0  502  0.36774193383E+02  0.34510626660E+03  0.41226461174E+03  0.53889960722E+03  0.50400001928E-02 0. -1.
</event>
<event>
 5   0  0.1637228E-03  0.8004601E+03  0.7818609E-02  0.9559351E-01
        1   -1    0    0  501    0  0.00000000000E+00  0.00000000000E+00  0.31668617532E+03  0.31668617536E+03  0.50400001928E-02 0. -1.
       -1   -1    0    0    0  501  0.00000000000E+00  0.00000000000E+00 -0.50581337664E+03  0.50581337667E+03  0.50400001928E-02 0.  1.
    10030    2    1    2    0    0  0.00000000000E+00  0.00000000000E+00 -0.18912720132E+03  0.82249955203E+03  0.80046012693E+03 0.  0.
        2    1    3    3  502    0  0.11634944803E+03 -0.28765467359E+03  0.16518437239E+03  0.35152280465E+03  0.25500000920E-02 0. -1.
       -2    1    3    3    0  502 -0.11634944803E+03  0.28765467359E+03 -0.35431157371E+03  0.47097674738E+03  0.25500000920E-02 0.  1.
</event>
<event>
 5   0  0.1656051E-03  0.8012340E+03  0.7818609E-02  0.9558233E-01
       -1   -1    0    0    0  501  0.00000000000E+00  0.00000000000E+00  0.22058109940E+03  0.22058109946E+03  0.50400001928E-02 0.  1.
        1   -1    0    0  501    0  0.00000000000E+00  0.00000000000E+00 -0.72759618264E+03  0.72759618266E+03  0.50400001928E-02 0. -1.
    10030    2    1    2    0    0  0.00000000000E+00  0.00000000000E+00 -0.50701508324E+03  0.94817728211E+03  0.80123396314E+03 0.  0.
        3    1    3    3  502    0 -0.32298220373E+03  0.77954925240E+02  0.11371020835E+02  0.33245117629E+03  0.10100000352E+00 0.  1.
       -3    1    3    3    0  502  0.32298220373E+03 -0.77954925240E+02 -0.51838610407E+03  0.61572610583E+03  0.10100000352E+00 0. -1.
</event>
<event>
 5   0  0.1637228E-03  0.7983176E+03  0.7818609E-02  0.9562456E-01
       -1   -1    0    0    0  501  0.00000000000E+00  0.00000000000E+00  0.56005984793E+03  0.56005984796E+03  0.50400001928E-02 0.  1.
        1   -1    0    0  501    0  0.00000000000E+00  0.00000000000E+00 -0.28448339886E+03  0.28448339890E+03  0.50400001928E-02 0. -1.
    10030    2    1    2    0    0  0.00000000000E+00  0.00000000000E+00  0.27557644908E+03  0.84454324686E+03  0.79831755369E+03 0.  0.
        2    1    3    3  502    0  0.39768573915E+03 -0.18816794597E+02  0.16807662891E+03  0.43215480106E+03  0.25500000920E-02 0.  1.
       -2    1    3    3    0  502 -0.39768573915E+03  0.18816794597E+02  0.10749982016E+03  0.41238844580E+03  0.25500000920E-02 0. -1.
</event>
<event>
 5   0  0.1656051E-03  0.7987372E+03  0.7818609E-02  0.9561847E-01
       -1   -1    0    0    0  501  0.00000000000E+00  0.00000000000E+00  0.68382903834E+03  0.68382903835E+03  0.50400001928E-02 0. -1.
        1   -1    0    0  501    0  0.00000000000E+00  0.00000000000E+00 -0.23323854151E+03  0.23323854157E+03  0.50400001928E-02 0.  1.
    10030    2    1    2    0    0  0.00000000000E+00  0.00000000000E+00  0.45059049682E+03  0.91706757992E+03  0.79873722232E+03 0.  0.
        3    1    3    3  502    0  0.16297308119E+03  0.15716191259E+03  0.60302539714E+03  0.64412710839E+03  0.10100000352E+00 0. -1.
       -3    1    3    3    0  502 -0.16297308119E+03 -0.15716191259E+03 -0.15243490032E+03  0.27294047153E+03  0.10100000352E+00 0.  1.
</event>
<event>
 5   0  0.2690809E-03  0.8003811E+03  0.7818609E-02  0.9559466E-01
        2   -1    0    0  501    0  0.00000000000E+00  0.00000000000E+00  0.20013968408E+04  0.20013968408E+04  0.25500000920E-02 0. -1.
       -2   -1    0    0    0  501  0.00000000000E+00  0.00000000000E+00 -0.80020345700E+02  0.80020345741E+02  0.25500000920E-02 0.  1.
    10030    2    1    2    0    0  0.00000000000E+00  0.00000000000E+00  0.19213764951E+04  0.20814171865E+04  0.80038107705E+03 0.  0.
        5    1    3    3  502    0  0.27277831425E+03  0.22339658606E+03  0.46853212971E+03  0.58639448322E+03  0.46999998093E+01 0.  1.
       -5    1    3    3    0  502 -0.27277831425E+03 -0.22339658606E+03  0.14528443654E+04  0.14950227033E+04  0.46999998093E+01 0. -1.
</event>
<event>
 5   0  0.2910501E-03  0.8050365E+03  0.7818609E-02  0.9552756E-01
       -2   -1    0    0    0  501  0.00000000000E+00  0.00000000000E+00  0.29660121008E+03  0.29660121009E+03  0.25500000920E-02 0.  1.
        2   -1    0    0  501    0  0.00000000000E+00  0.00000000000E+00 -0.54625848491E+03  0.54625848492E+03  0.25500000920E-02 0. -1.
    10030    2    1    2    0    0  0.00000000000E+00  0.00000000000E+00 -0.24965727484E+03  0.84285969501E+03  0.80503646538E+03 0.  0.
        1    1    3    3  502    0 -0.61539929544E+02  0.32719573421E+02 -0.53989272359E+03  0.54437292955E+03  0.50400001928E-02 0. -1.
       -1    1    3    3    0  502  0.61539929544E+02 -0.32719573421E+02  0.29023544876E+03  0.29848676546E+03  0.50400001928E-02 0.  1.
</event>
<event>
 5   0  0.1617491E-03  0.8034339E+03  0.7818609E-02  0.9555060E-01
        1   -1    0    0  501    0  0.00000000000E+00  0.00000000000E+00  0.92147211618E+03  0.92147211619E+03  0.50400001928E-02 0.  1.
       -1   -1    0    0    0  501  0.00000000000E+00  0.00000000000E+00 -0.17512902815E+03  0.17512902823E+03  0.50400001928E-02 0. -1.
    10030    2    1    2    0    0  0.00000000000E+00  0.00000000000E+00  0.74634308803E+03  0.10966011444E+04  0.80343392068E+03 0.  0.
        1    1    3    3  502    0 -0.31919339118E+03  0.76111263632E+02  0.56883831044E+02  0.33303620777E+03  0.50400001928E-02 0.  1.
       -1    1    3    3    0  502  0.31919339118E+03 -0.76111263632E+02  0.68945925698E+03  0.76356493665E+03  0.50400001928E-02 0. -1.
</event>
<event>
 5   0  0.2873212E-03  0.8073163E+03  0.7818609E-02  0.9549487E-01
       -2   -1    0    0    0  501  0.00000000000E+00  0.00000000000E+00  0.91008544846E+03  0.91008544846E+03  0.25500000920E-02 0. -1.
        2   -1    0    0  501    0  0.00000000000E+00  0.00000000000E+00 -0.17903802391E+03  0.17903802393E+03  0.25500000920E-02 0.  1.
    10030    2    1    2    0    0  0.00000000000E+00  0.00000000000E+00  0.73104742455E+03  0.10891234724E+04  0.80731629562E+03 0.  0.
        2    1    3    3  502    0 -0.38964818899E+03  0.75318336217E+02  0.46503817998E+03  0.61135838245E+03  0.25500000920E-02 0.  1.
       -2    1    3    3    0  502  0.38964818899E+03 -0.75318336217E+02  0.26600924457E+03  0.47776508993E+03  0.25500000920E-02 0. -1.
</event>
<event>
 5   0  0.2690809E-03  0.8004703E+03  0.7818609E-02  0.9559337E-01
        2   -1    0    0  501    0  0.00000000000E+00  0.00000000000E+00  0.77039774213E+03  0.77039774213E+03  0.25500000920E-02 0.  1.
       -2   -1    0    0    0  501  0.00000000000E+00  0.00000000000E+00 -0.20792919780E+03  0.20792919782E+03  0.25500000920E-02 0. -1.
    10030    2    1    2    0    0  0.00000000000E+00  0.00000000000E+00  0.56246854433E+03  0.97832693995E+03  0.80047032305E+03 0.  0.
        5    1    3    3  502    0  0.26535663560E+03 -0.54629071735E+02 -0.78778250416E+02  0.28218182484E+03  0.46999998093E+01 0. -1.
       -5    1    3    3    0  502 -0.26535663560E+03  0.54629071735E+02  0.64124679474E+03  0.69614511511E+03  0.46999998093E+01 0.  1.
</event>
<event>
 5   0  0.1637228E-03  0.8023357E+03  0.7818609E-02  0.9556642E-01
        1   -1    0    0  501    0  0.00000000000E+00  0.00000000000E+00  0.15611490991E+04  0.15611490991E+04  0.50400001928E-02 0. -1.
       -1   -1    0    0    0  501  0.00000000000E+00  0.00000000000E+00 -0.10308792854E+03  0.10308792867E+03  0.50400001928E-02 0.  1.
    10030    2    1    2    0    0  0.00000000000E+00  0.00000000000E+00  0.14580611706E+04  0.16642370278E+04  0.80233565765E+03 0.  0.
        2    1    3    3  502    0  0.39135806486E+03 -0.71141817159E+02  0.83707708417E+03  0.92677955196E+03  0.25500000920E-02 0.  1.
       -2    1    3    3    0  502 -0.39135806486E+03  0.71141817159E+02  0.62098408639E+03  0.73745747582E+03  0.25500000920E-02 0. -1.
</event>
<event>
 5   0  0.2873212E-03  0.8020608E+03  0.7818609E-02  0.9557039E-01
        2   -1    0    0  501    0  0.00000000000E+00  0.00000000000E+00  0.60430025847E+03  0.60430025847E+03  0.25500000920E-02 0. -1.
       -2   -1    0    0    0  501  0.00000000000E+00  0.00000000000E+00 -0.26613490153E+03  0.26613490154E+03  0.25500000920E-02 0.  1.
    10030    2    1    2    0    0  0.00000000000E+00  0.00000000000E+00  0.33816535694E+03  0.87043516001E+03  0.80206082011E+03 0.  0.
        2    1    3    3  502    0 -0.13831189168E+03  0.14682937994E+03 -0.20707187924E+03  0.28908097373E+03  0.25500000920E-02 0.  1.
       -2    1    3    3    0  502  0.13831189168E+03 -0.14682937994E+03  0.54523723618E+03  0.58135418629E+03  0.25500000920E-02 0. -1.
</event>
<event>
 5   0  0.2763587E-03  0.7783605E+03  0.7818609E-02  0.9591879E-01
       -2   -1    0    0    0  501  0.00000000000E+00  0.00000000000E+00  0.37259114172E+03  0.37259114173E+03  0.25500000920E-02 0.  1.
        2   -1    0    0  501    0  0.00000000000E+00  0.00000000000E+00 -0.40650793782E+03  0.40650793782E+03  0.25500000920E-02 0. -1.
    10030    2    1    2    0    0  0.00000000000E+00  0.00000000000E+00 -0.33916796094E+02  0.77909907955E+03  0.77836047350E+03 0.  0.
        3    1    3    3  502    0 -0.35673823644E+03  0.74483391890E+02  0.11974096426E+03  0.38359855804E+03  0.10100000352E+00 0.  1.
       -3    1    3    3    0  502  0.35673823644E+03 -0.74483391890E+02 -0.15365776036E+03  0.39550052152E+03  0.10100000352E+00 0. -1.
</event>
<event>
 5   0  0.1640035E-03  0.8007691E+03  0.7818609E-02  0.9558904E-01
        1   -1    0    0  501    0  0.00000000000E+00  0.00000000000E+00  0.57453138086E+03  0.57453138088E+03  0.50400001928E-02 0. -1.
       -1   -1    0    0    0  501  0.00000000000E+00  0.00000000000E+00 -0.27902358874E+03  0.27902358878E+03  0.50400001928E-02 0.  1.
    10030    2    1    2    0    0  0.00000000000E+00  0.00000000000E+00  0.29550779213E+03  0.85355496966E+03  0.80076914965E+03 0.  0.
        5    1    3    3  502    0 -0.42070130212E+02  0.39799518885E+03  0.15921693856E+03  0.43074608498E+03  0.46999998093E+01 0.  1.
       -5    1    3    3    0  502  0.42070130212E+02 -0.39799518885E+03  0.13629085357E+03  0.42280888469E+03  0.46999998093E+01 0. -1.
</event>
<event>
 5   0  0.1640035E-03  0.7963850E+03  0.7818609E-02  0.9565265E-01
       -1   -1    0    0    0  501  0.00000000000E+00  0.00000000000E+00  0.39698651948E+03  0.39698651952E+03  0.50400001928E-02 0. -1.
        1   -1    0    0  501    0  0.00000000000E+00  0.00000000000E+00 -0.39940209457E+03  0.39940209460E+03  0.50400001928E-02 0.  1.
    10030    2    1    2    0    0  0.00000000000E+00  0.00000000000E+00 -0.24155750819E+01  0.79638861411E+03  0.79638495069E+03 0.  0.
        5    1    3    3  502    0 -0.25316343378E+03  0.29305176681E+03  0.91335034877E+02  0.39791360975E+03  0.46999998093E+01 0. -1.
       -5    1    3    3    0  502  0.25316343378E+03 -0.29305176681E+03 -0.93750609959E+02  0.39847500436E+03  0.46999998093E+01 0.  1.
</event>
<event>
 5   0  0.2910501E-03  0.8015454E+03  0.7818609E-02  0.9557783E-01
       -2   -1    0    0    0  501  0.00000000000E+00  0.00000000000E+00  0.12663712299E+03  0.12663712302E+03  0.25500000920E-02 0.  1.
        2   -1    0    0  501    0  0.00000000000E+00  0.00000000000E+00 -0.12683387608E+04  0.12683387608E+04  0.25500000920E-02 0. -1.
    10030    2    1    2    0    0  0.00000000000E+00  0.00000000000E+00 -0.11417016378E+04  0.13949758838E+04  0.80154543643E+03 0.  0.
        1    1    3    3  502    0 -0.37882773906E+03  0.63743720843E+02 -0.76962569494E+03  0.86017290597E+03  0.50400001928E-02 0.  1.
       -1    1    3    3    0  502  0.37882773906E+03 -0.63743720843E+02 -0.37207594285E+03  0.53480297783E+03  0.50400001928E-02 0. -1.
</event>
<event>
 5   0  0.1712793E-03  0.8000442E+03  0.7818609E-02  0.9559953E-01
       -1   -1    0    0    0  501  0.00000000000E+00  0.00000000000E+00  0.17839884932E+03  0.17839884939E+03  0.50400001928E-02 0. -1.
        1   -1    0    0  501    0  0.00000000000E+00  0.00000000000E+00 -0.89696595234E+03  0.89696595235E+03  0.50400001928E-02 0.  1.
    10030    2    1    2    0    0  0.00000000000E+00  0.00000000000E+00 -0.71856710303E+03  0.10753648017E+04  0.80004423332E+03 0.  0.
        4    1    3    3  502    0  0.25908405196E+03 -0.28812134418E+03 -0.22569534894E+03  0.44841772756E+03  0.12699999809E+01 0. -1.
       -4    1    3    3    0  502 -0.25908405196E+03  0.28812134418E+03 -0.49287175408E+03  0.62694707418E+03  0.12699999809E+01 0.  1.
</event>
<event>
 5   0  0.1637228E-03  0.8026563E+03  0.7818609E-02  0.9556180E-01
        1   -1    0    0  501    0  0.00000000000E+00  0.00000000000E+00  0.27804488411E+03  0.27804488416E+03  0.50400001928E-02 0.  1.
       -1   -1    0    0    0  501  0.00000000000E+00  0.00000000000E+00 -0.57927446274E+03  0.57927446276E+03  0.50400001928E-02 0. -1.
    10030    2    1    2    0    0  0.00000000000E+00  0.00000000000E+00 -0.30122957863E+03  0.85731934692E+03  0.80265634213E+03 0.  0.
        2    1    3    3  502    0  0.36482056270E+03 -0.77210845646E+02  0.78419098047E+01  0.37298398519E+03  0.25500000920E-02 0.  1.
       -2    1    3    3    0  502 -0.36482056270E+03  0.77210845646E+02 -0.30907148843E+03  0.48433536173E+03  0.25500000920E-02 0. -1.
</event>
<event>
 5   0  0.2768834E-03  0.7991641E+03  0.7818609E-02  0.9561228E-01
       -2   -1    0    0    0  501  0.00000000000E+00  0.00000000000E+00  0.12615399403E+03  0.12615399405E+03  0.25500000920E-02 0.  1.
        2   -1    0    0  501    0  0.00000000000E+00  0.00000000000E+00 -0.12656421058E+04  0.12656421058E+04  0.25500000920E-02 0. -1.
    10030    2    1    2    0    0  0.00000000000E+00  0.00000000000E+00 -0.11394881118E+04  0.13917960999E+04  0.79916407997E+03 0.  0.
        4    1    3    3  502    0  0.36635829699E+03  0.59717098853E+02 -0.31213570036E+03  0.48498952773E+03  0.12699999809E+01 0. -1.
       -4    1    3    3    0  502 -0.36635829699E+03 -0.59717098853E+02 -0.82735241145E+03  0.90680657215E+03  0.12699999809E+01 0.  1.
</event>
<event>
 5   0  0.2873212E-03  0.8073214E+03  0.7818609E-02  0.9549480E-01
        2   -1    0    0  501    0  0.00000000000E+00  0.00000000000E+00  0.13547407530E+04  0.13547407530E+04  0.25500000920E-02 0. -1.
       -2   -1    0    0    0  501  0.00000000000E+00  0.00000000000E+00 -0.12027537600E+03  0.12027537603E+03  0.25500000920E-02 0.  1.
    10030    2    1    2    0    0  0.00000000000E+00  0.00000000000E+00  0.12344653770E+04  0.14750161290E+04  0.80732138204E+03 0.  0.
        2    1    3    3  502    0  0.23546750387E+03  0.23222911163E+03  0.10400936070E+04  0.10914073561E+04  0.25500000920E-02 0. -1.
       -2    1    3    3    0  502 -0.23546750387E+03 -0.23222911163E+03  0.19437176997E+03  0.38360877288E+03  0.25500000920E-02 0.  1.
</event>
<event>
 5   0  0.2690809E-03  0.7999347E+03  0.7818609E-02  0.9560112E-01
       -2   -1    0    0    0  501  0.00000000000E+00  0.00000000000E+00  0.12556388425E+03  0.12556388427E+03  0.25500000920E-02 0. -1.
        2   -1    0    0  501    0  0.00000000000E+00  0.00000000000E+00 -0.12740438263E+04  0.12740438263E+04  0.25500000920E-02 0.  1.
    10030    2    1    2    0    0  0.00000000000E+00  0.00000000000E+00 -0.11484799421E+04  0.13996077106E+04  0.79993472622E+03 0.  0.
        5    1    3    3  502    0  0.38293610999E+03 -0.31424454367E+02 -0.76847692783E+03  0.85918940826E+03  0.46999998093E+01 0.  1.
       -5    1    3    3    0  502 -0.38293610999E+03  0.31424454367E+02 -0.38000301425E+03  0.54041830234E+03  0.46999998093E+01 0. -1.
</event>
<event>
 5   0  0.1095350E-03  0.7984444E+03  0.7818609E-02  0.9562271E-01
        4   -1    0    0  501    0  0.00000000000E+00  0.00000000000E+00  0.20961774860E+03  0.20962159581E+03  0.12699999809E+01 0.  1.
       -4   -1    0    0    0  501  0.00000000000E+00  0.00000000000E+00 -0.76031727469E+03  0.76031833537E+03  0.12699999809E+01 0. -1.
    10030    2    1    2    0    0  0.00000000000E+00  0.00000000000E+00 -0.55069952609E+03  0.96993993117E+03  0.79844442640E+03 0.  0.
        1    1    3    3  502    0 -0.16568987999E+03 -0.22237059315E+03  0.73521671252E+02  0.28689240701E+03  0.50400001928E-02 0.  1.
       -1    1    3    3    0  502  0.16568987999E+03  0.22237059315E+03 -0.62422119734E+03  0.68304752416E+03  0.50400001928E-02 0. -1.
</event>
<event>
 5   0  0.2768834E-03  0.7942865E+03  0.7818609E-02  0.9568324E-01
        2   -1    0    0  501    0  0.00000000000E+00  0.00000000000E+00  0.81963405168E+03  0.81963405168E+03  0.25500000920E-02 0.  1.
       -2   -1    0    0    0  501  0.00000000000E+00  0.00000000000E+00 -0.19243073065E+03  0.19243073067E+03  0.25500000920E-02 0. -1.
    10030    2    1    2    0    0  0.00000000000E+00  0.00000000000E+00  0.62720332103E+03  0.10120647823E+04  0.79428654638E+03 0.  0.
        4    1    3    3  502    0 -0.25623092331E+03  0.74134934136E+01  0.70010491401E+03  0.74555868278E+03  0.12699999809E+01 0.  1.
       -4    1    3    3    0  502  0.25623092331E+03 -0.74134934136E+01 -0.72901592985E+02  0.26650609957E+03  0.12699999809E+01 0. -1.
</event>
<event>
 5   0  0.2763587E-03  0.7980412E+03  0.7818609E-02  0.9562857E-01
        2   -1    0    0  501    0  0.00000000000E+00  0.00000000000E+00  0.10330961583E+04  0.10330961583E+04  0.25500000920E-02 0. -1.
       -2   -1    0    0    0  501  0.00000000000E+00  0.00000000000E+00 -0.15411677824E+03  0.15411677826E+03  0.25500000920E-02 0.  1.
    10030    2    1    2    0    0  0.00000000000E+00  0.00000000000E+00  0.87897938008E+03  0.11872129366E+04  0.79804123087E+03 0.  0.
        3    1    3    3  502    0 -0.13275966068E+02  0.22846269256E+03 -0.46785822764E+02  0.23358162723E+03  0.10100000352E+00 0.  1.
       -3    1    3    3    0  502  0.13275966068E+02 -0.22846269256E+03  0.92576520285E+03  0.95363130935E+03  0.10100000352E+00 0. -1.
</event>
<event>
 5   0  0.1656051E-03  0.8007195E+03  0.7818609E-02  0.9558976E-01
       -1   -1    0    0    0  501  0.00000000000E+00  0.00000000000E+00  0.63961409676E+03  0.63961409678E+03  0.50400001928E-02 0.  1.
        1   -1    0    0  501    0  0.00000000000E+00  0.00000000000E+00 -0.25060099970E+03  0.25060099975E+03  0.50400001928E-02 0. -1.
    10030    2    1    2    0    0  0.00000000000E+00  0.00000000000E+00  0.38901309706E+03  0.89021509653E+03  0.80071950670E+03 0.  0.
        3    1    3    3  502    0 -0.71478646381E+02 -0.32344783018E+03 -0.55481387098E+02  0.33586588134E+03  0.10100000352E+00 0. -1.
       -3    1    3    3    0  502  0.71478646381E+02  0.32344783018E+03  0.44449448416E+03  0.55434921519E+03  0.10100000352E+00 0.  1.
</event>
<event>
 5   0  0.2763587E-03  0.7995974E+03  0.7818609E-02  0.9560600E-01
       -2   -1    0    0    0  501  0.00000000000E+00  0.00000000000E+00  0.14360485294E+03  0.14360485296E+03  0.25500000920E-02 0. -1.
        2   -1    0    0  501    0  0.00000000000E+00  0.00000000000E+00 -0.11130472747E+04  0.11130472747E+04  0.25500000920E-02 0.  1.
    10030    2    1    2    0    0  0.00000000000E+00  0.00000000000E+00 -0.96944242177E+03  0.12566521277E+04  0.79959737422E+03 0.  0.
        3    1    3    3  502    0  0.20478871144E+03  0.11315844870E+02  0.54622584448E+02  0.21225009214E+03  0.10100000352E+00 0. -1.
       -3    1    3    3    0  502 -0.20478871144E+03 -0.11315844870E+02 -0.10240650062E+04  0.10444020355E+04  0.10100000352E+00 0.  1.
</event>
<event>
 5   0  0.1637228E-03  0.7994337E+03  0.7818609E-02  0.9560837E-01
       -1   -1    0    0    0  501  0.00000000000E+00  0.00000000000E+00  0.16262132575E+03  0.16262132583E+03  0.50400001928E-02 0.  1.
        1   -1    0    0  501    0  0.00000000000E+00  0.00000000000E+00 -0.98248825021E+03  0.98248825023E+03  0.50400001928E-02 0. -1.
    10030    2    1    2    0    0  0.00000000000E+00  0.00000000000E+00 -0.81986692447E+03  0.11451095761E+04  0.79943365412E+03 0.  0.
        2    1    3    3  502    0 -0.86238042034E+02 -0.24266867293E+03  0.27942079031E+02  0.25904795792E+03  0.25500000920E-02 0.  1.
       -2    1    3    3    0  502  0.86238042034E+02  0.24266867293E+03 -0.84780900350E+03  0.88606161813E+03  0.25500000920E-02 0. -1.
</event>
<event>
 5   0  0.1617491E-03  0.8006667E+03  0.7818609E-02  0.9559053E-01
       -1   -1    0    0    0  501  0.00000000000E+00  0.00000000000E+00  0.23825589614E+03  0.23825589619E+03  0.50400001928E-02 0.  1.
        1   -1    0    0  501    0  0.00000000000E+00  0.00000000000E+00 -0.67266669862E+03  0.67266669864E+03  0.50400001928E-02 0. -1.
    10030    2    1    2    0    0  0.00000000000E+00  0.00000000000E+00 -0.43441080248E+03  0.91092259483E+03  0.80066673995E+03 0.  0.
        1    1    3    3  502    0  0.24129362735E+02 -0.38881648171E+03 -0.32213563961E+03  0.50550158549E+03  0.50400001928E-02 0. -1.
       -1    1    3    3    0  502 -0.24129362735E+02  0.38881648171E+03 -0.11227516287E+03  0.40542100935E+03  0.50400001928E-02 0.  1.
</event>
<event>
 5   0  0.2768834E-03  0.8029578E+03  0.7818609E-02  0.9555746E-01
       -2   -1    0    0    0  501  0.00000000000E+00  0.00000000000E+00  0.20315122546E+03  0.20315122548E+03  0.25500000920E-02 0. -1.
        2   -1    0    0  501    0  0.00000000000E+00  0.00000000000E+00 -0.79342532433E+03  0.79342532433E+03  0.25500000920E-02 0.  1.
    10030    2    1    2    0    0  0.00000000000E+00  0.00000000000E+00 -0.59027409887E+03  0.99657654981E+03  0.80295784935E+03 0.  0.
        4    1    3    3  502    0 -0.80076140733E+01 -0.28653025554E+03 -0.64402537845E+03  0.70493546529E+03  0.12699999809E+01 0.  1.
       -4    1    3    3    0  502  0.80076140733E+01  0.28653025554E+03  0.53751279588E+02  0.29164108452E+03  0.12699999809E+01 0. -1.
</event>
<event>
 5   0  0.2768834E-03  0.7994828E+03  0.7818609E-02  0.9560766E-01
        2   -1    0    0  501    0  0.00000000000E+00  0.00000000000E+00  0.98312176759E+03  0.98312176759E+03  0.25500000920E-02 0. -1.
       -2   -1    0    0    0  501  0.00000000000E+00  0.00000000000E+00 -0.16253653249E+03  0.16253653251E+03  0.25500000920E-02 0.  1.
    10030    2    1    2    0    0  0.00000000000E+00  0.00000000000E+00  0.82058523509E+03  0.11456583001E+04  0.79948284068E+03 0.  0.
        4    1    3    3  502    0  0.11296251987E+03  0.17985231633E+03  0.89557861532E+03  0.92041841339E+03  0.12699999809E+01 0. -1.
       -4    1    3    3    0  502 -0.11296251987E+03 -0.17985231633E+03 -0.74993380232E+02  0.22523988671E+03  0.12699999809E+01 0.  1.
</event>
<event>
 5   0  0.2768834E-03  0.7997102E+03  0.7818609E-02  0.9560437E-01
       -2   -1    0    0    0  501  0.00000000000E+00  0.00000000000E+00  0.42500986729E+03  0.42500986730E+03  0.25500000920E-02 0.  1.
        2   -1    0    0  501    0  0.00000000000E+00  0.00000000000E+00 -0.37618910523E+03  0.37618910524E+03  0.25500000920E-02 0. -1.
    10030    2    1    2    0    0  0.00000000000E+00  0.00000000000E+00  0.48820762064E+02  0.80119897254E+03  0.79971015173E+03 0.  0.
        4    1    3    3  502    0 -0.62756505513E+02 -0.11550138889E+03 -0.35392146183E+03  0.37754597582E+03  0.12699999809E+01 0. -1.
       -4    1    3    3    0  502  0.62756505513E+02  0.11550138889E+03  0.40274222389E+03  0.42365299671E+03  0.12699999809E+01 0.  1.
</event>
<event>
 5   0  0.1095350E-03  0.8005759E+03  0.7818609E-02  0.9559184E-01
       -3   -1    0    0    0  501  0.00000000000E+00  0.00000000000E+00  0.91198298872E+03  0.91198299432E+03  0.10100000352E+00 0. -1.
        3   -1    0    0  501    0  0.00000000000E+00  0.00000000000E+00 -0.17569454070E+03  0.17569456973E+03  0.10100000352E+00 0.  1.
    10030    2    1    2    0    0  0.00000000000E+00  0.00000000000E+00  0.73628844802E+03  0.10876775640E+04  0.80057592060E+03 0.  0.
        4    1    3    3  502    0  0.28403659778E+03  0.16361921239E+02  0.75069698966E+03  0.80280264357E+03  0.12699999809E+01 0. -1.
       -4    1    3    3    0  502 -0.28403659778E+03 -0.16361921239E+02 -0.14408541637E+02  0.28487492047E+03  0.12699999809E+01 0.  1.
</event>
<event>
 5   0  0.1617491E-03  0.7990353E+03  0.7818609E-02  0.9561415E-01
        1   -1    0    0  501    0  0.00000000000E+00  0.00000000000E+00  0.73372322145E+03  0.73372322146E+03  0.50400001928E-02 0.  1.
       -1   -1    0    0    0  501  0.00000000000E+00  0.00000000000E+00 -0.21754026801E+03  0.21754026807E+03  0.50400001928E-02 0. -1.
    10030    2    1    2    0    0  0.00000000000E+00  0.00000000000E+00  0.51618295344E+03  0.95126348953E+03  0.79903528401E+03 0.  0.
        1    1    3    3  502    0  0.17458184680E+03  0.29459961864E+03  0.50307907015E+03  0.60856906542E+03  0.50400001928E-02 0.  1.
       -1    1    3    3    0  502 -0.17458184680E+03 -0.29459961864E+03  0.13103883283E+02  0.34269442411E+03  0.50400001928E-02 0. -1.
</event>
<event>
 5   0  0.1095350E-03  0.7998080E+03  0.7818609E-02  0.9560295E-01
       -3   -1    0    0    0  501  0.00000000000E+00  0.00000000000E+00  0.10779924139E+04  0.10779924186E+04  0.10100000352E+00 0. -1.
        3   -1    0    0  501    0  0.00000000000E+00  0.00000000000E+00 -0.14835280338E+03  0.14835283776E+03  0.10100000352E+00 0.  1.
    10030    2    1    2    0    0  0.00000000000E+00  0.00000000000E+00  0.92963961052E+03  0.12263452564E+04  0.79980802848E+03 0.  0.
        4    1    3    3  502    0 -0.18266058071E+03 -0.35299880979E+03  0.39713613281E+03  0.56186454626E+03  0.12699999809E+01 0. -1.
       -4    1    3    3    0  502  0.18266058071E+03  0.35299880979E+03  0.53250347770E+03  0.66448071012E+03  0.12699999809E+01 0.  1.
</event>
<event>
 5   0  0.2763587E-03  0.7922591E+03  0.7818609E-02  0.9571290E-01
        2   -1    0    0  501    0  0.00000000000E+00  0.00000000000E+00  0.12074427393E+04  0.12074427393E+04  0.25500000920E-02 0. -1.
       -2   -1    0    0    0  501  0.00000000000E+00  0.00000000000E+00 -0.12995947025E+03  0.12995947027E+03  0.25500000920E-02 0.  1.
    10030    2    1    2    0    0  0.00000000000E+00  0.00000000000E+00  0.10774832690E+04  0.13374022096E+04  0.79225909593E+03 0.  0.
        3    1    3    3  502    0  0.16342062658E+03 -0.20832127154E+03  0.41358477501E+02  0.26798243828E+03  0.10100000352E+00 0.  1.
       -3    1    3    3    0  502 -0.16342062658E+03  0.20832127154E+03  0.10361247915E+04  0.10694197713E+04  0.10100000352E+00 0. -1.
</event>
<event>
 5   0  0.1095350E-03  0.7994217E+03  0.7818609E-02  0.9560855E-01
       -3   -1    0    0    0  501  0.00000000000E+00  0.00000000000E+00  0.44734576623E+03  0.44734577763E+03  0.10100000352E+00 0.  1.
        3   -1    0    0  501    0  0.00000000000E+00  0.00000000000E+00 -0.35714820085E+03  0.35714821513E+03  0.10100000352E+00 0. -1.
    10030    2    1    2    0    0  0.00000000000E+00  0.00000000000E+00  0.90197565373E+02  0.80449399276E+03  0.79942165569E+03 0.  0.
        3    1    3    3  502    0 -0.16279935485E+03  0.36105535743E+03  0.99330738784E+02  0.40832732818E+03  0.10100000352E+00 0.  1.
       -3    1    3    3    0  502  0.16279935485E+03 -0.36105535743E+03 -0.91331734112E+01  0.39616666458E+03  0.10100000352E+00 0. -1.
</event>
<event>
 5   0  0.2763587E-03  0.7993510E+03  0.7818609E-02  0.9560957E-01
        2   -1    0    0  501    0  0.00000000000E+00  0.00000000000E+00  0.29141902213E+04  0.29141902213E+04  0.25500000920E-02 0. -1.
       -2   -1    0    0    0  501  0.00000000000E+00  0.00000000000E+00 -0.54814717181E+02  0.54814717241E+02  0.25500000920E-02 0.  1.
    10030    2    1    2    0    0  0.00000000000E+00  0.00000000000E+00  0.28593755041E+04  0.29690049385E+04  0.79935101897E+03 0.  0.
        3    1    3    3  502    0  0.19077695062E+03  0.11011648849E+03  0.19099694998E+03  0.29154987743E+03  0.10100000352E+00 0.  1.
       -3    1    3    3    0  502 -0.19077695062E+03 -0.11011648849E+03  0.26683785541E+04  0.26774550611E+04  0.10100000352E+00 0. -1.
</event>
<event>
 5   0  0.1095350E-03  0.8002116E+03  0.7818609E-02  0.9559711E-01
        4   -1    0    0  501    0  0.00000000000E+00  0.00000000000E+00  0.13105770761E+03  0.13106386086E+03  0.12699999809E+01 0.  1.
       -4   -1    0    0    0  501  0.00000000000E+00  0.00000000000E+00 -0.12214468592E+04  0.12214475195E+04  0.12699999809E+01 0. -1.
    10030    2    1    2    0    0  0.00000000000E+00  0.00000000000E+00 -0.10903891516E+04  0.13525113803E+04  0.80021155450E+03 0.  0.
        1    1    3    3  502    0 -0.15864444279E+03  0.18571270542E+03 -0.95679672461E+01  0.24443570566E+03  0.50400001928E-02 0.  1.
       -1    1    3    3    0  502  0.15864444279E+03 -0.18571270542E+03 -0.10808211844E+04  0.11080756747E+04  0.50400001928E-02 0. -1.
</event>
<event>
 5   0  0.1617491E-03  0.8001607E+03  0.7818609E-02  0.9559784E-01
       -1   -1    0    0    0  501  0.00000000000E+00  0.00000000000E+00  0.37416450799E+03  0.37416450802E+03  0.50400001928E-02 0.  1.
        1   -1    0    0  501    0  0.00000000000E+00  0.00000000000E+00 -0.42779123460E+03  0.42779123463E+03  0.50400001928E-02 0. -1.
    10030    2    1    2    0    0  0.00000000000E+00  0.00000000000E+00 -0.53626726609E+02  0.80195574265E+03  0.80016072595E+03 0.  0.
        1    1    3    3  502    0  0.27863054625E+03 -0.26769758495E+03  0.77185106863E+02  0.39402350061E+03  0.50400001928E-02 0.  1.
       -1    1    3    3    0  502 -0.27863054625E+03  0.26769758495E+03 -0.13081183347E+03  0.40793224203E+03  0.50400001928E-02 0. -1.
</event>
<event>
 5   0  0.1637228E-03  0.8114952E+03  0.7818609E-02  0.9543526E-01
        1   -1    0    0  501    0  0.00000000000E+00  0.00000000000E+00  0.11721547896E+04  0.11721547896E+04  0.50400001928E-02 0.  1.
       -1   -1    0    0    0  501  0.00000000000E+00  0.00000000000E+00 -0.14045169544E+03  0.14045169553E+03  0.50400001928E-02 0. -1.
    10030    2    1    2    0    0  0.00000000000E+00  0.00000000000E+00  0.10317030942E+04  0.13126064852E+04  0.81149523125E+03 0.  0.
        2    1    3    3  502    0 -0.60372954873E+02  0.39977590601E+03  0.46063146474E+03  0.61290049357E+03  0.25500000920E-02 0.  1.
       -2    1    3    3    0  502  0.60372954873E+02 -0.39977590601E+03  0.57107162944E+03  0.69970599159E+03  0.25500000920E-02 0. -1.
</event>
<event>
 5   0  0.2763587E-03  0.8016943E+03  0.7818609E-02  0.9557568E-01
        2   -1    0    0  501    0  0.00000000000E+00  0.00000000000E+00  0.44336249594E+03  0.44336249594E+03  0.25500000920E-02 0. -1.
       -2   -1    0    0    0  501  0.00000000000E+00  0.00000000000E+00 -0.36240872002E+03  0.36240872003E+03  0.25500000920E-02 0.  1.
    10030    2    1    2    0    0  0.00000000000E+00  0.00000000000E+00  0.80953775913E+02  0.80577121597E+03  0.80169429252E+03 0.  0.
        3    1    3    3  502    0  0.33527642641E+01 -0.39269594225E+03 -0.40287713412E+02  0.39477139478E+03  0.10100000352E+00 0.  1.
       -3    1    3    3    0  502 -0.33527642641E+01  0.39269594225E+03  0.12124148933E+03  0.41099982119E+03  0.10100000352E+00 0. -1.
</event>
<event>
 5   0  0.1637228E-03  0.7999829E+03  0.7818609E-02  0.9560042E-01
        1   -1    0    0  501    0  0.00000000000E+00  0.00000000000E+00  0.74495253357E+03  0.74495253359E+03  0.50400001928E-02 0.  1.
       -1   -1    0    0    0  501  0.00000000000E+00  0.00000000000E+00 -0.21476960113E+03  0.21476960119E+03  0.50400001928E-02 0. -1.
    10030    2    1    2    0    0  0.00000000000E+00  0.00000000000E+00  0.53018293244E+03  0.95972213478E+03  0.79998289615E+03 0.  0.
        2    1    3    3  502    0  0.13068939597E+03  0.43703989262E+02  0.71557570891E+03  0.72872378312E+03  0.25500000920E-02 0.  1.
       -2    1    3    3    0  502 -0.13068939597E+03 -0.43703989262E+02 -0.18539277647E+03  0.23099835166E+03  0.25500000920E-02 0. -1.
</event>
<event>
 5   0  0.2768834E-03  0.7980835E+03  0.7818609E-02  0.9562795E-01
        2   -1    0    0  501    0  0.00000000000E+00  0.00000000000E+00  0.59100869311E+03  0.59100869312E+03  0.25500000920E-02 0. -1.
       -2   -1    0    0    0  501  0.00000000000E+00  0.00000000000E+00 -0.26942802316E+03  0.26942802317E+03  0.25500000920E-02 0.  1.
    10030    2    1    2    0    0  0.00000000000E+00  0.00000000000E+00  0.32158066995E+03  0.86043671628E+03  0.79808346396E+03 0.  0.
        4    1    3    3  502    0 -0.35586480543E+03  0.10467185234E+03  0.31937693204E+03  0.48948870675E+03  0.12699999809E+01 0. -1.
       -4    1    3    3    0  502  0.35586480543E+03 -0.10467185234E+03  0.22037379127E+01  0.37094800953E+03  0.12699999809E+01 0.  1.
</event>
<event>
 5   0  0.1656051E-03  0.7990336E+03  0.7818609E-02  0.9561417E-01
        1   -1    0    0  501    0  0.00000000000E+00  0.00000000000E+00  0.20021750852E+03  0.20021750858E+03  0.50400001928E-02 0.  1.
       -1   -1    0    0    0  501  0.00000000000E+00  0.00000000000E+00 -0.79720142057E+03  0.79720142059E+03  0.50400001928E-02 0. -1.
    10030    2    1    2    0    0  0.00000000000E+00  0.00000000000E+00 -0.59698391206E+03  0.99741892917E+03  0.79903362195E+03 0.  0.
        3    1    3    3  502    0  0.26880985113E+03  0.16836735064E+03 -0.60171743146E+03  0.68019863154E+03  0.10100000352E+00 0. -1.
       -3    1    3    3    0  502 -0.26880985113E+03 -0.16836735064E+03  0.47335194006E+01  0.31722029763E+03  0.10100000352E+00 0.  1.
</event>
<event>
 5   0  0.1617491E-03  0.7935614E+03  0.7818609E-02  0.9569384E-01
       -1   -1    0    0    0  501  0.00000000000E+00  0.00000000000E+00  0.17215248653E+03  0.17215248660E+03  0.50400001928E-02 0. -1.
        1   -1    0    0  501    0  0.00000000000E+00  0.00000000000E+00 -0.91450849164E+03  0.91450849165E+03  0.50400001928E-02 0.  1.
    10030    2    1    2    0    0  0.00000000000E+00  0.00000000000E+00 -0.74235600511E+03  0.10866609782E+04  0.79356136708E+03 0.  0.
        1    1    3    3  502    0 -0.29377782506E+03  0.16728567597E+03 -0.86745772462E+02  0.34901967988E+03  0.50400001928E-02 0.  1.
       -1    1    3    3    0  502  0.29377782506E+03 -0.16728567597E+03 -0.65561023265E+03  0.73764129837E+03  0.50400001928E-02 0. -1.
</event>
<event>
 5   0  0.2768834E-03  0.7984446E+03  0.7818609E-02  0.9562271E-01
       -2   -1    0    0    0  501  0.00000000000E+00  0.00000000000E+00  0.17958194667E+03  0.17958194669E+03  0.25500000920E-02 0. -1.
        2   -1    0    0  501    0  0.00000000000E+00  0.00000000000E+00 -0.88749700036E+03  0.88749700036E+03  0.25500000920E-02 0.  1.
    10030    2    1    2    0    0  0.00000000000E+00  0.00000000000E+00 -0.70791505368E+03  0.10670789471E+04  0.79844458544E+03 0.  0.
        4    1    3    3  502    0 -0.20298832394E+03 -0.49374235388E+02  0.10069924379E+03  0.23191383179E+03  0.12699999809E+01 0. -1.
       -4    1    3    3    0  502  0.20298832394E+03  0.49374235388E+02 -0.80861429747E+03  0.83516511526E+03  0.12699999809E+01 0.  1.
</event>
<event>
 5   0  0.2690809E-03  0.8011384E+03  0.7818609E-02  0.9558371E-01
       -2   -1    0    0    0  501  0.00000000000E+00  0.00000000000E+00  0.14027713102E+03  0.14027713104E+03  0.25500000920E-02 0. -1.
        2   -1    0    0  501    0  0.00000000000E+00  0.00000000000E+00 -0.11438477318E+04  0.11438477318E+04  0.25500000920E-02 0.  1.
    10030    2    1    2    0    0  0.00000000000E+00  0.00000000000E+00 -0.10035706007E+04  0.12841248628E+04  0.80113838541E+03 0.  0.
        5    1    3    3  502    0  0.19421771520E+03 -0.11359489298E+03  0.29367176744E+02  0.22695559406E+03  0.46999998093E+01 0. -1.
       -5    1    3    3    0  502 -0.19421771520E+03  0.11359489298E+03 -0.10329377775E+04  0.10571692687E+04  0.46999998093E+01 0.  1.
</event>
<event>
 5   0  0.1637228E-03  0.7997137E+03  0.7818609E-02  0.9560432E-01
        1   -1    0    0  501    0  0.00000000000E+00  0.00000000000E+00  0.13308119621E+04  0.13308119621E+04  0.50400001928E-02 0. -1.
       -1   -1    0    0    0  501  0.00000000000E+00  0.00000000000E+00 -0.12014130657E+03  0.12014130667E+03  0.50400001928E-02 0.  1.
    10030    2    1    2    0    0  0.00000000000E+00  0.00000000000E+00  0.12106706555E+04  0.14509532688E+04  0.79971366876E+03 0.  0.
        2    1    3    3  502    0 -0.11457489786E+03 -0.10047209528E+03  0.12760612302E+04  0.12851281307E+04  0.25500000920E-02 0. -1.
       -2    1    3    3    0  502  0.11457489786E+03  0.10047209528E+03 -0.65390574666E+02  0.16582513806E+03  0.25500000920E-02 0.  1.
</event>
<event>
 5   0  0.1637228E-03  0.7940811E+03  0.7818609E-02  0.9568624E-01
        1   -1    0    0  501    0  0.00000000000E+00  0.00000000000E+00  0.25154209540E+03  0.25154209545E+03  0.50400001928E-02 0.  1.
       -1   -1    0    0    0  501  0.00000000000E+00  0.00000000000E+00 -0.62669904247E+03  0.62669904249E+03  0.50400001928E-02 0. -1.
    10030    2    1    2    0    0  0.00000000000E+00  0.00000000000E+00 -0.37515694707E+03  0.87824113794E+03  0.79408107989E+03 0.  0.
        2    1    3    3  502    0  0.31103384636E+03 -0.26401348008E+01  0.85337930691E+02  0.32253927872E+03  0.25500000920E-02 0.  1.
       -2    1    3    3    0  502 -0.31103384636E+03  0.26401348008E+01 -0.46049487776E+03  0.55570185922E+03  0.25500000920E-02 0. -1.
</event>
<event>
 5   0  0.1617491E-03  0.7996716E+03  0.7818609E-02  0.9560493E-01
        1   -1    0    0  501    0  0.00000000000E+00  0.00000000000E+00  0.80061982273E+03  0.80061982275E+03  0.50400001928E-02 0. -1.
       -1   -1    0    0    0  501  0.00000000000E+00  0.00000000000E+00 -0.19968111390E+03  0.19968111397E+03  0.50400001928E-02 0.  1.
    10030    2    1    2    0    0  0.00000000000E+00  0.00000000000E+00  0.60093870883E+03  0.10003009367E+04  0.79967157773E+03 0.  0.
        1    1    3    3  502    0 -0.33191706354E+02 -0.18743733570E+03 -0.13936419267E+03  0.23591698203E+03  0.50400001928E-02 0.  1.
       -1    1    3    3    0  502  0.33191706354E+02  0.18743733570E+03  0.74030290150E+03  0.76438395469E+03  0.50400001928E-02 0. -1.
</event>
<event>
 5   0  0.1640035E-03  0.7973479E+03  0.7818609E-02  0.9563864E-01
        1   -1    0    0  501    0  0.00000000000E+00  0.00000000000E+00  0.28365892701E+03  0.28365892706E+03  0.50400001928E-02 0. -1.
       -1   -1    0    0    0  501  0.00000000000E+00  0.00000000000E+00 -0.56032402295E+03  0.56032402297E+03  0.50400001928E-02 0.  1.
    10030    2    1    2    0    0  0.00000000000E+00  0.00000000000E+00 -0.27666509593E+03  0.84398295002E+03  0.79734788181E+03 0.  0.
        5    1    3    3  502    0 -0.17225060014E+03 -0.33218217570E+03  0.71991378152E+01  0.37428489776E+03  0.46999998093E+01 0. -1.
       -5    1    3    3    0  502  0.17225060014E+03  0.33218217570E+03 -0.28386423375E+03  0.46969805227E+03  0.46999998093E+01 0.  1.
</event>
<event>
 5   0  0.1656051E-03  0.7989877E+03  0.7818609E-02  0.9561484E-01
        1   -1    0    0  501    0  0.00000000000E+00  0.00000000000E+00  0.46423810651E+03  0.46423810654E+03  0.50400001928E-02 0. -1.
       -1   -1    0    0    0  501  0.00000000000E+00  0.00000000000E+00 -0.34377901565E+03  0.34377901569E+03  0.50400001928E-02 0.  1.
    10030    2    1    2    0    0  0.00000000000E+00  0.00000000000E+00  0.12045909086E+03  0.80801712223E+03  0.79898765775E+03 0.  0.
        3    1    3    3  502    0 -0.15525190064E+03 -0.35141944075E+03 -0.50536938944E+02  0.38749550757E+03  0.10100000352E+00 0.  1.
       -3    1    3    3    0  502  0.15525190064E+03  0.35141944075E+03  0.17099602981E+03  0.42052161466E+03  0.10100000352E+00 0. -1.
</event>
<event>
 5   0  0.2910501E-03  0.7990156E+03  0.7818609E-02  0.9561443E-01
       -2   -1    0    0    0  501  0.00000000000E+00  0.00000000000E+00  0.48167937314E+03  0.48167937315E+03  0.25500000920E-02 0.  1.
        2   -1    0    0  501    0  0.00000000000E+00  0.00000000000E+00 -0.33135418328E+03  0.33135418329E+03  0.25500000920E-02 0. -1.
    10030    2    1    2    0    0  0.00000000000E+00  0.00000000000E+00  0.15032518986E+03  0.81303355644E+03  0.79901558257E+03 0.  0.
        1    1    3    3  502    0 -0.11435428958E+03 -0.14901919235E+03  0.43394299006E+03  0.47285319274E+03  0.50400001928E-02 0.  1.
       -1    1    3    3    0  502  0.11435428958E+03  0.14901919235E+03 -0.28361780020E+03  0.34018036371E+03  0.50400001928E-02 0. -1.
</event>
<event>
 5   0  0.1656051E-03  0.7999157E+03  0.7818609E-02  0.9560139E-01
        1   -1    0    0  501    0  0.00000000000E+00  0.00000000000E+00  0.12286181017E+04  0.12286181017E+04  0.50400001928E-02 0. -1.
       -1   -1    0    0    0  501  0.00000000000E+00  0.00000000000E+00 -0.13020017802E+03  0.13020017812E+03  0.50400001928E-02 0.  1.
    10030    2    1    2    0    0  0.00000000000E+00  0.00000000000E+00  0.10984179237E+04  0.13588182798E+04  0.79991573464E+03 0.  0.
        3    1    3    3  502    0 -0.16934784480E+03 -0.17691075473E+03  0.12058675844E+02  0.24519691992E+03  0.10100000352E+00 0.  1.
       -3    1    3    3    0  502  0.16934784480E+03  0.17691075473E+03  0.10863592478E+04  0.11136213599E+04  0.10100000352E+00 0. -1.
</event>
<event>
 5   0  0.1617491E-03  0.7983492E+03  0.7818609E-02  0.9562410E-01
        1   -1    0    0  501    0  0.00000000000E+00  0.00000000000E+00  0.20658783173E+03  0.20658783179E+03  0.50400001928E-02 0. -1.
       -1   -1    0    0    0  501  0.00000000000E+00  0.00000000000E+00 -0.77129597970E+03  0.77129597972E+03  0.50400001928E-02 0.  1.
    10030    2    1    2    0    0  0.00000000000E+00  0.00000000000E+00 -0.56470814797E+03  0.97788381151E+03  0.79834920708E+03 0.  0.
        1    1    3    3  502    0  0.29257623288E+03 -0.10139597787E+03  0.26205344074E+02  0.31075507471E+03  0.50400001928E-02 0. -1.
       -1    1    3    3    0  502 -0.29257623288E+03  0.10139597787E+03 -0.59091349204E+03  0.66712873681E+03  0.50400001928E-02 0.  1.
</event>
<event>
 5   0  0.1617491E-03  0.7979100E+03  0.7818609E-02  0.9563047E-01
        1   -1    0    0  501    0  0.00000000000E+00  0.00000000000E+00  0.11309856810E+04  0.11309856810E+04  0.50400001928E-02 0. -1.
       -1   -1    0    0    0  501  0.00000000000E+00  0.00000000000E+00 -0.14073131929E+03  0.14073131938E+03  0.50400001928E-02 0.  1.
    10030    2    1    2    0    0  0.00000000000E+00  0.00000000000E+00  0.99025436175E+03  0.12717170004E+04  0.79791003767E+03 0.  0.
        1    1    3    3  502    0 -0.67620244723E+01 -0.37865603021E+03  0.69507884246E+03  0.79155588018E+03  0.50400001928E-02 0. -1.
       -1    1    3    3    0  502  0.67620244723E+01  0.37865603021E+03  0.29517551929E+03  0.48016112025E+03  0.50400001928E-02 0.  1.
</event>
<event>
 5   0  0.1637228E-03  0.8023806E+03  0.7818609E-02  0.9556578E-01
       -1   -1    0    0    0  501  0.00000000000E+00  0.00000000000E+00  0.67448562562E+03  0.67448562564E+03  0.50400001928E-02 0.  1.
        1   -1    0    0  501    0  0.00000000000E+00  0.00000000000E+00 -0.23863172904E+03  0.23863172909E+03  0.50400001928E-02 0. -1.
    10030    2    1    2    0    0  0.00000000000E+00  0.00000000000E+00  0.43585389658E+03  0.91311735473E+03  0.80238063558E+03 0.  0.
        2    1    3    3  502    0 -0.37380490212E+03  0.14517561988E+03  0.20410091464E+03  0.44995916350E+03  0.25500000920E-02 0.  1.
       -2    1    3    3    0  502  0.37380490212E+03 -0.14517561988E+03  0.23175298194E+03  0.46315819123E+03  0.25500000920E-02 0. -1.
</event>
<event>
 5   0  0.1656051E-03  0.7992849E+03  0.7818609E-02  0.9561053E-01
        1   -1    0    0  501    0  0.00000000000E+00  0.00000000000E+00  0.87623745604E+03  0.87623745606E+03  0.50400001928E-02 0. -1.
       -1   -1    0    0    0  501  0.00000000000E+00  0.00000000000E+00 -0.18227262507E+03  0.18227262514E+03  0.50400001928E-02 0.  1.
    10030    2    1    2    0    0  0.00000000000E+00  0.00000000000E+00  0.69396483097E+03  0.10585100812E+04  0.79928493379E+03 0.  0.
        3    1    3    3  502    0 -0.12481451258E+03  0.67126625591E+02  0.84184187594E+03  0.85368753106E+03  0.10100000352E+00 0. -1.
       -3    1    3    3    0  502  0.12481451258E+03 -0.67126625591E+02 -0.14787704497E+03  0.20482255013E+03  0.10100000352E+00 0.  1.
</event>
<event>
 5   0  0.2910501E-03  0.8031914E+03  0.7818609E-02  0.9555409E-01
       -2   -1    0    0    0  501  0.00000000000E+00  0.00000000000E+00  0.27265671205E+03  0.27265671206E+03  0.25500000920E-02 0.  1.
        2   -1    0    0  501    0  0.00000000000E+00  0.00000000000E+00 -0.59150976235E+03  0.59150976235E+03  0.25500000920E-02 0. -1.
    10030    2    1    2    0    0  0.00000000000E+00  0.00000000000E+00 -0.31885305030E+03  0.86416647441E+03  0.80319140173E+03 0.  0.
        1    1    3    3  502    0 -0.37476581437E+03 -0.11076192445E+03 -0.25897920928E+03  0.46881536920E+03  0.50400001928E-02 0. -1.
       -1    1    3    3    0  502  0.37476581437E+03  0.11076192445E+03 -0.59873841015E+02  0.39535110521E+03  0.50400001928E-02 0.  1.
</event>
<event>
 5   0  0.2690809E-03  0.7988892E+03  0.7818609E-02  0.9561626E-01
       -2   -1    0    0    0  501  0.00000000000E+00  0.00000000000E+00  0.29728356221E+03  0.29728356222E+03  0.25500000920E-02 0. -1.
        2   -1    0    0  501    0  0.00000000000E+00  0.00000000000E+00 -0.53671312474E+03  0.53671312474E+03  0.25500000920E-02 0.  1.
    10030    2    1    2    0    0  0.00000000000E+00  0.00000000000E+00 -0.23942956253E+03  0.83399668696E+03  0.79888920286E+03 0.  0.
        5    1    3    3  502    0 -0.33224716022E+03  0.21125830522E+03 -0.18986645480E+03  0.43713797325E+03  0.46999998093E+01 0.  1.
       -5    1    3    3    0  502  0.33224716022E+03 -0.21125830522E+03 -0.49563107734E+02  0.39685871371E+03  0.46999998093E+01 0. -1.
</event>
<event>
 5   0  0.1656051E-03  0.7999094E+03  0.7818609E-02  0.9560148E-01
        1   -1    0    0  501    0  0.00000000000E+00  0.00000000000E+00  0.17661881069E+04  0.17661881069E+04  0.50400001928E-02 0. -1.
       -1   -1    0    0    0  501  0.00000000000E+00  0.00000000000E+00 -0.90570068340E+02  0.90570068480E+02  0.50400001928E-02 0.  1.
    10030    2    1    2    0    0  0.00000000000E+00  0.00000000000E+00  0.16756180386E+04  0.18567581754E+04  0.79990943908E+03 0.  0.
        3    1    3    3  502    0  0.32118931396E+03 -0.32690767328E+02  0.13857941928E+04  0.14229043596E+04  0.10100000352E+00 0. -1.
       -3    1    3    3    0  502 -0.32118931396E+03  0.32690767328E+02  0.28982384577E+03  0.43385381576E+03  0.10100000352E+00 0.  1.
</event>
<event>
 5   0  0.1095350E-03  0.8028564E+03  0.7818609E-02  0.9555892E-01
        4   -1    0    0  501    0  0.00000000000E+00  0.00000000000E+00  0.93971756011E+03  0.93971841829E+03  0.12699999809E+01 0.  1.
       -4   -1    0    0    0  501  0.00000000000E+00  0.00000000000E+00 -0.17147864546E+03  0.17148334831E+03  0.12699999809E+01 0. -1.
    10030    2    1    2    0    0  0.00000000000E+00  0.00000000000E+00  0.76823891465E+03  0.11112017666E+04  0.80285636082E+03 0.  0.
        2    1    3    3  502    0 -0.32898665465E+03  0.86700487294E+02  0.89228843645E+02  0.35172571697E+03  0.25500000920E-02 0. -1.
       -2    1    3    3    0  502  0.32898665465E+03 -0.86700487294E+02  0.67901007101E+03  0.75947604963E+03  0.25500000920E-02 0.  1.
</event>
<event>
 5   0  0.1712793E-03  0.7998380E+03  0.7818609E-02  0.9560252E-01
        1   -1    0    0  501    0  0.00000000000E+00  0.00000000000E+00  0.48863884305E+03  0.48863884307E+03  0.50400001928E-02 0.  1.
       -1   -1    0    0    0  501  0.00000000000E+00  0.00000000000E+00 -0.32730758432E+03  0.32730758435E+03  0.50400001928E-02 0. -1.
    10030    2    1    2    0    0  0.00000000000E+00  0.00000000000E+00  0.16133125873E+03  0.81594642743E+03  0.79983798196E+03 0.  0.
        4    1    3    3  502    0  0.15567042947E+03  0.23135524887E+03 -0.21176955061E+03  0.35015209446E+03  0.12699999809E+01 0. -1.
       -4    1    3    3    0  502 -0.15567042947E+03 -0.23135524887E+03  0.37310080934E+03  0.46579433297E+03  0.12699999809E+01 0.  1.
</event>
<event>
 5   0  0.1637228E-03  0.8062505E+03  0.7818609E-02  0.9551014E-01
       -1   -1    0    0    0  501  0.00000000000E+00  0.00000000000E+00  0.11964953851E+03  0.11964953861E+03  0.50400001928E-02 0. -1.
        1   -1    0    0  501    0  0.00000000000E+00  0.00000000000E+00 -0.13582163005E+04  0.13582163005E+04  0.50400001928E-02 0.  1.
    10030    2    1    2    0    0  0.00000000000E+00  0.00000000000E+00 -0.12385667620E+04  0.14778658391E+04  0.80625046638E+03 0.  0.
        2    1    3    3  502    0  0.30700219167E+03 -0.21798037852E+03 -0.35527787482E+03  0.51767572809E+03  0.25500000920E-02 0. -1.
       -2    1    3    3    0  502 -0.30700219167E+03  0.21798037852E+03 -0.88328888718E+03  0.96019011104E+03  0.25500000920E-02 0.  1.
</event>
<event>
 5   0  0.1617491E-03  0.8024859E+03  0.7818609E-02  0.9556426E-01
       -1   -1    0    0    0  501  0.00000000000E+00  0.00000000000E+00  0.71400638398E+03  0.71400638400E+03  0.50400001928E-02 0. -1.
        1   -1    0    0  501    0  0.00000000000E+00  0.00000000000E+00 -0.22548243018E+03  0.22548243024E+03  0.50400001928E-02 0.  1.
    10030    2    1    2    0    0  0.00000000000E+00  0.00000000000E+00  0.48852395380E+03  0.93948881424E+03  0.80248587442E+03 0.  0.
        1    1    3    3  502    0 -0.39240899713E+03  0.54331477747E+02  0.16967336530E+03  0.43095914124E+03  0.50400001928E-02 0.  1.
       -1    1    3    3    0  502  0.39240899713E+03 -0.54331477747E+02  0.31885058850E+03  0.50852967299E+03  0.50400001928E-02 0. -1.
</event>
<event>
 5   0  0.1640035E-03  0.8000656E+03  0.7818609E-02  0.9559922E-01
       -1   -1    0    0    0  501  0.00000000000E+00  0.00000000000E+00  0.41597619420E+03  0.41597619423E+03  0.50400001928E-02 0. -1.
        1   -1    0    0  501    0  0.00000000000E+00  0.00000000000E+00 -0.38470046865E+03  0.38470046868E+03  0.50400001928E-02 0.  1.
    10030    2    1    2    0    0  0.00000000000E+00  0.00000000000E+00  0.31275725549E+02  0.80067666291E+03  0.80006558951E+03 0.  0.
        5    1    3    3  502    0 -0.14217253080E+03 -0.12597509275E+03  0.36793143895E+03  0.41409948837E+03  0.46999998093E+01 0. -1.
       -5    1    3    3    0  502  0.14217253080E+03  0.12597509275E+03 -0.33665571340E+03  0.38657717453E+03  0.46999998093E+01 0.  1.
</event>
<event>
 5   0  0.2690809E-03  0.7995474E+03  0.7818609E-02  0.9560672E-01
       -2   -1    0    0    0  501  0.00000000000E+00  0.00000000000E+00  0.71228808534E+03  0.71228808535E+03  0.25500000920E-02 0.  1.
        2   -1    0    0  501    0  0.00000000000E+00  0.00000000000E+00 -0.22437412968E+03  0.22437412969E+03  0.25500000920E-02 0. -1.
    10030    2    1    2    0    0  0.00000000000E+00  0.00000000000E+00  0.48791395567E+03  0.93666221504E+03  0.79954742007E+03 0.  0.
        5    1    3    3  502    0  0.58419531905E+01 -0.39511721934E+03  0.17322781938E+03  0.43148778991E+03  0.46999998093E+01 0. -1.
       -5    1    3    3    0  502 -0.58419531905E+01  0.39511721934E+03  0.31468613629E+03  0.50517442513E+03  0.46999998093E+01 0.  1.
</event>
<event>
 5   0  0.2768834E-03  0.8035531E+03  0.7818609E-02  0.9554888E-01
        2   -1    0    0  501    0  0.00000000000E+00  0.00000000000E+00  0.48243674059E+03  0.48243674060E+03  0.25500000920E-02 0.  1.
       -2   -1    0    0    0  501  0.00000000000E+00  0.00000000000E+00 -0.33460218845E+03  0.33460218846E+03  0.25500000920E-02 0. -1.
    10030    2    1    2    0    0  0.00000000000E+00  0.00000000000E+00  0.14783455214E+03  0.81703892906E+03  0.80355308275E+03 0.  0.
        4    1    3    3  502    0  0.38777526719E+02 -0.18108491500E+03  0.43645036097E+03  0.47411599162E+03  0.12699999809E+01 0.  1.
       -4    1    3    3    0  502 -0.38777526719E+02  0.18108491500E+03 -0.28861580883E+03  0.34292293744E+03  0.12699999809E+01 0. -1.
</event>
<event>
 5   0  0.1640035E-03  0.7979329E+03  0.7818609E-02  0.9563014E-01
        1   -1    0    0  501    0  0.00000000000E+00  0.00000000000E+00  0.42341208382E+03  0.42341208385E+03  0.50400001928E-02 0.  1.
       -1   -1    0    0    0  501  0.00000000000E+00  0.00000000000E+00 -0.37593213880E+03  0.37593213883E+03  0.50400001928E-02 0. -1.
    10030    2    1    2    0    0  0.00000000000E+00  0.00000000000E+00  0.47479945022E+02  0.79934422269E+03  0.79793285505E+03 0.  0.
        5    1    3    3  502    0 -0.25921671539E+03 -0.17482191907E+03  0.27196063216E+03  0.41441607638E+03  0.46999998093E+01 0.  1.
       -5    1    3    3    0  502  0.25921671539E+03  0.17482191907E+03 -0.22448068714E+03  0.38492814630E+03  0.46999998093E+01 0. -1.
</event>
<event>
 5   0  0.1640035E-03  0.7990252E+03  0.7818609E-02  0.9561429E-01
        1   -1    0    0  501    0  0.00000000000E+00  0.00000000000E+00  0.83789846907E+03  0.83789846909E+03  0.50400001928E-02 0. -1.
       -1   -1    0    0    0  501  0.00000000000E+00  0.00000000000E+00 -0.19048886100E+03  0.19048886106E+03  0.50400001928E-02 0.  1.
    10030    2    1    2    0    0  0.00000000000E+00  0.00000000000E+00  0.64740960808E+03  0.10283873302E+04  0.79902521875E+03 0.  0.
        5    1    3    3  502    0 -0.19397235067E+03 -0.34130060628E+03  0.22845546155E+03  0.45423051920E+03  0.46999998093E+01 0.  1.
       -5    1    3    3    0  502  0.19397235067E+03  0.34130060628E+03  0.41895414653E+03  0.57415681095E+03  0.46999998093E+01 0. -1.
</event>
<event>
 5   0  0.2763587E-03  0.7992505E+03  0.7818609E-02  0.9561103E-01
       -2   -1    0    0    0  501  0.00000000000E+00  0.00000000000E+00  0.19179057103E+03  0.19179057105E+03  0.25500000920E-02 0. -1.
        2   -1    0    0  501    0  0.00000000000E+00  0.00000000000E+00 -0.83268083754E+03  0.83268083755E+03  0.25500000920E-02 0.  1.
    10030    2    1    2    0    0  0.00000000000E+00  0.00000000000E+00 -0.64089026651E+03  0.10244714086E+04  0.79925048222E+03 0.  0.
        3    1    3    3  502    0  0.84065114238E+02 -0.15346523575E+03 -0.78096613825E+03  0.80032908314E+03  0.10100000352E+00 0.  1.
       -3    1    3    3    0  502 -0.84065114238E+02  0.15346523575E+03  0.14007587174E+03  0.22414232546E+03  0.10100000352E+00 0. -1.
</event>
<event>
 5   0  0.2768834E-03  0.7994399E+03  0.7818609E-02  0.9560828E-01
       -2   -1    0    0    0  501  0.00000000000E+00  0.00000000000E+00  0.11025392449E+03  0.11025392452E+03  0.25500000920E-02 0. -1.
        2   -1    0    0  501    0  0.00000000000E+00  0.00000000000E+00 -0.14491642763E+04  0.14491642763E+04  0.25500000920E-02 0.  1.
    10030    2    1    2    0    0  0.00000000000E+00  0.00000000000E+00 -0.13389103518E+04  0.15594182008E+04  0.79943992572E+03 0.  0.
        4    1    3    3  502    0  0.19031048084E+03  0.72070598185E+02  0.16386644788E+01  0.20351056081E+03  0.12699999809E+01 0. -1.
       -4    1    3    3    0  502 -0.19031048084E+03 -0.72070598185E+02 -0.13405490163E+04  0.13559076400E+04  0.12699999809E+01 0.  1.
</event>
<event>
 5   0  0.2768834E-03  0.8005711E+03  0.7818609E-02  0.9559191E-01
        2   -1    0    0  501    0  0.00000000000E+00  0.00000000000E+00  0.68280135551E+03  0.68280135551E+03  0.25500000920E-02 0.  1.
       -2   -1    0    0    0  501  0.00000000000E+00  0.00000000000E+00 -0.23466345186E+03  0.23466345187E+03  0.25500000920E-02 0. -1.
    10030    2    1    2    0    0  0.00000000000E+00  0.00000000000E+00  0.44813790365E+03  0.91746480739E+03  0.80057110372E+03 0.  0.
        4    1    3    3  502    0  0.44156681443E+02 -0.21508565552E+03 -0.15948644378E+03  0.27138384325E+03  0.12699999809E+01 0. -1.
       -4    1    3    3    0  502 -0.44156681443E+02  0.21508565552E+03  0.60762434743E+03  0.64608096414E+03  0.12699999809E+01 0.  1.
</event>
<event>
 5   0  0.1712793E-03  0.7994003E+03  0.7818609E-02  0.9560886E-01
        1   -1    0    0  501    0  0.00000000000E+00  0.00000000000E+00  0.35891946375E+03  0.35891946378E+03  0.50400001928E-02 0. -1.
       -1   -1    0    0    0  501  0.00000000000E+00  0.00000000000E+00 -0.44511433944E+03  0.44511433947E+03  0.50400001928E-02 0.  1.
    10030    2    1    2    0    0  0.00000000000E+00  0.00000000000E+00 -0.86194875692E+02  0.80403380325E+03  0.79940027532E+03 0.  0.
        4    1    3    3  502    0 -0.34747480851E+03 -0.24812624752E+02  0.15400829349E+03  0.38088656613E+03  0.12699999809E+01 0.  1.
       -4    1    3    3    0  502  0.34747480851E+03  0.24812624752E+02 -0.24020316918E+03  0.42314723712E+03  0.12699999809E+01 0. -1.
</event>
<event>
 5   0  0.1656051E-03  0.7998664E+03  0.7818609E-02  0.9560210E-01
        1   -1    0    0  501    0  0.00000000000E+00  0.00000000000E+00  0.22496678644E+03  0.22496678649E+03  0.50400001928E-02 0.  1.
       -1   -1    0    0    0  501  0.00000000000E+00  0.00000000000E+00 -0.71097859201E+03  0.71097859203E+03  0.50400001928E-02 0. -1.
    10030    2    1    2    0    0  0.00000000000E+00  0.00000000000E+00 -0.48601180558E+03  0.93594537853E+03  0.79986641161E+03 0.  0.
        3    1    3    3  502    0  0.46388803261E+02  0.36318028476E+03 -0.43130083956E+03  0.56574929493E+03  0.10100000352E+00 0. -1.
       -3    1    3    3    0  502 -0.46388803261E+02 -0.36318028476E+03 -0.54710966019E+02  0.37019608360E+03  0.10100000352E+00 0.  1.
</event>
<event>
 5   0  0.1656051E-03  0.7992277E+03  0.7818609E-02  0.9561136E-01
       -1   -1    0    0    0  501  0.00000000000E+00  0.00000000000E+00  0.38469802129E+03  0.38469802132E+03  0.50400001928E-02 0. -1.
        1   -1    0    0  501    0  0.00000000000E+00  0.00000000000E+00 -0.41510802361E+03  0.41510802364E+03  0.50400001928E-02 0.  1.
    10030    2    1    2    0    0  0.00000000000E+00  0.00000000000E+00 -0.30410002323E+02  0.79980604496E+03  0.79922771556E+03 0.  0.
        3    1    3    3  502    0  0.89134513500E+02  0.26226624478E+03  0.27303585163E+03  0.38894360919E+03  0.10100000352E+00 0. -1.
       -3    1    3    3    0  502 -0.89134513500E+02 -0.26226624478E+03 -0.30344585395E+03  0.41086243578E+03  0.10100000352E+00 0.  1.
</event>
<event>
 5   0  0.2910501E-03  0.7999737E+03  0.7818609E-02  0.9560055E-01
        2   -1    0    0  501    0  0.00000000000E+00  0.00000000000E+00  0.79562323457E+03  0.79562323458E+03  0.25500000920E-02 0.  1.
       -2   -1    0    0    0  501  0.00000000000E+00  0.00000000000E+00 -0.20108700854E+03  0.20108700855E+03  0.25500000920E-02 0. -1.
    10030    2    1    2    0    0  0.00000000000E+00  0.00000000000E+00  0.59453622604E+03  0.99671024313E+03  0.79997374000E+03 0.  0.
        1    1    3    3  502    0 -0.36246063071E+03  0.14004413444E+03  0.17907269589E+03  0.42785172530E+03  0.50400001928E-02 0. -1.
       -1    1    3    3    0  502  0.36246063071E+03 -0.14004413444E+03  0.41546353015E+03  0.56885851783E+03  0.50400001928E-02 0.  1.
</event>
<event>
 5   0  0.1712793E-03  0.8032224E+03  0.7818609E-02  0.9555364E-01
        1   -1    0    0  501    0  0.00000000000E+00  0.00000000000E+00  0.97089245315E+03  0.97089245316E+03  0.50400001928E-02 0.  1.
       -1   -1    0    0    0  501  0.00000000000E+00  0.00000000000E+00 -0.16612711804E+03  0.16612711812E+03  0.50400001928E-02 0. -1.
    10030    2    1    2    0    0  0.00000000000E+00  0.00000000000E+00  0.80476533511E+03  0.11370195713E+04  0.80322242305E+03 0.  0.
        4    1    3    3  502    0 -0.22610169362E+03  0.12782797022E+03 -0.31226359170E+02  0.26160784437E+03  0.12699999809E+01 0. -1.
       -4    1    3    3    0  502  0.22610169362E+03 -0.12782797022E+03  0.83599169428E+03  0.87541172692E+03  0.12699999809E+01 0.  1.
</event>
<event>
 5   0  0.2763587E-03  0.7995517E+03  0.7818609E-02  0.9560666E-01
       -2   -1    0    0    0  501  0.00000000000E+00  0.00000000000E+00  0.89607129392E+02  0.89607129428E+02  0.25500000920E-02 0.  1.
        2   -1    0    0  501    0  0.00000000000E+00  0.00000000000E+00 -0.17835715581E+04  0.17835715581E+04  0.25500000920E-02 0. -1.
    10030    2    1    2    0    0  0.00000000000E+00  0.00000000000E+00 -0.16939644287E+04  0.18731786875E+04  0.79955169294E+03 0.  0.
        3    1    3    3  502    0 -0.39516798420E+03 -0.40690791322E+02 -0.74202013677E+03  0.84166939461E+03  0.10100000352E+00 0. -1.
       -3    1    3    3    0  502  0.39516798420E+03  0.40690791322E+02 -0.95194429190E+03  0.10315092929E+04  0.10100000352E+00 0.  1.
</event>
<event>
 5   0  0.1640035E-03  0.8009568E+03  0.7818609E-02  0.9558633E-01
        1   -1    0    0  501    0  0.00000000000E+00  0.00000000000E+00  0.28113568249E+03  0.28113568253E+03  0.50400001928E-02 0. -1.
       -1   -1    0    0    0  501  0.00000000000E+00  0.00000000000E+00 -0.57048231989E+03  0.57048231991E+03  0.50400001928E-02 0.  1.
    10030    2    1    2    0    0  0.00000000000E+00  0.00000000000E+00 -0.28934663740E+03  0.85161800244E+03  0.80095676881E+03 0.  0.
        5    1    3    3  502    0 -0.14892663635E+03  0.39183156175E+01  0.25054484885E+03  0.29152925667E+03  0.46999998093E+01 0. -1.
       -5    1    3    3    0  502  0.14892663635E+03 -0.39183156175E+01 -0.53989148625E+03  0.56008874577E+03  0.46999998093E+01 0.  1.
</event>
<event>
 5   0  0.2763587E-03  0.8011632E+03  0.7818609E-02  0.9558335E-01
       -2   -1    0    0    0  501  0.00000000000E+00  0.00000000000E+00  0.21624246708E+03  0.21624246709E+03  0.25500000920E-02 0.  1.
        2   -1    0    0  501    0  0.00000000000E+00  0.00000000000E+00 -0.74206339385E+03  0.74206339385E+03  0.25500000920E-02 0. -1.
    10030    2    1    2    0    0  0.00000000000E+00  0.00000000000E+00 -0.52582092677E+03  0.95830586095E+03  0.80116320191E+03 0.  0.
        3    1    3    3  502    0 -0.24542501137E+03 -0.24842156394E+03 -0.49766829222E+03  0.60796418391E+03  0.10100000352E+00 0. -1.
       -3    1    3    3    0  502  0.24542501137E+03  0.24842156394E+03 -0.28152634546E+02  0.35034167704E+03  0.10100000352E+00 0.  1.
</event>
<event>
 5   0  0.2910501E-03  0.8002546E+03  0.7818609E-02  0.9559649E-01
        2   -1    0    0  501    0  0.00000000000E+00  0.00000000000E+00  0.12280166512E+04  0.12280166512E+04  0.25500000920E-02 0.  1.
       -2   -1    0    0    0  501  0.00000000000E+00  0.00000000000E+00 -0.13037434246E+03  0.13037434248E+03  0.25500000920E-02 0. -1.
    10030    2    1    2    0    0  0.00000000000E+00  0.00000000000E+00  0.10976423087E+04  0.13583909936E+04  0.80025461809E+03 0.  0.
        1    1    3    3  502    0  0.39198863248E+03 -0.73446091999E+02  0.60388882681E+03  0.72369270522E+03  0.50400001928E-02 0.  1.
       -1    1    3    3    0  502 -0.39198863248E+03  0.73446091999E+02  0.49375348189E+03  0.63469828842E+03  0.50400001928E-02 0. -1.
</event>
<event>
 5   0  0.1640035E-03  0.8001132E+03  0.7818609E-02  0.9559853E-01
        1   -1    0    0  501    0  0.00000000000E+00  0.00000000000E+00  0.23451686938E+03  0.23451686943E+03  0.50400001928E-02 0.  1.
       -1   -1    0    0    0  501  0.00000000000E+00  0.00000000000E+00 -0.68244680054E+03  0.68244680056E+03  0.50400001928E-02 0. -1.
    10030    2    1    2    0    0  0.00000000000E+00  0.00000000000E+00 -0.44792993116E+03  0.91696366999E+03  0.80011321002E+03 0.  0.
        5    1    3    3  502    0 -0.19800895595E+03 -0.28046265609E+03  0.11340592027E+02  0.34353682063E+03  0.46999998093E+01 0.  1.
       -5    1    3    3    0  502  0.19800895595E+03  0.28046265609E+03 -0.45927052319E+03  0.57342684936E+03  0.46999998093E+01 0. -1.
</event>
<event>
 5   0  0.1637228E-03  0.7986528E+03  0.7818609E-02  0.9561969E-01
       -1   -1    0    0    0  501  0.00000000000E+00  0.00000000000E+00  0.13950049270E+03  0.13950049279E+03  0.50400001928E-02 0. -1.
        1   -1    0    0  501    0  0.00000000000E+00  0.00000000000E+00 -0.11430897481E+04  0.11430897481E+04  0.50400001928E-02 0.  1.
    10030    2    1    2    0    0  0.00000000000E+00  0.00000000000E+00 -0.10035892554E+04  0.12825902409E+04  0.79865282350E+03 0.  0.
        2    1    3    3  502    0 -0.14626413762E+03 -0.27132886759E+03 -0.90949217144E+03  0.96030649392E+03  0.25500000920E-02 0.  1.
       -2    1    3    3    0  502  0.14626413762E+03  0.27132886759E+03 -0.94097083938E+02  0.32228374696E+03  0.25500000920E-02 0. -1.
</event>
<event>
 5   0  0.2873212E-03  0.7971767E+03  0.7818609E-02  0.9564113E-01
        2   -1    0    0  501    0  0.00000000000E+00  0.00000000000E+00  0.51837439767E+03  0.51837439767E+03  0.25500000920E-02 0. -1.
       -2   -1    0    0    0  501  0.00000000000E+00  0.00000000000E+00 -0.30648248073E+03  0.30648248074E+03  0.25500000920E-02 0.  1.
    10030    2    1    2    0    0  0.00000000000E+00  0.00000000000E+00  0.21189191694E+03  0.82485687841E+03  0.79717669648E+03 0.  0.
        2    1    3    3  502    0  0.20366269952E+03  0.19016061161E+02  0.45992485289E+03  0.50335968856E+03  0.25500000920E-02 0. -1.
       -2    1    3    3    0  502 -0.20366269952E+03 -0.19016061161E+02 -0.24803293595E+03  0.32149718985E+03  0.25500000920E-02 0.  1.
</event>
<event>
 5   0  0.2873212E-03  0.7989824E+03  0.7818609E-02  0.9561491E-01
       -2   -1    0    0    0  501  0.00000000000E+00  0.00000000000E+00  0.12195127734E+03  0.12195127737E+03  0.25500000920E-02 0. -1.
        2   -1    0    0  501    0  0.00000000000E+00  0.00000000000E+00 -0.13086636429E+04  0.13086636429E+04  0.25500000920E-02 0.  1.
    10030    2    1    2    0    0  0.00000000000E+00  0.00000000000E+00 -0.11867123656E+04  0.14306149203E+04  0.79898235998E+03 0.  0.
        2    1    3    3  502    0 -0.20817608967E+03 -0.92672180508E+02 -0.58283441356E+01  0.22794601762E+03  0.25500000920E-02 0. -1.
       -2    1    3    3    0  502  0.20817608967E+03  0.92672180508E+02 -0.11808840214E+04  0.12026689027E+04  0.25500000920E-02 0.  1.
</event>
<event>
 5   0  0.1656051E-03  0.8000001E+03  0.7818609E-02  0.9560017E-01
       -1   -1    0    0    0  501  0.00000000000E+00  0.00000000000E+00  0.52210400220E+03  0.52210400223E+03  0.50400001928E-02 0.  1.
        1   -1    0    0  501    0  0.00000000000E+00  0.00000000000E+00 -0.30645243983E+03  0.30645243987E+03  0.50400001928E-02 0. -1.
    10030    2    1    2    0    0  0.00000000000E+00  0.00000000000E+00  0.21565156237E+03  0.82855644210E+03  0.80000011337E+03 0.  0.
        3    1    3    3  502    0 -0.33597606150E+02  0.17931287488E+03  0.47650734896E+03  0.51023638644E+03  0.10100000352E+00 0.  1.
       -3    1    3    3    0  502  0.33597606150E+02 -0.17931287488E+03 -0.26085578658E+03  0.31832005566E+03  0.10100000352E+00 0. -1.
</event>
<event>
 5   0  0.1637228E-03  0.8020110E+03  0.7818609E-02  0.9557111E-01
        1   -1    0    0  501    0  0.00000000000E+00  0.00000000000E+00  0.40644798238E+03  0.40644798241E+03  0.50400001928E-02 0. -1.
       -1   -1    0    0    0  501  0.00000000000E+00  0.00000000000E+00 -0.39563586908E+03  0.39563586911E+03  0.50400001928E-02 0.  1.
    10030    2    1    2    0    0  0.00000000000E+00  0.00000000000E+00  0.10812113299E+02  0.80208385153E+03  0.80201097442E+03 0.  0.
        2    1    3    3  502    0 -0.95733071824E+02  0.36446952962E+03  0.14254087701E+03  0.40289050707E+03  0.25500000920E-02 0. -1.
       -2    1    3    3    0  502  0.95733071824E+02 -0.36446952962E+03 -0.13172876371E+03  0.39919334446E+03  0.25500000920E-02 0.  1.
</event>
<event>
 5   0  0.2910501E-03  0.8002626E+03  0.7818609E-02  0.9559637E-01
        2   -1    0    0  501    0  0.00000000000E+00  0.00000000000E+00  0.11421312235E+04  0.11421312235E+04  0.25500000920E-02 0.  1.
       -2   -1    0    0    0  501  0.00000000000E+00  0.00000000000E+00 -0.14018095548E+03  0.14018095550E+03  0.25500000920E-02 0. -1.
    10030    2    1    2    0    0  0.00000000000E+00  0.00000000000E+00  0.10019502680E+04  0.12823121790E+04  0.80026257243E+03 0.  0.
        1    1    3    3  502    0 -0.13873020998E+03 -0.27852933838E+03  0.90405936611E+03  0.95611087274E+03  0.50400001928E-02 0.  1.
       -1    1    3    3    0  502  0.13873020998E+03  0.27852933838E+03  0.97890901903E+02  0.32620130625E+03  0.50400001928E-02 0. -1.
</event>
<event>
 5   0  0.1712793E-03  0.8005750E+03  0.7818609E-02  0.9559185E-01
       -1   -1    0    0    0  501  0.00000000000E+00  0.00000000000E+00  0.87566896131E+03  0.87566896133E+03  0.50400001928E-02 0.  1.
        1   -1    0    0  501    0  0.00000000000E+00  0.00000000000E+00 -0.18298020237E+03  0.18298020244E+03  0.50400001928E-02 0. -1.
    10030    2    1    2    0    0  0.00000000000E+00  0.00000000000E+00  0.69268875894E+03  0.10586491638E+04  0.80057500285E+03 0.  0.
        4    1    3    3  502    0  0.13064634247E+03  0.24397560726E+02  0.84563813167E+03  0.85601937502E+03  0.12699999809E+01 0.  1.
       -4    1    3    3    0  502 -0.13064634247E+03 -0.24397560726E+02 -0.15294937273E+03  0.20262978875E+03  0.12699999809E+01 0. -1.
</event>
<event>
 5   0  0.2910501E-03  0.7964580E+03  0.7818609E-02  0.9565158E-01
        2   -1    0    0  501    0  0.00000000000E+00  0.00000000000E+00  0.10897773267E+04  0.10897773267E+04  0.25500000920E-02 0.  1.
       -2   -1    0    0    0  501  0.00000000000E+00  0.00000000000E+00 -0.14552176227E+03  0.14552176229E+03  0.25500000920E-02 0. -1.
    10030    2    1    2    0    0  0.00000000000E+00  0.00000000000E+00  0.94425556440E+03  0.12352990890E+04  0.79645795138E+03 0.  0.
        1    1    3    3  502    0 -0.23449194593E+03 -0.15210722892E+03  0.32173029030E+02  0.28135064532E+03  0.50400001928E-02 0. -1.
       -1    1    3    3    0  502  0.23449194593E+03  0.15210722892E+03  0.91208253537E+03  0.95394844366E+03  0.50400001928E-02 0.  1.
</event>
<event>
 5   0  0.1617491E-03  0.7996775E+03  0.7818609E-02  0.9560484E-01
       -1   -1    0    0    0  501  0.00000000000E+00  0.00000000000E+00  0.13032906033E+04  0.13032906034E+04  0.50400001928E-02 0. -1.
        1   -1    0    0  501    0  0.00000000000E+00  0.00000000000E+00 -0.12266719969E+03  0.12266719980E+03  0.50400001928E-02 0.  1.
    10030    2    1    2    0    0  0.00000000000E+00  0.00000000000E+00  0.11806234036E+04  0.14259578031E+04  0.79967745693E+03 0.  0.
        1    1    3    3  502    0 -0.18301389793E+03  0.10645356012E+03 -0.14506520279E+02  0.21221895875E+03  0.50400001928E-02 0.  1.
       -1    1    3    3    0  502  0.18301389793E+03 -0.10645356012E+03  0.11951299239E+04  0.12137388444E+04  0.50400001928E-02 0. -1.
</event>
<event>
 5   0  0.2768834E-03  0.7994034E+03  0.7818609E-02  0.9560881E-01
        2   -1    0    0  501    0  0.00000000000E+00  0.00000000000E+00  0.28979580973E+04  0.28979580973E+04  0.25500000920E-02 0.  1.
       -2   -1    0    0    0  501  0.00000000000E+00  0.00000000000E+00 -0.55128976662E+02  0.55128976721E+02  0.25500000920E-02 0. -1.
    10030    2    1    2    0    0  0.00000000000E+00  0.00000000000E+00  0.28428291207E+04  0.29530870741E+04  0.79940343858E+03 0.  0.
        4    1    3    3  502    0 -0.23910379743E+02 -0.39474727803E+03  0.12071963674E+04  0.12703235029E+04  0.12699999809E+01 0. -1.
       -4    1    3    3    0  502  0.23910379743E+02  0.39474727803E+03  0.16356327533E+04  0.16827635711E+04  0.12699999809E+01 0.  1.
</event>
<event>
 5   0  0.1640035E-03  0.7992068E+03  0.7818609E-02  0.9561166E-01
       -1   -1    0    0    0  501  0.00000000000E+00  0.00000000000E+00  0.56996352714E+03  0.56996352716E+03  0.50400001928E-02 0. -1.
        1   -1    0    0  501    0  0.00000000000E+00  0.00000000000E+00 -0.28016333915E+03  0.28016333919E+03  0.50400001928E-02 0.  1.
    10030    2    1    2    0    0  0.00000000000E+00  0.00000000000E+00  0.28980018799E+03  0.85012686636E+03  0.79920681925E+03 0.  0.
        5    1    3    3  502    0  0.25090900479E+03  0.11906999580E+03  0.45047993511E+03  0.52923270356E+03  0.46999998093E+01 0. -1.
       -5    1    3    3    0  502 -0.25090900479E+03 -0.11906999580E+03 -0.16067974711E+03  0.32089416280E+03  0.46999998093E+01 0.  1.
</event>
<event>
 5   0  0.2763587E-03  0.7996282E+03  0.7818609E-02  0.9560555E-01
        2   -1    0    0  501    0  0.00000000000E+00  0.00000000000E+00  0.12670362022E+04  0.12670362022E+04  0.25500000920E-02 0. -1.
       -2   -1    0    0    0  501  0.00000000000E+00  0.00000000000E+00 -0.12616161072E+03  0.12616161074E+03  0.25500000920E-02 0.  1.
    10030    2    1    2    0    0  0.00000000000E+00  0.00000000000E+00  0.11408745915E+04  0.13931978129E+04  0.79962823393E+03 0.  0.
        3    1    3    3  502    0 -0.56771675573E+02 -0.39330784405E+03  0.49375135127E+03  0.63380161756E+03  0.10100000352E+00 0.  1.
       -3    1    3    3    0  502  0.56771675573E+02  0.39330784405E+03  0.64712324021E+03  0.75939619538E+03  0.10100000352E+00 0. -1.
</event>
<event>
 5   0  0.2873212E-03  0.8101859E+03  0.7818609E-02  0.9545389E-01
        2   -1    0    0  501    0  0.00000000000E+00  0.00000000000E+00  0.19910177215E+04  0.19910177215E+04  0.25500000920E-02 0. -1.
       -2   -1    0    0    0  501  0.00000000000E+00  0.00000000000E+00 -0.82420316545E+02  0.82420316585E+02  0.25500000920E-02 0.  1.
    10030    2    1    2    0    0  0.00000000000E+00  0.00000000000E+00  0.19085974050E+04  0.20734380381E+04  0.81018593149E+03 0.  0.
        2    1    3    3  502    0  0.15781121650E+03 -0.46483000204E+02  0.19016750340E+04  0.19087778772E+04  0.25500000920E-02 0. -1.
       -2    1    3    3    0  502 -0.15781121650E+03  0.46483000204E+02  0.69223709177E+01  0.16466016090E+03  0.25500000920E-02 0.  1.
</event>
<event>
 5   0  0.2910501E-03  0.7995852E+03  0.7818609E-02  0.9560618E-01
        2   -1    0    0  501    0  0.00000000000E+00  0.00000000000E+00  0.11558716073E+04  0.11558716073E+04  0.25500000920E-02 0. -1.
       -2   -1    0    0    0  501  0.00000000000E+00  0.00000000000E+00 -0.13828018214E+03  0.13828018216E+03  0.25500000920E-02 0.  1.
    10030    2    1    2    0    0  0.00000000000E+00  0.00000000000E+00  0.10175914251E+04  0.12941517894E+04  0.79958523348E+03 0.  0.
        1    1    3    3  502    0  0.34830821120E+03 -0.17755754293E+03  0.37348780849E+03  0.54068330301E+03  0.50400001928E-02 0. -1.
       -1    1    3    3    0  502 -0.34830821120E+03  0.17755754293E+03  0.64410361663E+03  0.75346848642E+03  0.50400001928E-02 0.  1.
</event>
<event>
 5   0  0.1637228E-03  0.8022929E+03  0.7818609E-02  0.9556704E-01
       -1   -1    0    0    0  501  0.00000000000E+00  0.00000000000E+00  0.14812219669E+03  0.14812219677E+03  0.50400001928E-02 0.  1.
        1   -1    0    0  501    0  0.00000000000E+00  0.00000000000E+00 -0.10863899685E+04  0.10863899685E+04  0.50400001928E-02 0. -1.
    10030    2    1    2    0    0  0.00000000000E+00  0.00000000000E+00 -0.93826777178E+03  0.12345121652E+04  0.80229288579E+03 0.  0.
        2    1    3    3  502    0 -0.29881163618E+03 -0.12315354543E+03 -0.83476696548E+03  0.89514863365E+03  0.25500000920E-02 0.  1.
       -2    1    3    3    0  502  0.29881163618E+03  0.12315354543E+03 -0.10350080630E+03  0.33936353160E+03  0.25500000920E-02 0. -1.
</event>
<event>
 5   0  0.2873212E-03  0.8003253E+03  0.7818609E-02  0.9559546E-01
        2   -1    0    0  501    0  0.00000000000E+00  0.00000000000E+00  0.10333837956E+04  0.10333837956E+04  0.25500000920E-02 0. -1.
       -2   -1    0    0    0  501  0.00000000000E+00  0.00000000000E+00 -0.15495710855E+03  0.15495710857E+03  0.25500000920E-02 0.  1.
    10030    2    1    2    0    0  0.00000000000E+00  0.00000000000E+00  0.87842668704E+03  0.11883409042E+04  0.80032534636E+03 0.  0.
        2    1    3    3  502    0  0.13597048647E+03  0.36083532507E+03  0.28039940141E+03  0.47677450574E+03  0.25500000920E-02 0.  1.
       -2    1    3    3    0  502 -0.13597048647E+03 -0.36083532507E+03  0.59802728564E+03  0.71156639843E+03  0.25500000920E-02 0. -1.
</event>
<event>
 5   0  0.1656051E-03  0.8004208E+03  0.7818609E-02  0.9559408E-01
        1   -1    0    0  501    0  0.00000000000E+00  0.00000000000E+00  0.24065650078E+03  0.24065650083E+03  0.50400001928E-02 0.  1.
       -1   -1    0    0    0  501  0.00000000000E+00  0.00000000000E+00 -0.66554767622E+03  0.66554767624E+03  0.50400001928E-02 0. -1.
    10030    2    1    2    0    0  0.00000000000E+00  0.00000000000E+00 -0.42489117544E+03  0.90620417707E+03  0.80042082655E+03 0.  0.
        3    1    3    3  502    0  0.83738655345E+02 -0.37162051978E+03 -0.35135743398E+03  0.51823356678E+03  0.10100000352E+00 0. -1.
       -3    1    3    3    0  502 -0.83738655345E+02  0.37162051978E+03 -0.73533741460E+02  0.38797061029E+03  0.10100000352E+00 0.  1.
</event>
<event>
 5   0  0.1712793E-03  0.7991548E+03  0.7818609E-02  0.9561241E-01
        1   -1    0    0  501    0  0.00000000000E+00  0.00000000000E+00  0.39957917410E+03  0.39957917413E+03  0.50400001928E-02 0.  1.
       -1   -1    0    0    0  501  0.00000000000E+00  0.00000000000E+00 -0.39957561307E+03  0.39957561310E+03  0.50400001928E-02 0. -1.
    10030    2    1    2    0    0  0.00000000000E+00  0.00000000000E+00  0.35610305685E-02  0.79915478723E+03  0.79915478722E+03 0.  0.
        4    1    3    3  502    0  0.19304537745E+03  0.25017999788E+03 -0.24454664310E+03  0.39957630391E+03  0.12699999809E+01 0. -1.
       -4    1    3    3    0  502 -0.19304537745E+03 -0.25017999788E+03  0.24455020413E+03  0.39957848332E+03  0.12699999809E+01 0.  1.
</event>
<event>
 5   0  0.1637228E-03  0.7989801E+03  0.7818609E-02  0.9561494E-01
        1   -1    0    0  501    0  0.00000000000E+00  0.00000000000E+00  0.94438951597E+03  0.94438951598E+03  0.50400001928E-02 0. -1.
       -1   -1    0    0    0  501  0.00000000000E+00  0.00000000000E+00 -0.16898992622E+03  0.16898992630E+03  0.50400001928E-02 0.  1.
    10030    2    1    2    0    0  0.00000000000E+00  0.00000000000E+00  0.77539958975E+03  0.11133794423E+04  0.79898013663E+03 0.  0.
        2    1    3    3  502    0 -0.83474221987E+02 -0.14677535314E+03  0.89221898818E+03  0.90805598556E+03  0.25500000920E-02 0. -1.
       -2    1    3    3    0  502  0.83474221987E+02  0.14677535314E+03 -0.11681939844E+03  0.20532345673E+03  0.25500000920E-02 0.  1.
</event>
<event>
 5   0  0.1640035E-03  0.7979882E+03  0.7818609E-02  0.9562934E-01
       -1   -1    0    0    0  501  0.00000000000E+00  0.00000000000E+00  0.45223364001E+03  0.45223364004E+03  0.50400001928E-02 0.  1.
        1   -1    0    0  501    0  0.00000000000E+00  0.00000000000E+00 -0.35202220586E+03  0.35202220589E+03  0.50400001928E-02 0. -1.
    10030    2    1    2    0    0  0.00000000000E+00  0.00000000000E+00  0.10021143415E+03  0.80425584593E+03  0.79798817922E+03 0.  0.
        5    1    3    3  502    0 -0.44097947714E+02 -0.11482128895E+03 -0.33240871123E+03  0.35446607551E+03  0.46999998093E+01 0. -1.
       -5    1    3    3    0  502  0.44097947714E+02  0.11482128895E+03  0.43262014538E+03  0.44978977042E+03  0.46999998093E+01 0.  1.
</event>
<event>
 5   0  0.2763587E-03  0.8005362E+03  0.7818609E-02  0.9559241E-01
        2   -1    0    0  501    0  0.00000000000E+00  0.00000000000E+00  0.91810076059E+03  0.91810076060E+03  0.25500000920E-02 0.  1.
       -2   -1    0    0    0  501  0.00000000000E+00  0.00000000000E+00 -0.17450651278E+03  0.17450651280E+03  0.25500000920E-02 0. -1.
    10030    2    1    2    0    0  0.00000000000E+00  0.00000000000E+00  0.74359424781E+03  0.10926072734E+04  0.80053622559E+03 0.  0.
        3    1    3    3  502    0 -0.28902987878E+02 -0.32498881144E+03  0.68825692521E+03  0.76167625378E+03  0.10100000352E+00 0.  1.
       -3    1    3    3    0  502  0.28902987878E+02  0.32498881144E+03  0.55337322608E+02  0.33093101962E+03  0.10100000352E+00 0. -1.
</event>
<event>
 5   0  0.2768834E-03  0.7957783E+03  0.7818609E-02  0.9566148E-01
        2   -1    0    0  501    0  0.00000000000E+00  0.00000000000E+00  0.14938660593E+03  0.14938660595E+03  0.25500000920E-02 0.  1.
       -2   -1    0    0    0  501  0.00000000000E+00  0.00000000000E+00 -0.10597721106E+04  0.10597721106E+04  0.25500000920E-02 0. -1.
    10030    2    1    2    0    0  0.00000000000E+00  0.00000000000E+00 -0.91038550463E+03  0.12091587165E+04  0.79577825723E+03 0.  0.
        4    1    3    3  502    0 -0.59338908887E+02 -0.36151050946E+03 -0.69109306421E+03  0.78219063588E+03  0.12699999809E+01 0. -1.
       -4    1    3    3    0  502  0.59338908887E+02  0.36151050946E+03 -0.21929244042E+03  0.42696808063E+03  0.12699999809E+01 0.  1.
</event>
<event>
 5   0  0.2690809E-03  0.8003191E+03  0.7818609E-02  0.9559555E-01
        2   -1    0    0  501    0  0.00000000000E+00  0.00000000000E+00  0.90278036500E+03  0.90278036500E+03  0.25500000920E-02 0.  1.
       -2   -1    0    0    0  501  0.00000000000E+00  0.00000000000E+00 -0.17737166134E+03  0.17737166136E+03  0.25500000920E-02 0. -1.
    10030    2    1    2    0    0  0.00000000000E+00  0.00000000000E+00  0.72540870365E+03  0.10801520264E+04  0.80031906932E+03 0.  0.
        5    1    3    3  502    0 -0.29191108544E+03 -0.26319752147E+03  0.46388814953E+03  0.60802904732E+03  0.46999998093E+01 0.  1.
       -5    1    3    3    0  502  0.29191108544E+03  0.26319752147E+03  0.26152055412E+03  0.47212297904E+03  0.46999998093E+01 0. -1.
</event>
<event>
 5   0  0.1637228E-03  0.8005180E+03  0.7818609E-02  0.9559268E-01
       -1   -1    0    0    0  501  0.00000000000E+00  0.00000000000E+00  0.94972905277E+02  0.94972905411E+02  0.50400001928E-02 0. -1.
        1   -1    0    0  501    0  0.00000000000E+00  0.00000000000E+00 -0.16868735101E+04  0.16868735102E+04  0.50400001928E-02 0.  1.
    10030    2    1    2    0    0  0.00000000000E+00  0.00000000000E+00 -0.15919006049E+04  0.17818464156E+04  0.80051802783E+03 0.  0.
        2    1    3    3  502    0  0.28242136485E+03 -0.19448819390E+03 -0.33642987663E+03  0.48038791282E+03  0.25500000920E-02 0. -1.
       -2    1    3    3    0  502 -0.28242136485E+03  0.19448819390E+03 -0.12554707282E+04  0.13014585027E+04  0.25500000920E-02 0.  1.
</event>
<event>
 5   0  0.1095350E-03  0.8002015E+03  0.7818609E-02  0.9559725E-01
       -4   -1    0    0    0  501  0.00000000000E+00  0.00000000000E+00  0.63709032182E+03  0.63709158765E+03  0.12699999809E+01 0. -1.
        4   -1    0    0  501    0  0.00000000000E+00  0.00000000000E+00 -0.25126521651E+03  0.25126842605E+03  0.12699999809E+01 0.  1.
    10030    2    1    2    0    0  0.00000000000E+00  0.00000000000E+00  0.38582510530E+03  0.88836001370E+03  0.80020153840E+03 0.  0.
        1    1    3    3  502    0  0.25349805907E+03  0.30939250719E+03  0.18205578879E+03  0.43946478780E+03  0.50400001928E-02 0. -1.
       -1    1    3    3    0  502 -0.25349805907E+03 -0.30939250719E+03  0.20376931651E+03  0.44889522590E+03  0.50400001928E-02 0.  1.
</event>
<event>
 5   0  0.1095350E-03  0.7997285E+03  0.7818609E-02  0.9560410E-01
       -3   -1    0    0    0  501  0.00000000000E+00  0.00000000000E+00  0.16265844336E+04  0.16265844368E+04  0.10100000352E+00 0.  1.
        3   -1    0    0  501    0  0.00000000000E+00  0.00000000000E+00 -0.98298842671E+02  0.98298894559E+02  0.10100000352E+00 0. -1.
    10030    2    1    2    0    0  0.00000000000E+00  0.00000000000E+00  0.15282855910E+04  0.17248833313E+04  0.79972849090E+03 0.  0.
        2    1    3    3  502    0  0.33549110682E+03  0.17830123021E+03  0.49522239979E+03  0.62417212106E+03  0.25500000920E-02 0. -1.
       -2    1    3    3    0  502 -0.33549110682E+03 -0.17830123021E+03  0.10330631912E+04  0.11007112103E+04  0.25500000920E-02 0.  1.
</event>
<event>
 5   0  0.1640035E-03  0.8001911E+03  0.7818609E-02  0.9559741E-01
       -1   -1    0    0    0  501  0.00000000000E+00  0.00000000000E+00  0.10894751888E+03  0.10894751900E+03  0.50400001928E-02 0.  1.
        1   -1    0    0  501    0  0.00000000000E+00  0.00000000000E+00 -0.14692985521E+04  0.14692985521E+04  0.50400001928E-02 0. -1.
    10030    2    1    2    0    0  0.00000000000E+00  0.00000000000E+00 -0.13603510332E+04  0.15782460711E+04  0.80019105681E+03 0.  0.
        5    1    3    3  502    0  0.77339271582E+01  0.37139981577E+03 -0.97309707882E+03  0.10416034042E+04  0.46999998093E+01 0. -1.
       -5    1    3    3    0  502 -0.77339271582E+01 -0.37139981577E+03 -0.38725395440E+03  0.53664266694E+03  0.46999998093E+01 0.  1.
</event>
<event>
 5   0  0.1712793E-03  0.7988835E+03  0.7818609E-02  0.9561635E-01
        1   -1    0    0  501    0  0.00000000000E+00  0.00000000000E+00  0.53880798257E+03  0.53880798260E+03  0.50400001928E-02 0. -1.
       -1   -1    0    0    0  501  0.00000000000E+00  0.00000000000E+00 -0.29612353422E+03  0.29612353426E+03  0.50400001928E-02 0.  1.
    10030    2    1    2    0    0  0.00000000000E+00  0.00000000000E+00  0.24268444835E+03  0.83493151686E+03  0.79888353117E+03 0.  0.
        4    1    3    3  502    0  0.38539283810E+03  0.79159941595E+02  0.19343431154E+03  0.43842032548E+03  0.12699999809E+01 0.  1.
       -4    1    3    3    0  502 -0.38539283810E+03 -0.79159941595E+02  0.49250136816E+02  0.39651119138E+03  0.12699999809E+01 0. -1.
</event>
<event>
 5   0  0.1617491E-03  0.7990432E+03  0.7818609E-02  0.9561403E-01
       -1   -1    0    0    0  501  0.00000000000E+00  0.00000000000E+00  0.30051552574E+03  0.30051552578E+03  0.50400001928E-02 0.  1.
        1   -1    0    0  501    0  0.00000000000E+00  0.00000000000E+00 -0.53114557614E+03  0.53114557616E+03  0.50400001928E-02 0. -1.
    10030    2    1    2    0    0  0.00000000000E+00  0.00000000000E+00 -0.23063005040E+03  0.83166110194E+03  0.79904315799E+03 0.  0.
        1    1    3    3  502    0  0.11635636616E+03  0.23217571362E+03  0.20067859236E+03  0.32820155910E+03  0.50400001928E-02 0. -1.
       -1    1    3    3    0  502 -0.11635636616E+03 -0.23217571362E+03 -0.43130864275E+03  0.50345954284E+03  0.50400001928E-02 0.  1.
</event>
<event>
 5   0  0.2768834E-03  0.7984719E+03  0.7818609E-02  0.9562232E-01
        2   -1    0    0  501    0  0.00000000000E+00  0.00000000000E+00  0.14308843376E+04  0.14308843376E+04  0.25500000920E-02 0. -1.
       -2   -1    0    0    0  501  0.00000000000E+00  0.00000000000E+00 -0.11139220116E+03  0.11139220119E+03  0.25500000920E-02 0.  1.
    10030    2    1    2    0    0  0.00000000000E+00  0.00000000000E+00  0.13194921364E+04  0.15422765388E+04  0.79847193060E+03 0.  0.
        4    1    3    3  502    0 -0.11890963414E+03 -0.27034257136E+03  0.11786181429E+04  0.12150584129E+04  0.12699999809E+01 0. -1.
       -4    1    3    3    0  502  0.11890963414E+03  0.27034257136E+03  0.14087399353E+03  0.32721812592E+03  0.12699999809E+01 0.  1.
</event>
<event>
 5   0  0.2690809E-03  0.7986748E+03  0.7818609E-02  0.9561937E-01
       -2   -1    0    0    0  501  0.00000000000E+00  0.00000000000E+00  0.35450339871E+03  0.35450339872E+03  0.25500000920E-02 0. -1.
        2   -1    0    0  501    0  0.00000000000E+00  0.00000000000E+00 -0.44984159133E+03  0.44984159133E+03  0.25500000920E-02 0.  1.
    10030    2    1    2    0    0  0.00000000000E+00  0.00000000000E+00 -0.95338192616E+02  0.80434499005E+03  0.79867483499E+03 0.  0.
        5    1    3    3  502    0 -0.91950908010E+02 -0.27180996957E+03 -0.32733220805E+03  0.43532067888E+03  0.46999998093E+01 0.  1.
       -5    1    3    3    0  502  0.91950908010E+02  0.27180996957E+03  0.23199401543E+03  0.36902431117E+03  0.46999998093E+01 0. -1.
</event>
<event>
 5   0  0.1640035E-03  0.8019117E+03  0.7818609E-02  0.9557254E-01
        1   -1    0    0  501    0  0.00000000000E+00  0.00000000000E+00  0.18602340234E+04  0.18602340234E+04  0.50400001928E-02 0. -1.
       -1   -1    0    0    0  501  0.00000000000E+00  0.00000000000E+00 -0.86422247414E+02  0.86422247561E+02  0.50400001928E-02 0.  1.
    10030    2    1    2    0    0  0.00000000000E+00  0.00000000000E+00  0.17738117760E+04  0.19466562710E+04  0.80191172873E+03 0.  0.
        5    1    3    3  502    0 -0.18732883998E+03  0.28992246179E+03  0.39180863936E+03  0.52219079656E+03  0.46999998093E+01 0.  1.
       -5    1    3    3    0  502  0.18732883998E+03 -0.28992246179E+03  0.13820031366E+04  0.14244654744E+04  0.46999998093E+01 0. -1.
</event>
<event>
 5   0  0.2910501E-03  0.8002516E+03  0.7818609E-02  0.9559653E-01
       -2   -1    0    0    0  501  0.00000000000E+00  0.00000000000E+00  0.76575571413E+02  0.76575571456E+02  0.25500000920E-02 0.  1.
        2   -1    0    0  501    0  0.00000000000E+00  0.00000000000E+00 -0.20907534538E+04  0.20907534538E+04  0.25500000920E-02 0. -1.
    10030    2    1    2    0    0  0.00000000000E+00  0.00000000000E+00 -0.20141778824E+04  0.21673290252E+04  0.80025156159E+03 0.  0.
        1    1    3    3  502    0  0.36766099578E+03  0.14380602352E+03 -0.83061476525E+03  0.91966062680E+03  0.50400001928E-02 0.  1.
       -1    1    3    3    0  502 -0.36766099578E+03 -0.14380602352E+03 -0.11835631171E+04  0.12476683984E+04  0.50400001928E-02 0. -1.
</event>
<event>
 5   0  0.2873212E-03  0.8002122E+03  0.7818609E-02  0.9559710E-01
        2   -1    0    0  501    0  0.00000000000E+00  0.00000000000E+00  0.14226222158E+04  0.14226222158E+04  0.25500000920E-02 0. -1.
       -2   -1    0    0    0  501  0.00000000000E+00  0.00000000000E+00 -0.11252804589E+03  0.11252804592E+03  0.25500000920E-02 0.  1.
    10030    2    1    2    0    0  0.00000000000E+00  0.00000000000E+00  0.13100941699E+04  0.15351502617E+04  0.80021221689E+03 0.  0.
        2    1    3    3  502    0  0.39320597071E+03 -0.70274681134E+02  0.69943837779E+03  0.80545857158E+03  0.25500000920E-02 0.  1.
       -2    1    3    3    0  502 -0.39320597071E+03  0.70274681134E+02  0.61065579212E+03  0.72969169014E+03  0.25500000920E-02 0. -1.
</event>
<event>
 5   0  0.2873212E-03  0.8021872E+03  0.7818609E-02  0.9556857E-01
       -2   -1    0    0    0  501  0.00000000000E+00  0.00000000000E+00  0.44121991334E+03  0.44121991334E+03  0.25500000920E-02 0. -1.
        2   -1    0    0  501    0  0.00000000000E+00  0.00000000000E+00 -0.36461652632E+03  0.36461652633E+03  0.25500000920E-02 0.  1.
    10030    2    1    2    0    0  0.00000000000E+00  0.00000000000E+00  0.76603387013E+02  0.80583643968E+03  0.80218719050E+03 0.  0.
        2    1    3    3  502    0  0.58312955496E+02 -0.16903989620E+03  0.39896306850E+03  0.43720294752E+03  0.25500000920E-02 0. -1.
       -2    1    3    3    0  502 -0.58312955496E+02  0.16903989620E+03 -0.32235968149E+03  0.36863349216E+03  0.25500000920E-02 0.  1.
</event>
<event>
 5   0  0.1712793E-03  0.7989911E+03  0.7818609E-02  0.9561479E-01
       -1   -1    0    0    0  501  0.00000000000E+00  0.00000000000E+00  0.18694586362E+03  0.18694586368E+03  0.50400001928E-02 0.  1.
        1   -1    0    0  501    0  0.00000000000E+00  0.00000000000E+00 -0.85370550423E+03  0.85370550424E+03  0.50400001928E-02 0. -1.
    10030    2    1    2    0    0  0.00000000000E+00  0.00000000000E+00 -0.66675964061E+03  0.10406513679E+04  0.79899114589E+03 0.  0.
        4    1    3    3  502    0 -0.37729910241E+03  0.81052616708E+02 -0.19883559885E+03  0.43412135126E+03  0.12699999809E+01 0. -1.
       -4    1    3    3    0  502  0.37729910241E+03 -0.81052616708E+02 -0.46792404176E+03  0.60653001666E+03  0.12699999809E+01 0.  1.
</event>
<event>
 5   0  0.1617491E-03  0.7893334E+03  0.7818609E-02  0.9575586E-01
        1   -1    0    0  501    0  0.00000000000E+00  0.00000000000E+00  0.16628732944E+03  0.16628732951E+03  0.50400001928E-02 0.  1.
       -1   -1    0    0    0  501  0.00000000000E+00  0.00000000000E+00 -0.93670270440E+03  0.93670270441E+03  0.50400001928E-02 0. -1.
    10030    2    1    2    0    0  0.00000000000E+00  0.00000000000E+00 -0.77041537496E+03  0.11029900339E+04  0.78933336744E+03 0.  0.
        1    1    3    3  502    0 -0.17700026590E+03 -0.30246442735E+03 -0.13156319349E+03  0.37432966466E+03  0.50400001928E-02 0.  1.
       -1    1    3    3    0  502  0.17700026590E+03  0.30246442735E+03 -0.63885218147E+03  0.72866036926E+03  0.50400001928E-02 0. -1.
</event>
<event>
 5   0  0.2690809E-03  0.7980732E+03  0.7818609E-02  0.9562810E-01
        2   -1    0    0  501    0  0.00000000000E+00  0.00000000000E+00  0.91406398259E+03  0.91406398259E+03  0.25500000920E-02 0.  1.
       -2   -1    0    0    0  501  0.00000000000E+00  0.00000000000E+00 -0.17420029618E+03  0.17420029620E+03  0.25500000920E-02 0. -1.
    10030    2    1    2    0    0  0.00000000000E+00  0.00000000000E+00  0.73986368641E+03  0.10882642788E+04  0.79807322096E+03 0.  0.
        5    1    3    3  502    0  0.90056263364E+02  0.16116375423E+03 -0.11241824513E+03  0.21620323329E+03  0.46999998093E+01 0. -1.
       -5    1    3    3    0  502 -0.90056263364E+02 -0.16116375423E+03  0.85228193154E+03  0.87206104550E+03  0.46999998093E+01 0.  1.
</event>
<event>
 5   0  0.1640035E-03  0.7996749E+03  0.7818609E-02  0.9560488E-01
        1   -1    0    0  501    0  0.00000000000E+00  0.00000000000E+00  0.21730980784E+03  0.21730980790E+03  0.50400001928E-02 0. -1.
       -1   -1    0    0    0  501  0.00000000000E+00  0.00000000000E+00 -0.73567771791E+03  0.73567771792E+03  0.50400001928E-02 0.  1.
    10030    2    1    2    0    0  0.00000000000E+00  0.00000000000E+00 -0.51836791007E+03  0.95298752582E+03  0.79967489281E+03 0.  0.
        5    1    3    3  502    0 -0.27636336115E+03  0.28699331235E+03 -0.21955102390E+03  0.45493583154E+03  0.46999998093E+01 0. -1.
       -5    1    3    3    0  502  0.27636336115E+03 -0.28699331235E+03 -0.29881688616E+03  0.49805169428E+03  0.46999998093E+01 0.  1.
</event>
<event>
 5   0  0.2873212E-03  0.8029403E+03  0.7818609E-02  0.9555771E-01
        2   -1    0    0  501    0  0.00000000000E+00  0.00000000000E+00  0.38322832957E+03  0.38322832958E+03  0.25500000920E-02 0.  1.
       -2   -1    0    0    0  501  0.00000000000E+00  0.00000000000E+00 -0.42058029250E+03  0.42058029250E+03  0.25500000920E-02 0. -1.
    10030    2    1    2    0    0  0.00000000000E+00  0.00000000000E+00 -0.37351962929E+02  0.80380862208E+03  0.80294030400E+03 0.  0.
        2    1    3    3  502    0 -0.22590824121E+03  0.27889723883E+03  0.16140763071E+03  0.39353605494E+03  0.25500000920E-02 0.  1.
       -2    1    3    3    0  502  0.22590824121E+03 -0.27889723883E+03 -0.19875959364E+03  0.41027256714E+03  0.25500000920E-02 0. -1.
</event>
<event>
 5   0  0.2768834E-03  0.7998865E+03  0.7818609E-02  0.9560181E-01
        2   -1    0    0  501    0  0.00000000000E+00  0.00000000000E+00  0.17163483016E+04  0.17163483016E+04  0.25500000920E-02 0.  1.
       -2   -1    0    0    0  501  0.00000000000E+00  0.00000000000E+00 -0.93194732174E+02  0.93194732209E+02  0.25500000920E-02 0. -1.
    10030    2    1    2    0    0  0.00000000000E+00  0.00000000000E+00  0.16231535694E+04  0.18095430338E+04  0.79988654275E+03 0.  0.
        4    1    3    3  502    0  0.13932707062E+03  0.33361930341E+03  0.11984091357E+04  0.12517587394E+04  0.12699999809E+01 0.  1.
       -4    1    3    3    0  502 -0.13932707062E+03 -0.33361930341E+03  0.42474443372E+03  0.55778429441E+03  0.12699999809E+01 0. -1.
</event>
<event>
 5   0  0.1712793E-03  0.8034721E+03  0.7818609E-02  0.9555005E-01
        1   -1    0    0  501    0  0.00000000000E+00  0.00000000000E+00  0.72749464602E+02  0.72749464776E+02  0.50400001928E-02 0.  1.
       -1   -1    0    0    0  501  0.00000000000E+00  0.00000000000E+00 -0.22184611700E+04  0.22184611700E+04  0.50400001928E-02 0. -1.
    10030    2    1    2    0    0  0.00000000000E+00  0.00000000000E+00 -0.21457117054E+04  0.22912106347E+04  0.80347212164E+03 0.  0.
        4    1    3    3  502    0 -0.27109732241E+03 -0.27084132235E+03 -0.72898263447E+03  0.82356910722E+03  0.12699999809E+01 0. -1.
       -4    1    3    3    0  502  0.27109732241E+03  0.27084132235E+03 -0.14167290709E+04  0.14676415275E+04  0.12699999809E+01 0.  1.
</event>
<event>
 5   0  0.2690809E-03  0.8036140E+03  0.7818609E-02  0.9554801E-01
        2   -1    0    0  501    0  0.00000000000E+00  0.00000000000E+00  0.10546253082E+03  0.10546253085E+03  0.25500000920E-02 0. -1.
       -2   -1    0    0    0  501  0.00000000000E+00  0.00000000000E+00 -0.15308645842E+04  0.15308645842E+04  0.25500000920E-02 0.  1.
    10030    2    1    2    0    0  0.00000000000E+00  0.00000000000E+00 -0.14254020534E+04  0.16363271150E+04  0.80361397056E+03 0.  0.
        5    1    3    3  502    0 -0.10214561423E+03 -0.69110715140E+02  0.65911176359E+02  0.13991565538E+03  0.46999998093E+01 0. -1.
       -5    1    3    3    0  502  0.10214561423E+03  0.69110715140E+02 -0.14913132297E+04  0.14964114596E+04  0.46999998093E+01 0.  1.
</event>
<event>
 5   0  0.2763587E-03  0.7992160E+03  0.7818609E-02  0.9561153E-01
       -2   -1    0    0    0  501  0.00000000000E+00  0.00000000000E+00  0.11748071370E+03  0.11748071373E+03  0.25500000920E-02 0.  1.
        2   -1    0    0  501    0  0.00000000000E+00  0.00000000000E+00 -0.13592574767E+04  0.13592574767E+04  0.25500000920E-02 0. -1.
    10030    2    1    2    0    0  0.00000000000E+00  0.00000000000E+00 -0.12417767630E+04  0.14767381905E+04  0.79921596203E+03 0.  0.
        3    1    3    3  502    0 -0.83601645665E+02 -0.35124463527E+03 -0.30447513240E+03  0.47229984694E+03  0.10100000352E+00 0.  1.
       -3    1    3    3    0  502  0.83601645665E+02  0.35124463527E+03 -0.93730163062E+03  0.10044383435E+04  0.10100000352E+00 0. -1.
</event>
<event>
 5   0  0.2768834E-03  0.7997082E+03  0.7818609E-02  0.9560440E-01
        2   -1    0    0  501    0  0.00000000000E+00  0.00000000000E+00  0.14424179118E+04  0.14424179118E+04  0.25500000920E-02 0.  1.
       -2   -1    0    0    0  501  0.00000000000E+00  0.00000000000E+00 -0.11084395661E+03  0.11084395664E+03  0.25500000920E-02 0. -1.
    10030    2    1    2    0    0  0.00000000000E+00  0.00000000000E+00  0.13315739552E+04  0.15532618685E+04  0.79970821793E+03 0.  0.
        4    1    3    3  502    0  0.87860052893E+01 -0.26449505737E+03  0.83597182111E+02  0.27753365746E+03  0.12699999809E+01 0. -1.
       -4    1    3    3    0  502 -0.87860052893E+01  0.26449505737E+03  0.12479767731E+04  0.12757282110E+04  0.12699999809E+01 0.  1.
</event>
<event>
 5   0  0.1637228E-03  0.7994484E+03  0.7818609E-02  0.9560816E-01
       -1   -1    0    0    0  501  0.00000000000E+00  0.00000000000E+00  0.40980757896E+03  0.40980757899E+03  0.50400001928E-02 0. -1.
        1   -1    0    0  501    0  0.00000000000E+00  0.00000000000E+00 -0.38988893378E+03  0.38988893381E+03  0.50400001928E-02 0.  1.
    10030    2    1    2    0    0  0.00000000000E+00  0.00000000000E+00  0.19918645180E+02  0.79969651280E+03  0.79944840994E+03 0.  0.
        2    1    3    3  502    0  0.29798741959E+03 -0.18504068735E+03  0.20170313898E+03  0.40462416449E+03  0.25500000920E-02 0. -1.
       -2    1    3    3    0  502 -0.29798741959E+03  0.18504068735E+03 -0.18178449380E+03  0.39507234831E+03  0.25500000920E-02 0.  1.
</event>
<event>
 5   0  0.2690809E-03  0.8044232E+03  0.7818609E-02  0.9553637E-01
       -2   -1    0    0    0  501  0.00000000000E+00  0.00000000000E+00  0.12023241588E+03  0.12023241591E+03  0.25500000920E-02 0. -1.
        2   -1    0    0  501    0  0.00000000000E+00  0.00000000000E+00 -0.13455120018E+04  0.13455120018E+04  0.25500000920E-02 0.  1.
    10030    2    1    2    0    0  0.00000000000E+00  0.00000000000E+00 -0.12252795859E+04  0.14657444177E+04  0.80442316873E+03 0.  0.
        5    1    3    3  502    0 -0.16190495168E+03 -0.16966830914E+03 -0.17305757145E+02  0.23520656397E+03  0.46999998093E+01 0. -1.
       -5    1    3    3    0  502  0.16190495168E+03  0.16966830914E+03 -0.12079738288E+04  0.12305378537E+04  0.46999998093E+01 0.  1.
</event>
<event>
 5   0  0.1656051E-03  0.8003158E+03  0.7818609E-02  0.9559560E-01
        1   -1    0    0  501    0  0.00000000000E+00  0.00000000000E+00  0.38891094370E+03  0.38891094373E+03  0.50400001928E-02 0.  1.
       -1   -1    0    0    0  501  0.00000000000E+00  0.00000000000E+00 -0.41173006450E+03  0.41173006453E+03  0.50400001928E-02 0. -1.
    10030    2    1    2    0    0  0.00000000000E+00  0.00000000000E+00 -0.22819120799E+02  0.80064100826E+03  0.80031575758E+03 0.  0.
        3    1    3    3  502    0 -0.26930135008E+03  0.16039643987E+03  0.23744056747E+03  0.39322801065E+03  0.10100000352E+00 0. -1.
       -3    1    3    3    0  502  0.26930135008E+03 -0.16039643987E+03 -0.26025968827E+03  0.40741299761E+03  0.10100000352E+00 0.  1.
</event>
<event>
 5   0  0.2768834E-03  0.8011272E+03  0.7818609E-02  0.9558387E-01
        2   -1    0    0  501    0  0.00000000000E+00  0.00000000000E+00  0.11454176607E+04  0.11454176607E+04  0.25500000920E-02 0.  1.
       -2   -1    0    0    0  501  0.00000000000E+00  0.00000000000E+00 -0.14008095471E+03  0.14008095473E+03  0.25500000920E-02 0. -1.
    10030    2    1    2    0    0  0.00000000000E+00  0.00000000000E+00  0.10053367060E+04  0.12854986154E+04  0.80112720455E+03 0.  0.
        4    1    3    3  502    0 -0.26159986660E+03  0.23122686855E+03  0.18761943203E+03  0.39636223220E+03  0.12699999809E+01 0. -1.
       -4    1    3    3    0  502  0.26159986660E+03 -0.23122686855E+03  0.81771727393E+03  0.88913638320E+03  0.12699999809E+01 0.  1.
</event>
<event>
 5   0  0.1617491E-03  0.8004836E+03  0.7818609E-02  0.9559317E-01
        1   -1    0    0  501    0  0.00000000000E+00  0.00000000000E+00  0.61532029422E+03  0.61532029424E+03  0.50400001928E-02 0. -1.
       -1   -1    0    0    0  501  0.00000000000E+00  0.00000000000E+00 -0.26034167217E+03  0.26034167222E+03  0.50400001928E-02 0.  1.
    10030    2    1    2    0    0  0.00000000000E+00  0.00000000000E+00  0.35497862205E+03  0.87566196646E+03  0.80048363967E+03 0.  0.
        1    1    3    3  502    0 -0.51844959798E+02 -0.13213998215E+03  0.58686049768E+03  0.60378317176E+03  0.50400001928E-02 0. -1.
       -1    1    3    3    0  502  0.51844959798E+02  0.13213998215E+03 -0.23188187563E+03  0.27187879470E+03  0.50400001928E-02 0.  1.
</event>
<event>
 5   0  0.2690809E-03  0.7992303E+03  0.7818609E-02  0.9561132E-01
       -2   -1    0    0    0  501  0.00000000000E+00  0.00000000000E+00  0.10416952353E+03  0.10416952356E+03  0.25500000920E-02 0. -1.
        2   -1    0    0  501    0  0.00000000000E+00  0.00000000000E+00 -0.15330036620E+04  0.15330036620E+04  0.25500000920E-02 0.  1.
    10030    2    1    2    0    0  0.00000000000E+00  0.00000000000E+00 -0.14288341385E+04  0.16371731856E+04  0.79923028237E+03 0.  0.
        5    1    3    3  502    0  0.10870183516E+03  0.15965113295E+03  0.21425995145E+01  0.19321297562E+03  0.46999998093E+01 0. -1.
       -5    1    3    3    0  502 -0.10870183516E+03 -0.15965113295E+03 -0.14309767380E+04  0.14439602100E+04  0.46999998093E+01 0.  1.
</event>
<event>
 5   0  0.1640035E-03  0.8018608E+03  0.7818609E-02  0.9557328E-01
        1   -1    0    0  501    0  0.00000000000E+00  0.00000000000E+00  0.10041094507E+04  0.10041094507E+04  0.50400001928E-02 0. -1.
       -1   -1    0    0    0  501  0.00000000000E+00  0.00000000000E+00 -0.16008730033E+03  0.16008730041E+03  0.50400001928E-02 0.  1.
    10030    2    1    2    0    0  0.00000000000E+00  0.00000000000E+00  0.84402215032E+03  0.11641967511E+04  0.80186076410E+03 0.  0.
        5    1    3    3  502    0 -0.11057989084E+03  0.30185834640E+03  0.76978357071E+03  0.83422731272E+03  0.46999998093E+01 0. -1.
       -5    1    3    3    0  502  0.11057989084E+03 -0.30185834640E+03  0.74238579612E+02  0.32996943836E+03  0.46999998093E+01 0.  1.
</event>
<event>
 5   0  0.1640035E-03  0.7989221E+03  0.7818609E-02  0.9561579E-01
       -1   -1    0    0    0  501  0.00000000000E+00  0.00000000000E+00  0.18076657278E+03  0.18076657285E+03  0.50400001928E-02 0.  1.
        1   -1    0    0  501    0  0.00000000000E+00  0.00000000000E+00 -0.88273588871E+03  0.88273588873E+03  0.50400001928E-02 0. -1.
    10030    2    1    2    0    0  0.00000000000E+00  0.00000000000E+00 -0.70196931593E+03  0.10635024616E+04  0.79892212717E+03 0.  0.
        5    1    3    3  502    0 -0.19767443327E+03  0.10727643520E+03  0.88430307165E+02  0.24171351708E+03  0.46999998093E+01 0.  1.
       -5    1    3    3    0  502  0.19767443327E+03 -0.10727643520E+03 -0.79039962309E+03  0.82178894450E+03  0.46999998093E+01 0. -1.
</event>
<event>
 5   0  0.2690809E-03  0.7967239E+03  0.7818609E-02  0.9564771E-01
        2   -1    0    0  501    0  0.00000000000E+00  0.00000000000E+00  0.15306877833E+04  0.15306877833E+04  0.25500000920E-02 0. -1.
       -2   -1    0    0    0  501  0.00000000000E+00  0.00000000000E+00 -0.10367382777E+03  0.10367382781E+03  0.25500000920E-02 0.  1.
    10030    2    1    2    0    0  0.00000000000E+00  0.00000000000E+00  0.14270139556E+04  0.16343616111E+04  0.79672394630E+03 0.  0.
        5    1    3    3  502    0 -0.13835739743E+03 -0.26503539969E+03  0.17355438890E+03  0.34573074555E+03  0.46999998093E+01 0.  1.
       -5    1    3    3    0  502  0.13835739743E+03  0.26503539969E+03  0.12534595667E+04  0.12886308656E+04  0.46999998093E+01 0. -1.
</event>
<event>
 5   0  0.1712793E-03  0.7993870E+03  0.7818609E-02  0.9560905E-01
        1   -1    0    0  501    0  0.00000000000E+00  0.00000000000E+00  0.94486559915E+03  0.94486559916E+03  0.50400001928E-02 0.  1.
       -1   -1    0    0    0  501  0.00000000000E+00  0.00000000000E+00 -0.16907684133E+03  0.16907684140E+03  0.50400001928E-02 0. -1.
    10030    2    1    2    0    0  0.00000000000E+00  0.00000000000E+00  0.77578875782E+03  0.11139424406E+04  0.79938699272E+03 0.  0.
        4    1    3    3  502    0 -0.67347083950E+02 -0.10526012418E+02  0.93670330255E+03  0.93918108826E+03  0.12699999809E+01 0.  1.
       -4    1    3    3    0  502  0.67347083950E+02  0.10526012418E+02 -0.16091454472E+03  0.17476135230E+03  0.12699999809E+01 0. -1.
</event>
<event>
 5   0  0.1712793E-03  0.8002567E+03  0.7818609E-02  0.9559646E-01
        1   -1    0    0  501    0  0.00000000000E+00  0.00000000000E+00  0.49399337364E+03  0.49399337366E+03  0.50400001928E-02 0.  1.
       -1   -1    0    0    0  501  0.00000000000E+00  0.00000000000E+00 -0.32409890638E+03  0.32409890642E+03  0.50400001928E-02 0. -1.
    10030    2    1    2    0    0  0.00000000000E+00  0.00000000000E+00  0.16989446726E+03  0.81809228008E+03  0.80025673925E+03 0.  0.
        4    1    3    3  502    0 -0.34256896395E+00 -0.39692254252E+03  0.13660539488E+03  0.41977406890E+03  0.12699999809E+01 0. -1.
       -4    1    3    3    0  502  0.34256896395E+00  0.39692254252E+03  0.33289072381E+02  0.39831821117E+03  0.12699999809E+01 0.  1.
</event>
<event>
 5   0  0.1640035E-03  0.8029660E+03  0.7818609E-02  0.9555734E-01
        1   -1    0    0  501    0  0.00000000000E+00  0.00000000000E+00  0.26559722269E+03  0.26559722274E+03  0.50400001928E-02 0.  1.
       -1   -1    0    0    0  501  0.00000000000E+00  0.00000000000E+00 -0.60689107727E+03  0.60689107729E+03  0.50400001928E-02 0. -1.
    10030    2    1    2    0    0  0.00000000000E+00  0.00000000000E+00 -0.34129385458E+03  0.87248830003E+03  0.80296596348E+03 0.  0.
        5    1    3    3  502    0  0.32036507728E+03 -0.24189015164E+03 -0.16556590168E+03  0.43425659005E+03  0.46999998093E+01 0.  1.
       -5    1    3    3    0  502 -0.32036507728E+03  0.24189015164E+03 -0.17572795290E+03  0.43823170998E+03  0.46999998093E+01 0. -1.
</event>
<event>
 5   0  0.1637228E-03  0.7999814E+03  0.7818609E-02  0.9560044E-01
        1   -1    0    0  501    0  0.00000000000E+00  0.00000000000E+00  0.11036722185E+04  0.11036722185E+04  0.50400001928E-02 0. -1.
       -1   -1    0    0    0  501  0.00000000000E+00  0.00000000000E+00 -0.14496384415E+03  0.14496384424E+03  0.50400001928E-02 0.  1.
    10030    2    1    2    0    0  0.00000000000E+00  0.00000000000E+00  0.95870837435E+03  0.12486360627E+04  0.79998141863E+03 0.  0.
        2    1    3    3  502    0 -0.23798920635E+02  0.29630758036E+01  0.11025490059E+04  0.11028098109E+04  0.25500000920E-02 0. -1.
       -2    1    3    3    0  502  0.23798920635E+02 -0.29630758036E+01 -0.14384063158E+03  0.14582625190E+03  0.25500000920E-02 0.  1.
</event>
<event>
 5   0  0.1712793E-03  0.7997967E+03  0.7818609E-02  0.9560311E-01
        1   -1    0    0  501    0  0.00000000000E+00  0.00000000000E+00  0.10793095945E+04  0.10793095945E+04  0.50400001928E-02 0.  1.
       -1   -1    0    0    0  501  0.00000000000E+00  0.00000000000E+00 -0.14816756220E+03  0.14816756229E+03  0.50400001928E-02 0. -1.
    10030    2    1    2    0    0  0.00000000000E+00  0.00000000000E+00  0.93114203229E+03  0.12274771568E+04  0.79979665300E+03 0.  0.
        4    1    3    3  502    0 -0.31961295498E+03  0.23767829340E+03  0.41079905539E+03  0.57218955684E+03  0.12699999809E+01 0. -1.
       -4    1    3    3    0  502  0.31961295498E+03 -0.23767829340E+03  0.52034297690E+03  0.65528759995E+03  0.12699999809E+01 0.  1.
</event>
<event>
 5   0  0.1712793E-03  0.8002906E+03  0.7818609E-02  0.9559597E-01
        1   -1    0    0  501    0  0.00000000000E+00  0.00000000000E+00  0.37417232204E+03  0.37417232208E+03  0.50400001928E-02 0.  1.
       -1   -1    0    0    0  501  0.00000000000E+00  0.00000000000E+00 -0.42792123054E+03  0.42792123057E+03  0.50400001928E-02 0. -1.
    10030    2    1    2    0    0  0.00000000000E+00  0.00000000000E+00 -0.53748908501E+02  0.80209355265E+03  0.80029064847E+03 0.  0.
        4    1    3    3  502    0  0.81275564178E+02  0.96032384306E+02  0.35383221158E+03  0.37553532859E+03  0.12699999809E+01 0.  1.
       -4    1    3    3    0  502 -0.81275564178E+02 -0.96032384306E+02 -0.40758112008E+03  0.42655822406E+03  0.12699999809E+01 0. -1.
</event>
<event>
 5   0  0.1617491E-03  0.7994371E+03  0.7818609E-02  0.9560832E-01
        1   -1    0    0  501    0  0.00000000000E+00  0.00000000000E+00  0.32914256257E+03  0.32914256261E+03  0.50400001928E-02 0. -1.
       -1   -1    0    0    0  501  0.00000000000E+00  0.00000000000E+00 -0.48542768518E+03  0.48542768521E+03  0.50400001928E-02 0.  1.
    10030    2    1    2    0    0  0.00000000000E+00  0.00000000000E+00 -0.15628512261E+03  0.81457024782E+03  0.79943708263E+03 0.  0.
        1    1    3    3  502    0  0.61199438484E+02 -0.14173710014E+03 -0.45382258532E+03  0.47936386576E+03  0.50400001928E-02 0.  1.
       -1    1    3    3    0  502 -0.61199438484E+02  0.14173710014E+03  0.29753746271E+03  0.33520638205E+03  0.50400001928E-02 0. -1.
</event>
<event>
 5   0  0.2873212E-03  0.8026879E+03  0.7818609E-02  0.9556135E-01
        2   -1    0    0  501    0  0.00000000000E+00  0.00000000000E+00  0.48520122857E+03  0.48520122857E+03  0.25500000920E-02 0.  1.
       -2   -1    0    0    0  501  0.00000000000E+00  0.00000000000E+00 -0.33197970372E+03  0.33197970373E+03  0.25500000920E-02 0. -1.
    10030    2    1    2    0    0  0.00000000000E+00  0.00000000000E+00  0.15322152485E+03  0.81718093230E+03  0.80268788482E+03 0.  0.
        2    1    3    3  502    0 -0.14691057938E+03 -0.22401825811E+03 -0.22763301974E+03  0.35154471975E+03  0.25500000920E-02 0. -1.
       -2    1    3    3    0  502  0.14691057938E+03  0.22401825811E+03  0.38085454459E+03  0.46563621255E+03  0.25500000920E-02 0.  1.
</event>
<event>
 5   0  0.1617491E-03  0.8006142E+03  0.7818609E-02  0.9559128E-01
       -1   -1    0    0    0  501  0.00000000000E+00  0.00000000000E+00  0.29426300125E+03  0.29426300129E+03  0.50400001928E-02 0.  1.
        1   -1    0    0  501    0  0.00000000000E+00  0.00000000000E+00 -0.54456654092E+03  0.54456654094E+03  0.50400001928E-02 0. -1.
    10030    2    1    2    0    0  0.00000000000E+00  0.00000000000E+00 -0.25030353967E+03  0.83882954223E+03  0.80061422605E+03 0.  0.
        1    1    3    3  502    0 -0.36631298338E+03 -0.33548818655E+01  0.43950202829E+02  0.36895538671E+03  0.50400001928E-02 0.  1.
       -1    1    3    3    0  502  0.36631298338E+03  0.33548818655E+01 -0.29425374250E+03  0.46987415552E+03  0.50400001928E-02 0. -1.
</event>
<event>
 5   0  0.1712793E-03  0.7966030E+03  0.7818609E-02  0.9564947E-01
        1   -1    0    0  501    0  0.00000000000E+00  0.00000000000E+00  0.55845969248E+03  0.55845969250E+03  0.50400001928E-02 0. -1.
       -1   -1    0    0    0  501  0.00000000000E+00  0.00000000000E+00 -0.28407435524E+03  0.28407435528E+03  0.50400001928E-02 0.  1.
    10030    2    1    2    0    0  0.00000000000E+00  0.00000000000E+00  0.27438533724E+03  0.84253404778E+03  0.79660298040E+03 0.  0.
        4    1    3    3  502    0  0.26534054899E+03  0.22561447603E+03  0.34155620547E+03  0.48782143570E+03  0.12699999809E+01 0. -1.
       -4    1    3    3    0  502 -0.26534054899E+03 -0.22561447603E+03 -0.67170868233E+02  0.35471261208E+03  0.12699999809E+01 0.  1.
</event>
<event>
 5   0  0.2690809E-03  0.8032068E+03  0.7818609E-02  0.9555387E-01
        2   -1    0    0  501    0  0.00000000000E+00  0.00000000000E+00  0.40978811424E+03  0.40978811424E+03  0.25500000920E-02 0. -1.
       -2   -1    0    0    0  501  0.00000000000E+00  0.00000000000E+00 -0.39358214152E+03  0.39358214153E+03  0.25500000920E-02 0.  1.
    10030    2    1    2    0    0  0.00000000000E+00  0.00000000000E+00  0.16205972719E+02  0.80337025577E+03  0.80320678178E+03 0.  0.
        5    1    3    3  502    0 -0.37707388814E+03 -0.13385122580E+03 -0.25996852237E+02  0.40099724947E+03  0.46999998093E+01 0.  1.
       -5    1    3    3    0  502  0.37707388814E+03  0.13385122580E+03  0.42202824956E+02  0.40237300629E+03  0.46999998093E+01 0. -1.
</event>
<event>
 5   0  0.1095350E-03  0.7986559E+03  0.7818609E-02  0.9561965E-01
        4   -1    0    0  501    0  0.00000000000E+00  0.00000000000E+00  0.13541002768E+04  0.13541008724E+04  0.12699999809E+01 0.  1.
       -4   -1    0    0    0  501  0.00000000000E+00  0.00000000000E+00 -0.11775887312E+03  0.11776572123E+03  0.12699999809E+01 0. -1.
    10030    2    1    2    0    0  0.00000000000E+00  0.00000000000E+00  0.12363414037E+04  0.14718665936E+04  0.79865587263E+03 0.  0.
        4    1    3    3  502    0  0.19647101811E+03  0.23227086033E+03  0.10948827605E+04  0.11363628318E+04  0.12699999809E+01 0.  1.
       -4    1    3    3    0  502 -0.19647101811E+03 -0.23227086033E+03  0.14145864324E+03  0.33550376178E+03  0.12699999809E+01 0. -1.
</event>
<event>
 5   0  0.1656051E-03  0.8002897E+03  0.7818609E-02  0.9559598E-01
        1   -1    0    0  501    0  0.00000000000E+00  0.00000000000E+00  0.18059303871E+04  0.18059303871E+04  0.50400001928E-02 0.  1.
       -1   -1    0    0    0  501  0.00000000000E+00  0.00000000000E+00 -0.88661162754E+02  0.88661162898E+02  0.50400001928E-02 0. -1.
    10030    2    1    2    0    0  0.00000000000E+00  0.00000000000E+00  0.17172692243E+04  0.18945915500E+04  0.80028966785E+03 0.  0.
        3    1    3    3  502    0  0.75121909872E+01  0.13598025803E+03 -0.32107906497E+02  0.13992137595E+03  0.10100000352E+00 0. -1.
       -3    1    3    3    0  502 -0.75121909872E+01 -0.13598025803E+03  0.17493771308E+04  0.17546701740E+04  0.10100000352E+00 0.  1.
</event>
<event>
 5   0  0.1712793E-03  0.8053769E+03  0.7818609E-02  0.9552267E-01
        1   -1    0    0  501    0  0.00000000000E+00  0.00000000000E+00  0.76126504140E+03  0.76126504141E+03  0.50400001928E-02 0.  1.
       -1   -1    0    0    0  501  0.00000000000E+00  0.00000000000E+00 -0.21301119456E+03  0.21301119462E+03  0.50400001928E-02 0. -1.
    10030    2    1    2    0    0  0.00000000000E+00  0.00000000000E+00  0.54825384684E+03  0.97427623603E+03  0.80537687049E+03 0.  0.
        4    1    3    3  502    0 -0.40155609405E+03 -0.17329450130E+02  0.30397420286E+03  0.50393405860E+03  0.12699999809E+01 0.  1.
       -4    1    3    3    0  502  0.40155609405E+03  0.17329450130E+02  0.24427964398E+03  0.47034217743E+03  0.12699999809E+01 0. -1.
</event>
<event>
 5   0  0.1637228E-03  0.7994703E+03  0.7818609E-02  0.9560784E-01
        1   -1    0    0  501    0  0.00000000000E+00  0.00000000000E+00  0.53463711570E+03  0.53463711572E+03  0.50400001928E-02 0. -1.
       -1   -1    0    0    0  501  0.00000000000E+00  0.00000000000E+00 -0.29887223780E+03  0.29887223785E+03  0.50400001928E-02 0.  1.
    10030    2    1    2    0    0  0.00000000000E+00  0.00000000000E+00  0.23576487789E+03  0.83350935357E+03  0.79947030266E+03 0.  0.
        2    1    3    3  502    0 -0.24098898519E+03  0.20270532581E+03 -0.13881825160E+03  0.34414480540E+03  0.25500000920E-02 0.  1.
       -2    1    3    3    0  502  0.24098898519E+03 -0.20270532581E+03  0.37458312950E+03  0.48936454817E+03  0.25500000920E-02 0. -1.
</event>
<event>
 5   0  0.2768834E-03  0.8000856E+03  0.7818609E-02  0.9559893E-01
        2   -1    0    0  501    0  0.00000000000E+00  0.00000000000E+00  0.53419306989E+03  0.53419306990E+03  0.25500000920E-02 0.  1.
       -2   -1    0    0    0  501  0.00000000000E+00  0.00000000000E+00 -0.29958126760E+03  0.29958126762E+03  0.25500000920E-02 0. -1.
    10030    2    1    2    0    0  0.00000000000E+00  0.00000000000E+00  0.23461180229E+03  0.83377433752E+03  0.80008558800E+03 0.  0.
        4    1    3    3  502    0  0.22795801326E+03  0.32327333084E+03  0.17950247540E+03  0.43438836749E+03  0.12699999809E+01 0.  1.
       -4    1    3    3    0  502 -0.22795801326E+03 -0.32327333084E+03  0.55109326894E+02  0.39938597002E+03  0.12699999809E+01 0. -1.
</event>
<event>
 5   0  0.1640035E-03  0.7993528E+03  0.7818609E-02  0.9560954E-01
       -1   -1    0    0    0  501  0.00000000000E+00  0.00000000000E+00  0.49256720104E+03  0.49256720106E+03  0.50400001928E-02 0. -1.
        1   -1    0    0  501    0  0.00000000000E+00  0.00000000000E+00 -0.32430339041E+03  0.32430339045E+03  0.50400001928E-02 0.  1.
    10030    2    1    2    0    0  0.00000000000E+00  0.00000000000E+00  0.16826381063E+03  0.81687059151E+03  0.79935277150E+03 0.  0.
        5    1    3    3  502    0  0.37286972072E+03  0.14164157446E+03  0.10967894415E+03  0.41369762512E+03  0.46999998093E+01 0.  1.
       -5    1    3    3    0  502 -0.37286972072E+03 -0.14164157446E+03  0.58584866485E+02  0.40317296639E+03  0.46999998093E+01 0. -1.
</event>
<event>
 5   0  0.1656051E-03  0.7987853E+03  0.7818609E-02  0.9561777E-01
        1   -1    0    0  501    0  0.00000000000E+00  0.00000000000E+00  0.54478289749E+03  0.54478289751E+03  0.50400001928E-02 0.  1.
       -1   -1    0    0    0  501  0.00000000000E+00  0.00000000000E+00 -0.29280378612E+03  0.29280378616E+03  0.50400001928E-02 0. -1.
    10030    2    1    2    0    0  0.00000000000E+00  0.00000000000E+00  0.25197911137E+03  0.83758668368E+03  0.79878531540E+03 0.  0.
        3    1    3    3  502    0  0.57985713797E+02  0.30678407611E+03 -0.13517873036E+03  0.34022362014E+03  0.10100000352E+00 0. -1.
       -3    1    3    3    0  502 -0.57985713797E+02 -0.30678407611E+03  0.38715784172E+03  0.49736306354E+03  0.10100000352E+00 0.  1.
</event>
<event>
 5   0  0.2873212E-03  0.7990927E+03  0.7818609E-02  0.9561331E-01
        2   -1    0    0  501    0  0.00000000000E+00  0.00000000000E+00  0.31889972385E+03  0.31889972386E+03  0.25500000920E-02 0.  1.
       -2   -1    0    0    0  501  0.00000000000E+00  0.00000000000E+00 -0.50058777414E+03  0.50058777415E+03  0.25500000920E-02 0. -1.
    10030    2    1    2    0    0  0.00000000000E+00  0.00000000000E+00 -0.18168805029E+03  0.81948749801E+03  0.79909274291E+03 0.  0.
        2    1    3    3  502    0 -0.33529917793E+03 -0.20594928362E+03 -0.19818497535E+02  0.39399672460E+03  0.25500000920E-02 0. -1.
       -2    1    3    3    0  502  0.33529917793E+03  0.20594928362E+03 -0.16186955276E+03  0.42549077341E+03  0.25500000920E-02 0.  1.
</event>
<event>
 5   0  0.2690809E-03  0.8023043E+03  0.7818609E-02  0.9556688E-01
        2   -1    0    0  501    0  0.00000000000E+00  0.00000000000E+00  0.42388588851E+03  0.42388588852E+03  0.25500000920E-02 0. -1.
       -2   -1    0    0    0  501  0.00000000000E+00  0.00000000000E+00 -0.37963766954E+03  0.37963766955E+03  0.25500000920E-02 0.  1.
    10030    2    1    2    0    0  0.00000000000E+00  0.00000000000E+00  0.44248218973E+02  0.80352355806E+03  0.80230430853E+03 0.  0.
        5    1    3    3  502    0 -0.97185855947E+02  0.31967410574E+02 -0.36632347604E+03  0.38037085197E+03  0.46999998093E+01 0.  1.
       -5    1    3    3    0  502  0.97185855947E+02 -0.31967410574E+02  0.41057169501E+03  0.42315270609E+03  0.46999998093E+01 0. -1.
</event>
<event>
 5   0  0.2763587E-03  0.8019747E+03  0.7818609E-02  0.9557163E-01
        2   -1    0    0  501    0  0.00000000000E+00  0.00000000000E+00  0.30708698271E+03  0.30708698272E+03  0.25500000920E-02 0.  1.
       -2   -1    0    0    0  501  0.00000000000E+00  0.00000000000E+00 -0.52360035517E+03  0.52360035517E+03  0.25500000920E-02 0. -1.
    10030    2    1    2    0    0  0.00000000000E+00  0.00000000000E+00 -0.21651337246E+03  0.83068733789E+03  0.80197469591E+03 0.  0.
        3    1    3    3  502    0 -0.61897404634E+02  0.13566119465E+03  0.27730063857E+03  0.31485060391E+03  0.10100000352E+00 0.  1.
       -3    1    3    3    0  502  0.61897404634E+02 -0.13566119465E+03 -0.49381401103E+03  0.51583673398E+03  0.10100000352E+00 0. -1.
</event>
<event>
 5   0  0.1637228E-03  0.8028834E+03  0.7818609E-02  0.9555853E-01
       -1   -1    0    0    0  501  0.00000000000E+00  0.00000000000E+00  0.73214090864E+03  0.73214090865E+03  0.50400001928E-02 0.  1.
        1   -1    0    0  501    0  0.00000000000E+00  0.00000000000E+00 -0.22011535820E+03  0.22011535826E+03  0.50400001928E-02 0. -1.
    10030    2    1    2    0    0  0.00000000000E+00  0.00000000000E+00  0.51202555043E+03  0.95225626691E+03  0.80288344956E+03 0.  0.
        2    1    3    3  502    0  0.11076655347E+03 -0.28624866692E+03  0.56289371090E+03  0.64113716040E+03  0.25500000920E-02 0.  1.
       -2    1    3    3    0  502 -0.11076655347E+03  0.28624866692E+03 -0.50868160461E+02  0.31111910651E+03  0.25500000920E-02 0. -1.
</event>
<event>
 5   0  0.2763587E-03  0.8003923E+03  0.7818609E-02  0.9559449E-01
       -2   -1    0    0    0  501  0.00000000000E+00  0.00000000000E+00  0.21982721983E+03  0.21982721985E+03  0.25500000920E-02 0. -1.
        2   -1    0    0  501    0  0.00000000000E+00  0.00000000000E+00 -0.72855839530E+03  0.72855839530E+03  0.25500000920E-02 0.  1.
    10030    2    1    2    0    0  0.00000000000E+00  0.00000000000E+00 -0.50873117547E+03  0.94838561515E+03  0.80039232013E+03 0.  0.
        3    1    3    3  502    0  0.82071420714E+02  0.35180053350E+03 -0.45842198485E+03  0.58365234503E+03  0.10100000352E+00 0.  1.
       -3    1    3    3    0  502 -0.82071420714E+02 -0.35180053350E+03 -0.50309190618E+02  0.36473327012E+03  0.10100000352E+00 0. -1.
</event>
<event>
 5   0  0.1640035E-03  0.8000526E+03  0.7818609E-02  0.9559941E-01
       -1   -1    0    0    0  501  0.00000000000E+00  0.00000000000E+00  0.33726168127E+03  0.33726168131E+03  0.50400001928E-02 0.  1.
        1   -1    0    0  501    0  0.00000000000E+00  0.00000000000E+00 -0.47447147984E+03  0.47447147986E+03  0.50400001928E-02 0. -1.
    10030    2    1    2    0    0  0.00000000000E+00  0.00000000000E+00 -0.13720979857E+03  0.81173316117E+03  0.80005262084E+03 0.  0.
        5    1    3    3  502    0  0.37415642681E+02  0.35434548038E+03  0.11581324306E+03  0.37469380439E+03  0.46999998093E+01 0. -1.
       -5    1    3    3    0  502 -0.37415642681E+02 -0.35434548038E+03 -0.25302304162E+03  0.43703935678E+03  0.46999998093E+01 0.  1.
</event>
<event>
 5   0  0.1656051E-03  0.7996429E+03  0.7818609E-02  0.9560534E-01
       -1   -1    0    0    0  501  0.00000000000E+00  0.00000000000E+00  0.12713607574E+03  0.12713607584E+03  0.50400001928E-02 0.  1.
        1   -1    0    0  501    0  0.00000000000E+00  0.00000000000E+00 -0.12573709762E+04  0.12573709762E+04  0.50400001928E-02 0. -1.
    10030    2    1    2    0    0  0.00000000000E+00  0.00000000000E+00 -0.11302349005E+04  0.13845070521E+04  0.79964294968E+03 0.  0.
        3    1    3    3  502    0  0.20493630409E+03  0.26923792304E+03 -0.93390807917E+03  0.99331377644E+03  0.10100000352E+00 0. -1.
       -3    1    3    3    0  502 -0.20493630409E+03 -0.26923792304E+03 -0.19632682133E+03  0.39119327564E+03  0.10100000352E+00 0.  1.
</event>
<event>
 5   0  0.1095350E-03  0.8010380E+03  0.7818609E-02  0.9558516E-01
       -3   -1    0    0    0  501  0.00000000000E+00  0.00000000000E+00  0.48959581379E+03  0.48959582421E+03  0.10100000352E+00 0.  1.
        3   -1    0    0  501    0  0.00000000000E+00  0.00000000000E+00 -0.32764874445E+03  0.32764876002E+03  0.10100000352E+00 0. -1.
    10030    2    1    2    0    0  0.00000000000E+00  0.00000000000E+00  0.16194706934E+03  0.81724458423E+03  0.80103798735E+03 0.  0.
        3    1    3    3  502    0  0.16887384755E+03  0.26955724765E+03 -0.16733502113E+03  0.35941689672E+03  0.10100000352E+00 0. -1.
       -3    1    3    3    0  502 -0.16887384755E+03 -0.26955724765E+03  0.32928209047E+03  0.45782768751E+03  0.10100000352E+00 0.  1.
</event>
<event>
 5   0  0.1712793E-03  0.8014603E+03  0.7818609E-02  0.9557906E-01
       -1   -1    0    0    0  501  0.00000000000E+00  0.00000000000E+00  0.24901388346E+03  0.24901388352E+03  0.50400001928E-02 0.  1.
        1   -1    0    0  501    0  0.00000000000E+00  0.00000000000E+00 -0.64488224948E+03  0.64488224950E+03  0.50400001928E-02 0. -1.
    10030    2    1    2    0    0  0.00000000000E+00  0.00000000000E+00 -0.39586836602E+03  0.89389613302E+03  0.80146025067E+03 0.  0.
        4    1    3    3  502    0 -0.34146979183E+02 -0.21932392248E+03 -0.57005160775E+03  0.61174295873E+03  0.12699999809E+01 0. -1.
       -4    1    3    3    0  502  0.34146979183E+02  0.21932392248E+03  0.17418324173E+03  0.28215317429E+03  0.12699999809E+01 0.  1.
</event>
<event>
 5   0  0.2768834E-03  0.8007193E+03  0.7818609E-02  0.9558977E-01
       -2   -1    0    0    0  501  0.00000000000E+00  0.00000000000E+00  0.18764688440E+03  0.18764688442E+03  0.25500000920E-02 0. -1.
        2   -1    0    0  501    0  0.00000000000E+00  0.00000000000E+00 -0.85419931588E+03  0.85419931588E+03  0.25500000920E-02 0.  1.
    10030    2    1    2    0    0  0.00000000000E+00  0.00000000000E+00 -0.66655243147E+03  0.10418462003E+04  0.80071927738E+03 0.  0.
        4    1    3    3  502    0 -0.17990500814E+03  0.26642017079E+03 -0.22795408117E+02  0.32228366835E+03  0.12699999809E+01 0.  1.
       -4    1    3    3    0  502  0.17990500814E+03 -0.26642017079E+03 -0.64375702336E+03  0.71956253194E+03  0.12699999809E+01 0. -1.
</event>
<event>
 5   0  0.1712793E-03  0.8003441E+03  0.7818609E-02  0.9559519E-01
       -1   -1    0    0    0  501  0.00000000000E+00  0.00000000000E+00  0.26258524294E+03  0.26258524299E+03  0.50400001928E-02 0.  1.
        1   -1    0    0  501    0  0.00000000000E+00  0.00000000000E+00 -0.60985021490E+03  0.60985021492E+03  0.50400001928E-02 0. -1.
    10030    2    1    2    0    0  0.00000000000E+00  0.00000000000E+00 -0.34726497196E+03  0.87243545791E+03  0.80034409317E+03 0.  0.
        4    1    3    3  502    0 -0.27591992701E+03 -0.12492321695E+03  0.11145598523E+03  0.32274086477E+03  0.12699999809E+01 0. -1.
       -4    1    3    3    0  502  0.27591992701E+03  0.12492321695E+03 -0.45872095720E+03  0.54969459314E+03  0.12699999809E+01 0.  1.
</event>
<event>
 5   0  0.1095350E-03  0.8014771E+03  0.7818609E-02  0.9557882E-01
        4   -1    0    0  501    0  0.00000000000E+00  0.00000000000E+00  0.10562309880E+03  0.10563073369E+03  0.12699999809E+01 0.  1.
       -4   -1    0    0    0  501  0.00000000000E+00  0.00000000000E+00 -0.15203562684E+04  0.15203567988E+04  0.12699999809E+01 0. -1.
    10030    2    1    2    0    0  0.00000000000E+00  0.00000000000E+00 -0.14147331696E+04  0.16259875325E+04  0.80147708312E+03 0.  0.
        2    1    3    3  502    0  0.15048538521E+03  0.67283783647E+02  0.33660358400E+02  0.16824380654E+03  0.25500000920E-02 0.  1.
       -2    1    3    3    0  502 -0.15048538521E+03 -0.67283783647E+02 -0.14483935280E+04  0.14577437260E+04  0.25500000920E-02 0. -1.
</event>
<event>
 5   0  0.1656051E-03  0.7998929E+03  0.7818609E-02  0.9560172E-01
       -1   -1    0    0    0  501  0.00000000000E+00  0.00000000000E+00  0.22628634284E+03  0.22628634290E+03  0.50400001928E-02 0. -1.
        1   -1    0    0  501    0  0.00000000000E+00  0.00000000000E+00 -0.70687943608E+03  0.70687943610E+03  0.50400001928E-02 0.  1.
    10030    2    1    2    0    0  0.00000000000E+00  0.00000000000E+00 -0.48059309323E+03  0.93316577900E+03  0.79989289897E+03 0.  0.
        3    1    3    3  502    0 -0.43434975063E+02  0.32317496630E+03  0.29865770687E+02  0.32744561435E+03  0.10100000352E+00 0. -1.
       -3    1    3    3    0  502  0.43434975063E+02 -0.32317496630E+03 -0.51045886392E+03  0.60572016464E+03  0.10100000352E+00 0.  1.
</event>
<event>
 5   0  0.2873212E-03  0.7999307E+03  0.7818609E-02  0.9560117E-01
       -2   -1    0    0    0  501  0.00000000000E+00  0.00000000000E+00  0.25026090862E+03  0.25026090863E+03  0.25500000920E-02 0.  1.
        2   -1    0    0  501    0  0.00000000000E+00  0.00000000000E+00 -0.63922195588E+03  0.63922195589E+03  0.25500000920E-02 0. -1.
    10030    2    1    2    0    0  0.00000000000E+00  0.00000000000E+00 -0.38896104727E+03  0.88948286452E+03  0.79993066573E+03 0.  0.
        2    1    3    3  502    0  0.50726256799E+02 -0.80651327282E+02  0.23745797380E+03  0.25585949083E+03  0.25500000920E-02 0.  1.
       -2    1    3    3    0  502 -0.50726256799E+02  0.80651327282E+02 -0.62641902107E+03  0.63362337369E+03  0.25500000920E-02 0. -1.
</event>
<event>
 5   0  0.2768834E-03  0.8001674E+03  0.7818609E-02  0.9559775E-01
       -2   -1    0    0    0  501  0.00000000000E+00  0.00000000000E+00  0.11754504713E+03  0.11754504716E+03  0.25500000920E-02 0.  1.
        2   -1    0    0  501    0  0.00000000000E+00  0.00000000000E+00 -0.13617499980E+04  0.13617499980E+04  0.25500000920E-02 0. -1.
    10030    2    1    2    0    0  0.00000000000E+00  0.00000000000E+00 -0.12442049508E+04  0.14792950451E+04  0.80016740176E+03 0.  0.
        4    1    3    3  502    0  0.16342655218E+03 -0.19961722034E+03 -0.56770998083E+02  0.26415872451E+03  0.12699999809E+01 0.  1.
       -4    1    3    3    0  502 -0.16342655218E+03  0.19961722034E+03 -0.11874339528E+04  0.12151363206E+04  0.12699999809E+01 0. -1.
</event>
<event>
 5   0  0.2873212E-03  0.7938089E+03  0.7818609E-02  0.9569022E-01
       -2   -1    0    0    0  501  0.00000000000E+00  0.00000000000E+00  0.58413000975E+03  0.58413000976E+03  0.25500000920E-02 0. -1.
        2   -1    0    0  501    0  0.00000000000E+00  0.00000000000E+00 -0.26968850629E+03  0.26968850631E+03  0.25500000920E-02 0.  1.
    10030    2    1    2    0    0  0.00000000000E+00  0.00000000000E+00  0.31444150346E+03  0.85381851607E+03  0.79380891862E+03 0.  0.
        2    1    3    3  502    0 -0.28090498878E+02  0.28621411220E+03  0.45144236339E+03  0.53526423533E+03  0.25500000920E-02 0. -1.
       -2    1    3    3    0  502  0.28090498878E+02 -0.28621411220E+03 -0.13700085993E+03  0.31855428074E+03  0.25500000920E-02 0.  1.
</event>
<event>
 5   0  0.1712793E-03  0.7997791E+03  0.7818609E-02  0.9560337E-01
       -1   -1    0    0    0  501  0.00000000000E+00  0.00000000000E+00  0.84511656501E+03  0.84511656503E+03  0.50400001928E-02 0.  1.
        1   -1    0    0  501    0  0.00000000000E+00  0.00000000000E+00 -0.18921845998E+03  0.18921846005E+03  0.50400001928E-02 0. -1.
    10030    2    1    2    0    0  0.00000000000E+00  0.00000000000E+00  0.65589810503E+03  0.10343350251E+04  0.79977910696E+03 0.  0.
        4    1    3    3  502    0  0.26237108791E+03 -0.22935085962E+03  0.58160802187E+03  0.67801910635E+03  0.12699999809E+01 0.  1.
       -4    1    3    3    0  502 -0.26237108791E+03  0.22935085962E+03  0.74290083163E+02  0.35631591873E+03  0.12699999809E+01 0. -1.
</event>
<event>
 5   0  0.2690809E-03  0.7990224E+03  0.7818609E-02  0.9561433E-01
       -2   -1    0    0    0  501  0.00000000000E+00  0.00000000000E+00  0.97668292349E+02  0.97668292383E+02  0.25500000920E-02 0. -1.
        2   -1    0    0  501    0  0.00000000000E+00  0.00000000000E+00 -0.16341965597E+04  0.16341965597E+04  0.25500000920E-02 0.  1.
    10030    2    1    2    0    0  0.00000000000E+00  0.00000000000E+00 -0.15365282674E+04  0.17318648521E+04  0.79902237110E+03 0.  0.
        5    1    3    3  502    0 -0.71938767562E+02  0.16395448311E+03 -0.15423028199E+04  0.15526674909E+04  0.46999998093E+01 0.  1.
       -5    1    3    3    0  502  0.71938767562E+02 -0.16395448311E+03  0.57745525900E+01  0.17919736121E+03  0.46999998093E+01 0. -1.
</event>
<event>
 5   0  0.1637228E-03  0.7991193E+03  0.7818609E-02  0.9561293E-01
       -1   -1    0    0    0  501  0.00000000000E+00  0.00000000000E+00  0.13400810585E+03  0.13400810594E+03  0.50400001928E-02 0.  1.
        1   -1    0    0  501    0  0.00000000000E+00  0.00000000000E+00 -0.11913303463E+04  0.11913303463E+04  0.50400001928E-02 0. -1.
    10030    2    1    2    0    0  0.00000000000E+00  0.00000000000E+00 -0.10573222405E+04  0.13253384522E+04  0.79911932329E+03 0.  0.
        2    1    3    3  502    0 -0.78582736548E+02  0.23141325462E+02 -0.11772532443E+04  0.11800999824E+04  0.25500000920E-02 0. -1.
       -2    1    3    3    0  502  0.78582736548E+02 -0.23141325462E+02  0.11993100382E+03  0.14523846980E+03  0.25500000920E-02 0.  1.
</event>
<event>
 5   0  0.1617491E-03  0.7967397E+03  0.7818609E-02  0.9564748E-01
        1   -1    0    0  501    0  0.00000000000E+00  0.00000000000E+00  0.10361434862E+04  0.10361434862E+04  0.50400001928E-02 0.  1.
       -1   -1    0    0    0  501  0.00000000000E+00  0.00000000000E+00 -0.15316269254E+03  0.15316269263E+03  0.50400001928E-02 0. -1.
    10030    2    1    2    0    0  0.00000000000E+00  0.00000000000E+00  0.88298079361E+03  0.11893061788E+04  0.79673967206E+03 0.  0.
        1    1    3    3  502    0 -0.25656760658E+03  0.87417408614E+02  0.57047399857E+01  0.27111120257E+03  0.50400001928E-02 0. -1.
       -1    1    3    3    0  502  0.25656760658E+03 -0.87417408614E+02  0.87727605363E+03  0.91819497623E+03  0.50400001928E-02 0.  1.
</event>
<event>
 5   0  0.1640035E-03  0.8009171E+03  0.7818609E-02  0.9558691E-01
       -1   -1    0    0    0  501  0.00000000000E+00  0.00000000000E+00  0.22223026709E+03  0.22223026715E+03  0.50400001928E-02 0. -1.
        1   -1    0    0  501    0  0.00000000000E+00  0.00000000000E+00 -0.72162554006E+03  0.72162554008E+03  0.50400001928E-02 0.  1.
    10030    2    1    2    0    0  0.00000000000E+00  0.00000000000E+00 -0.49939527297E+03  0.94385580723E+03  0.80091706573E+03 0.  0.
        5    1    3    3  502    0  0.21669658103E+03  0.16672155094E+03  0.95075427883E+02  0.28950804957E+03  0.46999998093E+01 0. -1.
       -5    1    3    3    0  502 -0.21669658103E+03 -0.16672155094E+03 -0.59447070086E+03  0.65434775766E+03  0.46999998093E+01 0.  1.
</event>
<event>
 5   0  0.1712793E-03  0.8000860E+03  0.7818609E-02  0.9559893E-01
       -1   -1    0    0    0  501  0.00000000000E+00  0.00000000000E+00  0.86736968896E+02  0.86736969043E+02  0.50400001928E-02 0.  1.
        1   -1    0    0  501    0  0.00000000000E+00  0.00000000000E+00 -0.18450541774E+04  0.18450541774E+04  0.50400001928E-02 0. -1.
    10030    2    1    2    0    0  0.00000000000E+00  0.00000000000E+00 -0.17583172085E+04  0.19317911464E+04  0.80008601273E+03 0.  0.
        4    1    3    3  502    0 -0.35006113852E+03 -0.17641870842E+03 -0.10718097375E+04  0.11412467252E+04  0.12699999809E+01 0. -1.
       -4    1    3    3    0  502  0.35006113852E+03  0.17641870842E+03 -0.68650747094E+03  0.79054442123E+03  0.12699999809E+01 0.  1.
</event>
<event>
 5   0  0.2910501E-03  0.8003495E+03  0.7818609E-02  0.9559511E-01
       -2   -1    0    0    0  501  0.00000000000E+00  0.00000000000E+00  0.15147420807E+03  0.15147420809E+03  0.25500000920E-02 0.  1.
        2   -1    0    0  501    0  0.00000000000E+00  0.00000000000E+00 -0.10572085254E+04  0.10572085254E+04  0.25500000920E-02 0. -1.
    10030    2    1    2    0    0  0.00000000000E+00  0.00000000000E+00 -0.90573431730E+03  0.12086827335E+04  0.80034948407E+03 0.  0.
        1    1    3    3  502    0  0.22264026601E+03 -0.18391991151E+03 -0.34500979744E+02  0.29083593232E+03  0.50400001928E-02 0.  1.
       -1    1    3    3    0  502 -0.22264026601E+03  0.18391991151E+03 -0.87123333756E+03  0.91784680116E+03  0.50400001928E-02 0. -1.
</event>
<event>
 5   0  0.1617491E-03  0.7994154E+03  0.7818609E-02  0.9560864E-01
        1   -1    0    0  501    0  0.00000000000E+00  0.00000000000E+00  0.76350255679E+03  0.76350255681E+03  0.50400001928E-02 0.  1.
       -1   -1    0    0    0  501  0.00000000000E+00  0.00000000000E+00 -0.20925439318E+03  0.20925439324E+03  0.50400001928E-02 0. -1.
    10030    2    1    2    0    0  0.00000000000E+00  0.00000000000E+00  0.55424816362E+03  0.97275695005E+03  0.79941544706E+03 0.  0.
        1    1    3    3  502    0 -0.23183745933E+03 -0.14878046677E+03 -0.75300563244E+02  0.28557732699E+03  0.50400001928E-02 0. -1.
       -1    1    3    3    0  502  0.23183745933E+03  0.14878046677E+03  0.62954872686E+03  0.68717962306E+03  0.50400001928E-02 0.  1.
</event>
<event>
 5   0  0.2763587E-03  0.7996711E+03  0.7818609E-02  0.9560493E-01
        2   -1    0    0  501    0  0.00000000000E+00  0.00000000000E+00  0.11818035509E+04  0.11818035509E+04  0.25500000920E-02 0.  1.
       -2   -1    0    0    0  501  0.00000000000E+00  0.00000000000E+00 -0.13527500746E+03  0.13527500749E+03  0.25500000920E-02 0. -1.
    10030    2    1    2    0    0  0.00000000000E+00  0.00000000000E+00  0.10465285434E+04  0.13170785584E+04  0.79967114288E+03 0.  0.
        3    1    3    3  502    0  0.27414197519E+03 -0.67693769290E+01  0.10025141672E+04  0.10393432122E+04  0.10100000352E+00 0.  1.
       -3    1    3    3    0  502 -0.27414197519E+03  0.67693769290E+01  0.44014376234E+02  0.27773534623E+03  0.10100000352E+00 0. -1.
</event>
<event>
 5   0  0.2763587E-03  0.8015522E+03  0.7818609E-02  0.9557773E-01
       -2   -1    0    0    0  501  0.00000000000E+00  0.00000000000E+00  0.14246677464E+03  0.14246677466E+03  0.25500000920E-02 0. -1.
        2   -1    0    0  501    0  0.00000000000E+00  0.00000000000E+00 -0.11274312570E+04  0.11274312570E+04  0.25500000920E-02 0.  1.
    10030    2    1    2    0    0  0.00000000000E+00  0.00000000000E+00 -0.98496448237E+03  0.12698980317E+04  0.80155223118E+03 0.  0.
        3    1    3    3  502    0 -0.30380414694E+03 -0.25166221189E+03 -0.60440433902E+03  0.72175857724E+03  0.10100000352E+00 0.  1.
       -3    1    3    3    0  502  0.30380414694E+03  0.25166221189E+03 -0.38056014335E+03  0.54813945443E+03  0.10100000352E+00 0. -1.
</event>
<event>
 5   0  0.2910501E-03  0.7994713E+03  0.7818609E-02  0.9560783E-01
        2   -1    0    0  501    0  0.00000000000E+00  0.00000000000E+00  0.21096423715E+04  0.21096423715E+04  0.25500000920E-02 0.  1.
       -2   -1    0    0    0  501  0.00000000000E+00  0.00000000000E+00 -0.75742027490E+02  0.75742027533E+02  0.25500000920E-02 0. -1.
    10030    2    1    2    0    0  0.00000000000E+00  0.00000000000E+00  0.20339003440E+04  0.21853843990E+04  0.79947130166E+03 0.  0.
        1    1    3    3  502    0  0.72570352074E+02  0.25087745318E+03  0.18441901879E+04  0.18625905084E+04  0.50400001928E-02 0.  1.
       -1    1    3    3    0  502 -0.72570352074E+02 -0.25087745318E+03  0.18971015606E+03  0.32279389067E+03  0.50400001928E-02 0. -1.
</event>
<event>
 5   0  0.2690809E-03  0.7977404E+03  0.7818609E-02  0.9563294E-01
       -2   -1    0    0    0  501  0.00000000000E+00  0.00000000000E+00  0.10762102617E+03  0.10762102620E+03  0.25500000920E-02 0.  1.
        2   -1    0    0  501    0  0.00000000000E+00  0.00000000000E+00 -0.14783118737E+04  0.14783118737E+04  0.25500000920E-02 0. -1.
    10030    2    1    2    0    0  0.00000000000E+00  0.00000000000E+00 -0.13706908476E+04  0.15859328999E+04  0.79774041110E+03 0.  0.
        5    1    3    3  502    0 -0.50162465357E+02  0.26252802584E+03 -0.96813905097E+02  0.28431014667E+03  0.46999998093E+01 0.  1.
       -5    1    3    3    0  502  0.50162465357E+02 -0.26252802584E+03 -0.12738769425E+04  0.13016227533E+04  0.46999998093E+01 0. -1.
</event>
<event>
 5   0  0.1640035E-03  0.8003408E+03  0.7818609E-02  0.9559524E-01
       -1   -1    0    0    0  501  0.00000000000E+00  0.00000000000E+00  0.24798087594E+03  0.24798087599E+03  0.50400001928E-02 0. -1.
        1   -1    0    0  501    0  0.00000000000E+00  0.00000000000E+00 -0.64576086867E+03  0.64576086869E+03  0.50400001928E-02 0.  1.
    10030    2    1    2    0    0  0.00000000000E+00  0.00000000000E+00 -0.39777999274E+03  0.89374174468E+03  0.80034079214E+03 0.  0.
        5    1    3    3  502    0  0.32536422868E+03 -0.16964441664E+03 -0.20660989489E+02  0.36754601873E+03  0.46999998093E+01 0. -1.
       -5    1    3    3    0  502 -0.32536422868E+03  0.16964441664E+03 -0.37711900325E+03  0.52619572595E+03  0.46999998093E+01 0.  1.
</event>
<event>
 5   0  0.2763587E-03  0.8001127E+03  0.7818609E-02  0.9559854E-01
        2   -1    0    0  501    0  0.00000000000E+00  0.00000000000E+00  0.51161238955E+03  0.51161238956E+03  0.25500000920E-02 0. -1.
       -2   -1    0    0    0  501  0.00000000000E+00  0.00000000000E+00 -0.31282491030E+03  0.31282491031E+03  0.25500000920E-02 0.  1.
    10030    2    1    2    0    0  0.00000000000E+00  0.00000000000E+00  0.19878747926E+03  0.82443729987E+03  0.80011274174E+03 0.  0.
        3    1    3    3  502    0 -0.25785788709E+02  0.15515778115E+03 -0.27962908839E+03  0.32082905296E+03  0.10100000352E+00 0.  1.
       -3    1    3    3    0  502  0.25785788709E+02 -0.15515778115E+03  0.47841656765E+03  0.50360824690E+03  0.10100000352E+00 0. -1.
</event>
<event>
 5   0  0.1637228E-03  0.7919700E+03  0.7818609E-02  0.9571713E-01
       -1   -1    0    0    0  501  0.00000000000E+00  0.00000000000E+00  0.18183128960E+03  0.18183128966E+03  0.50400001928E-02 0.  1.
        1   -1    0    0  501    0  0.00000000000E+00  0.00000000000E+00 -0.86236051584E+03  0.86236051586E+03  0.50400001928E-02 0. -1.
    10030    2    1    2    0    0  0.00000000000E+00  0.00000000000E+00 -0.68052922625E+03  0.10441918055E+04  0.79197001139E+03 0.  0.
        2    1    3    3  502    0 -0.12929993981E+03 -0.26486067997E+03  0.84074802757E+01  0.29485647349E+03  0.25500000920E-02 0.  1.
       -2    1    3    3    0  502  0.12929993981E+03  0.26486067997E+03 -0.68893670652E+03  0.74933533203E+03  0.25500000920E-02 0. -1.
</event>
<event>
 5   0  0.1617491E-03  0.8010730E+03  0.7818609E-02  0.9558465E-01
       -1   -1    0    0    0  501  0.00000000000E+00  0.00000000000E+00  0.27445596917E+03  0.27445596921E+03  0.50400001928E-02 0.  1.
        1   -1    0    0  501    0  0.00000000000E+00  0.00000000000E+00 -0.58453630839E+03  0.58453630842E+03  0.50400001928E-02 0. -1.
    10030    2    1    2    0    0  0.00000000000E+00  0.00000000000E+00 -0.31008033923E+03  0.85899227763E+03  0.80107297810E+03 0.  0.
        1    1    3    3  502    0  0.75646437256E+02 -0.33134608877E+03  0.72219251315E+02  0.34745968730E+03  0.50400001928E-02 0.  1.
       -1    1    3    3    0  502 -0.75646437256E+02  0.33134608877E+03 -0.38229959054E+03  0.51153259033E+03  0.50400001928E-02 0. -1.
</event>
<event>
 5   0  0.1656051E-03  0.8040520E+03  0.7818609E-02  0.9554170E-01
       -1   -1    0    0    0  501  0.00000000000E+00  0.00000000000E+00  0.37912484260E+03  0.37912484264E+03  0.50400001928E-02 0. -1.
        1   -1    0    0  501    0  0.00000000000E+00  0.00000000000E+00 -0.42631052652E+03  0.42631052655E+03  0.50400001928E-02 0.  1.
    10030    2    1    2    0    0  0.00000000000E+00  0.00000000000E+00 -0.47185683918E+02  0.80543536919E+03  0.80405201646E+03 0.  0.
        3    1    3    3  502    0  0.40030226643E+03  0.29315108442E+01  0.13543880461E+02  0.40054206416E+03  0.10100000352E+00 0. -1.
       -3    1    3    3    0  502 -0.40030226643E+03 -0.29315108442E+01 -0.60729564378E+02  0.40489330503E+03  0.10100000352E+00 0.  1.
</event>
<event>
 5   0  0.1656051E-03  0.8009469E+03  0.7818609E-02  0.9558648E-01
        1   -1    0    0  501    0  0.00000000000E+00  0.00000000000E+00  0.75219881896E+03  0.75219881898E+03  0.50400001928E-02 0.  1.
       -1   -1    0    0    0  501  0.00000000000E+00  0.00000000000E+00 -0.21321355328E+03  0.21321355334E+03  0.50400001928E-02 0. -1.
    10030    2    1    2    0    0  0.00000000000E+00  0.00000000000E+00  0.53898526568E+03  0.96541237231E+03  0.80094689711E+03 0.  0.
        3    1    3    3  502    0 -0.25312928130E+03  0.24034144323E+03  0.50612163952E+03  0.61481506697E+03  0.10100000352E+00 0.  1.
       -3    1    3    3    0  502  0.25312928130E+03 -0.24034144323E+03  0.32863626163E+02  0.35059730534E+03  0.10100000352E+00 0. -1.
</event>
<event>
 5   0  0.2873212E-03  0.8076247E+03  0.7818609E-02  0.9549046E-01
       -2   -1    0    0    0  501  0.00000000000E+00  0.00000000000E+00  0.29187559848E+03  0.29187559849E+03  0.25500000920E-02 0. -1.
        2   -1    0    0  501    0  0.00000000000E+00  0.00000000000E+00 -0.55867772544E+03  0.55867772544E+03  0.25500000920E-02 0.  1.
    10030    2    1    2    0    0  0.00000000000E+00  0.00000000000E+00 -0.26680212696E+03  0.85055332393E+03  0.80762465410E+03 0.  0.
        2    1    3    3  502    0 -0.34362453775E+03  0.20894908605E+03 -0.95038889138E+02  0.41324318985E+03  0.25500000920E-02 0. -1.
       -2    1    3    3    0  502  0.34362453775E+03 -0.20894908605E+03 -0.17176323782E+03  0.43731013409E+03  0.25500000920E-02 0.  1.
</event>
<event>
 5   0  0.1640035E-03  0.7963950E+03  0.7818609E-02  0.9565250E-01
        1   -1    0    0  501    0  0.00000000000E+00  0.00000000000E+00  0.18040467165E+04  0.18040467165E+04  0.50400001928E-02 0. -1.
       -1   -1    0    0    0  501  0.00000000000E+00  0.00000000000E+00 -0.87891975758E+02  0.87891975902E+02  0.50400001928E-02 0.  1.
    10030    2    1    2    0    0  0.00000000000E+00  0.00000000000E+00  0.17161547408E+04  0.18919386924E+04  0.79639495332E+03 0.  0.
        5    1    3    3  502    0  0.29991497372E+03 -0.18007003310E+03  0.13098525707E+04  0.13557691747E+04  0.46999998093E+01 0. -1.
       -5    1    3    3    0  502 -0.29991497372E+03  0.18007003310E+03  0.40630217009E+03  0.53616951769E+03  0.46999998093E+01 0.  1.
</event>
<event>
 5   0  0.2690809E-03  0.7996909E+03  0.7818609E-02  0.9560465E-01
        2   -1    0    0  501    0  0.00000000000E+00  0.00000000000E+00  0.61686896610E+03  0.61686896610E+03  0.25500000920E-02 0.  1.
       -2   -1    0    0    0  501  0.00000000000E+00  0.00000000000E+00 -0.25917400730E+03  0.25917400731E+03  0.25500000920E-02 0. -1.
    10030    2    1    2    0    0  0.00000000000E+00  0.00000000000E+00  0.35769495880E+03  0.87604297341E+03  0.79969094513E+03 0.  0.
        5    1    3    3  502    0 -0.11992634840E+03 -0.86096609390E+02  0.58588660324E+03  0.60421863348E+03  0.46999998093E+01 0.  1.
       -5    1    3    3    0  502  0.11992634840E+03  0.86096609390E+02 -0.22819164444E+03  0.27182433993E+03  0.46999998093E+01 0. -1.
</event>
<event>
 5   0  0.1095350E-03  0.8006589E+03  0.7818609E-02  0.9559064E-01
        4   -1    0    0  501    0  0.00000000000E+00  0.00000000000E+00  0.21084458380E+03  0.21084840862E+03  0.12699999809E+01 0.  1.
       -4   -1    0    0    0  501  0.00000000000E+00  0.00000000000E+00 -0.76009200620E+03  0.76009306719E+03  0.12699999809E+01 0. -1.
    10030    2    1    2    0    0  0.00000000000E+00  0.00000000000E+00 -0.54924742240E+03  0.97094147581E+03  0.80065886520E+03 0.  0.
        5    1    3    3  502    0  0.23689294689E+03 -0.22958328078E+03  0.34904638328E+00  0.32992266204E+03  0.46999998093E+01 0.  1.
       -5    1    3    3    0  502 -0.23689294689E+03  0.22958328078E+03 -0.54959646879E+03  0.64101881376E+03  0.46999998093E+01 0. -1.
</event>
<event>
 5   0  0.1095350E-03  0.7969543E+03  0.7818609E-02  0.9564436E-01
        4   -1    0    0  501    0  0.00000000000E+00  0.00000000000E+00  0.18430015339E+03  0.18430452908E+03  0.12699999809E+01 0. -1.
       -4   -1    0    0    0  501  0.00000000000E+00  0.00000000000E+00 -0.86153630147E+03  0.86153723753E+03  0.12699999809E+01 0.  1.
    10030    2    1    2    0    0  0.00000000000E+00  0.00000000000E+00 -0.67723614808E+03  0.10458417666E+04  0.79695432776E+03 0.  0.
        4    1    3    3  502    0  0.34159267237E+03 -0.13384605562E+03 -0.54268832838E+03  0.65506683253E+03  0.12699999809E+01 0.  1.
       -4    1    3    3    0  502 -0.34159267237E+03  0.13384605562E+03 -0.13454781970E+03  0.39077493408E+03  0.12699999809E+01 0. -1.
</event>
<event>
 5   0  0.1617491E-03  0.8007211E+03  0.7818609E-02  0.9558974E-01
        1   -1    0    0  501    0  0.00000000000E+00  0.00000000000E+00  0.13296318963E+04  0.13296318963E+04  0.50400001928E-02 0.  1.
       -1   -1    0    0    0  501  0.00000000000E+00  0.00000000000E+00 -0.12055108593E+03  0.12055108604E+03  0.50400001928E-02 0. -1.
    10030    2    1    2    0    0  0.00000000000E+00  0.00000000000E+00  0.12090808104E+04  0.14501829824E+04  0.80072109771E+03 0.  0.
        1    1    3    3  502    0 -0.31006834377E+03  0.20858591150E+03  0.86472194602E+03  0.94201619107E+03  0.50400001928E-02 0.  1.
       -1    1    3    3    0  502  0.31006834377E+03 -0.20858591150E+03  0.34435886437E+03  0.50816679130E+03  0.50400001928E-02 0. -1.
</event>
<event>
 5   0  0.1637228E-03  0.7984485E+03  0.7818609E-02  0.9562265E-01
       -1   -1    0    0    0  501  0.00000000000E+00  0.00000000000E+00  0.27173370670E+03  0.27173370675E+03  0.50400001928E-02 0.  1.
        1   -1    0    0  501    0  0.00000000000E+00  0.00000000000E+00 -0.58653017185E+03  0.58653017187E+03  0.50400001928E-02 0. -1.
    10030    2    1    2    0    0  0.00000000000E+00  0.00000000000E+00 -0.31479646515E+03  0.85826387862E+03  0.79844853990E+03 0.  0.
        2    1    3    3  502    0 -0.34435388623E+03  0.19801415241E+03 -0.20027120872E+03  0.44485701137E+03  0.25500000920E-02 0. -1.
       -2    1    3    3    0  502  0.34435388623E+03 -0.19801415241E+03 -0.11452525643E+03  0.41340686725E+03  0.25500000920E-02 0.  1.
</event>
<event>
 5   0  0.2910501E-03  0.7991054E+03  0.7818609E-02  0.9561313E-01
        2   -1    0    0  501    0  0.00000000000E+00  0.00000000000E+00  0.19785384839E+03  0.19785384841E+03  0.25500000920E-02 0.  1.
       -2   -1    0    0    0  501  0.00000000000E+00  0.00000000000E+00 -0.80687017569E+03  0.80687017569E+03  0.25500000920E-02 0. -1.
    10030    2    1    2    0    0  0.00000000000E+00  0.00000000000E+00 -0.60901632730E+03  0.10047240241E+04  0.79910542339E+03 0.  0.
        1    1    3    3  502    0  0.19991107945E+03 -0.34064126120E+03 -0.38037998902E+03  0.54835193498E+03  0.50400001928E-02 0. -1.
       -1    1    3    3    0  502 -0.19991107945E+03  0.34064126120E+03 -0.22863633828E+03  0.45637208912E+03  0.50400001928E-02 0.  1.
</event>
<event>
 5   0  0.2910501E-03  0.7988229E+03  0.7818609E-02  0.9561722E-01
       -2   -1    0    0    0  501  0.00000000000E+00  0.00000000000E+00  0.96292401031E+02  0.96292401065E+02  0.25500000920E-02 0. -1.
        2   -1    0    0  501    0  0.00000000000E+00  0.00000000000E+00 -0.16567196989E+04  0.16567196989E+04  0.25500000920E-02 0.  1.
    10030    2    1    2    0    0  0.00000000000E+00  0.00000000000E+00 -0.15604272979E+04  0.17530121000E+04  0.79882292825E+03 0.  0.
        1    1    3    3  502    0 -0.25002499389E+03 -0.27710024134E+03 -0.46806683066E+03  0.59865148401E+03  0.50400001928E-02 0. -1.
       -1    1    3    3    0  502  0.25002499389E+03  0.27710024134E+03 -0.10923604672E+04  0.11543606160E+04  0.50400001928E-02 0.  1.
</event>
<event>
 5   0  0.1095350E-03  0.7992361E+03  0.7818609E-02  0.9561123E-01
        3   -1    0    0  501    0  0.00000000000E+00  0.00000000000E+00  0.55564469432E+03  0.55564470350E+03  0.10100000352E+00 0.  1.
       -3   -1    0    0    0  501  0.00000000000E+00  0.00000000000E+00 -0.28740414865E+03  0.28740416640E+03  0.10100000352E+00 0. -1.
    10030    2    1    2    0    0  0.00000000000E+00  0.00000000000E+00  0.26824054567E+03  0.84304886990E+03  0.79923613951E+03 0.  0.
        2    1    3    3  502    0 -0.26467288065E+03  0.13817803802E+03  0.41429258605E+03  0.51066941439E+03  0.25500000920E-02 0. -1.
       -2    1    3    3    0  502  0.26467288065E+03 -0.13817803802E+03 -0.14605204038E+03  0.33237945551E+03  0.25500000920E-02 0.  1.
</event>
<event>
 5   0  0.1712793E-03  0.7997459E+03  0.7818609E-02  0.9560385E-01
       -1   -1    0    0    0  501  0.00000000000E+00  0.00000000000E+00  0.90242606913E+02  0.90242607053E+02  0.50400001928E-02 0. -1.
        1   -1    0    0  501    0  0.00000000000E+00  0.00000000000E+00 -0.17718723972E+04  0.17718723972E+04  0.50400001928E-02 0.  1.
    10030    2    1    2    0    0  0.00000000000E+00  0.00000000000E+00 -0.16816297903E+04  0.18621150043E+04  0.79974592060E+03 0.  0.
        4    1    3    3  502    0 -0.21861704676E+02  0.27427915233E+03 -0.15164063745E+04  0.15411673799E+04  0.12699999809E+01 0.  1.
       -4    1    3    3    0  502  0.21861704676E+02 -0.27427915233E+03 -0.16522341585E+03  0.32094762436E+03  0.12699999809E+01 0. -1.
</event>
<event>
 5   0  0.2690809E-03  0.7997412E+03  0.7818609E-02  0.9560392E-01
        2   -1    0    0  501    0  0.00000000000E+00  0.00000000000E+00  0.28687114328E+03  0.28687114329E+03  0.25500000920E-02 0. -1.
       -2   -1    0    0    0  501  0.00000000000E+00  0.00000000000E+00 -0.55738087329E+03  0.55738087330E+03  0.25500000920E-02 0.  1.
    10030    2    1    2    0    0  0.00000000000E+00  0.00000000000E+00 -0.27050973002E+03  0.84425201659E+03  0.79974117906E+03 0.  0.
        5    1    3    3  502    0  0.30442476974E+03 -0.15655564870E+03  0.82860964066E+02  0.35223875558E+03  0.46999998093E+01 0. -1.
       -5    1    3    3    0  502 -0.30442476974E+03  0.15655564870E+03 -0.35337069409E+03  0.49201326101E+03  0.46999998093E+01 0.  1.
</event>
<event>
 5   0  0.1640035E-03  0.7999515E+03  0.7818609E-02  0.9560087E-01
        1   -1    0    0  501    0  0.00000000000E+00  0.00000000000E+00  0.26494123452E+03  0.26494123457E+03  0.50400001928E-02 0.  1.
       -1   -1    0    0    0  501  0.00000000000E+00  0.00000000000E+00 -0.60383421463E+03  0.60383421465E+03  0.50400001928E-02 0. -1.
    10030    2    1    2    0    0  0.00000000000E+00  0.00000000000E+00 -0.33889298011E+03  0.86877544922E+03  0.79995145428E+03 0.  0.
        5    1    3    3  502    0 -0.12079831093E+03  0.34801292772E+03 -0.31324122347E+00  0.36841202193E+03  0.46999998093E+01 0.  1.
       -5    1    3    3    0  502  0.12079831093E+03 -0.34801292772E+03 -0.33857973888E+03  0.50036342729E+03  0.46999998093E+01 0. -1.
</event>
<event>
 5   0  0.1637228E-03  0.8031462E+03  0.7818609E-02  0.9555474E-01
       -1   -1    0    0    0  501  0.00000000000E+00  0.00000000000E+00  0.33171072709E+03  0.33171072713E+03  0.50400001928E-02 0. -1.
        1   -1    0    0  501    0  0.00000000000E+00  0.00000000000E+00 -0.48614940209E+03  0.48614940211E+03  0.50400001928E-02 0.  1.
    10030    2    1    2    0    0  0.00000000000E+00  0.00000000000E+00 -0.15443867500E+03  0.81786012924E+03  0.80314624239E+03 0.  0.
        2    1    3    3  502    0 -0.73424831762E+01 -0.13303919320E+03 -0.46298352304E+03  0.48177492837E+03  0.25500000920E-02 0.  1.
       -2    1    3    3    0  502  0.73424831762E+01  0.13303919320E+03  0.30854484805E+03  0.33608520088E+03  0.25500000920E-02 0. -1.
</event>
<event>
 5   0  0.2690809E-03  0.8015773E+03  0.7818609E-02  0.9557737E-01
        2   -1    0    0  501    0  0.00000000000E+00  0.00000000000E+00  0.63898778299E+03  0.63898778299E+03  0.25500000920E-02 0.  1.
       -2   -1    0    0    0  501  0.00000000000E+00  0.00000000000E+00 -0.25138436494E+03  0.25138436495E+03  0.25500000920E-02 0. -1.
    10030    2    1    2    0    0  0.00000000000E+00  0.00000000000E+00  0.38760341805E+03  0.89037214794E+03  0.80157729019E+03 0.  0.
        5    1    3    3  502    0 -0.29475808565E+03 -0.27129269899E+03  0.18126468059E+03  0.43972836161E+03  0.46999998093E+01 0.  1.
       -5    1    3    3    0  502  0.29475808565E+03  0.27129269899E+03  0.20633873746E+03  0.45064378633E+03  0.46999998093E+01 0. -1.
</event>
<event>
 5   0  0.2910501E-03  0.8009127E+03  0.7818609E-02  0.9558697E-01
        2   -1    0    0  501    0  0.00000000000E+00  0.00000000000E+00  0.16974056364E+03  0.16974056366E+03  0.25500000920E-02 0. -1.
       -2   -1    0    0    0  501  0.00000000000E+00  0.00000000000E+00 -0.94476693067E+03  0.94476693068E+03  0.25500000920E-02 0.  1.
    10030    2    1    2    0    0  0.00000000000E+00  0.00000000000E+00 -0.77502636703E+03  0.11145074943E+04  0.80091265775E+03 0.  0.
        1    1    3    3  502    0 -0.41945676556E+02 -0.70533015934E+02  0.15791447705E+03  0.17796440152E+03  0.50400001928E-02 0. -1.
       -1    1    3    3    0  502  0.41945676556E+02  0.70533015934E+02 -0.93294084409E+03  0.93654309282E+03  0.50400001928E-02 0.  1.
</event>
<event>
 5   0  0.1637228E-03  0.8018881E+03  0.7818609E-02  0.9557288E-01
        1   -1    0    0  501    0  0.00000000000E+00  0.00000000000E+00  0.45264572007E+03  0.45264572009E+03  0.50400001928E-02 0. -1.
       -1   -1    0    0    0  501  0.00000000000E+00  0.00000000000E+00 -0.35514782906E+03  0.35514782910E+03  0.50400001928E-02 0.  1.
    10030    2    1    2    0    0  0.00000000000E+00  0.00000000000E+00  0.97497891005E+02  0.80779354919E+03  0.80188813395E+03 0.  0.
        2    1    3    3  502    0 -0.31795860766E+03  0.24394782630E+03  0.36496864412E+02  0.40241799073E+03  0.25500000920E-02 0. -1.
       -2    1    3    3    0  502  0.31795860766E+03 -0.24394782630E+03  0.61001026593E+02  0.40537555846E+03  0.25500000920E-02 0.  1.
</event>
<event>
 5   0  0.1640035E-03  0.7982904E+03  0.7818609E-02  0.9562495E-01
        1   -1    0    0  501    0  0.00000000000E+00  0.00000000000E+00  0.29268067113E+03  0.29268067117E+03  0.50400001928E-02 0. -1.
       -1   -1    0    0    0  501  0.00000000000E+00  0.00000000000E+00 -0.54433697165E+03  0.54433697167E+03  0.50400001928E-02 0.  1.
    10030    2    1    2    0    0  0.00000000000E+00  0.00000000000E+00 -0.25165630052E+03  0.83701764284E+03  0.79829044892E+03 0.  0.
        5    1    3    3  502    0 -0.80588999000E+02  0.36193327931E+02 -0.53392764596E+03  0.54120732152E+03  0.46999998093E+01 0.  1.
       -5    1    3    3    0  502  0.80588999000E+02 -0.36193327931E+02  0.28227134544E+03  0.29581032132E+03  0.46999998093E+01 0. -1.
</event>
<event>
 5   0  0.1656051E-03  0.8007328E+03  0.7818609E-02  0.9558957E-01
       -1   -1    0    0    0  501  0.00000000000E+00  0.00000000000E+00  0.17497259675E+03  0.17497259683E+03  0.50400001928E-02 0. -1.
        1   -1    0    0  501    0  0.00000000000E+00  0.00000000000E+00 -0.91610492365E+03  0.91610492366E+03  0.50400001928E-02 0.  1.
    10030    2    1    2    0    0  0.00000000000E+00  0.00000000000E+00 -0.74113232689E+03  0.10910775205E+04  0.80073280796E+03 0.  0.
        3    1    3    3  502    0 -0.68394806263E+02  0.22853078606E+03  0.67566180850E+02  0.24793016899E+03  0.10100000352E+00 0. -1.
       -3    1    3    3    0  502  0.68394806263E+02 -0.22853078606E+03 -0.80869850774E+03  0.84314735149E+03  0.10100000352E+00 0.  1.
</event>
<event>
 5   0  0.1656051E-03  0.7984152E+03  0.7818609E-02  0.9562314E-01
       -1   -1    0    0    0  501  0.00000000000E+00  0.00000000000E+00  0.23185473834E+03  0.23185473839E+03  0.50400001928E-02 0. -1.
        1   -1    0    0  501    0  0.00000000000E+00  0.00000000000E+00 -0.68735588567E+03  0.68735588569E+03  0.50400001928E-02 0.  1.
    10030    2    1    2    0    0  0.00000000000E+00  0.00000000000E+00 -0.45550114733E+03  0.91921062408E+03  0.79841522793E+03 0.  0.
        3    1    3    3  502    0  0.16221346788E+03  0.22759058142E+03 -0.55593201298E+03  0.62223074110E+03  0.10100000352E+00 0.  1.
       -3    1    3    3    0  502 -0.16221346788E+03 -0.22759058142E+03  0.10043086565E+03  0.29697988297E+03  0.10100000352E+00 0. -1.
</event>
<event>
 5   0  0.1640035E-03  0.8006206E+03  0.7818609E-02  0.9559119E-01
        1   -1    0    0  501    0  0.00000000000E+00  0.00000000000E+00  0.26403308241E+03  0.26403308246E+03  0.50400001928E-02 0.  1.
       -1   -1    0    0    0  501  0.00000000000E+00  0.00000000000E+00 -0.60692528504E+03  0.60692528506E+03  0.50400001928E-02 0. -1.
    10030    2    1    2    0    0  0.00000000000E+00  0.00000000000E+00 -0.34289220263E+03  0.87095836752E+03  0.80062064383E+03 0.  0.
        5    1    3    3  502    0  0.27155865392E+03 -0.27800062370E+03 -0.67115205618E+02  0.39440460205E+03  0.46999998093E+01 0.  1.
       -5    1    3    3    0  502 -0.27155865392E+03  0.27800062370E+03 -0.27577699701E+03  0.47655376546E+03  0.46999998093E+01 0. -1.
</event>
<event>
 5   0  0.1712793E-03  0.7995090E+03  0.7818609E-02  0.9560728E-01
       -1   -1    0    0    0  501  0.00000000000E+00  0.00000000000E+00  0.74871782725E+03  0.74871782727E+03  0.50400001928E-02 0. -1.
        1   -1    0    0  501    0  0.00000000000E+00  0.00000000000E+00 -0.21343642386E+03  0.21343642392E+03  0.50400001928E-02 0.  1.
    10030    2    1    2    0    0  0.00000000000E+00  0.00000000000E+00  0.53528140339E+03  0.96215425119E+03  0.79950898823E+03 0.  0.
        4    1    3    3  502    0 -0.40685796145E+02 -0.16957837608E+03 -0.16524327707E+03  0.24024802426E+03  0.12699999809E+01 0.  1.
       -4    1    3    3    0  502  0.40685796145E+02  0.16957837608E+03  0.70052468046E+03  0.72190622693E+03  0.12699999809E+01 0. -1.
</event>
<event>
 5   0  0.1656051E-03  0.7997119E+03  0.7818609E-02  0.9560434E-01
        1   -1    0    0  501    0  0.00000000000E+00  0.00000000000E+00  0.66397807609E+03  0.66397807610E+03  0.50400001928E-02 0.  1.
       -1   -1    0    0    0  501  0.00000000000E+00  0.00000000000E+00 -0.24079829125E+03  0.24079829130E+03  0.50400001928E-02 0. -1.
    10030    2    1    2    0    0  0.00000000000E+00  0.00000000000E+00  0.42317978484E+03  0.90477636741E+03  0.79971191358E+03 0.  0.
        3    1    3    3  502    0  0.51160290018E+02  0.32115215448E+03 -0.51631667378E+02  0.32927484095E+03  0.10100000352E+00 0. -1.
       -3    1    3    3    0  502 -0.51160290018E+02 -0.32115215448E+03  0.47481145221E+03  0.57550152646E+03  0.10100000352E+00 0.  1.
</event>
<event>
 5   0  0.2768834E-03  0.8009622E+03  0.7818609E-02  0.9558625E-01
       -2   -1    0    0    0  501  0.00000000000E+00  0.00000000000E+00  0.16373521115E+03  0.16373521117E+03  0.25500000920E-02 0.  1.
        2   -1    0    0  501    0  0.00000000000E+00  0.00000000000E+00 -0.97953957175E+03  0.97953957176E+03  0.25500000920E-02 0. -1.
    10030    2    1    2    0    0  0.00000000000E+00  0.00000000000E+00 -0.81580436060E+03  0.11432747829E+04  0.80096221791E+03 0.  0.
        4    1    3    3  502    0  0.13841041129E+03  0.35530479031E+03 -0.23317489361E+03  0.44695758174E+03  0.12699999809E+01 0.  1.
       -4    1    3    3    0  502 -0.13841041129E+03 -0.35530479031E+03 -0.58262946699E+03  0.69631720119E+03  0.12699999809E+01 0. -1.
</event>
<event>
 5   0  0.1656051E-03  0.7980554E+03  0.7818609E-02  0.9562836E-01
       -1   -1    0    0    0  501  0.00000000000E+00  0.00000000000E+00  0.36805465650E+03  0.36805465653E+03  0.50400001928E-02 0. -1.
        1   -1    0    0  501    0  0.00000000000E+00  0.00000000000E+00 -0.43260722408E+03  0.43260722411E+03  0.50400001928E-02 0.  1.
    10030    2    1    2    0    0  0.00000000000E+00  0.00000000000E+00 -0.64552567583E+02  0.80066188065E+03  0.79805539478E+03 0.  0.
        3    1    3    3  502    0 -0.24549136814E+03  0.28381182877E+03  0.10384265591E+03  0.38935648623E+03  0.10100000352E+00 0. -1.
       -3    1    3    3    0  502  0.24549136814E+03 -0.28381182877E+03 -0.16839522349E+03  0.41130539442E+03  0.10100000352E+00 0.  1.
</event>
<event>
 5   0  0.2763587E-03  0.7912440E+03  0.7818609E-02  0.9572778E-01
        2   -1    0    0  501    0  0.00000000000E+00  0.00000000000E+00  0.96063362505E+03  0.96063362505E+03  0.25500000920E-02 0.  1.
       -2   -1    0    0    0  501  0.00000000000E+00  0.00000000000E+00 -0.16293074687E+03  0.16293074689E+03  0.25500000920E-02 0. -1.
    10030    2    1    2    0    0  0.00000000000E+00  0.00000000000E+00  0.79770287817E+03  0.11235643719E+04  0.79124396746E+03 0.  0.
        3    1    3    3  502    0 -0.18976702873E+03  0.99827942802E+02  0.87096501896E+03  0.89697113543E+03  0.10100000352E+00 0.  1.
       -3    1    3    3    0  502  0.18976702873E+03 -0.99827942802E+02 -0.73262140782E+02  0.22659323650E+03  0.10100000352E+00 0. -1.
</event>
<event>
 5   0  0.2763587E-03  0.7998771E+03  0.7818609E-02  0.9560195E-01
       -2   -1    0    0    0  501  0.00000000000E+00  0.00000000000E+00  0.80232008901E+02  0.80232008941E+02  0.25500000920E-02 0.  1.
        2   -1    0    0  501    0  0.00000000000E+00  0.00000000000E+00 -0.19936040327E+04  0.19936040327E+04  0.25500000920E-02 0. -1.
    10030    2    1    2    0    0  0.00000000000E+00  0.00000000000E+00 -0.19133720238E+04  0.20738360417E+04  0.79987713192E+03 0.  0.
        3    1    3    3  502    0  0.27767981574E+03 -0.26213983966E+03 -0.12648510356E+04  0.13212386341E+04  0.10100000352E+00 0.  1.
       -3    1    3    3    0  502 -0.27767981574E+03  0.26213983966E+03 -0.64852098821E+03  0.75259740762E+03  0.10100000352E+00 0. -1.
</event>
<event>
 5   0  0.1095350E-03  0.7997285E+03  0.7818609E-02  0.9560410E-01
       -4   -1    0    0    0  501  0.00000000000E+00  0.00000000000E+00  0.11611938661E+04  0.11611945606E+04  0.12699999809E+01 0.  1.
        4   -1    0    0  501    0  0.00000000000E+00  0.00000000000E+00 -0.13769206017E+03  0.13769791696E+03  0.12699999809E+01 0. -1.
    10030    2    1    2    0    0  0.00000000000E+00  0.00000000000E+00  0.10235018059E+04  0.12988924775E+04  0.79972852987E+03 0.  0.
        4    1    3    3  502    0  0.12280346716E+03 -0.20861976036E+02 -0.10537668591E+03  0.16316179829E+03  0.12699999809E+01 0. -1.
       -4    1    3    3    0  502 -0.12280346716E+03  0.20861976036E+02  0.11288784918E+04  0.11357306792E+04  0.12699999809E+01 0.  1.
</event>
<event>
 5   0  0.2690809E-03  0.7998855E+03  0.7818609E-02  0.9560183E-01
        2   -1    0    0  501    0  0.00000000000E+00  0.00000000000E+00  0.81004015773E+03  0.81004015774E+03  0.25500000920E-02 0.  1.
       -2   -1    0    0    0  501  0.00000000000E+00  0.00000000000E+00 -0.19746453759E+03  0.19746453760E+03  0.25500000920E-02 0. -1.
    10030    2    1    2    0    0  0.00000000000E+00  0.00000000000E+00  0.61257562015E+03  0.10075046953E+04  0.79988550477E+03 0.  0.
        5    1    3    3  502    0 -0.10513538392E+03  0.13020780509E+03  0.76377836757E+03  0.78191240317E+03  0.46999998093E+01 0.  1.
       -5    1    3    3    0  502  0.10513538392E+03 -0.13020780509E+03 -0.15120274743E+03  0.22559229217E+03  0.46999998093E+01 0. -1.
</event>
<event>
 5   0  0.1640035E-03  0.7986788E+03  0.7818609E-02  0.9561931E-01
        1   -1    0    0  501    0  0.00000000000E+00  0.00000000000E+00  0.37018415743E+03  0.37018415746E+03  0.50400001928E-02 0.  1.
       -1   -1    0    0    0  501  0.00000000000E+00  0.00000000000E+00 -0.43079088972E+03  0.43079088975E+03  0.50400001928E-02 0. -1.
    10030    2    1    2    0    0  0.00000000000E+00  0.00000000000E+00 -0.60606732295E+02  0.80097504722E+03  0.79867881546E+03 0.  0.
        5    1    3    3  502    0 -0.22536305610E+03  0.30700100162E+02  0.29884576629E+03  0.37558206192E+03  0.46999998093E+01 0.  1.
       -5    1    3    3    0  502  0.22536305610E+03 -0.30700100162E+02 -0.35945249859E+03  0.42539298530E+03  0.46999998093E+01 0. -1.
</event>
<event>
 5   0  0.1637228E-03  0.8015961E+03  0.7818609E-02  0.9557710E-01
        1   -1    0    0  501    0  0.00000000000E+00  0.00000000000E+00  0.37700820259E+03  0.37700820263E+03  0.50400001928E-02 0.  1.
       -1   -1    0    0    0  501  0.00000000000E+00  0.00000000000E+00 -0.42608903107E+03  0.42608903110E+03  0.50400001928E-02 0. -1.
    10030    2    1    2    0    0  0.00000000000E+00  0.00000000000E+00 -0.49080828481E+02  0.80309723373E+03  0.80159605731E+03 0.  0.
        2    1    3    3  502    0  0.24611652454E+03 -0.31517803121E+03 -0.51582159462E+02  0.40320125767E+03  0.25500000920E-02 0. -1.
       -2    1    3    3    0  502 -0.24611652454E+03  0.31517803121E+03  0.25013309805E+01  0.39989597606E+03  0.25500000920E-02 0.  1.
</event>
<event>
 5   0  0.2690809E-03  0.8023530E+03  0.7818609E-02  0.9556617E-01
        2   -1    0    0  501    0  0.00000000000E+00  0.00000000000E+00  0.25492812827E+03  0.25492812828E+03  0.25500000920E-02 0. -1.
       -2   -1    0    0    0  501  0.00000000000E+00  0.00000000000E+00 -0.63132539766E+03  0.63132539767E+03  0.25500000920E-02 0.  1.
    10030    2    1    2    0    0  0.00000000000E+00  0.00000000000E+00 -0.37639726939E+03  0.88625352595E+03  0.80235304439E+03 0.  0.
        5    1    3    3  502    0 -0.55748768424E+02 -0.75027995485E+02  0.24270096788E+03  0.26012107776E+03  0.46999998093E+01 0. -1.
       -5    1    3    3    0  502  0.55748768424E+02  0.75027995485E+02 -0.61909823727E+03  0.62613244819E+03  0.46999998093E+01 0.  1.
</event>
<event>
 5   0  0.2910501E-03  0.8016310E+03  0.7818609E-02  0.9557659E-01
        2   -1    0    0  501    0  0.00000000000E+00  0.00000000000E+00  0.81927170973E+03  0.81927170973E+03  0.25500000920E-02 0.  1.
       -2   -1    0    0    0  501  0.00000000000E+00  0.00000000000E+00 -0.19609252346E+03  0.19609252348E+03  0.25500000920E-02 0. -1.
    10030    2    1    2    0    0  0.00000000000E+00  0.00000000000E+00  0.62317918627E+03  0.10153642332E+04  0.80163097987E+03 0.  0.
        1    1    3    3  502    0 -0.13066383501E+03 -0.32291157281E+03  0.56271380667E+03  0.66180945133E+03  0.50400001928E-02 0.  1.
       -1    1    3    3    0  502  0.13066383501E+03  0.32291157281E+03  0.60465379601E+02  0.35355478188E+03  0.50400001928E-02 0. -1.
</event>
<event>
 5   0  0.1637228E-03  0.7978151E+03  0.7818609E-02  0.9563185E-01
       -1   -1    0    0    0  501  0.00000000000E+00  0.00000000000E+00  0.14239672148E+04  0.14239672148E+04  0.50400001928E-02 0.  1.
        1   -1    0    0  501    0  0.00000000000E+00  0.00000000000E+00 -0.11174923048E+03  0.11174923060E+03  0.50400001928E-02 0. -1.
    10030    2    1    2    0    0  0.00000000000E+00  0.00000000000E+00  0.13122179843E+04  0.15357164454E+04  0.79781511787E+03 0.  0.
        2    1    3    3  502    0 -0.36471472786E+02 -0.29859572461E+02 -0.10636990227E+03  0.11634568539E+03  0.25500000920E-02 0. -1.
       -2    1    3    3    0  502  0.36471472786E+02  0.29859572461E+02  0.14185878866E+04  0.14193707600E+04  0.25500000920E-02 0.  1.
</event>
<event>
 5   0  0.2910501E-03  0.8005026E+03  0.7818609E-02  0.9559290E-01
        2   -1    0    0  501    0  0.00000000000E+00  0.00000000000E+00  0.17569485711E+04  0.17569485711E+04  0.25500000920E-02 0. -1.
       -2   -1    0    0    0  501  0.00000000000E+00  0.00000000000E+00 -0.91181441094E+02  0.91181441130E+02  0.25500000920E-02 0.  1.
    10030    2    1    2    0    0  0.00000000000E+00  0.00000000000E+00  0.16657671300E+04  0.18481300123E+04  0.80050259882E+03 0.  0.
        1    1    3    3  502    0  0.59501331079E+02  0.38991787764E+03  0.67587853257E+03  0.78255233085E+03  0.50400001928E-02 0.  1.
       -1    1    3    3    0  502 -0.59501331079E+02 -0.38991787764E+03  0.98988859747E+03  0.10655776814E+04  0.50400001928E-02 0. -1.
</event>
<event>
 5   0  0.1712793E-03  0.8005294E+03  0.7818609E-02  0.9559251E-01
       -1   -1    0    0    0  501  0.00000000000E+00  0.00000000000E+00  0.19822388126E+03  0.19822388133E+03  0.50400001928E-02 0. -1.
        1   -1    0    0  501    0  0.00000000000E+00  0.00000000000E+00 -0.80823682877E+03  0.80823682878E+03  0.50400001928E-02 0.  1.
    10030    2    1    2    0    0  0.00000000000E+00  0.00000000000E+00 -0.61001294750E+03  0.10064607101E+04  0.80052942787E+03 0.  0.
        4    1    3    3  502    0 -0.16264688046E+03 -0.27196768616E+03  0.24141988168E+01  0.31690356782E+03  0.12699999809E+01 0. -1.
       -4    1    3    3    0  502  0.16264688046E+03  0.27196768616E+03 -0.61242714632E+03  0.68955714229E+03  0.12699999809E+01 0.  1.
</event>
<event>
 5   0  0.1095350E-03  0.8005926E+03  0.7818609E-02  0.9559160E-01
        3   -1    0    0  501    0  0.00000000000E+00  0.00000000000E+00  0.34169662117E+03  0.34169663609E+03  0.10100000352E+00 0. -1.
       -3   -1    0    0    0  501  0.00000000000E+00  0.00000000000E+00 -0.46894558580E+03  0.46894559668E+03  0.10100000352E+00 0.  1.
    10030    2    1    2    0    0  0.00000000000E+00  0.00000000000E+00 -0.12724896464E+03  0.81064223277E+03  0.80059261210E+03 0.  0.
        3    1    3    3  502    0 -0.25492030832E+03  0.13341293560E+02  0.24858801747E+03  0.35631217540E+03  0.10100000352E+00 0. -1.
       -3    1    3    3    0  502  0.25492030832E+03 -0.13341293560E+02 -0.37583698211E+03  0.45433005737E+03  0.10100000352E+00 0.  1.
</event>
<event>
 5   0  0.2763587E-03  0.8005999E+03  0.7818609E-02  0.9559149E-01
       -2   -1    0    0    0  501  0.00000000000E+00  0.00000000000E+00  0.14156981610E+03  0.14156981612E+03  0.25500000920E-02 0.  1.
        2   -1    0    0  501    0  0.00000000000E+00  0.00000000000E+00 -0.11318801446E+04  0.11318801446E+04  0.25500000920E-02 0. -1.
    10030    2    1    2    0    0  0.00000000000E+00  0.00000000000E+00 -0.99031032846E+03  0.12734499607E+04  0.80059993487E+03 0.  0.
        3    1    3    3  502    0 -0.75462732659E+02  0.39085196017E+03 -0.42804355158E+03  0.58453500412E+03  0.10100000352E+00 0. -1.
       -3    1    3    3    0  502  0.75462732659E+02 -0.39085196017E+03 -0.56226677687E+03  0.68891495656E+03  0.10100000352E+00 0.  1.
</event>
<event>
 5   0  0.1712793E-03  0.7999941E+03  0.7818609E-02  0.9560026E-01
       -1   -1    0    0    0  501  0.00000000000E+00  0.00000000000E+00  0.46896104213E+03  0.46896104215E+03  0.50400001928E-02 0.  1.
        1   -1    0    0  501    0  0.00000000000E+00  0.00000000000E+00 -0.34117472044E+03  0.34117472047E+03  0.50400001928E-02 0. -1.
    10030    2    1    2    0    0  0.00000000000E+00  0.00000000000E+00  0.12778632169E+03  0.81013576263E+03  0.79999413115E+03 0.  0.
        4    1    3    3  502    0 -0.20254139380E+03  0.48593549073E+02  0.40970674451E+03  0.45961459791E+03  0.12699999809E+01 0.  1.
       -4    1    3    3    0  502  0.20254139380E+03 -0.48593549073E+02 -0.28192042282E+03  0.35052116472E+03  0.12699999809E+01 0. -1.
</event>
<event>
 5   0  0.2763587E-03  0.8021120E+03  0.7818609E-02  0.9556965E-01
       -2   -1    0    0    0  501  0.00000000000E+00  0.00000000000E+00  0.21793457531E+03  0.21793457533E+03  0.25500000920E-02 0.  1.
        2   -1    0    0  501    0  0.00000000000E+00  0.00000000000E+00 -0.73804679732E+03  0.73804679732E+03  0.25500000920E-02 0. -1.
    10030    2    1    2    0    0  0.00000000000E+00  0.00000000000E+00 -0.52011222201E+03  0.95598137265E+03  0.80211200052E+03 0.  0.
        3    1    3    3  502    0 -0.34031283097E+03 -0.19050406125E+03 -0.37148609108E+03  0.53861539743E+03  0.10100000352E+00 0.  1.
       -3    1    3    3    0  502  0.34031283097E+03  0.19050406125E+03 -0.14862613093E+03  0.41736597522E+03  0.10100000352E+00 0. -1.
</event>
<event>
 5   0  0.2768834E-03  0.7998295E+03  0.7818609E-02  0.9560264E-01
       -2   -1    0    0    0  501  0.00000000000E+00  0.00000000000E+00  0.12784641777E+03  0.12784641780E+03  0.25500000920E-02 0.  1.
        2   -1    0    0  501    0  0.00000000000E+00  0.00000000000E+00 -0.12509683401E+04  0.12509683401E+04  0.25500000920E-02 0. -1.
    10030    2    1    2    0    0  0.00000000000E+00  0.00000000000E+00 -0.11231219223E+04  0.13788147579E+04  0.79982953446E+03 0.  0.
        4    1    3    3  502    0  0.61863763376E+02  0.31143967292E+03 -0.98067589528E+03  0.10307999901E+04  0.12699999809E+01 0. -1.
       -4    1    3    3    0  502 -0.61863763376E+02 -0.31143967292E+03 -0.14244602703E+03  0.34801476780E+03  0.12699999809E+01 0.  1.
</event>
<event>
 5   0  0.2873212E-03  0.7998645E+03  0.7818609E-02  0.9560213E-01
        2   -1    0    0  501    0  0.00000000000E+00  0.00000000000E+00  0.85987533127E+03  0.85987533127E+03  0.25500000920E-02 0.  1.
       -2   -1    0    0    0  501  0.00000000000E+00  0.00000000000E+00 -0.18601044191E+03  0.18601044193E+03  0.25500000920E-02 0. -1.
    10030    2    1    2    0    0  0.00000000000E+00  0.00000000000E+00  0.67386488935E+03  0.10458857732E+04  0.79986446445E+03 0.  0.
        2    1    3    3  502    0  0.15366511649E+03  0.90739354055E+02  0.80492726649E+03  0.82447225711E+03  0.25500000920E-02 0.  1.
       -2    1    3    3    0  502 -0.15366511649E+03 -0.90739354055E+02 -0.13106237714E+03  0.22141351609E+03  0.25500000920E-02 0. -1.
</event>
<event>
 5   0  0.2873212E-03  0.7996763E+03  0.7818609E-02  0.9560486E-01
        2   -1    0    0  501    0  0.00000000000E+00  0.00000000000E+00  0.80091305292E+03  0.80091305292E+03  0.25500000920E-02 0.  1.
       -2   -1    0    0    0  501  0.00000000000E+00  0.00000000000E+00 -0.19961035547E+03  0.19961035549E+03  0.25500000920E-02 0. -1.
    10030    2    1    2    0    0  0.00000000000E+00  0.00000000000E+00  0.60130269745E+03  0.10005234084E+04  0.79967628252E+03 0.  0.
        2    1    3    3  502    0 -0.23445970331E+03  0.15278177865E+03 -0.56657221234E+02  0.28552349306E+03  0.25500000920E-02 0. -1.
       -2    1    3    3    0  502  0.23445970331E+03 -0.15278177865E+03  0.65795991868E+03  0.71499991536E+03  0.25500000920E-02 0.  1.
</event>
<event>
 5   0  0.1637228E-03  0.7940762E+03  0.7818609E-02  0.9568631E-01
       -1   -1    0    0    0  501  0.00000000000E+00  0.00000000000E+00  0.13460382329E+03  0.13460382339E+03  0.50400001928E-02 0. -1.
        1   -1    0    0  501    0  0.00000000000E+00  0.00000000000E+00 -0.11711349683E+04  0.11711349683E+04  0.50400001928E-02 0.  1.
    10030    2    1    2    0    0  0.00000000000E+00  0.00000000000E+00 -0.10365311450E+04  0.13057387917E+04  0.79407617869E+03 0.  0.
        2    1    3    3  502    0  0.36461494290E+03 -0.13453145755E+03 -0.38471366661E+03  0.54685224232E+03  0.25500000920E-02 0. -1.
       -2    1    3    3    0  502 -0.36461494290E+03  0.13453145755E+03 -0.65181747836E+03  0.75888654934E+03  0.25500000920E-02 0.  1.
</event>
<event>
 5   0  0.2873212E-03  0.8024894E+03  0.7818609E-02  0.9556421E-01
       -2   -1    0    0    0  501  0.00000000000E+00  0.00000000000E+00  0.66557798528E+02  0.66557798577E+02  0.25500000920E-02 0. -1.
        2   -1    0    0  501    0  0.00000000000E+00  0.00000000000E+00 -0.24189094893E+04  0.24189094893E+04  0.25500000920E-02 0.  1.
    10030    2    1    2    0    0  0.00000000000E+00  0.00000000000E+00 -0.23523516908E+04  0.24854672879E+04  0.80248935323E+03 0.  0.
        2    1    3    3  502    0 -0.89636586228E+02  0.29524353077E+03 -0.19706163124E+04  0.19946258072E+04  0.25500000920E-02 0.  1.
       -2    1    3    3    0  502  0.89636586228E+02 -0.29524353077E+03 -0.38173537839E+03  0.49084148069E+03  0.25500000920E-02 0. -1.
</event>
<event>
 5   0  0.2690809E-03  0.7996501E+03  0.7818609E-02  0.9560524E-01
        2   -1    0    0  501    0  0.00000000000E+00  0.00000000000E+00  0.10516064218E+04  0.10516064218E+04  0.25500000920E-02 0.  1.
       -2   -1    0    0    0  501  0.00000000000E+00  0.00000000000E+00 -0.15201511320E+03  0.15201511322E+03  0.25500000920E-02 0. -1.
    10030    2    1    2    0    0  0.00000000000E+00  0.00000000000E+00  0.89959130860E+03  0.12036215350E+04  0.79965009665E+03 0.  0.
        5    1    3    3  502    0  0.52334366078E+02 -0.30762992925E+03  0.82598032715E+03  0.88297262136E+03  0.46999998093E+01 0.  1.
       -5    1    3    3    0  502 -0.52334366078E+02  0.30762992925E+03  0.73610981453E+02  0.32064891366E+03  0.46999998093E+01 0. -1.
</event>
<event>
 5   0  0.2690809E-03  0.8014223E+03  0.7818609E-02  0.9557961E-01
        2   -1    0    0  501    0  0.00000000000E+00  0.00000000000E+00  0.16388733644E+03  0.16388733646E+03  0.25500000920E-02 0.  1.
       -2   -1    0    0    0  501  0.00000000000E+00  0.00000000000E+00 -0.97975492244E+03  0.97975492244E+03  0.25500000920E-02 0. -1.
    10030    2    1    2    0    0  0.00000000000E+00  0.00000000000E+00 -0.81586758600E+03  0.11436422589E+04  0.80142229721E+03 0.  0.
        5    1    3    3  502    0  0.36347240654E+03 -0.16654622928E+03 -0.44562154197E+03  0.59870734543E+03  0.46999998093E+01 0. -1.
       -5    1    3    3    0  502 -0.36347240654E+03  0.16654622928E+03 -0.37024604402E+03  0.54493491347E+03  0.46999998093E+01 0.  1.
</event>
<event>
 5   0  0.2763587E-03  0.8009151E+03  0.7818609E-02  0.9558694E-01
       -2   -1    0    0    0  501  0.00000000000E+00  0.00000000000E+00  0.42463929756E+03  0.42463929756E+03  0.25500000920E-02 0. -1.
        2   -1    0    0  501    0  0.00000000000E+00  0.00000000000E+00 -0.37765284027E+03  0.37765284028E+03  0.25500000920E-02 0.  1.
    10030    2    1    2    0    0  0.00000000000E+00  0.00000000000E+00  0.46986457289E+02  0.80229213784E+03  0.80091506870E+03 0.  0.
        3    1    3    3  502    0 -0.23071322994E+03  0.20859105096E+03 -0.22918520688E+03  0.38634788761E+03  0.10100000352E+00 0.  1.
       -3    1    3    3    0  502  0.23071322994E+03 -0.20859105096E+03  0.27617166417E+03  0.41594425023E+03  0.10100000352E+00 0. -1.
</event>
<event>
 5   0  0.1640035E-03  0.7998157E+03  0.7818609E-02  0.9560284E-01
        1   -1    0    0  501    0  0.00000000000E+00  0.00000000000E+00  0.80961868639E+03  0.80961868640E+03  0.50400001928E-02 0.  1.
       -1   -1    0    0    0  501  0.00000000000E+00  0.00000000000E+00 -0.19753283281E+03  0.19753283287E+03  0.50400001928E-02 0. -1.
    10030    2    1    2    0    0  0.00000000000E+00  0.00000000000E+00  0.61208585358E+03  0.10071515193E+04  0.79981566040E+03 0.  0.
        5    1    3    3  502    0  0.26143716430E+02  0.32279481773E+03  0.10662471738E+02  0.32406136235E+03  0.46999998093E+01 0. -1.
       -5    1    3    3    0  502 -0.26143716430E+02 -0.32279481773E+03  0.60142338185E+03  0.68309015693E+03  0.46999998093E+01 0.  1.
</event>
<event>
 5   0  0.1617491E-03  0.7964539E+03  0.7818609E-02  0.9565164E-01
        1   -1    0    0  501    0  0.00000000000E+00  0.00000000000E+00  0.19657075291E+04  0.19657075291E+04  0.50400001928E-02 0.  1.
       -1   -1    0    0    0  501  0.00000000000E+00  0.00000000000E+00 -0.80675628636E+02  0.80675628793E+02  0.50400001928E-02 0. -1.
    10030    2    1    2    0    0  0.00000000000E+00  0.00000000000E+00  0.18850319004E+04  0.20463831579E+04  0.79645386757E+03 0.  0.
        1    1    3    3  502    0  0.13428983777E+02 -0.31624171118E+03  0.32162383936E+03  0.45125497401E+03  0.50400001928E-02 0. -1.
       -1    1    3    3    0  502 -0.13428983777E+02  0.31624171118E+03  0.15634080611E+04  0.15951281839E+04  0.50400001928E-02 0.  1.
</event>
<event>
 5   0  0.2763587E-03  0.7984600E+03  0.7818609E-02  0.9562249E-01
        2   -1    0    0  501    0  0.00000000000E+00  0.00000000000E+00  0.79168902447E+03  0.79168902448E+03  0.25500000920E-02 0. -1.
       -2   -1    0    0    0  501  0.00000000000E+00  0.00000000000E+00 -0.20132222857E+03  0.20132222858E+03  0.25500000920E-02 0.  1.
    10030    2    1    2    0    0  0.00000000000E+00  0.00000000000E+00  0.59036679591E+03  0.99301125306E+03  0.79846001465E+03 0.  0.
        3    1    3    3  502    0  0.11189039816E+03  0.38264906079E+03  0.32141319445E+03  0.51209981126E+03  0.10100000352E+00 0. -1.
       -3    1    3    3    0  502 -0.11189039816E+03 -0.38264906079E+03  0.26895360146E+03  0.48091144180E+03  0.10100000352E+00 0.  1.
</event>
<event>
 5   0  0.1095350E-03  0.8003079E+03  0.7818609E-02  0.9559571E-01
       -4   -1    0    0    0  501  0.00000000000E+00  0.00000000000E+00  0.90410326025E+03  0.90410415224E+03  0.12699999809E+01 0. -1.
        4   -1    0    0  501    0  0.00000000000E+00  0.00000000000E+00 -0.17710394575E+03  0.17710849923E+03  0.12699999809E+01 0.  1.
    10030    2    1    2    0    0  0.00000000000E+00  0.00000000000E+00  0.72699931450E+03  0.10812126515E+04  0.80030793724E+03 0.  0.
        3    1    3    3  502    0 -0.10220212336E+03 -0.75926709915E+02 -0.14901239420E+03  0.19599704876E+03  0.10100000352E+00 0.  1.
       -3    1    3    3    0  502  0.10220212336E+03  0.75926709915E+02  0.87601170870E+03  0.88521560270E+03  0.10100000352E+00 0. -1.
</event>
<event>
 5   0  0.2768834E-03  0.8004202E+03  0.7818609E-02  0.9559409E-01
        2   -1    0    0  501    0  0.00000000000E+00  0.00000000000E+00  0.88603652127E+03  0.88603652127E+03  0.25500000920E-02 0.  1.
       -2   -1    0    0    0  501  0.00000000000E+00  0.00000000000E+00 -0.18076918993E+03  0.18076918994E+03  0.25500000920E-02 0. -1.
    10030    2    1    2    0    0  0.00000000000E+00  0.00000000000E+00  0.70526733134E+03  0.10668057112E+04  0.80042015019E+03 0.  0.
        4    1    3    3  502    0  0.10445948986E+03  0.37918619806E+03  0.25403715796E+03  0.46822051252E+03  0.12699999809E+01 0. -1.
       -4    1    3    3    0  502 -0.10445948986E+03 -0.37918619806E+03  0.45123017338E+03  0.59858519869E+03  0.12699999809E+01 0.  1.
</event>
<event>
 5   0  0.1095350E-03  0.7991983E+03  0.7818609E-02  0.9561178E-01
       -3   -1    0    0    0  501  0.00000000000E+00  0.00000000000E+00  0.43222667055E+03  0.43222668235E+03  0.10100000352E+00 0. -1.
        3   -1    0    0  501    0  0.00000000000E+00  0.00000000000E+00 -0.36943454696E+03  0.36943456076E+03  0.10100000352E+00 0.  1.
    10030    2    1    2    0    0  0.00000000000E+00  0.00000000000E+00  0.62792123595E+02  0.80166124311E+03  0.79919828449E+03 0.  0.
        1    1    3    3  502    0 -0.31576321054E+03 -0.16154225631E+03 -0.15322867900E+03  0.38636942658E+03  0.50400001928E-02 0.  1.
       -1    1    3    3    0  502  0.31576321054E+03  0.16154225631E+03  0.21602080259E+03  0.41529181654E+03  0.50400001928E-02 0. -1.
</event>
<event>
 5   0  0.1712793E-03  0.8006979E+03  0.7818609E-02  0.9559007E-01
       -1   -1    0    0    0  501  0.00000000000E+00  0.00000000000E+00  0.14736067692E+03  0.14736067700E+03  0.50400001928E-02 0. -1.
        1   -1    0    0  501    0  0.00000000000E+00  0.00000000000E+00 -0.10876666719E+04  0.10876666719E+04  0.50400001928E-02 0.  1.
    10030    2    1    2    0    0  0.00000000000E+00  0.00000000000E+00 -0.94030599496E+03  0.12350273489E+04  0.80069793828E+03 0.  0.
        4    1    3    3  502    0 -0.12848751806E+03 -0.24469054571E+03 -0.23390853468E+02  0.27736483263E+03  0.12699999809E+01 0. -1.
       -4    1    3    3    0  502  0.12848751806E+03  0.24469054571E+03 -0.91691514149E+03  0.95766251626E+03  0.12699999809E+01 0.  1.
</event>
<event>
 5   0  0.2768834E-03  0.7993198E+03  0.7818609E-02  0.9561002E-01
        2   -1    0    0  501    0  0.00000000000E+00  0.00000000000E+00  0.11707473317E+04  0.11707473317E+04  0.25500000920E-02 0.  1.
       -2   -1    0    0    0  501  0.00000000000E+00  0.00000000000E+00 -0.13643254997E+03  0.13643255000E+03  0.25500000920E-02 0. -1.
    10030    2    1    2    0    0  0.00000000000E+00  0.00000000000E+00  0.10343147818E+04  0.13071798817E+04  0.79931982050E+03 0.  0.
        4    1    3    3  502    0 -0.35183868355E+03 -0.64043263232E+00  0.20714647154E+03  0.40829173757E+03  0.12699999809E+01 0. -1.
       -4    1    3    3    0  502  0.35183868355E+03  0.64043263232E+00  0.82716831022E+03  0.89888814417E+03  0.12699999809E+01 0.  1.
</event>
<event>
 5   0  0.2910501E-03  0.7803715E+03  0.7818609E-02  0.9588871E-01
       -2   -1    0    0    0  501  0.00000000000E+00  0.00000000000E+00  0.11730005406E+03  0.11730005409E+03  0.25500000920E-02 0. -1.
        2   -1    0    0  501    0  0.00000000000E+00  0.00000000000E+00 -0.12979101044E+04  0.12979101044E+04  0.25500000920E-02 0.  1.
    10030    2    1    2    0    0  0.00000000000E+00  0.00000000000E+00 -0.11806100504E+04  0.14152101585E+04  0.78037151521E+03 0.  0.
        1    1    3    3  502    0  0.14654554695E+03 -0.90140489923E+02  0.44795859451E+02  0.17778519146E+03  0.50400001928E-02 0. -1.
       -1    1    3    3    0  502 -0.14654554695E+03  0.90140489923E+02 -0.12254059098E+04  0.12374249671E+04  0.50400001928E-02 0.  1.
</event>
<event>
 5   0  0.2873212E-03  0.8005884E+03  0.7818609E-02  0.9559166E-01
        2   -1    0    0  501    0  0.00000000000E+00  0.00000000000E+00  0.12696758340E+04  0.12696758340E+04  0.25500000920E-02 0. -1.
       -2   -1    0    0    0  501  0.00000000000E+00  0.00000000000E+00 -0.12620185001E+03  0.12620185004E+03  0.25500000920E-02 0.  1.
    10030    2    1    2    0    0  0.00000000000E+00  0.00000000000E+00  0.11434739840E+04  0.13958776840E+04  0.80058838159E+03 0.  0.
        2    1    3    3  502    0 -0.35373909566E+03  0.14911875706E+03  0.37395427594E+03  0.53591935215E+03  0.25500000920E-02 0.  1.
       -2    1    3    3    0  502  0.35373909566E+03 -0.14911875706E+03  0.76951970803E+03  0.85995833187E+03  0.25500000920E-02 0. -1.
</event>
<event>
 5   0  0.1656051E-03  0.7998134E+03  0.7818609E-02  0.9560287E-01
       -1   -1    0    0    0  501  0.00000000000E+00  0.00000000000E+00  0.17379347508E+03  0.17379347515E+03  0.50400001928E-02 0. -1.
        1   -1    0    0  501    0  0.00000000000E+00  0.00000000000E+00 -0.92020356943E+03  0.92020356944E+03  0.50400001928E-02 0.  1.
    10030    2    1    2    0    0  0.00000000000E+00  0.00000000000E+00 -0.74641009435E+03  0.10939970446E+04  0.79981341864E+03 0.  0.
        3    1    3    3  502    0 -0.36342334264E+03  0.16197598245E+03 -0.31827706679E+03  0.50952237076E+03  0.10100000352E+00 0. -1.
       -3    1    3    3    0  502  0.36342334264E+03 -0.16197598245E+03 -0.42813302756E+03  0.58447467383E+03  0.10100000352E+00 0.  1.
</event>
<event>
 5   0  0.1095350E-03  0.8008275E+03  0.7818609E-02  0.9558820E-01
        3   -1    0    0  501    0  0.00000000000E+00  0.00000000000E+00  0.13031732394E+03  0.13031736308E+03  0.10100000352E+00 0. -1.
       -3   -1    0    0    0  501  0.00000000000E+00  0.00000000000E+00 -0.12303134123E+04  0.12303134164E+04  0.10100000352E+00 0.  1.
    10030    2    1    2    0    0  0.00000000000E+00  0.00000000000E+00 -0.10999960883E+04  0.13606307795E+04  0.80082752435E+03 0.  0.
        4    1    3    3  502    0 -0.14910970307E+03 -0.32504936595E+03 -0.24398952520E+03  0.43292412172E+03  0.12699999809E+01 0. -1.
       -4    1    3    3    0  502  0.14910970307E+03  0.32504936595E+03 -0.85600656314E+03  0.92770665778E+03  0.12699999809E+01 0.  1.
</event>
<event>
 5   0  0.1617491E-03  0.7940197E+03  0.7818609E-02  0.9568714E-01
        1   -1    0    0  501    0  0.00000000000E+00  0.00000000000E+00  0.15011923458E+03  0.15011923466E+03  0.50400001928E-02 0. -1.
       -1   -1    0    0    0  501  0.00000000000E+00  0.00000000000E+00 -0.10499442128E+04  0.10499442128E+04  0.50400001928E-02 0.  1.
    10030    2    1    2    0    0  0.00000000000E+00  0.00000000000E+00 -0.89982497818E+03  0.12000634474E+04  0.79401970158E+03 0.  0.
        1    1    3    3  502    0 -0.19803395401E+02  0.77625479343E+02 -0.10376011228E+04  0.10406891849E+04  0.50400001928E-02 0.  1.
       -1    1    3    3    0  502  0.19803395401E+02 -0.77625479343E+02  0.13777614460E+03  0.15937426254E+03  0.50400001928E-02 0. -1.
</event>
<event>
 5   0  0.1637228E-03  0.8035681E+03  0.7818609E-02  0.9554867E-01
        1   -1    0    0  501    0  0.00000000000E+00  0.00000000000E+00  0.29188778369E+03  0.29188778374E+03  0.50400001928E-02 0.  1.
       -1   -1    0    0    0  501  0.00000000000E+00  0.00000000000E+00 -0.55305639961E+03  0.55305639963E+03  0.50400001928E-02 0. -1.
    10030    2    1    2    0    0  0.00000000000E+00  0.00000000000E+00 -0.26116861592E+03  0.84494418337E+03  0.80356806001E+03 0.  0.
        2    1    3    3  502    0 -0.22763313309E+03  0.22245602243E+03  0.12724940006E+03  0.34277680058E+03  0.25500000920E-02 0.  1.
       -2    1    3    3    0  502  0.22763313309E+03 -0.22245602243E+03 -0.38841801598E+03  0.50216738279E+03  0.25500000920E-02 0. -1.
</event>
<event>
 5   0  0.2873212E-03  0.8042068E+03  0.7818609E-02  0.9553948E-01
       -2   -1    0    0    0  501  0.00000000000E+00  0.00000000000E+00  0.55112893948E+02  0.55112894007E+02  0.25500000920E-02 0. -1.
        2   -1    0    0  501    0  0.00000000000E+00  0.00000000000E+00 -0.29337447506E+04  0.29337447506E+04  0.25500000920E-02 0.  1.
    10030    2    1    2    0    0  0.00000000000E+00  0.00000000000E+00 -0.28786318567E+04  0.29888576446E+04  0.80420684752E+03 0.  0.
        2    1    3    3  502    0 -0.16884360852E+02  0.77390052171E+02  0.25830202538E+02  0.83315671912E+02  0.25500000920E-02 0. -1.
       -2    1    3    3    0  502  0.16884360852E+02 -0.77390052171E+02 -0.29044620592E+04  0.29055419727E+04  0.25500000920E-02 0.  1.
</event>
<event>
 5   0  0.2690809E-03  0.7991381E+03  0.7818609E-02  0.9561266E-01
        2   -1    0    0  501    0  0.00000000000E+00  0.00000000000E+00  0.10653630099E+04  0.10653630099E+04  0.25500000920E-02 0. -1.
       -2   -1    0    0    0  501  0.00000000000E+00  0.00000000000E+00 -0.14986010115E+03  0.14986010117E+03  0.25500000920E-02 0.  1.
    10030    2    1    2    0    0  0.00000000000E+00  0.00000000000E+00  0.91550290872E+03  0.12152231110E+04  0.79913805675E+03 0.  0.
        5    1    3    3  502    0  0.47003562962E+02  0.30057763374E+03  0.63910162128E+02  0.31090649343E+03  0.46999998093E+01 0.  1.
       -5    1    3    3    0  502 -0.47003562962E+02 -0.30057763374E+03  0.85159274659E+03  0.90431661761E+03  0.46999998093E+01 0. -1.
</event>
<event>
 5   0  0.1617491E-03  0.8021381E+03  0.7818609E-02  0.9556927E-01
       -1   -1    0    0    0  501  0.00000000000E+00  0.00000000000E+00  0.37158320207E+03  0.37158320210E+03  0.50400001928E-02 0.  1.
        1   -1    0    0  501    0  0.00000000000E+00  0.00000000000E+00 -0.43289464584E+03  0.43289464587E+03  0.50400001928E-02 0. -1.
    10030    2    1    2    0    0  0.00000000000E+00  0.00000000000E+00 -0.61311443771E+02  0.80447784797E+03  0.80213808957E+03 0.  0.
        1    1    3    3  502    0 -0.26313950810E+02  0.29190619089E+02  0.36964742842E+03  0.37173073267E+03  0.50400001928E-02 0.  1.
       -1    1    3    3    0  502  0.26313950810E+02 -0.29190619089E+02 -0.43095887219E+03  0.43274711529E+03  0.50400001928E-02 0. -1.
</event>
<event>
 5   0  0.2910501E-03  0.7977020E+03  0.7818609E-02  0.9563349E-01
        2   -1    0    0  501    0  0.00000000000E+00  0.00000000000E+00  0.34216730689E+03  0.34216730690E+03  0.25500000920E-02 0. -1.
       -2   -1    0    0    0  501  0.00000000000E+00  0.00000000000E+00 -0.46492492758E+03  0.46492492759E+03  0.25500000920E-02 0.  1.
    10030    2    1    2    0    0  0.00000000000E+00  0.00000000000E+00 -0.12275762069E+03  0.80709223449E+03  0.79770197538E+03 0.  0.
        1    1    3    3  502    0  0.25413301867E+02  0.39174403982E+03  0.99699720037E+01  0.39269406541E+03  0.50400001928E-02 0. -1.
       -1    1    3    3    0  502 -0.25413301867E+02 -0.39174403982E+03 -0.13272759270E+03  0.41439816907E+03  0.50400001928E-02 0.  1.
</event>
<event>
 5   0  0.1617491E-03  0.7989313E+03  0.7818609E-02  0.9561565E-01
        1   -1    0    0  501    0  0.00000000000E+00  0.00000000000E+00  0.10558394806E+04  0.10558394806E+04  0.50400001928E-02 0. -1.
       -1   -1    0    0    0  501  0.00000000000E+00  0.00000000000E+00 -0.15113358523E+03  0.15113358531E+03  0.50400001928E-02 0.  1.
    10030    2    1    2    0    0  0.00000000000E+00  0.00000000000E+00  0.90470589538E+03  0.12069730659E+04  0.79893130165E+03 0.  0.
        1    1    3    3  502    0  0.39840126530E+03 -0.15424995791E+02  0.41500059204E+03  0.57548847956E+03  0.50400001928E-02 0. -1.
       -1    1    3    3    0  502 -0.39840126530E+03  0.15424995791E+02  0.48970530334E+03  0.63148458638E+03  0.50400001928E-02 0.  1.
</event>
<event>
 5   0  0.2690809E-03  0.8011112E+03  0.7818609E-02  0.9558410E-01
        2   -1    0    0  501    0  0.00000000000E+00  0.00000000000E+00  0.11156241872E+04  0.11156241872E+04  0.25500000920E-02 0.  1.
       -2   -1    0    0    0  501  0.00000000000E+00  0.00000000000E+00 -0.14381615600E+03  0.14381615602E+03  0.25500000920E-02 0. -1.
    10030    2    1    2    0    0  0.00000000000E+00  0.00000000000E+00  0.97180803119E+03  0.12594403432E+04  0.80111118369E+03 0.  0.
        5    1    3    3  502    0  0.12667955489E+03 -0.25561119876E+03  0.43924139373E+02  0.28868012501E+03  0.46999998093E+01 0. -1.
       -5    1    3    3    0  502 -0.12667955489E+03  0.25561119876E+03  0.92788389181E+03  0.97076021820E+03  0.46999998093E+01 0.  1.
</event>
<event>
 5   0  0.2910501E-03  0.8008116E+03  0.7818609E-02  0.9558843E-01
       -2   -1    0    0    0  501  0.00000000000E+00  0.00000000000E+00  0.12179139444E+03  0.12179139447E+03  0.25500000920E-02 0. -1.
        2   -1    0    0  501    0  0.00000000000E+00  0.00000000000E+00 -0.13163885853E+04  0.13163885853E+04  0.25500000920E-02 0.  1.
    10030    2    1    2    0    0  0.00000000000E+00  0.00000000000E+00 -0.11945971908E+04  0.14381799798E+04  0.80081159196E+03 0.  0.
        1    1    3    3  502    0  0.13164231336E+03  0.37707273296E+03 -0.64845053059E+03  0.76157838418E+03  0.50400001928E-02 0. -1.
       -1    1    3    3    0  502 -0.13164231336E+03 -0.37707273296E+03 -0.54614666025E+03  0.67660159557E+03  0.50400001928E-02 0.  1.
</event>
<event>
 5   0  0.2690809E-03  0.7999995E+03  0.7818609E-02  0.9560018E-01
       -2   -1    0    0    0  501  0.00000000000E+00  0.00000000000E+00  0.31026991891E+03  0.31026991892E+03  0.25500000920E-02 0. -1.
        2   -1    0    0  501    0  0.00000000000E+00  0.00000000000E+00 -0.51567935758E+03  0.51567935758E+03  0.25500000920E-02 0.  1.
    10030    2    1    2    0    0  0.00000000000E+00  0.00000000000E+00 -0.20540943867E+03  0.82594927650E+03  0.79999948116E+03 0.  0.
        5    1    3    3  502    0  0.18617505552E+03 -0.15130795750E+03  0.22771142462E+03  0.33080180199E+03  0.46999998093E+01 0. -1.
       -5    1    3    3    0  502 -0.18617505552E+03  0.15130795750E+03 -0.43312086329E+03  0.49514747451E+03  0.46999998093E+01 0.  1.
</event>
<event>
 5   0  0.2690809E-03  0.8000362E+03  0.7818609E-02  0.9559965E-01
        2   -1    0    0  501    0  0.00000000000E+00  0.00000000000E+00  0.11864834567E+04  0.11864834567E+04  0.25500000920E-02 0. -1.
       -2   -1    0    0    0  501  0.00000000000E+00  0.00000000000E+00 -0.13486449122E+03  0.13486449124E+03  0.25500000920E-02 0.  1.
    10030    2    1    2    0    0  0.00000000000E+00  0.00000000000E+00  0.10516189654E+04  0.13213479479E+04  0.80003621852E+03 0.  0.
        5    1    3    3  502    0 -0.37682388998E+03  0.12839257821E+03  0.59002079648E+03  0.71177772406E+03  0.46999998093E+01 0.  1.
       -5    1    3    3    0  502  0.37682388998E+03 -0.12839257821E+03  0.46159816896E+03  0.60957022383E+03  0.46999998093E+01 0. -1.
</event>
<event>
 5   0  0.1095350E-03  0.8001772E+03  0.7818609E-02  0.9559761E-01
       -4   -1    0    0    0  501  0.00000000000E+00  0.00000000000E+00  0.32287370270E+03  0.32287620041E+03  0.12699999809E+01 0. -1.
        4   -1    0    0  501    0  0.00000000000E+00  0.00000000000E+00 -0.49576413310E+03  0.49576575978E+03  0.12699999809E+01 0.  1.
    10030    2    1    2    0    0  0.00000000000E+00  0.00000000000E+00 -0.17289043040E+03  0.81864196020E+03  0.80017720417E+03 0.  0.
        4    1    3    3  502    0 -0.25683563343E+03 -0.16367750358E+03  0.17899201949E+03  0.35326282527E+03  0.12699999809E+01 0. -1.
       -4    1    3    3    0  502  0.25683563343E+03  0.16367750358E+03 -0.35188244989E+03  0.46537913492E+03  0.12699999809E+01 0.  1.
</event>
<event>
 5   0  0.2763587E-03  0.8004000E+03  0.7818609E-02  0.9559438E-01
        2   -1    0    0  501    0  0.00000000000E+00  0.00000000000E+00  0.12835781418E+04  0.12835781418E+04  0.25500000920E-02 0.  1.
       -2   -1    0    0    0  501  0.00000000000E+00  0.00000000000E+00 -0.12477622944E+03  0.12477622947E+03  0.25500000920E-02 0. -1.
    10030    2    1    2    0    0  0.00000000000E+00  0.00000000000E+00  0.11588019124E+04  0.14083543713E+04  0.80040000188E+03 0.  0.
        3    1    3    3  502    0  0.24993641148E+03  0.23793575739E+03  0.93602580817E+03  0.99761012333E+03  0.10100000352E+00 0.  1.
       -3    1    3    3    0  502 -0.24993641148E+03 -0.23793575739E+03  0.22277610424E+03  0.41074424798E+03  0.10100000352E+00 0. -1.
</event>
<event>
 5   0  0.1637228E-03  0.7989626E+03  0.7818609E-02  0.9561520E-01
        1   -1    0    0  501    0  0.00000000000E+00  0.00000000000E+00  0.34983898573E+03  0.34983898576E+03  0.50400001928E-02 0.  1.
       -1   -1    0    0    0  501  0.00000000000E+00  0.00000000000E+00 -0.45616785156E+03  0.45616785159E+03  0.50400001928E-02 0. -1.
    10030    2    1    2    0    0  0.00000000000E+00  0.00000000000E+00 -0.10632886584E+03  0.80600683736E+03  0.79896257369E+03 0.  0.
        2    1    3    3  502    0 -0.47285083715E+02  0.14062998380E+03  0.32101361534E+03  0.35364164450E+03  0.25500000920E-02 0.  1.
       -2    1    3    3    0  502  0.47285083715E+02 -0.14062998380E+03 -0.42734248117E+03  0.45236519286E+03  0.25500000920E-02 0. -1.
</event>
<event>
 5   0  0.2768834E-03  0.7996510E+03  0.7818609E-02  0.9560522E-01
        2   -1    0    0  501    0  0.00000000000E+00  0.00000000000E+00  0.92475934610E+03  0.92475934610E+03  0.25500000920E-02 0.  1.
       -2   -1    0    0    0  501  0.00000000000E+00  0.00000000000E+00 -0.17286704051E+03  0.17286704053E+03  0.25500000920E-02 0. -1.
    10030    2    1    2    0    0  0.00000000000E+00  0.00000000000E+00  0.75189230558E+03  0.10976263866E+04  0.79965095225E+03 0.  0.
        4    1    3    3  502    0  0.20591900001E+03  0.20998785569E+03  0.74772740332E+03  0.80348952493E+03  0.12699999809E+01 0.  1.
       -4    1    3    3    0  502 -0.20591900001E+03 -0.20998785569E+03  0.41649022662E+01  0.29413686170E+03  0.12699999809E+01 0. -1.
</event>
<event>
 5   0  0.1656051E-03  0.8018822E+03  0.7818609E-02  0.9557297E-01
       -1   -1    0    0    0  501  0.00000000000E+00  0.00000000000E+00  0.45877194371E+03  0.45877194374E+03  0.50400001928E-02 0. -1.
        1   -1    0    0  501    0  0.00000000000E+00  0.00000000000E+00 -0.35040014165E+03  0.35040014168E+03  0.50400001928E-02 0.  1.
    10030    2    1    2    0    0  0.00000000000E+00  0.00000000000E+00  0.10837180206E+03  0.80917208543E+03  0.80188217111E+03 0.  0.
        3    1    3    3  502    0  0.75987753915E+02 -0.38843703990E+03  0.11876986307E+03  0.41323572363E+03  0.10100000352E+00 0.  1.
       -3    1    3    3    0  502 -0.75987753915E+02  0.38843703990E+03 -0.10398061002E+02  0.39593636179E+03  0.10100000352E+00 0. -1.
</event>
<event>
 5   0  0.2763587E-03  0.7990307E+03  0.7818609E-02  0.9561421E-01
        2   -1    0    0  501    0  0.00000000000E+00  0.00000000000E+00  0.97207457744E+03  0.97207457744E+03  0.25500000920E-02 0.  1.
       -2   -1    0    0    0  501  0.00000000000E+00  0.00000000000E+00 -0.16419780023E+03  0.16419780025E+03  0.25500000920E-02 0. -1.
    10030    2    1    2    0    0  0.00000000000E+00  0.00000000000E+00  0.80787677721E+03  0.11362723777E+04  0.79903068099E+03 0.  0.
        3    1    3    3  502    0 -0.10730923645E+03  0.60006990448E+02 -0.13662606774E+03  0.18380098944E+03  0.10100000352E+00 0. -1.
       -3    1    3    3    0  502  0.10730923645E+03 -0.60006990448E+02  0.94450284495E+03  0.95247138826E+03  0.10100000352E+00 0.  1.
</event>
<event>
 5   0  0.1712793E-03  0.8027333E+03  0.7818609E-02  0.9556069E-01
       -1   -1    0    0    0  501  0.00000000000E+00  0.00000000000E+00  0.66542543732E+02  0.66542543923E+02  0.50400001928E-02 0. -1.
        1   -1    0    0  501    0  0.00000000000E+00  0.00000000000E+00 -0.24209350391E+04  0.24209350391E+04  0.50400001928E-02 0.  1.
    10030    2    1    2    0    0  0.00000000000E+00  0.00000000000E+00 -0.23543924954E+04  0.24874775830E+04  0.80273327066E+03 0.  0.
        4    1    3    3  502    0 -0.16091067950E+03 -0.20312078264E+03 -0.21269712495E+04  0.21426989075E+04  0.12699999809E+01 0.  1.
       -4    1    3    3    0  502  0.16091067950E+03  0.20312078264E+03 -0.22742124583E+03  0.34477867549E+03  0.12699999809E+01 0. -1.
</event>
<event>
 5   0  0.2910501E-03  0.7996194E+03  0.7818609E-02  0.9560568E-01
       -2   -1    0    0    0  501  0.00000000000E+00  0.00000000000E+00  0.43981020268E+03  0.43981020269E+03  0.25500000920E-02 0. -1.
        2   -1    0    0  501    0  0.00000000000E+00  0.00000000000E+00 -0.36344721920E+03  0.36344721921E+03  0.25500000920E-02 0.  1.
    10030    2    1    2    0    0  0.00000000000E+00  0.00000000000E+00  0.76362983479E+02  0.80325742190E+03  0.79961939733E+03 0.  0.
        1    1    3    3  502    0  0.59772977942E+02 -0.25988716933E+03  0.33741869581E+03  0.43007618625E+03  0.50400001928E-02 0. -1.
       -1    1    3    3    0  502 -0.59772977942E+02  0.25988716933E+03 -0.26105571233E+03  0.37318123565E+03  0.50400001928E-02 0.  1.
</event>
<event>
 5   0  0.1640035E-03  0.8007225E+03  0.7818609E-02  0.9558972E-01
        1   -1    0    0  501    0  0.00000000000E+00  0.00000000000E+00  0.23966542015E+03  0.23966542021E+03  0.50400001928E-02 0. -1.
       -1   -1    0    0    0  501  0.00000000000E+00  0.00000000000E+00 -0.66880369845E+03  0.66880369847E+03  0.50400001928E-02 0.  1.
    10030    2    1    2    0    0  0.00000000000E+00  0.00000000000E+00 -0.42913827830E+03  0.90846911867E+03  0.80072247232E+03 0.  0.
        5    1    3    3  502    0 -0.33143301022E+03 -0.16461253002E+01 -0.46931926648E+03  0.57457220075E+03  0.46999998093E+01 0.  1.
       -5    1    3    3    0  502  0.33143301022E+03  0.16461253002E+01  0.40180988182E+02  0.33389691792E+03  0.46999998093E+01 0. -1.
</event>
<event>
 5   0  0.1712793E-03  0.8008066E+03  0.7818609E-02  0.9558850E-01
       -1   -1    0    0    0  501  0.00000000000E+00  0.00000000000E+00  0.12157138376E+03  0.12157138386E+03  0.50400001928E-02 0.  1.
        1   -1    0    0  501    0  0.00000000000E+00  0.00000000000E+00 -0.13187543495E+04  0.13187543495E+04  0.50400001928E-02 0. -1.
    10030    2    1    2    0    0  0.00000000000E+00  0.00000000000E+00 -0.11971829657E+04  0.14403257334E+04  0.80080657137E+03 0.  0.
        4    1    3    3  502    0 -0.26753597113E+03  0.23421828822E+03 -0.26749642167E+03  0.44496028013E+03  0.12699999809E+01 0.  1.
       -4    1    3    3    0  502  0.26753597113E+03 -0.23421828822E+03 -0.92968654406E+03  0.99536545323E+03  0.12699999809E+01 0. -1.
</event>
<event>
 5   0  0.2763587E-03  0.7996699E+03  0.7818609E-02  0.9560495E-01
        2   -1    0    0  501    0  0.00000000000E+00  0.00000000000E+00  0.38543148045E+03  0.38543148046E+03  0.25500000920E-02 0.  1.
       -2   -1    0    0    0  501  0.00000000000E+00  0.00000000000E+00 -0.41477671211E+03  0.41477671212E+03  0.25500000920E-02 0. -1.
    10030    2    1    2    0    0  0.00000000000E+00  0.00000000000E+00 -0.29345231661E+02  0.80020819257E+03  0.79966993744E+03 0.  0.
        3    1    3    3  502    0 -0.70888189488E+02  0.19451165219E+03 -0.35696728750E+03  0.41265672513E+03  0.10100000352E+00 0. -1.
       -3    1    3    3    0  502  0.70888189488E+02 -0.19451165219E+03  0.32762205584E+03  0.38755146745E+03  0.10100000352E+00 0.  1.
</event>
<event>
 5   0  0.1640035E-03  0.8009006E+03  0.7818609E-02  0.9558714E-01
        1   -1    0    0  501    0  0.00000000000E+00  0.00000000000E+00  0.76890207081E+03  0.76890207083E+03  0.50400001928E-02 0.  1.
       -1   -1    0    0    0  501  0.00000000000E+00  0.00000000000E+00 -0.20855768606E+03  0.20855768612E+03  0.50400001928E-02 0. -1.
    10030    2    1    2    0    0  0.00000000000E+00  0.00000000000E+00  0.56034438476E+03  0.97745975695E+03  0.80090058492E+03 0.  0.
        5    1    3    3  502    0 -0.12298236659E+03  0.22941691788E+03  0.65152142191E+03  0.70161174299E+03  0.46999998093E+01 0.  1.
       -5    1    3    3    0  502  0.12298236659E+03 -0.22941691788E+03 -0.91177037153E+02  0.27584801395E+03  0.46999998093E+01 0. -1.
</event>
<event>
 5   0  0.1656051E-03  0.8052610E+03  0.7818609E-02  0.9552433E-01
       -1   -1    0    0    0  501  0.00000000000E+00  0.00000000000E+00  0.22718962063E+03  0.22718962069E+03  0.50400001928E-02 0.  1.
        1   -1    0    0  501    0  0.00000000000E+00  0.00000000000E+00 -0.71355070514E+03  0.71355070516E+03  0.50400001928E-02 0. -1.
    10030    2    1    2    0    0  0.00000000000E+00  0.00000000000E+00 -0.48636108451E+03  0.94074032585E+03  0.80526098636E+03 0.  0.
        3    1    3    3  502    0  0.38868280013E+02 -0.92179660099E+02 -0.69880042135E+03  0.70592483453E+03  0.10100000352E+00 0. -1.
       -3    1    3    3    0  502 -0.38868280013E+02  0.92179660099E+02  0.21243933684E+03  0.23481549132E+03  0.10100000352E+00 0.  1.
</event>
<event>
 5   0  0.1637228E-03  0.7981194E+03  0.7818609E-02  0.9562743E-01
       -1   -1    0    0    0  501  0.00000000000E+00  0.00000000000E+00  0.11079667880E+03  0.11079667892E+03  0.50400001928E-02 0.  1.
        1   -1    0    0  501    0  0.00000000000E+00  0.00000000000E+00 -0.14373051393E+04  0.14373051393E+04  0.50400001928E-02 0. -1.
    10030    2    1    2    0    0  0.00000000000E+00  0.00000000000E+00 -0.13265084605E+04  0.15481018182E+04  0.79811937942E+03 0.  0.
        2    1    3    3  502    0  0.10509448694E+02  0.46764533673E+02  0.10519304647E+03  0.11559821432E+03  0.25500000920E-02 0.  1.
       -2    1    3    3    0  502 -0.10509448694E+02 -0.46764533673E+02 -0.14317015070E+04  0.14325036039E+04  0.25500000920E-02 0. -1.
</event>
<event>
 5   0  0.2873212E-03  0.8027489E+03  0.7818609E-02  0.9556047E-01
        2   -1    0    0  501    0  0.00000000000E+00  0.00000000000E+00  0.61215188219E+03  0.61215188219E+03  0.25500000920E-02 0.  1.
       -2   -1    0    0    0  501  0.00000000000E+00  0.00000000000E+00 -0.26317232015E+03  0.26317232016E+03  0.25500000920E-02 0. -1.
    10030    2    1    2    0    0  0.00000000000E+00  0.00000000000E+00  0.34897956204E+03  0.87532420235E+03  0.80274885518E+03 0.  0.
        2    1    3    3  502    0  0.87369715808E+02 -0.21177114072E+03 -0.18488370787E+03  0.29438489894E+03  0.25500000920E-02 0. -1.
       -2    1    3    3    0  502 -0.87369715808E+02  0.21177114072E+03  0.53386326991E+03  0.58093930341E+03  0.25500000920E-02 0.  1.
</event>
<event>
 5   0  0.1637228E-03  0.7996124E+03  0.7818609E-02  0.9560578E-01
       -1   -1    0    0    0  501  0.00000000000E+00  0.00000000000E+00  0.18455279042E+03  0.18455279049E+03  0.50400001928E-02 0. -1.
        1   -1    0    0  501    0  0.00000000000E+00  0.00000000000E+00 -0.86612081486E+03  0.86612081487E+03  0.50400001928E-02 0.  1.
    10030    2    1    2    0    0  0.00000000000E+00  0.00000000000E+00 -0.68156802444E+03  0.10506736054E+04  0.79961243929E+03 0.  0.
        2    1    3    3  502    0  0.38797803560E+03  0.80900048832E+02 -0.27158785934E+03  0.48044951802E+03  0.25500000920E-02 0. -1.
       -2    1    3    3    0  502 -0.38797803560E+03 -0.80900048832E+02 -0.40998016510E+03  0.57022408735E+03  0.25500000920E-02 0.  1.
</event>
<event>
 5   0  0.1637228E-03  0.7969627E+03  0.7818609E-02  0.9564424E-01
        1   -1    0    0  501    0  0.00000000000E+00  0.00000000000E+00  0.13215528146E+04  0.13215528146E+04  0.50400001928E-02 0.  1.
       -1   -1    0    0    0  501  0.00000000000E+00  0.00000000000E+00 -0.12015212729E+03  0.12015212739E+03  0.50400001928E-02 0. -1.
    10030    2    1    2    0    0  0.00000000000E+00  0.00000000000E+00  0.12014006874E+04  0.14417049420E+04  0.79696268942E+03 0.  0.
        2    1    3    3  502    0  0.20091171940E+03 -0.71737978757E+02  0.12095449177E+04  0.12282144620E+04  0.25500000920E-02 0.  1.
       -2    1    3    3    0  502 -0.20091171940E+03  0.71737978757E+02 -0.81442303709E+01  0.21349048007E+03  0.25500000920E-02 0. -1.
</event>
<event>
 5   0  0.1656051E-03  0.7907977E+03  0.7818609E-02  0.9573433E-01
       -1   -1    0    0    0  501  0.00000000000E+00  0.00000000000E+00  0.35179351653E+03  0.35179351656E+03  0.50400001928E-02 0.  1.
        1   -1    0    0  501    0  0.00000000000E+00  0.00000000000E+00 -0.44440913154E+03  0.44440913157E+03  0.50400001928E-02 0. -1.
    10030    2    1    2    0    0  0.00000000000E+00  0.00000000000E+00 -0.92615615012E+02  0.79620264813E+03  0.79079770153E+03 0.  0.
        3    1    3    3  502    0  0.33477155880E+02 -0.33630305995E+02 -0.44153185935E+03  0.44407444249E+03  0.10100000352E+00 0. -1.
       -3    1    3    3    0  502 -0.33477155880E+02  0.33630305995E+02  0.34891624434E+03  0.35212820565E+03  0.10100000352E+00 0.  1.
</event>
<event>
 5   0  0.2910501E-03  0.8074883E+03  0.7818609E-02  0.9549241E-01
        2   -1    0    0  501    0  0.00000000000E+00  0.00000000000E+00  0.83127670309E+03  0.83127670310E+03  0.25500000920E-02 0.  1.
       -2   -1    0    0    0  501  0.00000000000E+00  0.00000000000E+00 -0.19609515352E+03  0.19609515354E+03  0.25500000920E-02 0. -1.
    10030    2    1    2    0    0  0.00000000000E+00  0.00000000000E+00  0.63518154958E+03  0.10273718566E+04  0.80748828529E+03 0.  0.
        1    1    3    3  502    0  0.19101613025E+02 -0.16499690676E+03 -0.15061159934E+03  0.22421575489E+03  0.50400001928E-02 0. -1.
       -1    1    3    3    0  502 -0.19101613025E+02  0.16499690676E+03  0.78579314891E+03  0.80315610174E+03  0.50400001928E-02 0.  1.
</event>
<event>
 5   0  0.1095350E-03  0.7998556E+03  0.7818609E-02  0.9560226E-01
        3   -1    0    0  501    0  0.00000000000E+00  0.00000000000E+00  0.76980752225E+03  0.76980752888E+03  0.10100000352E+00 0. -1.
       -3   -1    0    0    0  501  0.00000000000E+00  0.00000000000E+00 -0.20776912004E+03  0.20776914458E+03  0.10100000352E+00 0.  1.
    10030    2    1    2    0    0  0.00000000000E+00  0.00000000000E+00  0.56203840221E+03  0.97757667346E+03  0.79985560380E+03 0.  0.
        3    1    3    3  502    0 -0.28474129021E+03 -0.26701451594E+03  0.38734200653E+03  0.54991653394E+03  0.10100000352E+00 0. -1.
       -3    1    3    3    0  502  0.28474129021E+03  0.26701451594E+03  0.17469639568E+03  0.42766013952E+03  0.10100000352E+00 0.  1.
</event>
<event>
 5   0  0.2768834E-03  0.7997407E+03  0.7818609E-02  0.9560393E-01
       -2   -1    0    0    0  501  0.00000000000E+00  0.00000000000E+00  0.11195391654E+03  0.11195391657E+03  0.25500000920E-02 0. -1.
        2   -1    0    0  501    0  0.00000000000E+00  0.00000000000E+00 -0.14282330310E+04  0.14282330310E+04  0.25500000920E-02 0.  1.
    10030    2    1    2    0    0  0.00000000000E+00  0.00000000000E+00 -0.13162791144E+04  0.15401869475E+04  0.79974066190E+03 0.  0.
        4    1    3    3  502    0 -0.38707672014E+03  0.69406887036E+02 -0.79766747631E+03  0.88933723576E+03  0.12699999809E+01 0.  1.
       -4    1    3    3    0  502  0.38707672014E+03 -0.69406887036E+02 -0.51861163812E+03  0.65084971179E+03  0.12699999809E+01 0. -1.
</event>
<event>
 5   0  0.1617491E-03  0.7979984E+03  0.7818609E-02  0.9562919E-01
       -1   -1    0    0    0  501  0.00000000000E+00  0.00000000000E+00  0.35677851454E+03  0.35677851458E+03  0.50400001928E-02 0. -1.
        1   -1    0    0  501    0  0.00000000000E+00  0.00000000000E+00 -0.44621618499E+03  0.44621618502E+03  0.50400001928E-02 0.  1.
    10030    2    1    2    0    0  0.00000000000E+00  0.00000000000E+00 -0.89437670447E+02  0.80299469960E+03  0.79799836509E+03 0.  0.
        1    1    3    3  502    0 -0.19076696236E+03 -0.33617982579E+03  0.54852407190E+02  0.39040708984E+03  0.50400001928E-02 0. -1.
       -1    1    3    3    0  502  0.19076696236E+03  0.33617982579E+03 -0.14429007764E+03  0.41258760976E+03  0.50400001928E-02 0.  1.
</event>
<event>
 5   0  0.2910501E-03  0.7974134E+03  0.7818609E-02  0.9563769E-01
        2   -1    0    0  501    0  0.00000000000E+00  0.00000000000E+00  0.12372134130E+04  0.12372134130E+04  0.25500000920E-02 0. -1.
       -2   -1    0    0    0  501  0.00000000000E+00  0.00000000000E+00 -0.12848796962E+03  0.12848796964E+03  0.25500000920E-02 0.  1.
    10030    2    1    2    0    0  0.00000000000E+00  0.00000000000E+00  0.11087254434E+04  0.13657013827E+04  0.79741341710E+03 0.  0.
        1    1    3    3  502    0 -0.37431607758E+03  0.94469047312E+01  0.78897439287E+03  0.87331687409E+03  0.50400001928E-02 0. -1.
       -1    1    3    3    0  502  0.37431607758E+03 -0.94469047312E+01  0.31975105053E+03  0.49238450857E+03  0.50400001928E-02 0.  1.
</event>
<event>
 5   0  0.2768834E-03  0.8006996E+03  0.7818609E-02  0.9559005E-01
       -2   -1    0    0    0  501  0.00000000000E+00  0.00000000000E+00  0.13690378665E+03  0.13690378668E+03  0.25500000920E-02 0.  1.
        2   -1    0    0  501    0  0.00000000000E+00  0.00000000000E+00 -0.11707490776E+04  0.11707490776E+04  0.25500000920E-02 0. -1.
    10030    2    1    2    0    0  0.00000000000E+00  0.00000000000E+00 -0.10338452909E+04  0.13076528643E+04  0.80069964896E+03 0.  0.
        4    1    3    3  502    0 -0.18393075968E+03  0.20856085367E+03 -0.98728395342E+03  0.10256994548E+04  0.12699999809E+01 0. -1.
       -4    1    3    3    0  502  0.18393075968E+03 -0.20856085367E+03 -0.46561337498E+02  0.28195340943E+03  0.12699999809E+01 0.  1.
</event>
<event>
 5   0  0.2690809E-03  0.8079586E+03  0.7818609E-02  0.9548568E-01
        2   -1    0    0  501    0  0.00000000000E+00  0.00000000000E+00  0.26968905240E+04  0.26968905240E+04  0.25500000920E-02 0. -1.
       -2   -1    0    0    0  501  0.00000000000E+00  0.00000000000E+00 -0.60513870785E+02  0.60513870839E+02  0.25500000920E-02 0.  1.
    10030    2    1    2    0    0  0.00000000000E+00  0.00000000000E+00  0.26363766532E+04  0.27574043948E+04  0.80795862460E+03 0.  0.
        5    1    3    3  502    0  0.20140756566E+03  0.34305552209E+03  0.10786810605E+04  0.11497073624E+04  0.46999998093E+01 0.  1.
       -5    1    3    3    0  502 -0.20140756566E+03 -0.34305552209E+03  0.15576955927E+04  0.16076970325E+04  0.46999998093E+01 0. -1.
</event>
<event>
 5   0  0.2910501E-03  0.8013970E+03  0.7818609E-02  0.9557997E-01
        2   -1    0    0  501    0  0.00000000000E+00  0.00000000000E+00  0.21521415868E+04  0.21521415868E+04  0.25500000920E-02 0.  1.
       -2   -1    0    0    0  501  0.00000000000E+00  0.00000000000E+00 -0.74604423141E+02  0.74604423185E+02  0.25500000920E-02 0. -1.
    10030    2    1    2    0    0  0.00000000000E+00  0.00000000000E+00  0.20775371637E+04  0.22267460100E+04  0.80139698440E+03 0.  0.
        1    1    3    3  502    0 -0.16182020589E+03  0.35792097974E+03  0.12587169622E+04  0.13185831782E+04  0.50400001928E-02 0. -1.
       -1    1    3    3    0  502  0.16182020589E+03 -0.35792097974E+03  0.81882020146E+03  0.90816283183E+03  0.50400001928E-02 0.  1.
</event>
<event>
 5   0  0.2690809E-03  0.7998811E+03  0.7818609E-02  0.9560189E-01
        2   -1    0    0  501    0  0.00000000000E+00  0.00000000000E+00  0.28167192616E+04  0.28167192616E+04  0.25500000920E-02 0. -1.
       -2   -1    0    0    0  501  0.00000000000E+00  0.00000000000E+00 -0.56786784967E+02  0.56786785024E+02  0.25500000920E-02 0.  1.
    10030    2    1    2    0    0  0.00000000000E+00  0.00000000000E+00  0.27599324767E+04  0.28735060466E+04  0.79988106892E+03 0.  0.
        5    1    3    3  502    0 -0.10582878157E+03  0.35492752599E+03  0.83803424881E+03  0.91624056442E+03  0.46999998093E+01 0.  1.
       -5    1    3    3    0  502  0.10582878157E+03 -0.35492752599E+03  0.19218982278E+04  0.19572654822E+04  0.46999998093E+01 0. -1.
</event>
<event>
 5   0  0.2910501E-03  0.7994160E+03  0.7818609E-02  0.9560863E-01
       -2   -1    0    0    0  501  0.00000000000E+00  0.00000000000E+00  0.26133550202E+03  0.26133550204E+03  0.25500000920E-02 0. -1.
        2   -1    0    0  501    0  0.00000000000E+00  0.00000000000E+00 -0.61134622713E+03  0.61134622713E+03  0.25500000920E-02 0.  1.
    10030    2    1    2    0    0  0.00000000000E+00  0.00000000000E+00 -0.35001072510E+03  0.87268172917E+03  0.79941596978E+03 0.  0.
        1    1    3    3  502    0 -0.37641458857E+03  0.98254334930E+02 -0.27520314955E+03  0.47652768059E+03  0.50400001928E-02 0.  1.
       -1    1    3    3    0  502  0.37641458857E+03 -0.98254334930E+02 -0.74807575549E+02  0.39615404858E+03  0.50400001928E-02 0. -1.
</event>
<event>
 5   0  0.1712793E-03  0.8002982E+03  0.7818609E-02  0.9559586E-01
       -1   -1    0    0    0  501  0.00000000000E+00  0.00000000000E+00  0.18578337289E+03  0.18578337296E+03  0.50400001928E-02 0.  1.
        1   -1    0    0  501    0  0.00000000000E+00  0.00000000000E+00 -0.86186030140E+03  0.86186030141E+03  0.50400001928E-02 0. -1.
    10030    2    1    2    0    0  0.00000000000E+00  0.00000000000E+00 -0.67607692851E+03  0.10476436744E+04  0.80029822891E+03 0.  0.
        4    1    3    3  502    0 -0.74518408854E+02  0.23770502009E+03 -0.74796871383E+03  0.78836253057E+03  0.12699999809E+01 0. -1.
       -4    1    3    3    0  502  0.74518408854E+02 -0.23770502009E+03  0.71891785326E+02  0.25928114381E+03  0.12699999809E+01 0.  1.
</event>
<event>
 5   0  0.1656051E-03  0.8008691E+03  0.7818609E-02  0.9558760E-01
       -1   -1    0    0    0  501  0.00000000000E+00  0.00000000000E+00  0.37372550640E+03  0.37372550644E+03  0.50400001928E-02 0. -1.
        1   -1    0    0  501    0  0.00000000000E+00  0.00000000000E+00 -0.42905239538E+03  0.42905239541E+03  0.50400001928E-02 0.  1.
    10030    2    1    2    0    0  0.00000000000E+00  0.00000000000E+00 -0.55326888979E+02  0.80277790185E+03  0.80086908733E+03 0.  0.
        3    1    3    3  502    0 -0.15276433505E+03 -0.26349073572E+03  0.23292444579E+03  0.38342941661E+03  0.10100000352E+00 0. -1.
       -3    1    3    3    0  502  0.15276433505E+03  0.26349073572E+03 -0.28825133477E+03  0.41934848524E+03  0.10100000352E+00 0.  1.
</event>
<event>
 5   0  0.2910501E-03  0.8232803E+03  0.7818609E-02  0.9526918E-01
        2   -1    0    0  501    0  0.00000000000E+00  0.00000000000E+00  0.73502813380E+03  0.73502813381E+03  0.25500000920E-02 0. -1.
       -2   -1    0    0    0  501  0.00000000000E+00  0.00000000000E+00 -0.23053215454E+03  0.23053215455E+03  0.25500000920E-02 0.  1.
    10030    2    1    2    0    0  0.00000000000E+00  0.00000000000E+00  0.50449597927E+03  0.96556028836E+03  0.82328031518E+03 0.  0.
        1    1    3    3  502    0 -0.18116611168E+03 -0.32146627467E+03  0.46622236843E+03  0.59457970250E+03  0.50400001928E-02 0.  1.
       -1    1    3    3    0  502  0.18116611168E+03  0.32146627467E+03  0.38273610841E+02  0.37098058586E+03  0.50400001928E-02 0. -1.
</event>
<event>
 5   0  0.1637228E-03  0.7997499E+03  0.7818609E-02  0.9560379E-01
       -1   -1    0    0    0  501  0.00000000000E+00  0.00000000000E+00  0.38812876816E+03  0.38812876820E+03  0.50400001928E-02 0. -1.
        1   -1    0    0  501    0  0.00000000000E+00  0.00000000000E+00 -0.41197659530E+03  0.41197659533E+03  0.50400001928E-02 0.  1.
    10030    2    1    2    0    0  0.00000000000E+00  0.00000000000E+00 -0.23847827139E+02  0.80010536353E+03  0.79974988208E+03 0.  0.
        2    1    3    3  502    0  0.20414933112E+02 -0.18662154123E+03  0.34129901955E+03  0.38952456905E+03  0.25500000920E-02 0. -1.
       -2    1    3    3    0  502 -0.20414933112E+02  0.18662154123E+03 -0.36514684668E+03  0.41058079448E+03  0.25500000920E-02 0.  1.
</event>
<event>
 5   0  0.2873212E-03  0.7983777E+03  0.7818609E-02  0.9562368E-01
        2   -1    0    0  501    0  0.00000000000E+00  0.00000000000E+00  0.84583865223E+03  0.84583865224E+03  0.25500000920E-02 0. -1.
       -2   -1    0    0    0  501  0.00000000000E+00  0.00000000000E+00 -0.18839495351E+03  0.18839495353E+03  0.25500000920E-02 0.  1.
    10030    2    1    2    0    0  0.00000000000E+00  0.00000000000E+00  0.65744369872E+03  0.10342336058E+04  0.79837768901E+03 0.  0.
        2    1    3    3  502    0  0.32635402315E+03 -0.22027687962E+03  0.41389386326E+03  0.57125911999E+03  0.25500000920E-02 0.  1.
       -2    1    3    3    0  502 -0.32635402315E+03  0.22027687962E+03  0.24354983547E+03  0.46297448578E+03  0.25500000920E-02 0. -1.
</event>
<event>
 5   0  0.1712793E-03  0.7995208E+03  0.7818609E-02  0.9560711E-01
        1   -1    0    0  501    0  0.00000000000E+00  0.00000000000E+00  0.44946823138E+03  0.44946823141E+03  0.50400001928E-02 0. -1.
       -1   -1    0    0    0  501  0.00000000000E+00  0.00000000000E+00 -0.35554985567E+03  0.35554985570E+03  0.50400001928E-02 0.  1.
    10030    2    1    2    0    0  0.00000000000E+00  0.00000000000E+00  0.93918375709E+02  0.80501808711E+03  0.79952076851E+03 0.  0.
        4    1    3    3  502    0  0.32175363496E+03 -0.34724245640E+02 -0.18933629353E+03  0.37494135513E+03  0.12699999809E+01 0.  1.
       -4    1    3    3    0  502 -0.32175363496E+03  0.34724245640E+02  0.28325466924E+03  0.43007673198E+03  0.12699999809E+01 0. -1.
</event>
<event>
 5   0  0.2690809E-03  0.8001769E+03  0.7818609E-02  0.9559761E-01
        2   -1    0    0  501    0  0.00000000000E+00  0.00000000000E+00  0.10748386377E+04  0.10748386377E+04  0.25500000920E-02 0.  1.
       -2   -1    0    0    0  501  0.00000000000E+00  0.00000000000E+00 -0.14892540184E+03  0.14892540186E+03  0.25500000920E-02 0. -1.
    10030    2    1    2    0    0  0.00000000000E+00  0.00000000000E+00  0.92591323584E+03  0.12237640395E+04  0.80017692055E+03 0.  0.
        5    1    3    3  502    0 -0.73569178077E+02  0.39296744489E+03  0.44064413905E+03  0.59500015460E+03  0.46999998093E+01 0. -1.
       -5    1    3    3    0  502  0.73569178077E+02 -0.39296744489E+03  0.48526909679E+03  0.62876388494E+03  0.46999998093E+01 0.  1.
</event>
<event>
 5   0  0.1712793E-03  0.8001006E+03  0.7818609E-02  0.9559871E-01
       -1   -1    0    0    0  501  0.00000000000E+00  0.00000000000E+00  0.75209115756E+02  0.75209115924E+02  0.50400001928E-02 0.  1.
        1   -1    0    0  501    0  0.00000000000E+00  0.00000000000E+00 -0.21279369803E+04  0.21279369803E+04  0.50400001928E-02 0. -1.
    10030    2    1    2    0    0  0.00000000000E+00  0.00000000000E+00 -0.20527278646E+04  0.22031460963E+04  0.80010064084E+03 0.  0.
        4    1    3    3  502    0  0.33176909101E+03 -0.19866493763E+03 -0.74420317515E+03  0.83867661587E+03  0.12699999809E+01 0.  1.
       -4    1    3    3    0  502 -0.33176909101E+03  0.19866493763E+03 -0.13085246894E+04  0.13644694804E+04  0.12699999809E+01 0. -1.
</event>
<event>
 5   0  0.2910501E-03  0.7997404E+03  0.7818609E-02  0.9560393E-01
        2   -1    0    0  501    0  0.00000000000E+00  0.00000000000E+00  0.11207392275E+04  0.11207392275E+04  0.25500000920E-02 0.  1.
       -2   -1    0    0    0  501  0.00000000000E+00  0.00000000000E+00 -0.14267029289E+03  0.14267029292E+03  0.25500000920E-02 0. -1.
    10030    2    1    2    0    0  0.00000000000E+00  0.00000000000E+00  0.97806893464E+03  0.12634095205E+04  0.79974044256E+03 0.  0.
        1    1    3    3  502    0  0.20370486119E+03  0.25960006400E+02  0.10310757820E+04  0.10513262389E+04  0.50400001928E-02 0.  1.
       -1    1    3    3    0  502 -0.20370486119E+03 -0.25960006400E+02 -0.53006847366E+02  0.21208328152E+03  0.50400001928E-02 0. -1.
</event>
<event>
 5   0  0.1637228E-03  0.8003793E+03  0.7818609E-02  0.9559468E-01
       -1   -1    0    0    0  501  0.00000000000E+00  0.00000000000E+00  0.53432398390E+03  0.53432398392E+03  0.50400001928E-02 0. -1.
        1   -1    0    0  501    0  0.00000000000E+00  0.00000000000E+00 -0.29972781604E+03  0.29972781609E+03  0.50400001928E-02 0.  1.
    10030    2    1    2    0    0  0.00000000000E+00  0.00000000000E+00  0.23459616786E+03  0.83405180001E+03  0.80037931203E+03 0.  0.
        2    1    3    3  502    0  0.65805643550E+02  0.25257612893E+03 -0.19882342035E+03  0.32810948800E+03  0.25500000920E-02 0.  1.
       -2    1    3    3    0  502 -0.65805643550E+02 -0.25257612893E+03  0.43341958821E+03  0.50594231201E+03  0.25500000920E-02 0. -1.
</event>
<event>
 5   0  0.1637228E-03  0.7997022E+03  0.7818609E-02  0.9560448E-01
        1   -1    0    0  501    0  0.00000000000E+00  0.00000000000E+00  0.43592101099E+03  0.43592101102E+03  0.50400001928E-02 0. -1.
       -1   -1    0    0    0  501  0.00000000000E+00  0.00000000000E+00 -0.36676574722E+03  0.36676574725E+03  0.50400001928E-02 0.  1.
    10030    2    1    2    0    0  0.00000000000E+00  0.00000000000E+00  0.69155263771E+02  0.80268675827E+03  0.79970218294E+03 0.  0.
        2    1    3    3  502    0 -0.13682670210E+03  0.23239911343E+02 -0.34181422076E+03  0.36891543937E+03  0.25500000920E-02 0.  1.
       -2    1    3    3    0  502  0.13682670210E+03 -0.23239911343E+02  0.41096948453E+03  0.43377131891E+03  0.25500000920E-02 0. -1.
</event>
<event>
 5   0  0.1656051E-03  0.8012691E+03  0.7818609E-02  0.9558182E-01
        1   -1    0    0  501    0  0.00000000000E+00  0.00000000000E+00  0.22231863722E+03  0.22231863727E+03  0.50400001928E-02 0. -1.
       -1   -1    0    0    0  501  0.00000000000E+00  0.00000000000E+00 -0.72197298656E+03  0.72197298658E+03  0.50400001928E-02 0.  1.
    10030    2    1    2    0    0  0.00000000000E+00  0.00000000000E+00 -0.49965434935E+03  0.94429162385E+03  0.80126911962E+03 0.  0.
        3    1    3    3  502    0  0.19947539195E+03 -0.14184117294E+03 -0.62361391773E+03  0.66992811475E+03  0.10100000352E+00 0.  1.
       -3    1    3    3    0  502 -0.19947539195E+03  0.14184117294E+03  0.12395956839E+03  0.27436350911E+03  0.10100000352E+00 0. -1.
</event>
<event>
 5   0  0.1640035E-03  0.8025136E+03  0.7818609E-02  0.9556386E-01
       -1   -1    0    0    0  501  0.00000000000E+00  0.00000000000E+00  0.33845576738E+03  0.33845576741E+03  0.50400001928E-02 0.  1.
        1   -1    0    0  501    0  0.00000000000E+00  0.00000000000E+00 -0.47571061258E+03  0.47571061261E+03  0.50400001928E-02 0. -1.
    10030    2    1    2    0    0  0.00000000000E+00  0.00000000000E+00 -0.13725484521E+03  0.81416638002E+03  0.80251355243E+03 0.  0.
        5    1    3    3  502    0  0.20602902119E+03 -0.25098293137E+03  0.17047358298E+03  0.36677475636E+03  0.46999998093E+01 0.  1.
       -5    1    3    3    0  502 -0.20602902119E+03  0.25098293137E+03 -0.30772842818E+03  0.44739162366E+03  0.46999998093E+01 0. -1.
</event>
<event>
 5   0  0.1712793E-03  0.7985234E+03  0.7818609E-02  0.9562157E-01
        1   -1    0    0  501    0  0.00000000000E+00  0.00000000000E+00  0.11931534345E+04  0.11931534346E+04  0.50400001928E-02 0. -1.
       -1   -1    0    0    0  501  0.00000000000E+00  0.00000000000E+00 -0.13360387622E+03  0.13360387632E+03  0.50400001928E-02 0.  1.
    10030    2    1    2    0    0  0.00000000000E+00  0.00000000000E+00  0.10595495583E+04  0.13267573109E+04  0.79852344700E+03 0.  0.
        4    1    3    3  502    0 -0.19689722650E+03 -0.33917900459E+03  0.65408213625E+03  0.76265062041E+03  0.12699999809E+01 0.  1.
       -4    1    3    3    0  502  0.19689722650E+03  0.33917900459E+03  0.40546742208E+03  0.56410669046E+03  0.12699999809E+01 0. -1.
</event>
<event>
 5   0  0.2768834E-03  0.7971554E+03  0.7818609E-02  0.9564144E-01
       -2   -1    0    0    0  501  0.00000000000E+00  0.00000000000E+00  0.19505343152E+03  0.19505343154E+03  0.25500000920E-02 0. -1.
        2   -1    0    0  501    0  0.00000000000E+00  0.00000000000E+00 -0.81446495655E+03  0.81446495656E+03  0.25500000920E-02 0.  1.
    10030    2    1    2    0    0  0.00000000000E+00  0.00000000000E+00 -0.61941152503E+03  0.10095183881E+04  0.79715540428E+03 0.  0.
        4    1    3    3  502    0 -0.21018185430E+03  0.26023589511E+02 -0.73730869912E+03  0.76712409021E+03  0.12699999809E+01 0.  1.
       -4    1    3    3    0  502  0.21018185430E+03 -0.26023589511E+02  0.11789717409E+03  0.24239429788E+03  0.12699999809E+01 0. -1.
</event>
<event>
 5   0  0.2910501E-03  0.8014576E+03  0.7818609E-02  0.9557910E-01
       -2   -1    0    0    0  501  0.00000000000E+00  0.00000000000E+00  0.10131137017E+04  0.10131137017E+04  0.25500000920E-02 0. -1.
        2   -1    0    0  501    0  0.00000000000E+00  0.00000000000E+00 -0.15850498149E+03  0.15850498151E+03  0.25500000920E-02 0.  1.
    10030    2    1    2    0    0  0.00000000000E+00  0.00000000000E+00  0.85460872018E+03  0.11716186832E+04  0.80145759351E+03 0.  0.
        1    1    3    3  502    0 -0.28561411092E+03  0.11221264557E+03  0.80404601076E+03  0.86061436523E+03  0.50400001928E-02 0. -1.
       -1    1    3    3    0  502  0.28561411092E+03 -0.11221264557E+03  0.50562709414E+02  0.31100431796E+03  0.50400001928E-02 0.  1.
</event>
<event>
 5   0  0.2690809E-03  0.7999825E+03  0.7818609E-02  0.9560042E-01
        2   -1    0    0  501    0  0.00000000000E+00  0.00000000000E+00  0.12417278832E+04  0.12417278833E+04  0.25500000920E-02 0. -1.
       -2   -1    0    0    0  501  0.00000000000E+00  0.00000000000E+00 -0.12884705696E+03  0.12884705698E+03  0.25500000920E-02 0.  1.
    10030    2    1    2    0    0  0.00000000000E+00  0.00000000000E+00  0.11128808263E+04  0.13705749402E+04  0.79998245811E+03 0.  0.
        5    1    3    3  502    0 -0.33283804457E+03 -0.42205931269E+01  0.17653027036E+03  0.37680764810E+03  0.46999998093E+01 0.  1.
       -5    1    3    3    0  502  0.33283804457E+03  0.42205931269E+01  0.93635055593E+03  0.99376729213E+03  0.46999998093E+01 0. -1.
</event>
<event>
 5   0  0.2873212E-03  0.7993289E+03  0.7818609E-02  0.9560989E-01
       -2   -1    0    0    0  501  0.00000000000E+00  0.00000000000E+00  0.72397874098E+02  0.72397874142E+02  0.25500000920E-02 0.  1.
        2   -1    0    0  501    0  0.00000000000E+00  0.00000000000E+00 -0.22063031462E+04  0.22063031462E+04  0.25500000920E-02 0. -1.
    10030    2    1    2    0    0  0.00000000000E+00  0.00000000000E+00 -0.21339052721E+04  0.22787010204E+04  0.79932886212E+03 0.  0.
        2    1    3    3  502    0 -0.73804393673E+02  0.21733779394E+03 -0.13422926336E+03  0.26589528079E+03  0.25500000920E-02 0.  1.
       -2    1    3    3    0  502  0.73804393673E+02 -0.21733779394E+03 -0.19996760088E+04  0.20128057396E+04  0.25500000920E-02 0. -1.
</event>
<event>
 5   0  0.1637228E-03  0.8015857E+03  0.7818609E-02  0.9557725E-01
       -1   -1    0    0    0  501  0.00000000000E+00  0.00000000000E+00  0.63926375045E+03  0.63926375047E+03  0.50400001928E-02 0. -1.
        1   -1    0    0  501    0  0.00000000000E+00  0.00000000000E+00 -0.25128111190E+03  0.25128111195E+03  0.50400001928E-02 0.  1.
    10030    2    1    2    0    0  0.00000000000E+00  0.00000000000E+00  0.38798263855E+03  0.89054486242E+03  0.80158569359E+03 0.  0.
        2    1    3    3  502    0 -0.23907153331E+03 -0.29385812546E+03  0.48596848888E+02  0.38192859236E+03  0.25500000920E-02 0. -1.
       -2    1    3    3    0  502  0.23907153331E+03  0.29385812546E+03  0.33938578967E+03  0.50861627006E+03  0.25500000920E-02 0.  1.
</event>
<event>
 5   0  0.1617491E-03  0.7998152E+03  0.7818609E-02  0.9560285E-01
        1   -1    0    0  501    0  0.00000000000E+00  0.00000000000E+00  0.10174088504E+04  0.10174088504E+04  0.50400001928E-02 0. -1.
       -1   -1    0    0    0  501  0.00000000000E+00  0.00000000000E+00 -0.15718961529E+03  0.15718961537E+03  0.50400001928E-02 0.  1.
    10030    2    1    2    0    0  0.00000000000E+00  0.00000000000E+00  0.86021923511E+03  0.11745984658E+04  0.79981524327E+03 0.  0.
        1    1    3    3  502    0 -0.20531835160E+03  0.27846528208E+03  0.72466138683E+03  0.80301473486E+03  0.50400001928E-02 0.  1.
       -1    1    3    3    0  502  0.20531835160E+03 -0.27846528208E+03  0.13555784828E+03  0.37158373092E+03  0.50400001928E-02 0. -1.
</event>
<event>
 5   0  0.2690809E-03  0.7967894E+03  0.7818609E-02  0.9564676E-01
        2   -1    0    0  501    0  0.00000000000E+00  0.00000000000E+00  0.13818649611E+04  0.13818649611E+04  0.25500000920E-02 0.  1.
       -2   -1    0    0    0  501  0.00000000000E+00  0.00000000000E+00 -0.11485807059E+03  0.11485807061E+03  0.25500000920E-02 0. -1.
    10030    2    1    2    0    0  0.00000000000E+00  0.00000000000E+00  0.12670068905E+04  0.14967230317E+04  0.79678941576E+03 0.  0.
        5    1    3    3  502    0  0.26436090251E+03 -0.67745879424E+02  0.11786404510E+04  0.12098312253E+04  0.46999998093E+01 0.  1.
       -5    1    3    3    0  502 -0.26436090251E+03  0.67745879424E+02  0.88366439487E+02  0.28689180640E+03  0.46999998093E+01 0. -1.
</event>
<event>
 5   0  0.2910501E-03  0.8009535E+03  0.7818609E-02  0.9558638E-01
        2   -1    0    0  501    0  0.00000000000E+00  0.00000000000E+00  0.92443705720E+03  0.92443705720E+03  0.25500000920E-02 0.  1.
       -2   -1    0    0    0  501  0.00000000000E+00  0.00000000000E+00 -0.17349112595E+03  0.17349112597E+03  0.25500000920E-02 0. -1.
    10030    2    1    2    0    0  0.00000000000E+00  0.00000000000E+00  0.75094593124E+03  0.10979281832E+04  0.80095349662E+03 0.  0.
        1    1    3    3  502    0 -0.73673622642E+02 -0.22796412502E+03  0.81537513970E+03  0.84984237564E+03  0.50400001928E-02 0.  1.
       -1    1    3    3    0  502  0.73673622642E+02  0.22796412502E+03 -0.64429208457E+02  0.24808580753E+03  0.50400001928E-02 0. -1.
</event>
<event>
 5   0  0.1640035E-03  0.7991094E+03  0.7818609E-02  0.9561307E-01
       -1   -1    0    0    0  501  0.00000000000E+00  0.00000000000E+00  0.16376048016E+03  0.16376048024E+03  0.50400001928E-02 0.  1.
        1   -1    0    0  501    0  0.00000000000E+00  0.00000000000E+00 -0.97486258982E+03  0.97486258983E+03  0.50400001928E-02 0. -1.
    10030    2    1    2    0    0  0.00000000000E+00  0.00000000000E+00 -0.81110210966E+03  0.11386230701E+04  0.79910941892E+03 0.  0.
        5    1    3    3  502    0 -0.19421777367E+03  0.34460797333E+03 -0.48547921376E+03  0.62624863743E+03  0.46999998093E+01 0.  1.
       -5    1    3    3    0  502  0.19421777367E+03 -0.34460797333E+03 -0.32562289590E+03  0.51237443264E+03  0.46999998093E+01 0. -1.
</event>
<event>
 5   0  0.1656051E-03  0.8012748E+03  0.7818609E-02  0.9558174E-01
       -1   -1    0    0    0  501  0.00000000000E+00  0.00000000000E+00  0.13768767886E+03  0.13768767896E+03  0.50400001928E-02 0.  1.
        1   -1    0    0  501    0  0.00000000000E+00  0.00000000000E+00 -0.11657567664E+04  0.11657567665E+04  0.50400001928E-02 0. -1.
    10030    2    1    2    0    0  0.00000000000E+00  0.00000000000E+00 -0.10280690876E+04  0.13034444454E+04  0.80127484263E+03 0.  0.
        3    1    3    3  502    0  0.13529313939E+03  0.36859654879E+03 -0.64358756614E+03  0.75390491101E+03  0.10100000352E+00 0.  1.
       -3    1    3    3    0  502 -0.13529313939E+03 -0.36859654879E+03 -0.38448152144E+03  0.54953953441E+03  0.10100000352E+00 0. -1.
</event>
<event>
 5   0  0.2690809E-03  0.8002994E+03  0.7818609E-02  0.9559584E-01
        2   -1    0    0  501    0  0.00000000000E+00  0.00000000000E+00  0.11805294674E+04  0.11805294674E+04  0.25500000920E-02 0. -1.
       -2   -1    0    0    0  501  0.00000000000E+00  0.00000000000E+00 -0.13563387959E+03  0.13563387961E+03  0.25500000920E-02 0.  1.
    10030    2    1    2    0    0  0.00000000000E+00  0.00000000000E+00  0.10448955878E+04  0.13161633470E+04  0.80029942308E+03 0.  0.
        5    1    3    3  502    0  0.10978096004E+02 -0.78359094062E+02  0.11674894168E+04  0.11701770356E+04  0.46999998093E+01 0. -1.
       -5    1    3    3    0  502 -0.10978096004E+02  0.78359094062E+02 -0.12259382901E+03  0.14598631143E+03  0.46999998093E+01 0.  1.
</event>
<event>
 5   0  0.1656051E-03  0.8012515E+03  0.7818609E-02  0.9558207E-01
       -1   -1    0    0    0  501  0.00000000000E+00  0.00000000000E+00  0.23570669946E+03  0.23570669951E+03  0.50400001928E-02 0. -1.
        1   -1    0    0  501    0  0.00000000000E+00  0.00000000000E+00 -0.68093529603E+03  0.68093529604E+03  0.50400001928E-02 0.  1.
    10030    2    1    2    0    0  0.00000000000E+00  0.00000000000E+00 -0.44522859657E+03  0.91664199555E+03  0.80125154902E+03 0.  0.
        3    1    3    3  502    0  0.25069537659E+03  0.24681954841E+03 -0.33546510313E+01  0.35182286055E+03  0.10100000352E+00 0.  1.
       -3    1    3    3    0  502 -0.25069537659E+03 -0.24681954841E+03 -0.44187394554E+03  0.56481913500E+03  0.10100000352E+00 0. -1.
</event>
<event>
 5   0  0.2690809E-03  0.8005228E+03  0.7818609E-02  0.9559261E-01
        2   -1    0    0  501    0  0.00000000000E+00  0.00000000000E+00  0.38447636912E+03  0.38447636913E+03  0.25500000920E-02 0.  1.
       -2   -1    0    0    0  501  0.00000000000E+00  0.00000000000E+00 -0.41669453219E+03  0.41669453220E+03  0.25500000920E-02 0. -1.
    10030    2    1    2    0    0  0.00000000000E+00  0.00000000000E+00 -0.32218163072E+02  0.80117090132E+03  0.80052283109E+03 0.  0.
        5    1    3    3  502    0  0.22205254519E+03  0.14816528931E+03  0.28233834473E+03  0.38858373189E+03  0.46999998093E+01 0.  1.
       -5    1    3    3    0  502 -0.22205254519E+03 -0.14816528931E+03 -0.31455650780E+03  0.41258716944E+03  0.46999998093E+01 0. -1.
</event>
<event>
 5   0  0.1637228E-03  0.7995525E+03  0.7818609E-02  0.9560665E-01
        1   -1    0    0  501    0  0.00000000000E+00  0.00000000000E+00  0.15581497319E+04  0.15581497319E+04  0.50400001928E-02 0.  1.
       -1   -1    0    0    0  501  0.00000000000E+00  0.00000000000E+00 -0.10257104095E+03  0.10257104107E+03  0.50400001928E-02 0. -1.
    10030    2    1    2    0    0  0.00000000000E+00  0.00000000000E+00  0.14555786909E+04  0.16607207729E+04  0.79955247498E+03 0.  0.
        2    1    3    3  502    0 -0.30127577584E+03 -0.26212232923E+03  0.76641553785E+03  0.86421524243E+03  0.25500000920E-02 0.  1.
       -2    1    3    3    0  502  0.30127577584E+03  0.26212232923E+03  0.68916315307E+03  0.79650553051E+03  0.25500000920E-02 0. -1.
</event>
<event>
 5   0  0.2910501E-03  0.8096923E+03  0.7818609E-02  0.9546093E-01
        2   -1    0    0  501    0  0.00000000000E+00  0.00000000000E+00  0.10611152324E+04  0.10611152324E+04  0.25500000920E-02 0.  1.
       -2   -1    0    0    0  501  0.00000000000E+00  0.00000000000E+00 -0.15446051902E+03  0.15446051905E+03  0.25500000920E-02 0. -1.
    10030    2    1    2    0    0  0.00000000000E+00  0.00000000000E+00  0.90665471341E+03  0.12155757515E+04  0.80969231085E+03 0.  0.
        1    1    3    3  502    0  0.39867595737E+03 -0.57674658588E+02  0.39268741325E+03  0.56255869896E+03  0.50400001928E-02 0. -1.
       -1    1    3    3    0  502 -0.39867595737E+03  0.57674658588E+02  0.51396730016E+03  0.65301705252E+03  0.50400001928E-02 0.  1.
</event>
<event>
 5   0  0.1637228E-03  0.7991906E+03  0.7818609E-02  0.9561189E-01
       -1   -1    0    0    0  501  0.00000000000E+00  0.00000000000E+00  0.19948826594E+03  0.19948826601E+03  0.50400001928E-02 0. -1.
        1   -1    0    0  501    0  0.00000000000E+00  0.00000000000E+00 -0.80043014346E+03  0.80043014347E+03  0.50400001928E-02 0.  1.
    10030    2    1    2    0    0  0.00000000000E+00  0.00000000000E+00 -0.60094187751E+03  0.99991840948E+03  0.79919064400E+03 0.  0.
        2    1    3    3  502    0  0.34193440707E+03 -0.56720664482E+02 -0.51681022505E+02  0.35043872591E+03  0.25500000920E-02 0. -1.
       -2    1    3    3    0  502 -0.34193440707E+03  0.56720664482E+02 -0.54926085501E+03  0.64947968357E+03  0.25500000920E-02 0.  1.
</event>
<event>
 5   0  0.2768834E-03  0.8020243E+03  0.7818609E-02  0.9557092E-01
        2   -1    0    0  501    0  0.00000000000E+00  0.00000000000E+00  0.10727570045E+04  0.10727570045E+04  0.25500000920E-02 0. -1.
       -2   -1    0    0    0  501  0.00000000000E+00  0.00000000000E+00 -0.14990415525E+03  0.14990415527E+03  0.25500000920E-02 0.  1.
    10030    2    1    2    0    0  0.00000000000E+00  0.00000000000E+00  0.92285284921E+03  0.12226611597E+04  0.80202427036E+03 0.  0.
        4    1    3    3  502    0 -0.15893486562E+03 -0.22690129828E+03  0.19423385294E+02  0.27771094949E+03  0.12699999809E+01 0.  1.
       -4    1    3    3    0  502  0.15893486562E+03  0.22690129828E+03  0.90342946392E+03  0.94495021025E+03  0.12699999809E+01 0. -1.
</event>
<event>
 5   0  0.1712793E-03  0.8000728E+03  0.7818609E-02  0.9559912E-01
       -1   -1    0    0    0  501  0.00000000000E+00  0.00000000000E+00  0.41592137489E+03  0.41592137492E+03  0.50400001928E-02 0. -1.
        1   -1    0    0  501    0  0.00000000000E+00  0.00000000000E+00 -0.38475808910E+03  0.38475808913E+03  0.50400001928E-02 0.  1.
    10030    2    1    2    0    0  0.00000000000E+00  0.00000000000E+00  0.31163285793E+02  0.80067946405E+03  0.80007278030E+03 0.  0.
        4    1    3    3  502    0  0.12559718975E+03 -0.32850681102E+03  0.20634654743E+03  0.40776450250E+03  0.12699999809E+01 0. -1.
       -4    1    3    3    0  502 -0.12559718975E+03  0.32850681102E+03 -0.17518326164E+03  0.39291496156E+03  0.12699999809E+01 0.  1.
</event>
<event>
 5   0  0.1095350E-03  0.8001953E+03  0.7818609E-02  0.9559734E-01
       -4   -1    0    0    0  501  0.00000000000E+00  0.00000000000E+00  0.40813952433E+03  0.40814150025E+03  0.12699999809E+01 0. -1.
        4   -1    0    0  501    0  0.00000000000E+00  0.00000000000E+00 -0.39221027876E+03  0.39221233493E+03  0.12699999809E+01 0.  1.
    10030    2    1    2    0    0  0.00000000000E+00  0.00000000000E+00  0.15929245571E+02  0.80035383517E+03  0.80019530154E+03 0.  0.
        1    1    3    3  502    0 -0.16118189868E+03 -0.17019693677E+03 -0.31633953929E+03  0.39372237160E+03  0.50400001928E-02 0.  1.
       -1    1    3    3    0  502  0.16118189868E+03  0.17019693677E+03  0.33226878487E+03  0.40663146358E+03  0.50400001928E-02 0. -1.
</event>
<event>
 5   0  0.1656051E-03  0.7843719E+03  0.7818609E-02  0.9582918E-01
       -1   -1    0    0    0  501  0.00000000000E+00  0.00000000000E+00  0.22700406780E+03  0.22700406785E+03  0.50400001928E-02 0. -1.
        1   -1    0    0  501    0  0.00000000000E+00  0.00000000000E+00 -0.67756411743E+03  0.67756411745E+03  0.50400001928E-02 0.  1.
    10030    2    1    2    0    0  0.00000000000E+00  0.00000000000E+00 -0.45056004963E+03  0.90456818530E+03  0.78437187834E+03 0.  0.
        3    1    3    3  502    0 -0.43366756322E+02 -0.12030868086E+03  0.20228235014E+03  0.23931780883E+03  0.10100000352E+00 0. -1.
       -3    1    3    3    0  502  0.43366756322E+02  0.12030868086E+03 -0.65284239977E+03  0.66525037646E+03  0.10100000352E+00 0.  1.
</event>
<event>
 5   0  0.1637228E-03  0.7990533E+03  0.7818609E-02  0.9561388E-01
       -1   -1    0    0    0  501  0.00000000000E+00  0.00000000000E+00  0.23718495137E+03  0.23718495142E+03  0.50400001928E-02 0.  1.
        1   -1    0    0  501    0  0.00000000000E+00  0.00000000000E+00 -0.67298350395E+03  0.67298350397E+03  0.50400001928E-02 0. -1.
    10030    2    1    2    0    0  0.00000000000E+00  0.00000000000E+00 -0.43579855258E+03  0.91016845539E+03  0.79905333912E+03 0.  0.
        2    1    3    3  502    0  0.22807938898E+03 -0.20724105963E+03  0.71727462658E+02  0.31640779602E+03  0.25500000920E-02 0.  1.
       -2    1    3    3    0  502 -0.22807938898E+03  0.20724105963E+03 -0.50752601524E+03  0.59376065938E+03  0.25500000920E-02 0. -1.
</event>
<event>
 5   0  0.1656051E-03  0.8006302E+03  0.7818609E-02  0.9559105E-01
        1   -1    0    0  501    0  0.00000000000E+00  0.00000000000E+00  0.43170468570E+03  0.43170468573E+03  0.50400001928E-02 0.  1.
       -1   -1    0    0    0  501  0.00000000000E+00  0.00000000000E+00 -0.37120790888E+03  0.37120790891E+03  0.50400001928E-02 0. -1.
    10030    2    1    2    0    0  0.00000000000E+00  0.00000000000E+00  0.60496776819E+02  0.80291259464E+03  0.80063023589E+03 0.  0.
        3    1    3    3  502    0  0.36020882630E+03 -0.13303882745E+02  0.20488495954E+03  0.41461457848E+03  0.10100000352E+00 0.  1.
       -3    1    3    3    0  502 -0.36020882630E+03  0.13303882745E+02 -0.14438818272E+03  0.38829801616E+03  0.10100000352E+00 0. -1.
</event>
<event>
 5   0  0.1640035E-03  0.7976701E+03  0.7818609E-02  0.9563396E-01
       -1   -1    0    0    0  501  0.00000000000E+00  0.00000000000E+00  0.22216289707E+03  0.22216289713E+03  0.50400001928E-02 0. -1.
        1   -1    0    0  501    0  0.00000000000E+00  0.00000000000E+00 -0.71600346066E+03  0.71600346068E+03  0.50400001928E-02 0.  1.
    10030    2    1    2    0    0  0.00000000000E+00  0.00000000000E+00 -0.49384056359E+03  0.93816635781E+03  0.79767011520E+03 0.  0.
        5    1    3    3  502    0 -0.54664887908E+02 -0.20455495407E+03 -0.64440518827E+03  0.67831490907E+03  0.46999998093E+01 0.  1.
       -5    1    3    3    0  502  0.54664887908E+02  0.20455495407E+03  0.15056462468E+03  0.25985144873E+03  0.46999998093E+01 0. -1.
</event>
<event>
 5   0  0.1640035E-03  0.8007195E+03  0.7818609E-02  0.9558976E-01
       -1   -1    0    0    0  501  0.00000000000E+00  0.00000000000E+00  0.37080129819E+03  0.37080129823E+03  0.50400001928E-02 0. -1.
        1   -1    0    0  501    0  0.00000000000E+00  0.00000000000E+00 -0.43227443508E+03  0.43227443511E+03  0.50400001928E-02 0.  1.
    10030    2    1    2    0    0  0.00000000000E+00  0.00000000000E+00 -0.61473136890E+02  0.80307573334E+03  0.80071948079E+03 0.  0.
        5    1    3    3  502    0  0.24708917683E+03  0.31477027214E+03 -0.19194175394E+02  0.40065432969E+03  0.46999998093E+01 0. -1.
       -5    1    3    3    0  502 -0.24708917683E+03 -0.31477027214E+03 -0.42278961496E+02  0.40242140365E+03  0.46999998093E+01 0.  1.
</event>
<event>
 5   0  0.1640035E-03  0.7982209E+03  0.7818609E-02  0.9562596E-01
        1   -1    0    0  501    0  0.00000000000E+00  0.00000000000E+00  0.94100917751E+03  0.94100917752E+03  0.50400001928E-02 0. -1.
       -1   -1    0    0    0  501  0.00000000000E+00  0.00000000000E+00 -0.16927479537E+03  0.16927479545E+03  0.50400001928E-02 0.  1.
    10030    2    1    2    0    0  0.00000000000E+00  0.00000000000E+00  0.77173438214E+03  0.11102839730E+04  0.79822086170E+03 0.  0.
        5    1    3    3  502    0 -0.38854467989E+03 -0.33385047777E+02  0.26796008306E+03  0.47318730519E+03  0.46999998093E+01 0. -1.
       -5    1    3    3    0  502  0.38854467989E+03  0.33385047777E+02  0.50377429908E+03  0.63709666778E+03  0.46999998093E+01 0.  1.
</event>
<event>
 5   0  0.2768834E-03  0.8000108E+03  0.7818609E-02  0.9560002E-01
       -2   -1    0    0    0  501  0.00000000000E+00  0.00000000000E+00  0.83398068504E+02  0.83398068543E+02  0.25500000920E-02 0. -1.
        2   -1    0    0  501    0  0.00000000000E+00  0.00000000000E+00 -0.19185612856E+04  0.19185612856E+04  0.25500000920E-02 0.  1.
    10030    2    1    2    0    0  0.00000000000E+00  0.00000000000E+00 -0.18351632170E+04  0.20019593541E+04  0.80001076383E+03 0.  0.
        4    1    3    3  502    0  0.11322611330E+03 -0.44383308867E+02 -0.18711715657E+04  0.18751199087E+04  0.12699999809E+01 0.  1.
       -4    1    3    3    0  502 -0.11322611330E+03  0.44383308867E+02  0.36008348640E+02  0.12683944540E+03  0.12699999809E+01 0. -1.
</event>
<event>
 5   0  0.1712793E-03  0.8004681E+03  0.7818609E-02  0.9559340E-01
       -1   -1    0    0    0  501  0.00000000000E+00  0.00000000000E+00  0.23784207413E+03  0.23784207419E+03  0.50400001928E-02 0.  1.
        1   -1    0    0  501    0  0.00000000000E+00  0.00000000000E+00 -0.67350268171E+03  0.67350268173E+03  0.50400001928E-02 0. -1.
    10030    2    1    2    0    0  0.00000000000E+00  0.00000000000E+00 -0.43566060757E+03  0.91134475591E+03  0.80046805004E+03 0.  0.
        4    1    3    3  502    0  0.28474346917E+03  0.20584894433E+03  0.37589210206E+00  0.35136076234E+03  0.12699999809E+01 0.  1.
       -4    1    3    3    0  502 -0.28474346917E+03 -0.20584894433E+03 -0.43603649968E+03  0.55998399358E+03  0.12699999809E+01 0. -1.
</event>
<event>
 5   0  0.2763587E-03  0.7999986E+03  0.7818609E-02  0.9560019E-01
        2   -1    0    0  501    0  0.00000000000E+00  0.00000000000E+00  0.32525116243E+03  0.32525116244E+03  0.25500000920E-02 0. -1.
       -2   -1    0    0    0  501  0.00000000000E+00  0.00000000000E+00 -0.49192581461E+03  0.49192581462E+03  0.25500000920E-02 0.  1.
    10030    2    1    2    0    0  0.00000000000E+00  0.00000000000E+00 -0.16667465218E+03  0.81717697706E+03  0.79999860760E+03 0.  0.
        3    1    3    3  502    0 -0.85982427113E+02 -0.33355443960E+02 -0.48091722644E+03  0.48968045938E+03  0.10100000352E+00 0.  1.
       -3    1    3    3    0  502  0.85982427113E+02  0.33355443960E+02  0.31424257426E+03  0.32749651768E+03  0.10100000352E+00 0. -1.
</event>
<event>
 5   0  0.2910501E-03  0.7999133E+03  0.7818609E-02  0.9560143E-01
       -2   -1    0    0    0  501  0.00000000000E+00  0.00000000000E+00  0.22664780421E+03  0.22664780423E+03  0.25500000920E-02 0. -1.
        2   -1    0    0  501    0  0.00000000000E+00  0.00000000000E+00 -0.70578811527E+03  0.70578811528E+03  0.25500000920E-02 0.  1.
    10030    2    1    2    0    0  0.00000000000E+00  0.00000000000E+00 -0.47914031106E+03  0.93243591950E+03  0.79991331174E+03 0.  0.
        1    1    3    3  502    0 -0.79746422582E+02  0.15023043239E+03 -0.66153130318E+03  0.68304636727E+03  0.50400001928E-02 0.  1.
       -1    1    3    3    0  502  0.79746422582E+02 -0.15023043239E+03  0.18239099212E+03  0.24938955223E+03  0.50400001928E-02 0. -1.
</event>
<event>
 5   0  0.1712793E-03  0.8001456E+03  0.7818609E-02  0.9559806E-01
        1   -1    0    0  501    0  0.00000000000E+00  0.00000000000E+00  0.10170653276E+04  0.10170653276E+04  0.50400001928E-02 0.  1.
       -1   -1    0    0    0  501  0.00000000000E+00  0.00000000000E+00 -0.15737263584E+03  0.15737263592E+03  0.50400001928E-02 0. -1.
    10030    2    1    2    0    0  0.00000000000E+00  0.00000000000E+00  0.85969269176E+03  0.11744379635E+04  0.80014561546E+03 0.  0.
        4    1    3    3  502    0 -0.30996734786E+03 -0.11342044977E+03  0.98008899582E+02  0.34431281193E+03  0.12699999809E+01 0. -1.
       -4    1    3    3    0  502  0.30996734786E+03  0.11342044977E+03  0.76168379218E+03  0.83012515161E+03  0.12699999809E+01 0.  1.
</event>
<event>
 5   0  0.2910501E-03  0.7971726E+03  0.7818609E-02  0.9564119E-01
        2   -1    0    0  501    0  0.00000000000E+00  0.00000000000E+00  0.20027697099E+04  0.20027697099E+04  0.25500000920E-02 0.  1.
       -2   -1    0    0    0  501  0.00000000000E+00  0.00000000000E+00 -0.79325665817E+02  0.79325665858E+02  0.25500000920E-02 0. -1.
    10030    2    1    2    0    0  0.00000000000E+00  0.00000000000E+00  0.19234440441E+04  0.20820953758E+04  0.79717260556E+03 0.  0.
        1    1    3    3  502    0 -0.15967186822E+03  0.24144201400E+03  0.16773960731E+04  0.17021888667E+04  0.50400001928E-02 0.  1.
       -1    1    3    3    0  502  0.15967186822E+03 -0.24144201400E+03  0.24604797100E+03  0.37990650914E+03  0.50400001928E-02 0. -1.
</event>
<event>
 5   0  0.2763587E-03  0.7993019E+03  0.7818609E-02  0.9561028E-01
        2   -1    0    0  501    0  0.00000000000E+00  0.00000000000E+00  0.91583936374E+03  0.91583936374E+03  0.25500000920E-02 0. -1.
       -2   -1    0    0    0  501  0.00000000000E+00  0.00000000000E+00 -0.17439837810E+03  0.17439837812E+03  0.25500000920E-02 0.  1.
    10030    2    1    2    0    0  0.00000000000E+00  0.00000000000E+00  0.74144098564E+03  0.10902377419E+04  0.79930194456E+03 0.  0.
        3    1    3    3  502    0 -0.78875940092E+02  0.33241280451E+03  0.87874099552E+02  0.35276274478E+03  0.10100000352E+00 0.  1.
       -3    1    3    3    0  502  0.78875940092E+02 -0.33241280451E+03  0.65356688609E+03  0.73747499708E+03  0.10100000352E+00 0. -1.
</event>
<event>
 5   0  0.1637228E-03  0.7977932E+03  0.7818609E-02  0.9563217E-01
        1   -1    0    0  501    0  0.00000000000E+00  0.00000000000E+00  0.12684575548E+03  0.12684575558E+03  0.50400001928E-02 0. -1.
       -1   -1    0    0    0  501  0.00000000000E+00  0.00000000000E+00 -0.12544251380E+04  0.12544251380E+04  0.50400001928E-02 0.  1.
    10030    2    1    2    0    0  0.00000000000E+00  0.00000000000E+00 -0.11275793825E+04  0.13812708936E+04  0.79779321732E+03 0.  0.
        2    1    3    3  502    0 -0.28816192161E+03  0.15809039194E+03 -0.17245289201E+03  0.37117363195E+03  0.25500000920E-02 0. -1.
       -2    1    3    3    0  502  0.28816192161E+03 -0.15809039194E+03 -0.95512649051E+03  0.10100972616E+04  0.25500000920E-02 0.  1.
</event>
<event>
 5   0  0.2763587E-03  0.7998722E+03  0.7818609E-02  0.9560202E-01
       -2   -1    0    0    0  501  0.00000000000E+00  0.00000000000E+00  0.21277281458E+03  0.21277281459E+03  0.25500000920E-02 0. -1.
        2   -1    0    0  501    0  0.00000000000E+00  0.00000000000E+00 -0.75173559689E+03  0.75173559689E+03  0.25500000920E-02 0.  1.
    10030    2    1    2    0    0  0.00000000000E+00  0.00000000000E+00 -0.53896278231E+03  0.96450841149E+03  0.79987223674E+03 0.  0.
        3    1    3    3  502    0  0.35583550660E+03 -0.18127601687E+03 -0.24336786126E+03  0.46766208756E+03  0.10100000352E+00 0.  1.
       -3    1    3    3    0  502 -0.35583550660E+03  0.18127601687E+03 -0.29559492105E+03  0.49684632393E+03  0.10100000352E+00 0. -1.
</event>
<event>
 5   0  0.1712793E-03  0.8002036E+03  0.7818609E-02  0.9559722E-01
       -1   -1    0    0    0  501  0.00000000000E+00  0.00000000000E+00  0.31780855519E+03  0.31780855523E+03  0.50400001928E-02 0. -1.
        1   -1    0    0  501    0  0.00000000000E+00  0.00000000000E+00 -0.50370408053E+03  0.50370408056E+03  0.50400001928E-02 0.  1.
    10030    2    1    2    0    0  0.00000000000E+00  0.00000000000E+00 -0.18589552534E+03  0.82151263579E+03  0.80020363934E+03 0.  0.
        4    1    3    3  502    0  0.17193496598E+03  0.16444103300E+03  0.23729735899E+03  0.33602698604E+03  0.12699999809E+01 0. -1.
       -4    1    3    3    0  502 -0.17193496598E+03 -0.16444103300E+03 -0.42319288433E+03  0.48548564975E+03  0.12699999809E+01 0.  1.
</event>
<event>
 5   0  0.1095350E-03  0.8009888E+03  0.7818609E-02  0.9558587E-01
        4   -1    0    0  501    0  0.00000000000E+00  0.00000000000E+00  0.24506194207E+03  0.24506523284E+03  0.12699999809E+01 0.  1.
       -4   -1    0    0    0  501  0.00000000000E+00  0.00000000000E+00 -0.65450280527E+03  0.65450403742E+03  0.12699999809E+01 0. -1.
    10030    2    1    2    0    0  0.00000000000E+00  0.00000000000E+00 -0.40944086320E+03  0.89956927027E+03  0.80098879614E+03 0.  0.
        3    1    3    3  502    0  0.13909258945E+03 -0.94768606459E+02  0.20341737994E+03  0.26401984371E+03  0.10100000352E+00 0.  1.
       -3    1    3    3    0  502 -0.13909258945E+03  0.94768606459E+02 -0.61285824314E+03  0.63554942656E+03  0.10100000352E+00 0. -1.
</event>
<event>
 5   0  0.1712793E-03  0.8043224E+03  0.7818609E-02  0.9553782E-01
        1   -1    0    0  501    0  0.00000000000E+00  0.00000000000E+00  0.19397255528E+04  0.19397255528E+04  0.50400001928E-02 0.  1.
       -1   -1    0    0    0  501  0.00000000000E+00  0.00000000000E+00 -0.83379639417E+02  0.83379639569E+02  0.50400001928E-02 0. -1.
    10030    2    1    2    0    0  0.00000000000E+00  0.00000000000E+00  0.18563459134E+04  0.20231051924E+04  0.80432236652E+03 0.  0.
        4    1    3    3  502    0 -0.76203360255E+02 -0.86963876897E+02 -0.40662782504E+02  0.12257545749E+03  0.12699999809E+01 0. -1.
       -4    1    3    3    0  502  0.76203360255E+02  0.86963876897E+02  0.18970086959E+04  0.19005297349E+04  0.12699999809E+01 0.  1.
</event>
<event>
 5   0  0.2910501E-03  0.8006325E+03  0.7818609E-02  0.9559102E-01
       -2   -1    0    0    0  501  0.00000000000E+00  0.00000000000E+00  0.27076320432E+03  0.27076320433E+03  0.25500000920E-02 0.  1.
        2   -1    0    0  501    0  0.00000000000E+00  0.00000000000E+00 -0.59185695625E+03  0.59185695625E+03  0.25500000920E-02 0. -1.
    10030    2    1    2    0    0  0.00000000000E+00  0.00000000000E+00 -0.32109375193E+03  0.86262016059E+03  0.80063246495E+03 0.  0.
        1    1    3    3  502    0 -0.22803650196E+03  0.12013658489E+03  0.16946782783E+03  0.30846845860E+03  0.50400001928E-02 0.  1.
       -1    1    3    3    0  502  0.22803650196E+03 -0.12013658489E+03 -0.49056157976E+03  0.55415170199E+03  0.50400001928E-02 0. -1.
</event>
<event>
 5   0  0.1617491E-03  0.8023297E+03  0.7818609E-02  0.9556651E-01
        1   -1    0    0  501    0  0.00000000000E+00  0.00000000000E+00  0.11452759279E+03  0.11452759291E+03  0.50400001928E-02 0.  1.
       -1   -1    0    0    0  501  0.00000000000E+00  0.00000000000E+00 -0.14051919925E+04  0.14051919925E+04  0.50400001928E-02 0. -1.
    10030    2    1    2    0    0  0.00000000000E+00  0.00000000000E+00 -0.12906643997E+04  0.15197195854E+04  0.80232974869E+03 0.  0.
        1    1    3    3  502    0  0.76056917287E+02  0.38048443149E+03 -0.45235170874E+03  0.59596570849E+03  0.50400001928E-02 0. -1.
       -1    1    3    3    0  502 -0.76056917287E+02 -0.38048443149E+03 -0.83831269100E+03  0.92375387695E+03  0.50400001928E-02 0.  1.
</event>
<event>
 5   0  0.1637228E-03  0.8022125E+03  0.7818609E-02  0.9556820E-01
        1   -1    0    0  501    0  0.00000000000E+00  0.00000000000E+00  0.62854368711E+03  0.62854368713E+03  0.50400001928E-02 0.  1.
       -1   -1    0    0    0  501  0.00000000000E+00  0.00000000000E+00 -0.25596662354E+03  0.25596662359E+03  0.50400001928E-02 0. -1.
    10030    2    1    2    0    0  0.00000000000E+00  0.00000000000E+00  0.37257706357E+03  0.88451031071E+03  0.80221245407E+03 0.  0.
        2    1    3    3  502    0  0.11351197682E+03  0.18023908565E+03 -0.18845392099E+03  0.28440460126E+03  0.25500000920E-02 0. -1.
       -2    1    3    3    0  502 -0.11351197682E+03 -0.18023908565E+03  0.56103098455E+03  0.60010570945E+03  0.25500000920E-02 0.  1.
</event>
<event>
 5   0  0.2873212E-03  0.7976689E+03  0.7818609E-02  0.9563397E-01
       -2   -1    0    0    0  501  0.00000000000E+00  0.00000000000E+00  0.98857193228E+02  0.98857193261E+02  0.25500000920E-02 0.  1.
        2   -1    0    0  501    0  0.00000000000E+00  0.00000000000E+00 -0.16090780064E+04  0.16090780064E+04  0.25500000920E-02 0. -1.
    10030    2    1    2    0    0  0.00000000000E+00  0.00000000000E+00 -0.15102208131E+04  0.17079351996E+04  0.79766894242E+03 0.  0.
        2    1    3    3  502    0 -0.60642732557E+02 -0.20620263609E+02  0.87772403556E+02  0.10865878297E+03  0.25500000920E-02 0.  1.
       -2    1    3    3    0  502  0.60642732557E+02  0.20620263609E+02 -0.15979932167E+04  0.15992764167E+04  0.25500000920E-02 0. -1.
</event>
<event>
 5   0  0.2873212E-03  0.8004485E+03  0.7818609E-02  0.9559368E-01
        2   -1    0    0  501    0  0.00000000000E+00  0.00000000000E+00  0.90607034066E+03  0.90607034066E+03  0.25500000920E-02 0.  1.
       -2   -1    0    0    0  501  0.00000000000E+00  0.00000000000E+00 -0.17678476837E+03  0.17678476839E+03  0.25500000920E-02 0. -1.
    10030    2    1    2    0    0  0.00000000000E+00  0.00000000000E+00  0.72928557229E+03  0.10828551091E+04  0.80044846258E+03 0.  0.
        2    1    3    3  502    0 -0.21875668756E+03  0.19117042361E+03 -0.77582520645E+01  0.29062141989E+03  0.25500000920E-02 0. -1.
       -2    1    3    3    0  502  0.21875668756E+03 -0.19117042361E+03  0.73704382436E+03  0.79223368916E+03  0.25500000920E-02 0.  1.
</event>
<event>
 5   0  0.1095350E-03  0.8036941E+03  0.7818609E-02  0.9554685E-01
        4   -1    0    0  501    0  0.00000000000E+00  0.00000000000E+00  0.12698586819E+04  0.12698593170E+04  0.12699999809E+01 0.  1.
       -4   -1    0    0    0  501  0.00000000000E+00  0.00000000000E+00 -0.12716074083E+03  0.12716708265E+03  0.12699999809E+01 0. -1.
    10030    2    1    2    0    0  0.00000000000E+00  0.00000000000E+00  0.11426979411E+04  0.13970263996E+04  0.80369408155E+03 0.  0.
        2    1    3    3  502    0  0.72499605540E+01 -0.24215937254E+03  0.11286420056E+04  0.11543511167E+04  0.25500000920E-02 0.  1.
       -2    1    3    3    0  502 -0.72499605540E+01  0.24215937254E+03  0.14055935443E+02  0.24267528297E+03  0.25500000920E-02 0. -1.
</event>
<event>
 5   0  0.2910501E-03  0.8001158E+03  0.7818609E-02  0.9559850E-01
        2   -1    0    0  501    0  0.00000000000E+00  0.00000000000E+00  0.38224792047E+03  0.38224792048E+03  0.25500000920E-02 0. -1.
       -2   -1    0    0    0  501  0.00000000000E+00  0.00000000000E+00 -0.41869764934E+03  0.41869764935E+03  0.25500000920E-02 0.  1.
    10030    2    1    2    0    0  0.00000000000E+00  0.00000000000E+00 -0.36449728870E+02  0.80094556983E+03  0.80011575606E+03 0.  0.
        1    1    3    3  502    0  0.26658002477E+03  0.27947901378E+01  0.28036889479E+03  0.38688426907E+03  0.50400001928E-02 0. -1.
       -1    1    3    3    0  502 -0.26658002477E+03 -0.27947901378E+01 -0.31681862366E+03  0.41406130076E+03  0.50400001928E-02 0.  1.
</event>
<event>
 5   0  0.1656051E-03  0.7987623E+03  0.7818609E-02  0.9561810E-01
       -1   -1    0    0    0  501  0.00000000000E+00  0.00000000000E+00  0.28654719831E+03  0.28654719835E+03  0.50400001928E-02 0.  1.
        1   -1    0    0  501    0  0.00000000000E+00  0.00000000000E+00 -0.55664581228E+03  0.55664581230E+03  0.50400001928E-02 0. -1.
    10030    2    1    2    0    0  0.00000000000E+00  0.00000000000E+00 -0.27009861397E+03  0.84319301066E+03  0.79876228751E+03 0.  0.
        3    1    3    3  502    0  0.65403085142E+02  0.32584022216E+03 -0.36885493130E+03  0.49649107190E+03  0.10100000352E+00 0. -1.
       -3    1    3    3    0  502 -0.65403085142E+02 -0.32584022216E+03  0.98756317336E+02  0.34670193876E+03  0.10100000352E+00 0.  1.
</event>
<event>
 5   0  0.2768834E-03  0.7996550E+03  0.7818609E-02  0.9560517E-01
       -2   -1    0    0    0  501  0.00000000000E+00  0.00000000000E+00  0.91822464123E+02  0.91822464158E+02  0.25500000920E-02 0. -1.
        2   -1    0    0  501    0  0.00000000000E+00  0.00000000000E+00 -0.17409903461E+04  0.17409903461E+04  0.25500000920E-02 0.  1.
    10030    2    1    2    0    0  0.00000000000E+00  0.00000000000E+00 -0.16491678820E+04  0.18328128103E+04  0.79965498467E+03 0.  0.
        4    1    3    3  502    0  0.26687654011E+03 -0.12774200723E+03 -0.14409554812E+04  0.14710184974E+04  0.12699999809E+01 0.  1.
       -4    1    3    3    0  502 -0.26687654011E+03  0.12774200723E+03 -0.20821240082E+03  0.36179431288E+03  0.12699999809E+01 0. -1.
</event>
<event>
 5   0  0.2690809E-03  0.8002405E+03  0.7818609E-02  0.9559669E-01
       -2   -1    0    0    0  501  0.00000000000E+00  0.00000000000E+00  0.29029711391E+03  0.29029711392E+03  0.25500000920E-02 0. -1.
        2   -1    0    0  501    0  0.00000000000E+00  0.00000000000E+00 -0.55149091087E+03  0.55149091088E+03  0.25500000920E-02 0.  1.
    10030    2    1    2    0    0  0.00000000000E+00  0.00000000000E+00 -0.26119379696E+03  0.84178802480E+03  0.80024051330E+03 0.  0.
        5    1    3    3  502    0  0.31252528105E+03 -0.30642601421E+02 -0.39138602079E+03  0.50181284120E+03  0.46999998093E+01 0.  1.
       -5    1    3    3    0  502 -0.31252528105E+03  0.30642601421E+02  0.13019222383E+03  0.33997518360E+03  0.46999998093E+01 0. -1.
</event>
<event>
 5   0  0.2763587E-03  0.8015252E+03  0.7818609E-02  0.9557812E-01
        2   -1    0    0  501    0  0.00000000000E+00  0.00000000000E+00  0.32045190477E+03  0.32045190478E+03  0.25500000920E-02 0.  1.
       -2   -1    0    0    0  501  0.00000000000E+00  0.00000000000E+00 -0.50120053531E+03  0.50120053532E+03  0.25500000920E-02 0. -1.
    10030    2    1    2    0    0  0.00000000000E+00  0.00000000000E+00 -0.18074863054E+03  0.82165244010E+03  0.80152521163E+03 0.  0.
        3    1    3    3  502    0  0.17131732172E+03 -0.28560859463E+03 -0.31888160010E+03  0.46109367717E+03  0.10100000352E+00 0. -1.
       -3    1    3    3    0  502 -0.17131732172E+03  0.28560859463E+03  0.13813296956E+03  0.36055876293E+03  0.10100000352E+00 0.  1.
</event>
<event>
 5   0  0.1617491E-03  0.8003490E+03  0.7818609E-02  0.9559512E-01
        1   -1    0    0  501    0  0.00000000000E+00  0.00000000000E+00  0.45840661277E+03  0.45840661280E+03  0.50400001928E-02 0. -1.
       -1   -1    0    0    0  501  0.00000000000E+00  0.00000000000E+00 -0.34933971172E+03  0.34933971176E+03  0.50400001928E-02 0.  1.
    10030    2    1    2    0    0  0.00000000000E+00  0.00000000000E+00  0.10906690105E+03  0.80774632455E+03  0.80034900883E+03 0.  0.
        1    1    3    3  502    0  0.11257709651E+03 -0.38399154161E+03  0.50430501875E+02  0.40331915679E+03  0.50400001928E-02 0. -1.
       -1    1    3    3    0  502 -0.11257709651E+03  0.38399154161E+03  0.58636399174E+02  0.40442716776E+03  0.50400001928E-02 0.  1.
</event>
<event>
 5   0  0.1095350E-03  0.7998776E+03  0.7818609E-02  0.9560194E-01
        4   -1    0    0  501    0  0.00000000000E+00  0.00000000000E+00  0.77334615410E+03  0.77334719690E+03  0.12699999809E+01 0.  1.
       -4   -1    0    0    0  501  0.00000000000E+00  0.00000000000E+00 -0.20682666076E+03  0.20683055988E+03  0.12699999809E+01 0. -1.
    10030    2    1    2    0    0  0.00000000000E+00  0.00000000000E+00  0.56651949334E+03  0.98017775679E+03  0.79987755223E+03 0.  0.
        1    1    3    3  502    0  0.32171551209E+03  0.21377131761E+03  0.15619487251E+03  0.41664839515E+03  0.50400001928E-02 0.  1.
       -1    1    3    3    0  502 -0.32171551209E+03 -0.21377131761E+03  0.41032462082E+03  0.56352936164E+03  0.50400001928E-02 0. -1.
</event>
<event>
 5   0  0.1637228E-03  0.8000325E+03  0.7818609E-02  0.9559970E-01
        1   -1    0    0  501    0  0.00000000000E+00  0.00000000000E+00  0.28993166401E+03  0.28993166406E+03  0.50400001928E-02 0. -1.
       -1   -1    0    0    0  501  0.00000000000E+00  0.00000000000E+00 -0.55189898669E+03  0.55189898672E+03  0.50400001928E-02 0.  1.
    10030    2    1    2    0    0  0.00000000000E+00  0.00000000000E+00 -0.26196732268E+03  0.84183065077E+03  0.80003247836E+03 0.  0.
        2    1    3    3  502    0  0.18274883134E+03  0.32339880910E+03 -0.28715997341E+03  0.46951546878E+03  0.25500000920E-02 0. -1.
       -2    1    3    3    0  502 -0.18274883134E+03 -0.32339880910E+03  0.25192650736E+02  0.37231518199E+03  0.25500000920E-02 0.  1.
</event>
<event>
 5   0  0.2873212E-03  0.8013105E+03  0.7818609E-02  0.9558122E-01
       -2   -1    0    0    0  501  0.00000000000E+00  0.00000000000E+00  0.21560919015E+03  0.21560919017E+03  0.25500000920E-02 0.  1.
        2   -1    0    0  501    0  0.00000000000E+00  0.00000000000E+00 -0.74451669335E+03  0.74451669336E+03  0.25500000920E-02 0. -1.
    10030    2    1    2    0    0  0.00000000000E+00  0.00000000000E+00 -0.52890750320E+03  0.96012588352E+03  0.80131052986E+03 0.  0.
        2    1    3    3  502    0 -0.14340447020E+03  0.31519598163E+03 -0.50591683009E+03  0.61307845165E+03  0.25500000920E-02 0. -1.
       -2    1    3    3    0  502  0.14340447020E+03 -0.31519598163E+03 -0.22990673113E+02  0.34704743187E+03  0.25500000920E-02 0.  1.
</event>
<event>
 5   0  0.2768834E-03  0.7999522E+03  0.7818609E-02  0.9560086E-01
       -2   -1    0    0    0  501  0.00000000000E+00  0.00000000000E+00  0.15815012267E+03  0.15815012269E+03  0.25500000920E-02 0. -1.
        2   -1    0    0  501    0  0.00000000000E+00  0.00000000000E+00 -0.10115760995E+04  0.10115760995E+04  0.25500000920E-02 0.  1.
    10030    2    1    2    0    0  0.00000000000E+00  0.00000000000E+00 -0.85342597683E+03  0.11697262222E+04  0.79995220917E+03 0.  0.
        4    1    3    3  502    0 -0.16062958335E+03 -0.18401814923E+03  0.36416608321E+02  0.24696624173E+03  0.12699999809E+01 0. -1.
       -4    1    3    3    0  502  0.16062958335E+03  0.18401814923E+03 -0.88984258515E+03  0.92275998046E+03  0.12699999809E+01 0.  1.
</event>
<event>
 5   0  0.2690809E-03  0.8010100E+03  0.7818609E-02  0.9558556E-01
        2   -1    0    0  501    0  0.00000000000E+00  0.00000000000E+00  0.11531700852E+04  0.11531700852E+04  0.25500000920E-02 0. -1.
       -2   -1    0    0    0  501  0.00000000000E+00  0.00000000000E+00 -0.13909852332E+03  0.13909852334E+03  0.25500000920E-02 0.  1.
    10030    2    1    2    0    0  0.00000000000E+00  0.00000000000E+00  0.10140715619E+04  0.12922686086E+04  0.80101000244E+03 0.  0.
        5    1    3    3  502    0  0.13855189692E+03  0.27687175727E+02  0.11115795212E+04  0.11205330561E+04  0.46999998093E+01 0. -1.
       -5    1    3    3    0  502 -0.13855189692E+03 -0.27687175727E+02 -0.97507959331E+02  0.17173555244E+03  0.46999998093E+01 0.  1.
</event>
<event>
 5   0  0.1712793E-03  0.7986816E+03  0.7818609E-02  0.9561927E-01
       -1   -1    0    0    0  501  0.00000000000E+00  0.00000000000E+00  0.77864566868E+03  0.77864566869E+03  0.50400001928E-02 0. -1.
        1   -1    0    0  501    0  0.00000000000E+00  0.00000000000E+00 -0.20480827306E+03  0.20480827312E+03  0.50400001928E-02 0.  1.
    10030    2    1    2    0    0  0.00000000000E+00  0.00000000000E+00  0.57383739562E+03  0.98345394181E+03  0.79868160055E+03 0.  0.
        4    1    3    3  502    0 -0.78862161298E+02  0.27812869533E+03  0.62614666502E+03  0.68966373738E+03  0.12699999809E+01 0. -1.
       -4    1    3    3    0  502  0.78862161298E+02 -0.27812869533E+03 -0.52309269398E+02  0.29379020443E+03  0.12699999809E+01 0.  1.
</event>
<event>
 5   0  0.1712793E-03  0.8015448E+03  0.7818609E-02  0.9557784E-01
       -1   -1    0    0    0  501  0.00000000000E+00  0.00000000000E+00  0.19755248044E+03  0.19755248050E+03  0.50400001928E-02 0.  1.
        1   -1    0    0  501    0  0.00000000000E+00  0.00000000000E+00 -0.81304234299E+03  0.81304234301E+03  0.50400001928E-02 0. -1.
    10030    2    1    2    0    0  0.00000000000E+00  0.00000000000E+00 -0.61548986256E+03  0.10105948235E+04  0.80154483742E+03 0.  0.
        4    1    3    3  502    0 -0.29782675980E+03 -0.78502950505E+02  0.15557107369E+02  0.30839443669E+03  0.12699999809E+01 0.  1.
       -4    1    3    3    0  502  0.29782675980E+03  0.78502950505E+02 -0.63104696993E+03  0.70220038682E+03  0.12699999809E+01 0. -1.
</event>
<event>
 5   0  0.2873212E-03  0.8002091E+03  0.7818609E-02  0.9559715E-01
       -2   -1    0    0    0  501  0.00000000000E+00  0.00000000000E+00  0.19528918201E+03  0.19528918203E+03  0.25500000920E-02 0. -1.
        2   -1    0    0  501    0  0.00000000000E+00  0.00000000000E+00 -0.81972611816E+03  0.81972611817E+03  0.25500000920E-02 0.  1.
    10030    2    1    2    0    0  0.00000000000E+00  0.00000000000E+00 -0.62443693615E+03  0.10150153002E+04  0.80020908042E+03 0.  0.
        2    1    3    3  502    0 -0.35030377480E+03 -0.16179338922E+03 -0.44642017310E+03  0.59006847602E+03  0.25500000920E-02 0.  1.
       -2    1    3    3    0  502  0.35030377480E+03  0.16179338922E+03 -0.17801676305E+03  0.42494682417E+03  0.25500000920E-02 0. -1.
</event>
<event>
 5   0  0.2910501E-03  0.8007139E+03  0.7818609E-02  0.9558984E-01
        2   -1    0    0  501    0  0.00000000000E+00  0.00000000000E+00  0.12249752794E+04  0.12249752794E+04  0.25500000920E-02 0.  1.
       -2   -1    0    0    0  501  0.00000000000E+00  0.00000000000E+00 -0.13084811088E+03  0.13084811091E+03  0.25500000920E-02 0. -1.
    10030    2    1    2    0    0  0.00000000000E+00  0.00000000000E+00  0.10941271685E+04  0.13558233903E+04  0.80071393444E+03 0.  0.
        1    1    3    3  502    0 -0.38556062282E+03  0.47153788128E+02  0.71127766355E+03  0.81042975531E+03  0.50400001928E-02 0.  1.
       -1    1    3    3    0  502  0.38556062282E+03 -0.47153788128E+02  0.38284950492E+03  0.54539363495E+03  0.50400001928E-02 0. -1.
</event>
<event>
 5   0  0.2910501E-03  0.8010632E+03  0.7818609E-02  0.9558479E-01
        2   -1    0    0  501    0  0.00000000000E+00  0.00000000000E+00  0.13145448216E+04  0.13145448216E+04  0.25500000920E-02 0.  1.
       -2   -1    0    0    0  501  0.00000000000E+00  0.00000000000E+00 -0.12203887201E+03  0.12203887203E+03  0.25500000920E-02 0. -1.
    10030    2    1    2    0    0  0.00000000000E+00  0.00000000000E+00  0.11925059496E+04  0.14365836937E+04  0.80106321162E+03 0.  0.
        1    1    3    3  502    0 -0.36542002038E+03 -0.13027054853E+03  0.41760688241E+03  0.56999799594E+03  0.50400001928E-02 0. -1.
       -1    1    3    3    0  502  0.36542002038E+03  0.13027054853E+03  0.77489906722E+03  0.86658569773E+03  0.50400001928E-02 0.  1.
</event>
<event>
 5   0  0.1637228E-03  0.8022499E+03  0.7818609E-02  0.9556766E-01
        1   -1    0    0  501    0  0.00000000000E+00  0.00000000000E+00  0.16779517623E+03  0.16779517631E+03  0.50400001928E-02 0.  1.
       -1   -1    0    0    0  501  0.00000000000E+00  0.00000000000E+00 -0.95891449313E+03  0.95891449314E+03  0.50400001928E-02 0. -1.
    10030    2    1    2    0    0  0.00000000000E+00  0.00000000000E+00 -0.79111931689E+03  0.11267096694E+04  0.80224990226E+03 0.  0.
        2    1    3    3  502    0  0.13642722028E+03 -0.31530869318E+03 -0.68634692328E+03  0.76753114434E+03  0.25500000920E-02 0. -1.
       -2    1    3    3    0  502 -0.13642722028E+03  0.31530869318E+03 -0.10477239361E+03  0.35917852511E+03  0.25500000920E-02 0.  1.
</event>
<event>
 5   0  0.2690809E-03  0.8008307E+03  0.7818609E-02  0.9558815E-01
        2   -1    0    0  501    0  0.00000000000E+00  0.00000000000E+00  0.19168490549E+03  0.19168490551E+03  0.25500000920E-02 0.  1.
       -2   -1    0    0    0  501  0.00000000000E+00  0.00000000000E+00 -0.83643764834E+03  0.83643764835E+03  0.25500000920E-02 0. -1.
    10030    2    1    2    0    0  0.00000000000E+00  0.00000000000E+00 -0.64475274285E+03  0.10281225539E+04  0.80083074762E+03 0.  0.
        5    1    3    3  502    0  0.22296636428E+03  0.29371617720E+03 -0.52261603811E+03  0.63963490027E+03  0.46999998093E+01 0.  1.
       -5    1    3    3    0  502 -0.22296636428E+03 -0.29371617720E+03 -0.12213670474E+03  0.38848765359E+03  0.46999998093E+01 0. -1.
</event>
<event>
 5   0  0.1712793E-03  0.7999328E+03  0.7818609E-02  0.9560114E-01
       -1   -1    0    0    0  501  0.00000000000E+00  0.00000000000E+00  0.67704840419E+03  0.67704840421E+03  0.50400001928E-02 0.  1.
        1   -1    0    0  501    0  0.00000000000E+00  0.00000000000E+00 -0.23628017461E+03  0.23628017466E+03  0.50400001928E-02 0. -1.
    10030    2    1    2    0    0  0.00000000000E+00  0.00000000000E+00  0.44076822958E+03  0.91332857887E+03  0.79993278515E+03 0.  0.
        4    1    3    3  502    0  0.28007050346E+03  0.27866265808E+03  0.29149583537E+03  0.49098248325E+03  0.12699999809E+01 0. -1.
       -4    1    3    3    0  502 -0.28007050346E+03 -0.27866265808E+03  0.14927239421E+03  0.42234609562E+03  0.12699999809E+01 0.  1.
</event>
<event>
 5   0  0.1617491E-03  0.8006232E+03  0.7818609E-02  0.9559116E-01
        1   -1    0    0  501    0  0.00000000000E+00  0.00000000000E+00  0.24576420187E+03  0.24576420192E+03  0.50400001928E-02 0.  1.
       -1   -1    0    0    0  501  0.00000000000E+00  0.00000000000E+00 -0.65204520480E+03  0.65204520482E+03  0.50400001928E-02 0. -1.
    10030    2    1    2    0    0  0.00000000000E+00  0.00000000000E+00 -0.40628100293E+03  0.89780940674E+03  0.80062318071E+03 0.  0.
        1    1    3    3  502    0  0.32451482242E+03 -0.60460251152E+02 -0.45708989500E+03  0.56382309643E+03  0.50400001928E-02 0. -1.
       -1    1    3    3    0  502 -0.32451482242E+03  0.60460251152E+02  0.50808892063E+02  0.33398631031E+03  0.50400001928E-02 0.  1.
</event>
<event>
 5   0  0.1617491E-03  0.7998290E+03  0.7818609E-02  0.9560265E-01
        1   -1    0    0  501    0  0.00000000000E+00  0.00000000000E+00  0.48870510518E+03  0.48870510521E+03  0.50400001928E-02 0. -1.
       -1   -1    0    0    0  501  0.00000000000E+00  0.00000000000E+00 -0.32725584156E+03  0.32725584160E+03  0.50400001928E-02 0.  1.
    10030    2    1    2    0    0  0.00000000000E+00  0.00000000000E+00  0.16144926362E+03  0.81596094680E+03  0.79982898296E+03 0.  0.
        1    1    3    3  502    0  0.39564657374E+03  0.53595028780E+02  0.10405423339E+03  0.41259656074E+03  0.50400001928E-02 0.  1.
       -1    1    3    3    0  502 -0.39564657374E+03 -0.53595028780E+02  0.57395030239E+02  0.40336438606E+03  0.50400001928E-02 0. -1.
</event>
<event>
 5   0  0.1637228E-03  0.8026416E+03  0.7818609E-02  0.9556201E-01
       -1   -1    0    0    0  501  0.00000000000E+00  0.00000000000E+00  0.34776971583E+03  0.34776971587E+03  0.50400001928E-02 0. -1.
        1   -1    0    0  501    0  0.00000000000E+00  0.00000000000E+00 -0.46311791027E+03  0.46311791030E+03  0.50400001928E-02 0.  1.
    10030    2    1    2    0    0  0.00000000000E+00  0.00000000000E+00 -0.11534819444E+03  0.81088762617E+03  0.80264159892E+03 0.  0.
        2    1    3    3  502    0  0.18122039528E+03  0.23964586536E+03 -0.32646652203E+03  0.44367934644E+03  0.25500000920E-02 0.  1.
       -2    1    3    3    0  502 -0.18122039528E+03 -0.23964586536E+03  0.21111832758E+03  0.36720827972E+03  0.25500000920E-02 0. -1.
</event>
<event>
 5   0  0.1095350E-03  0.7989093E+03  0.7818609E-02  0.9561597E-01
       -3   -1    0    0    0  501  0.00000000000E+00  0.00000000000E+00  0.40154553799E+03  0.40154555069E+03  0.10100000352E+00 0.  1.
        3   -1    0    0  501    0  0.00000000000E+00  0.00000000000E+00 -0.39737463080E+03  0.39737464363E+03  0.10100000352E+00 0. -1.
    10030    2    1    2    0    0  0.00000000000E+00  0.00000000000E+00  0.41709071955E+01  0.79892019432E+03  0.79890930676E+03 0.  0.
        3    1    3    3  502    0  0.12791537017E+03  0.95104555698E+02  0.36836464776E+03  0.40137232386E+03  0.10100000352E+00 0.  1.
       -3    1    3    3    0  502 -0.12791537017E+03 -0.95104555698E+02 -0.36419374057E+03  0.39754787046E+03  0.10100000352E+00 0. -1.
</event>
<event>
 5   0  0.1617491E-03  0.8003675E+03  0.7818609E-02  0.9559485E-01
       -1   -1    0    0    0  501  0.00000000000E+00  0.00000000000E+00  0.11901235067E+03  0.11901235077E+03  0.50400001928E-02 0.  1.
        1   -1    0    0  501    0  0.00000000000E+00  0.00000000000E+00 -0.13456337124E+04  0.13456337124E+04  0.50400001928E-02 0. -1.
    10030    2    1    2    0    0  0.00000000000E+00  0.00000000000E+00 -0.12266213618E+04  0.14646460632E+04  0.80036749394E+03 0.  0.
        1    1    3    3  502    0  0.12208655153E+03 -0.20896156661E+02 -0.13096732348E+04  0.13155172965E+04  0.50400001928E-02 0. -1.
       -1    1    3    3    0  502 -0.12208655153E+03  0.20896156661E+02  0.83051873018E+02  0.14912876673E+03  0.50400001928E-02 0.  1.
</event>
<event>
 5   0  0.2763587E-03  0.8017875E+03  0.7818609E-02  0.9557433E-01
        2   -1    0    0  501    0  0.00000000000E+00  0.00000000000E+00  0.11932114183E+04  0.11932114183E+04  0.25500000920E-02 0. -1.
       -2   -1    0    0    0  501  0.00000000000E+00  0.00000000000E+00 -0.13469179942E+03  0.13469179945E+03  0.25500000920E-02 0.  1.
    10030    2    1    2    0    0  0.00000000000E+00  0.00000000000E+00  0.10585196189E+04  0.13279032178E+04  0.80178748567E+03 0.  0.
        3    1    3    3  502    0  0.16857535801E+02  0.17520907738E+03  0.11257908204E+04  0.11394680245E+04  0.10100000352E+00 0. -1.
       -3    1    3    3    0  502 -0.16857535801E+02 -0.17520907738E+03 -0.67271201518E+02  0.18843519328E+03  0.10100000352E+00 0.  1.
</event>
<event>
 5   0  0.1656051E-03  0.8002432E+03  0.7818609E-02  0.9559665E-01
       -1   -1    0    0    0  501  0.00000000000E+00  0.00000000000E+00  0.18475265800E+03  0.18475265807E+03  0.50400001928E-02 0. -1.
        1   -1    0    0  501    0  0.00000000000E+00  0.00000000000E+00 -0.86654925722E+03  0.86654925724E+03  0.50400001928E-02 0.  1.
    10030    2    1    2    0    0  0.00000000000E+00  0.00000000000E+00 -0.68179659923E+03  0.10513019153E+04  0.80024315955E+03 0.  0.
        3    1    3    3  502    0 -0.29355181717E+03  0.11445629152E+03 -0.16898869647E+02  0.31552891156E+03  0.10100000352E+00 0. -1.
       -3    1    3    3    0  502  0.29355181717E+03 -0.11445629152E+03 -0.66489772958E+03  0.73577300374E+03  0.10100000352E+00 0.  1.
</event>
<event>
 5   0  0.2768834E-03  0.7999727E+03  0.7818609E-02  0.9560057E-01
       -2   -1    0    0    0  501  0.00000000000E+00  0.00000000000E+00  0.41600460392E+03  0.41600460393E+03  0.25500000920E-02 0. -1.
        2   -1    0    0  501    0  0.00000000000E+00  0.00000000000E+00 -0.38458484962E+03  0.38458484963E+03  0.25500000920E-02 0.  1.
    10030    2    1    2    0    0  0.00000000000E+00  0.00000000000E+00  0.31419754303E+02  0.80058945356E+03  0.79997266965E+03 0.  0.
        4    1    3    3  502    0 -0.21890721765E+03 -0.33958465553E+02 -0.31758429379E+03  0.38721433843E+03  0.12699999809E+01 0.  1.
       -4    1    3    3    0  502  0.21890721765E+03  0.33958465553E+02  0.34900404809E+03  0.41337511513E+03  0.12699999809E+01 0. -1.
</event>
<event>
 5   0  0.2763587E-03  0.7978608E+03  0.7818609E-02  0.9563119E-01
        2   -1    0    0  501    0  0.00000000000E+00  0.00000000000E+00  0.77394734763E+03  0.77394734763E+03  0.25500000920E-02 0.  1.
       -2   -1    0    0    0  501  0.00000000000E+00  0.00000000000E+00 -0.20562828993E+03  0.20562828995E+03  0.25500000920E-02 0. -1.
    10030    2    1    2    0    0  0.00000000000E+00  0.00000000000E+00  0.56831905770E+03  0.97957563758E+03  0.79786081392E+03 0.  0.
        3    1    3    3  502    0 -0.18486314073E+03 -0.30555482428E+02 -0.14824201797E+03  0.23892200485E+03  0.10100000352E+00 0. -1.
       -3    1    3    3    0  502  0.18486314073E+03  0.30555482428E+02  0.71656107567E+03  0.74065363273E+03  0.10100000352E+00 0.  1.
</event>
<event>
 5   0  0.2873212E-03  0.7998240E+03  0.7818609E-02  0.9560272E-01
        2   -1    0    0  501    0  0.00000000000E+00  0.00000000000E+00  0.88631017157E+03  0.88631017158E+03  0.25500000920E-02 0. -1.
       -2   -1    0    0    0  501  0.00000000000E+00  0.00000000000E+00 -0.18044429528E+03  0.18044429530E+03  0.25500000920E-02 0.  1.
    10030    2    1    2    0    0  0.00000000000E+00  0.00000000000E+00  0.70586587629E+03  0.10667544669E+04  0.79982401645E+03 0.  0.
        2    1    3    3  502    0  0.38912322547E+03  0.71215269989E+02  0.27469459858E+03  0.48160733152E+03  0.25500000920E-02 0.  1.
       -2    1    3    3    0  502 -0.38912322547E+03 -0.71215269989E+02  0.43117127771E+03  0.58514713535E+03  0.25500000920E-02 0. -1.
</event>
<event>
 5   0  0.1640035E-03  0.7979451E+03  0.7818609E-02  0.9562996E-01
       -1   -1    0    0    0  501  0.00000000000E+00  0.00000000000E+00  0.51183461655E+03  0.51183461657E+03  0.50400001928E-02 0.  1.
        1   -1    0    0  501    0  0.00000000000E+00  0.00000000000E+00 -0.31099710405E+03  0.31099710409E+03  0.50400001928E-02 0. -1.
    10030    2    1    2    0    0  0.00000000000E+00  0.00000000000E+00  0.20083751250E+03  0.82283172066E+03  0.79794506960E+03 0.  0.
        5    1    3    3  502    0 -0.53622535239E+02 -0.28565654730E+03  0.38222192154E+03  0.48019863245E+03  0.46999998093E+01 0.  1.
       -5    1    3    3    0  502  0.53622535239E+02  0.28565654730E+03 -0.18138440904E+03  0.34263308822E+03  0.46999998093E+01 0. -1.
</event>
<event>
 5   0  0.1617491E-03  0.8005101E+03  0.7818609E-02  0.9559279E-01
       -1   -1    0    0    0  501  0.00000000000E+00  0.00000000000E+00  0.99796254050E+03  0.99796254051E+03  0.50400001928E-02 0.  1.
        1   -1    0    0  501    0  0.00000000000E+00  0.00000000000E+00 -0.16053117368E+03  0.16053117376E+03  0.50400001928E-02 0. -1.
    10030    2    1    2    0    0  0.00000000000E+00  0.00000000000E+00  0.83743136682E+03  0.11584937143E+04  0.80051008231E+03 0.  0.
        1    1    3    3  502    0 -0.30277738113E+03  0.22824681107E+03  0.23319603593E+03  0.44514170832E+03  0.50400001928E-02 0. -1.
       -1    1    3    3    0  502  0.30277738113E+03 -0.22824681107E+03  0.60423533088E+03  0.71335200595E+03  0.50400001928E-02 0.  1.
</event>
<event>
 5   0  0.2910501E-03  0.7995770E+03  0.7818609E-02  0.9560630E-01
        2   -1    0    0  501    0  0.00000000000E+00  0.00000000000E+00  0.19169631189E+04  0.19169631189E+04  0.25500000920E-02 0. -1.
       -2   -1    0    0    0  501  0.00000000000E+00  0.00000000000E+00 -0.83377100752E+02  0.83377100791E+02  0.25500000920E-02 0.  1.
    10030    2    1    2    0    0  0.00000000000E+00  0.00000000000E+00  0.18335860181E+04  0.20003402197E+04  0.79957695600E+03 0.  0.
        1    1    3    3  502    0 -0.11936661560E+02  0.34045528036E+03  0.39334414555E+03  0.52035747201E+03  0.50400001928E-02 0. -1.
       -1    1    3    3    0  502  0.11936661560E+02 -0.34045528036E+03  0.14402418726E+04  0.14799827477E+04  0.50400001928E-02 0.  1.
</event>
<event>
 5   0  0.2768834E-03  0.7991522E+03  0.7818609E-02  0.9561245E-01
        2   -1    0    0  501    0  0.00000000000E+00  0.00000000000E+00  0.48497527616E+03  0.48497527617E+03  0.25500000920E-02 0. -1.
       -2   -1    0    0    0  501  0.00000000000E+00  0.00000000000E+00 -0.32921488371E+03  0.32921488372E+03  0.25500000920E-02 0.  1.
    10030    2    1    2    0    0  0.00000000000E+00  0.00000000000E+00  0.15576039245E+03  0.81419015988E+03  0.79915224870E+03 0.  0.
        4    1    3    3  502    0 -0.31089349103E+03 -0.93596751961E+02  0.31516699877E+03  0.45248973995E+03  0.12699999809E+01 0. -1.
       -4    1    3    3    0  502  0.31089349103E+03  0.93596751961E+02 -0.15940660632E+03  0.36170041994E+03  0.12699999809E+01 0.  1.
</event>
<event>
 5   0  0.2690809E-03  0.7989502E+03  0.7818609E-02  0.9561538E-01
        2   -1    0    0  501    0  0.00000000000E+00  0.00000000000E+00  0.12284338143E+04  0.12284338143E+04  0.25500000920E-02 0.  1.
       -2   -1    0    0    0  501  0.00000000000E+00  0.00000000000E+00 -0.12990552447E+03  0.12990552450E+03  0.25500000920E-02 0. -1.
    10030    2    1    2    0    0  0.00000000000E+00  0.00000000000E+00  0.10985282898E+04  0.13583393388E+04  0.79895015850E+03 0.  0.
        5    1    3    3  502    0  0.30482390623E+03 -0.23811220604E+03  0.71879624850E+03  0.81627518236E+03  0.46999998093E+01 0.  1.
       -5    1    3    3    0  502 -0.30482390623E+03  0.23811220604E+03  0.37973204129E+03  0.54206415641E+03  0.46999998093E+01 0. -1.
</event>
<event>
 5   0  0.2763587E-03  0.8049552E+03  0.7818609E-02  0.9552872E-01
        2   -1    0    0  501    0  0.00000000000E+00  0.00000000000E+00  0.44125059148E+03  0.44125059149E+03  0.25500000920E-02 0.  1.
       -2   -1    0    0    0  501  0.00000000000E+00  0.00000000000E+00 -0.36711159443E+03  0.36711159443E+03  0.25500000920E-02 0. -1.
    10030    2    1    2    0    0  0.00000000000E+00  0.00000000000E+00  0.74138997056E+02  0.80836218592E+03  0.80495517437E+03 0.  0.
        3    1    3    3  502    0  0.64737191271E+02 -0.77067778478E+01  0.43591281605E+03  0.44076103702E+03  0.10100000352E+00 0.  1.
       -3    1    3    3    0  502 -0.64737191271E+02  0.77067778478E+01 -0.36177381900E+03  0.36760114890E+03  0.10100000352E+00 0. -1.
</event>
<event>
 5   0  0.2768834E-03  0.7990336E+03  0.7818609E-02  0.9561417E-01
        2   -1    0    0  501    0  0.00000000000E+00  0.00000000000E+00  0.34810014692E+03  0.34810014693E+03  0.25500000920E-02 0.  1.
       -2   -1    0    0    0  501  0.00000000000E+00  0.00000000000E+00 -0.45852801960E+03  0.45852801961E+03  0.25500000920E-02 0. -1.
    10030    2    1    2    0    0  0.00000000000E+00  0.00000000000E+00 -0.11042787269E+03  0.80662816653E+03  0.79903359378E+03 0.  0.
        4    1    3    3  502    0 -0.96699667698E+02  0.23309790077E+02  0.33539770960E+03  0.34983911810E+03  0.12699999809E+01 0.  1.
       -4    1    3    3    0  502  0.96699667698E+02 -0.23309790077E+02 -0.44582558229E+03  0.45678904843E+03  0.12699999809E+01 0. -1.
</event>
<event>
 5   0  0.1095350E-03  0.8021162E+03  0.7818609E-02  0.9556959E-01
       -3   -1    0    0    0  501  0.00000000000E+00  0.00000000000E+00  0.99526883440E+03  0.99526883952E+03  0.10100000352E+00 0.  1.
        3   -1    0    0  501    0  0.00000000000E+00  0.00000000000E+00 -0.16161218359E+03  0.16161221515E+03  0.10100000352E+00 0. -1.
    10030    2    1    2    0    0  0.00000000000E+00  0.00000000000E+00  0.83365665081E+03  0.11568810547E+04  0.80211617813E+03 0.  0.
        3    1    3    3  502    0 -0.20201174869E+03 -0.20525042807E+03  0.14249350736E+02  0.28833927764E+03  0.10100000352E+00 0. -1.
       -3    1    3    3    0  502  0.20201174869E+03  0.20525042807E+03  0.81940730007E+03  0.86854177703E+03  0.10100000352E+00 0.  1.
</event>
<event>
 5   0  0.1640035E-03  0.7990078E+03  0.7818609E-02  0.9561454E-01
        1   -1    0    0  501    0  0.00000000000E+00  0.00000000000E+00  0.66432938658E+03  0.66432938660E+03  0.50400001928E-02 0. -1.
       -1   -1    0    0    0  501  0.00000000000E+00  0.00000000000E+00 -0.24024736502E+03  0.24024736507E+03  0.50400001928E-02 0.  1.
    10030    2    1    2    0    0  0.00000000000E+00  0.00000000000E+00  0.42408202156E+03  0.90457675167E+03  0.79900784643E+03 0.  0.
        5    1    3    3  502    0  0.12449445831E+03  0.34989918605E+02  0.63994551530E+03  0.65289778457E+03  0.46999998093E+01 0. -1.
       -5    1    3    3    0  502 -0.12449445831E+03 -0.34989918605E+02 -0.21586349373E+03  0.25167896710E+03  0.46999998093E+01 0.  1.
</event>
<event>
 5   0  0.1637228E-03  0.7989219E+03  0.7818609E-02  0.9561579E-01
       -1   -1    0    0    0  501  0.00000000000E+00  0.00000000000E+00  0.23409693079E+03  0.23409693085E+03  0.50400001928E-02 0. -1.
        1   -1    0    0  501    0  0.00000000000E+00  0.00000000000E+00 -0.68163668956E+03  0.68163668958E+03  0.50400001928E-02 0.  1.
    10030    2    1    2    0    0  0.00000000000E+00  0.00000000000E+00 -0.44753975877E+03  0.91573362043E+03  0.79892191602E+03 0.  0.
        2    1    3    3  502    0  0.35679929585E+03 -0.91618473083E+00 -0.42964966099E+03  0.55848492201E+03  0.25500000920E-02 0.  1.
       -2    1    3    3    0  502 -0.35679929585E+03  0.91618473083E+00 -0.17890097774E+02  0.35724869842E+03  0.25500000920E-02 0. -1.
</event>
<event>
 5   0  0.1095350E-03  0.8016475E+03  0.7818609E-02  0.9557635E-01
        3   -1    0    0  501    0  0.00000000000E+00  0.00000000000E+00  0.18219617053E+04  0.18219617081E+04  0.10100000352E+00 0. -1.
       -3   -1    0    0    0  501  0.00000000000E+00  0.00000000000E+00 -0.88179470703E+02  0.88179528545E+02  0.10100000352E+00 0.  1.
    10030    2    1    2    0    0  0.00000000000E+00  0.00000000000E+00  0.17337822346E+04  0.19101412367E+04  0.80164749544E+03 0.  0.
        1    1    3    3  502    0  0.40289623303E+02  0.38354660348E+02  0.18127196036E+04  0.18135729087E+04  0.50400001928E-02 0. -1.
       -1    1    3    3    0  502 -0.40289623303E+02 -0.38354660348E+02 -0.78937369013E+02  0.96568327978E+02  0.50400001928E-02 0.  1.
</event>
<event>
 5   0  0.2768834E-03  0.8009938E+03  0.7818609E-02  0.9558580E-01
        2   -1    0    0  501    0  0.00000000000E+00  0.00000000000E+00  0.23871880032E+03  0.23871880033E+03  0.25500000920E-02 0.  1.
       -2   -1    0    0    0  501  0.00000000000E+00  0.00000000000E+00 -0.67191085429E+03  0.67191085429E+03  0.25500000920E-02 0. -1.
    10030    2    1    2    0    0  0.00000000000E+00  0.00000000000E+00 -0.43319205397E+03  0.91062965462E+03  0.80099376543E+03 0.  0.
        4    1    3    3  502    0 -0.29124581508E+03  0.64281182864E+02  0.87270742465E+02  0.31076356070E+03  0.12699999809E+01 0.  1.
       -4    1    3    3    0  502  0.29124581508E+03 -0.64281182864E+02 -0.52046279643E+03  0.59986609392E+03  0.12699999809E+01 0. -1.
</event>
<event>
 5   0  0.2763587E-03  0.8027925E+03  0.7818609E-02  0.9555984E-01
        2   -1    0    0  501    0  0.00000000000E+00  0.00000000000E+00  0.26639836358E+03  0.26639836359E+03  0.25500000920E-02 0.  1.
       -2   -1    0    0    0  501  0.00000000000E+00  0.00000000000E+00 -0.60480451661E+03  0.60480451661E+03  0.25500000920E-02 0. -1.
    10030    2    1    2    0    0  0.00000000000E+00  0.00000000000E+00 -0.33840615303E+03  0.87120288021E+03  0.80279246015E+03 0.  0.
        3    1    3    3  502    0 -0.22139668120E+02  0.21892356557E+03  0.19511468698E+03  0.29408747634E+03  0.10100000352E+00 0.  1.
       -3    1    3    3    0  502  0.22139668120E+02 -0.21892356557E+03 -0.53352084000E+03  0.57711540387E+03  0.10100000352E+00 0. -1.
</event>
<event>
 5   0  0.1640035E-03  0.7998919E+03  0.7818609E-02  0.9560174E-01
       -1   -1    0    0    0  501  0.00000000000E+00  0.00000000000E+00  0.74217300038E+02  0.74217300210E+02  0.50400001928E-02 0. -1.
        1   -1    0    0  501    0  0.00000000000E+00  0.00000000000E+00 -0.21552492720E+04  0.21552492720E+04  0.50400001928E-02 0.  1.
    10030    2    1    2    0    0  0.00000000000E+00  0.00000000000E+00 -0.20810319720E+04  0.22294665722E+04  0.79989194789E+03 0.  0.
        5    1    3    3  502    0  0.24251392432E+03  0.25312613955E+03 -0.15770002440E+04  0.16154992125E+04  0.46999998093E+01 0.  1.
       -5    1    3    3    0  502 -0.24251392432E+03 -0.25312613955E+03 -0.50403172800E+03  0.61396735975E+03  0.46999998093E+01 0. -1.
</event>
<event>
 5   0  0.2873212E-03  0.7955309E+03  0.7818609E-02  0.9566509E-01
        2   -1    0    0  501    0  0.00000000000E+00  0.00000000000E+00  0.27834220249E+03  0.27834220250E+03  0.25500000920E-02 0.  1.
       -2   -1    0    0    0  501  0.00000000000E+00  0.00000000000E+00 -0.56842745919E+03  0.56842745920E+03  0.25500000920E-02 0. -1.
    10030    2    1    2    0    0  0.00000000000E+00  0.00000000000E+00 -0.29008525671E+03  0.84676966170E+03  0.79553089432E+03 0.  0.
        2    1    3    3  502    0  0.38295177832E+03  0.68673884872E+02 -0.23313284037E+03  0.45356266187E+03  0.25500000920E-02 0. -1.
       -2    1    3    3    0  502 -0.38295177832E+03 -0.68673884872E+02 -0.56952416336E+02  0.39320699983E+03  0.25500000920E-02 0.  1.
</event>
<event>
 5   0  0.2768834E-03  0.7975943E+03  0.7818609E-02  0.9563506E-01
        2   -1    0    0  501    0  0.00000000000E+00  0.00000000000E+00  0.15622437912E+03  0.15622437914E+03  0.25500000920E-02 0. -1.
       -2   -1    0    0    0  501  0.00000000000E+00  0.00000000000E+00 -0.10180176593E+04  0.10180176593E+04  0.25500000920E-02 0.  1.
    10030    2    1    2    0    0  0.00000000000E+00  0.00000000000E+00 -0.86179328014E+03  0.11742420384E+04  0.79759432487E+03 0.  0.
        4    1    3    3  502    0  0.96244455747E+02  0.67437411601E+01 -0.10005736096E+04  0.10052152179E+04  0.12699999809E+01 0.  1.
       -4    1    3    3    0  502 -0.96244455747E+02 -0.67437411601E+01  0.13878032942E+03  0.16902682048E+03  0.12699999809E+01 0. -1.
</event>
<event>
 5   0  0.1617491E-03  0.8000496E+03  0.7818609E-02  0.9559945E-01
       -1   -1    0    0    0  501  0.00000000000E+00  0.00000000000E+00  0.59087668958E+03  0.59087668960E+03  0.50400001928E-02 0. -1.
        1   -1    0    0  501    0  0.00000000000E+00  0.00000000000E+00 -0.27081763213E+03  0.27081763217E+03  0.50400001928E-02 0.  1.
    10030    2    1    2    0    0  0.00000000000E+00  0.00000000000E+00  0.32005905745E+03  0.86169432177E+03  0.80004956342E+03 0.  0.
        1    1    3    3  502    0 -0.21402245004E+02  0.13605216891E+03 -0.24447679174E+03  0.28060140855E+03  0.50400001928E-02 0.  1.
       -1    1    3    3    0  502  0.21402245004E+02 -0.13605216891E+03  0.56453584919E+03  0.58109291323E+03  0.50400001928E-02 0. -1.
</event>
<event>
 5   0  0.2873212E-03  0.8002380E+03  0.7818609E-02  0.9559673E-01
       -2   -1    0    0    0  501  0.00000000000E+00  0.00000000000E+00  0.30624987864E+03  0.30624987865E+03  0.25500000920E-02 0. -1.
        2   -1    0    0  501    0  0.00000000000E+00  0.00000000000E+00 -0.52276008306E+03  0.52276008306E+03  0.25500000920E-02 0.  1.
    10030    2    1    2    0    0  0.00000000000E+00  0.00000000000E+00 -0.21651020442E+03  0.82900996171E+03  0.80023799460E+03 0.  0.
        2    1    3    3  502    0 -0.19793536614E+03 -0.20235294083E+03 -0.40121243611E+03  0.49101582533E+03  0.25500000920E-02 0.  1.
       -2    1    3    3    0  502  0.19793536614E+03  0.20235294083E+03  0.18470223169E+03  0.33799413638E+03  0.25500000920E-02 0. -1.
</event>
<event>
 5   0  0.1640035E-03  0.8005237E+03  0.7818609E-02  0.9559259E-01
        1   -1    0    0  501    0  0.00000000000E+00  0.00000000000E+00  0.39122657281E+03  0.39122657284E+03  0.50400001928E-02 0. -1.
       -1   -1    0    0    0  501  0.00000000000E+00  0.00000000000E+00 -0.40950576177E+03  0.40950576180E+03  0.50400001928E-02 0.  1.
    10030    2    1    2    0    0  0.00000000000E+00  0.00000000000E+00 -0.18279188962E+02  0.80073233464E+03  0.80052366798E+03 0.  0.
        5    1    3    3  502    0  0.12336070973E+03 -0.18946985262E+03 -0.33948430045E+03  0.40790730565E+03  0.46999998093E+01 0.  1.
       -5    1    3    3    0  502 -0.12336070973E+03  0.18946985262E+03  0.32120511148E+03  0.39282502899E+03  0.46999998093E+01 0. -1.
</event>
<event>
 5   0  0.1095350E-03  0.7996035E+03  0.7818609E-02  0.9560591E-01
       -3   -1    0    0    0  501  0.00000000000E+00  0.00000000000E+00  0.47406204090E+03  0.47406205166E+03  0.10100000352E+00 0. -1.
        3   -1    0    0  501    0  0.00000000000E+00  0.00000000000E+00 -0.33717409756E+03  0.33717411269E+03  0.10100000352E+00 0.  1.
    10030    2    1    2    0    0  0.00000000000E+00  0.00000000000E+00  0.13688794334E+03  0.81123616435E+03  0.79960353008E+03 0.  0.
        1    1    3    3  502    0 -0.23194181095E+03 -0.20352467541E+03  0.32635108205E+03  0.44913731303E+03  0.50400001928E-02 0. -1.
       -1    1    3    3    0  502  0.23194181095E+03  0.20352467541E+03 -0.18946313872E+03  0.36209885132E+03  0.50400001928E-02 0.  1.
</event>
<event>
 5   0  0.1617491E-03  0.8003964E+03  0.7818609E-02  0.9559443E-01
       -1   -1    0    0    0  501  0.00000000000E+00  0.00000000000E+00  0.14897350182E+03  0.14897350190E+03  0.50400001928E-02 0. -1.
        1   -1    0    0  501    0  0.00000000000E+00  0.00000000000E+00 -0.10750811563E+04  0.10750811563E+04  0.50400001928E-02 0.  1.
    10030    2    1    2    0    0  0.00000000000E+00  0.00000000000E+00 -0.92610765445E+03  0.12240546582E+04  0.80039641339E+03 0.  0.
        1    1    3    3  502    0 -0.52095572012E+02 -0.51636349668E+02 -0.10647133212E+04  0.10672369547E+04  0.50400001928E-02 0.  1.
       -1    1    3    3    0  502  0.52095572012E+02  0.51636349668E+02  0.13860566674E+03  0.15681770343E+03  0.50400001928E-02 0. -1.
</event>
<event>
 5   0  0.2690809E-03  0.8024376E+03  0.7818609E-02  0.9556495E-01
       -2   -1    0    0    0  501  0.00000000000E+00  0.00000000000E+00  0.10765164942E+03  0.10765164945E+03  0.25500000920E-02 0. -1.
        2   -1    0    0  501    0  0.00000000000E+00  0.00000000000E+00 -0.14953467066E+04  0.14953467066E+04  0.25500000920E-02 0.  1.
    10030    2    1    2    0    0  0.00000000000E+00  0.00000000000E+00 -0.13876950572E+04  0.16029983560E+04  0.80243763481E+03 0.  0.
        5    1    3    3  502    0 -0.29480368655E+03  0.26517760778E+03 -0.57190718365E+03  0.69593698995E+03  0.46999998093E+01 0. -1.
       -5    1    3    3    0  502  0.29480368655E+03 -0.26517760778E+03 -0.81578787353E+03  0.90706136610E+03  0.46999998093E+01 0.  1.
</event>
<event>
 5   0  0.1640035E-03  0.7965631E+03  0.7818609E-02  0.9565005E-01
        1   -1    0    0  501    0  0.00000000000E+00  0.00000000000E+00  0.16870756954E+03  0.16870756962E+03  0.50400001928E-02 0.  1.
       -1   -1    0    0    0  501  0.00000000000E+00  0.00000000000E+00 -0.94025524554E+03  0.94025524555E+03  0.50400001928E-02 0. -1.
    10030    2    1    2    0    0  0.00000000000E+00  0.00000000000E+00 -0.77154767600E+03  0.11089628152E+04  0.79656306033E+03 0.  0.
        5    1    3    3  502    0  0.14296940646E+03  0.11588256308E+03  0.10591979719E+03  0.21239141471E+03  0.46999998093E+01 0.  1.
       -5    1    3    3    0  502 -0.14296940646E+03 -0.11588256308E+03 -0.87746747319E+03  0.89657140045E+03  0.46999998093E+01 0. -1.
</event>
<event>
 5   0  0.2763587E-03  0.8017779E+03  0.7818609E-02  0.9557447E-01
       -2   -1    0    0    0  501  0.00000000000E+00  0.00000000000E+00  0.22626633786E+03  0.22626633787E+03  0.25500000920E-02 0. -1.
        2   -1    0    0  501    0  0.00000000000E+00  0.00000000000E+00 -0.71027775536E+03  0.71027775537E+03  0.25500000920E-02 0.  1.
    10030    2    1    2    0    0  0.00000000000E+00  0.00000000000E+00 -0.48401141750E+03  0.93654409324E+03  0.80177789088E+03 0.  0.
        3    1    3    3  502    0 -0.16119027618E+03 -0.36667266340E+03 -0.26157902069E+03  0.47838764771E+03  0.10100000352E+00 0.  1.
       -3    1    3    3    0  502  0.16119027618E+03  0.36667266340E+03 -0.22243239682E+03  0.45815644552E+03  0.10100000352E+00 0. -1.
</event>
<event>
 5   0  0.1617491E-03  0.8020935E+03  0.7818609E-02  0.9556992E-01
       -1   -1    0    0    0  501  0.00000000000E+00  0.00000000000E+00  0.41178466238E+03  0.41178466242E+03  0.50400001928E-02 0. -1.
        1   -1    0    0  501    0  0.00000000000E+00  0.00000000000E+00 -0.39058882003E+03  0.39058882006E+03  0.50400001928E-02 0.  1.
    10030    2    1    2    0    0  0.00000000000E+00  0.00000000000E+00  0.21195842358E+02  0.80237348247E+03  0.80209347438E+03 0.  0.
        1    1    3    3  502    0  0.68568981108E+02 -0.98747923671E+01 -0.38455803950E+03  0.39074813175E+03  0.50400001928E-02 0.  1.
       -1    1    3    3    0  502 -0.68568981108E+02  0.98747923671E+01  0.40575388186E+03  0.41162535073E+03  0.50400001928E-02 0. -1.
</event>
<event>
 5   0  0.1656051E-03  0.7911785E+03  0.7818609E-02  0.9572874E-01
       -1   -1    0    0    0  501  0.00000000000E+00  0.00000000000E+00  0.12140156597E+03  0.12140156607E+03  0.50400001928E-02 0.  1.
        1   -1    0    0  501    0  0.00000000000E+00  0.00000000000E+00 -0.12890348368E+04  0.12890348368E+04  0.50400001928E-02 0. -1.
    10030    2    1    2    0    0  0.00000000000E+00  0.00000000000E+00 -0.11676332708E+04  0.14104364029E+04  0.79117848266E+03 0.  0.
        3    1    3    3  502    0  0.68317242664E+02 -0.36108103813E+03 -0.84487205218E+03  0.92133357504E+03  0.10100000352E+00 0. -1.
       -3    1    3    3    0  502 -0.68317242664E+02  0.36108103813E+03 -0.32276121866E+03  0.48910282785E+03  0.10100000352E+00 0.  1.
</event>
<event>
 5   0  0.2763587E-03  0.7995410E+03  0.7818609E-02  0.9560682E-01
       -2   -1    0    0    0  501  0.00000000000E+00  0.00000000000E+00  0.58835838422E+03  0.58835838423E+03  0.25500000920E-02 0.  1.
        2   -1    0    0  501    0  0.00000000000E+00  0.00000000000E+00 -0.27163110240E+03  0.27163110241E+03  0.25500000920E-02 0. -1.
    10030    2    1    2    0    0  0.00000000000E+00  0.00000000000E+00  0.31672728182E+03  0.85998948664E+03  0.79954095960E+03 0.  0.
        3    1    3    3  502    0 -0.22291807177E+03 -0.21102462781E+03  0.43383708299E+03  0.53144941908E+03  0.10100000352E+00 0.  1.
       -3    1    3    3    0  502  0.22291807177E+03  0.21102462781E+03 -0.11710980116E+03  0.32854006756E+03  0.10100000352E+00 0. -1.
</event>
<event>
 5   0  0.2690809E-03  0.8003722E+03  0.7818609E-02  0.9559479E-01
       -2   -1    0    0    0  501  0.00000000000E+00  0.00000000000E+00  0.61183285678E+03  0.61183285678E+03  0.25500000920E-02 0. -1.
        2   -1    0    0  501    0  0.00000000000E+00  0.00000000000E+00 -0.26175269919E+03  0.26175269920E+03  0.25500000920E-02 0.  1.
    10030    2    1    2    0    0  0.00000000000E+00  0.00000000000E+00  0.35008015759E+03  0.87358555598E+03  0.80037216773E+03 0.  0.
        5    1    3    3  502    0 -0.23439117355E+03  0.15294648200E+03  0.48719971592E+03  0.56188744583E+03  0.46999998093E+01 0. -1.
       -5    1    3    3    0  502  0.23439117355E+03 -0.15294648200E+03 -0.13711955833E+03  0.31169811015E+03  0.46999998093E+01 0.  1.
</event>
<event>
 5   0  0.2690809E-03  0.8000741E+03  0.7818609E-02  0.9559910E-01
        2   -1    0    0  501    0  0.00000000000E+00  0.00000000000E+00  0.88151729354E+03  0.88151729354E+03  0.25500000920E-02 0.  1.
       -2   -1    0    0    0  501  0.00000000000E+00  0.00000000000E+00 -0.18153885445E+03  0.18153885446E+03  0.25500000920E-02 0. -1.
    10030    2    1    2    0    0  0.00000000000E+00  0.00000000000E+00  0.69997843909E+03  0.10630561480E+04  0.80007409570E+03 0.  0.
        5    1    3    3  502    0  0.24725601763E+03  0.62103178270E+02  0.75955395222E+03  0.80120948530E+03  0.46999998093E+01 0.  1.
       -5    1    3    3    0  502 -0.24725601763E+03 -0.62103178270E+02 -0.59575513132E+02  0.26184666270E+03  0.46999998093E+01 0. -1.
</event>
<event>
 5   0  0.1712793E-03  0.8000735E+03  0.7818609E-02  0.9559911E-01
       -1   -1    0    0    0  501  0.00000000000E+00  0.00000000000E+00  0.50542837628E+03  0.50542837630E+03  0.50400001928E-02 0. -1.
        1   -1    0    0  501    0  0.00000000000E+00  0.00000000000E+00 -0.31662134335E+03  0.31662134339E+03  0.50400001928E-02 0.  1.
    10030    2    1    2    0    0  0.00000000000E+00  0.00000000000E+00  0.18880703293E+03  0.82204971969E+03  0.80007352535E+03 0.  0.
        4    1    3    3  502    0 -0.23680178324E+03  0.19661034299E+03  0.35695537066E+03  0.47132733960E+03  0.12699999809E+01 0. -1.
       -4    1    3    3    0  502  0.23680178324E+03 -0.19661034299E+03 -0.16814833773E+03  0.35072238009E+03  0.12699999809E+01 0.  1.
</event>
<event>
 5   0  0.1640035E-03  0.8023349E+03  0.7818609E-02  0.9556644E-01
        1   -1    0    0  501    0  0.00000000000E+00  0.00000000000E+00  0.42855682411E+03  0.42855682414E+03  0.50400001928E-02 0.  1.
       -1   -1    0    0    0  501  0.00000000000E+00  0.00000000000E+00 -0.37552855400E+03  0.37552855403E+03  0.50400001928E-02 0. -1.
    10030    2    1    2    0    0  0.00000000000E+00  0.00000000000E+00  0.53028270107E+02  0.80408537817E+03  0.80233490386E+03 0.  0.
        5    1    3    3  502    0  0.98248338385E+02  0.29222362416E+03 -0.23068922395E+03  0.38508049880E+03  0.46999998093E+01 0. -1.
       -5    1    3    3    0  502 -0.98248338385E+02 -0.29222362416E+03  0.28371749405E+03  0.41900487937E+03  0.46999998093E+01 0.  1.
</event>
<event>
 5   0  0.1637228E-03  0.8007854E+03  0.7818609E-02  0.9558881E-01
        1   -1    0    0  501    0  0.00000000000E+00  0.00000000000E+00  0.15312521513E+04  0.15312521513E+04  0.50400001928E-02 0. -1.
       -1   -1    0    0    0  501  0.00000000000E+00  0.00000000000E+00 -0.10469492418E+03  0.10469492430E+03  0.50400001928E-02 0.  1.
    10030    2    1    2    0    0  0.00000000000E+00  0.00000000000E+00  0.14265572272E+04  0.16359470756E+04  0.80078543441E+03 0.  0.
        2    1    3    3  502    0  0.93343851015E+02  0.31484566061E+03  0.11812539334E+04  0.12260512713E+04  0.25500000920E-02 0.  1.
       -2    1    3    3    0  502 -0.93343851015E+02 -0.31484566061E+03  0.24530329373E+03  0.40989580439E+03  0.25500000920E-02 0. -1.
</event>
<event>
 5   0  0.1617491E-03  0.8004309E+03  0.7818609E-02  0.9559394E-01
        1   -1    0    0  501    0  0.00000000000E+00  0.00000000000E+00  0.27672728799E+03  0.27672728803E+03  0.50400001928E-02 0.  1.
       -1   -1    0    0    0  501  0.00000000000E+00  0.00000000000E+00 -0.57880957903E+03  0.57880957906E+03  0.50400001928E-02 0. -1.
    10030    2    1    2    0    0  0.00000000000E+00  0.00000000000E+00 -0.30208229105E+03  0.85553686709E+03  0.80043089670E+03 0.  0.
        1    1    3    3  502    0 -0.27688147645E+03 -0.25992638331E+03 -0.28601786008E+03  0.47542748453E+03  0.50400001928E-02 0. -1.
       -1    1    3    3    0  502  0.27688147645E+03  0.25992638331E+03 -0.16064430969E+02  0.38010938256E+03  0.50400001928E-02 0.  1.
</event>
<event>
 5   0  0.1095350E-03  0.7985827E+03  0.7818609E-02  0.9562071E-01
        3   -1    0    0  501    0  0.00000000000E+00  0.00000000000E+00  0.11493035474E+03  0.11493039912E+03  0.10100000352E+00 0. -1.
       -3   -1    0    0    0  501  0.00000000000E+00  0.00000000000E+00 -0.13872189309E+04  0.13872189346E+04  0.10100000352E+00 0.  1.
    10030    2    1    2    0    0  0.00000000000E+00  0.00000000000E+00 -0.12722885762E+04  0.15021493337E+04  0.79858274442E+03 0.  0.
        3    1    3    3  502    0  0.30886784253E+03 -0.25250706522E+02 -0.16252832308E+03  0.34993200530E+03  0.10100000352E+00 0. -1.
       -3    1    3    3    0  502 -0.30886784253E+03  0.25250706522E+02 -0.11097602531E+04  0.11522173284E+04  0.10100000352E+00 0.  1.
</event>
<event>
 5   0  0.1712793E-03  0.7985105E+03  0.7818609E-02  0.9562176E-01
       -1   -1    0    0    0  501  0.00000000000E+00  0.00000000000E+00  0.49863548759E+03  0.49863548762E+03  0.50400001928E-02 0. -1.
        1   -1    0    0  501    0  0.00000000000E+00  0.00000000000E+00 -0.31968196340E+03  0.31968196344E+03  0.50400001928E-02 0.  1.
    10030    2    1    2    0    0  0.00000000000E+00  0.00000000000E+00  0.17895352420E+03  0.81831745105E+03  0.79851054274E+03 0.  0.
        4    1    3    3  502    0  0.10362920892E+03  0.32145693680E+03  0.30766534591E+03  0.45687323530E+03  0.12699999809E+01 0. -1.
       -4    1    3    3    0  502 -0.10362920892E+03 -0.32145693680E+03 -0.12871182172E+03  0.36144421576E+03  0.12699999809E+01 0.  1.
</event>
<event>
 5   0  0.2690809E-03  0.8005921E+03  0.7818609E-02  0.9559160E-01
       -2   -1    0    0    0  501  0.00000000000E+00  0.00000000000E+00  0.40318420325E+03  0.40318420326E+03  0.25500000920E-02 0. -1.
        2   -1    0    0  501    0  0.00000000000E+00  0.00000000000E+00 -0.39742862890E+03  0.39742862891E+03  0.25500000920E-02 0.  1.
    10030    2    1    2    0    0  0.00000000000E+00  0.00000000000E+00  0.57555743490E+01  0.80061283216E+03  0.80059214360E+03 0.  0.
        5    1    3    3  502    0 -0.13642674862E+03  0.33830668440E+02 -0.37190927589E+03  0.39761208654E+03  0.46999998093E+01 0.  1.
       -5    1    3    3    0  502  0.13642674862E+03 -0.33830668440E+02  0.37766485024E+03  0.40300074563E+03  0.46999998093E+01 0. -1.
</event>
<event>
 5   0  0.2690809E-03  0.7991383E+03  0.7818609E-02  0.9561265E-01
       -2   -1    0    0    0  501  0.00000000000E+00  0.00000000000E+00  0.58896234920E+03  0.58896234920E+03  0.25500000920E-02 0. -1.
        2   -1    0    0  501    0  0.00000000000E+00  0.00000000000E+00 -0.27107932942E+03  0.27107932943E+03  0.25500000920E-02 0.  1.
    10030    2    1    2    0    0  0.00000000000E+00  0.00000000000E+00  0.31788301978E+03  0.86004167863E+03  0.79913833265E+03 0.  0.
        5    1    3    3  502    0 -0.16295930268E+03 -0.51595154469E+02  0.54759481396E+03  0.57367234949E+03  0.46999998093E+01 0. -1.
       -5    1    3    3    0  502  0.16295930268E+03  0.51595154469E+02 -0.22971179418E+03  0.28636932914E+03  0.46999998093E+01 0.  1.
</event>
<event>
 5   0  0.2690809E-03  0.8006213E+03  0.7818609E-02  0.9559118E-01
        2   -1    0    0  501    0  0.00000000000E+00  0.00000000000E+00  0.21362102008E+03  0.21362102010E+03  0.25500000920E-02 0. -1.
       -2   -1    0    0    0  501  0.00000000000E+00  0.00000000000E+00 -0.75015372871E+03  0.75015372871E+03  0.25500000920E-02 0.  1.
    10030    2    1    2    0    0  0.00000000000E+00  0.00000000000E+00 -0.53653270862E+03  0.96377474881E+03  0.80062127065E+03 0.  0.
        5    1    3    3  502    0  0.11227734716E+03 -0.38218420932E+03 -0.31574401586E+03  0.50831815440E+03  0.46999998093E+01 0. -1.
       -5    1    3    3    0  502 -0.11227734716E+03  0.38218420932E+03 -0.22078869277E+03  0.45545659441E+03  0.46999998093E+01 0.  1.
</event>
<event>
 5   0  0.1617491E-03  0.7994493E+03  0.7818609E-02  0.9560815E-01
        1   -1    0    0  501    0  0.00000000000E+00  0.00000000000E+00  0.80022738233E+03  0.80022738234E+03  0.50400001928E-02 0. -1.
       -1   -1    0    0    0  501  0.00000000000E+00  0.00000000000E+00 -0.19966798848E+03  0.19966798854E+03  0.50400001928E-02 0.  1.
    10030    2    1    2    0    0  0.00000000000E+00  0.00000000000E+00  0.60055939385E+03  0.99989537088E+03  0.79944928993E+03 0.  0.
        1    1    3    3  502    0  0.35187107771E+03  0.10481070356E+03  0.49796334379E+03  0.61868087953E+03  0.50400001928E-02 0. -1.
       -1    1    3    3    0  502 -0.35187107771E+03 -0.10481070356E+03  0.10259605006E+03  0.38121449135E+03  0.50400001928E-02 0.  1.
</event>
<event>
 5   0  0.2910501E-03  0.7962697E+03  0.7818609E-02  0.9565432E-01
        2   -1    0    0  501    0  0.00000000000E+00  0.00000000000E+00  0.61769595908E+03  0.61769595908E+03  0.25500000920E-02 0.  1.
       -2   -1    0    0    0  501  0.00000000000E+00  0.00000000000E+00 -0.25661712974E+03  0.25661712975E+03  0.25500000920E-02 0. -1.
    10030    2    1    2    0    0  0.00000000000E+00  0.00000000000E+00  0.36107882934E+03  0.87431308884E+03  0.79626971330E+03 0.  0.
        1    1    3    3  502    0  0.10294748818E+03  0.20631131727E+03 -0.17584739228E+03  0.28997387875E+03  0.50400001928E-02 0. -1.
       -1    1    3    3    0  502 -0.10294748818E+03 -0.20631131727E+03  0.53692622162E+03  0.58433921009E+03  0.50400001928E-02 0.  1.
</event>
<event>
 5   0  0.2910501E-03  0.7994258E+03  0.7818609E-02  0.9560849E-01
        2   -1    0    0  501    0  0.00000000000E+00  0.00000000000E+00  0.93411082350E+03  0.93411082350E+03  0.25500000920E-02 0. -1.
       -2   -1    0    0    0  501  0.00000000000E+00  0.00000000000E+00 -0.17104009397E+03  0.17104009399E+03  0.25500000920E-02 0.  1.
    10030    2    1    2    0    0  0.00000000000E+00  0.00000000000E+00  0.76307072953E+03  0.11051509175E+04  0.79942580153E+03 0.  0.
        1    1    3    3  502    0  0.29089730927E+02 -0.36706984249E+03  0.59651968597E+03  0.70101513356E+03  0.50400001928E-02 0. -1.
       -1    1    3    3    0  502 -0.29089730927E+02  0.36706984249E+03  0.16655104356E+03  0.40413578392E+03  0.50400001928E-02 0.  1.
</event>
<event>
 5   0  0.1656051E-03  0.8000658E+03  0.7818609E-02  0.9559922E-01
        1   -1    0    0  501    0  0.00000000000E+00  0.00000000000E+00  0.15434521471E+04  0.15434521471E+04  0.50400001928E-02 0. -1.
       -1   -1    0    0    0  501  0.00000000000E+00  0.00000000000E+00 -0.10368076986E+03  0.10368076998E+03  0.50400001928E-02 0.  1.
    10030    2    1    2    0    0  0.00000000000E+00  0.00000000000E+00  0.14397713772E+04  0.16471329171E+04  0.80006576470E+03 0.  0.
        3    1    3    3  502    0 -0.15418289373E+03  0.71602728858E+02  0.14653879943E+04  0.14752156789E+04  0.10100000352E+00 0. -1.
       -3    1    3    3    0  502  0.15418289373E+03 -0.71602728858E+02 -0.25616617022E+02  0.17191723814E+03  0.10100000352E+00 0.  1.
</event>
<event>
 5   0  0.2768834E-03  0.7993937E+03  0.7818609E-02  0.9560895E-01
       -2   -1    0    0    0  501  0.00000000000E+00  0.00000000000E+00  0.19348709856E+03  0.19348709858E+03  0.25500000920E-02 0. -1.
        2   -1    0    0  501    0  0.00000000000E+00  0.00000000000E+00 -0.82567555411E+03  0.82567555412E+03  0.25500000920E-02 0.  1.
    10030    2    1    2    0    0  0.00000000000E+00  0.00000000000E+00 -0.63218845555E+03  0.10191626527E+04  0.79939368857E+03 0.  0.
        4    1    3    3  502    0 -0.16371306788E+03  0.21043411526E+03 -0.69573665124E+03  0.74507421526E+03  0.12699999809E+01 0.  1.
       -4    1    3    3    0  502  0.16371306788E+03 -0.21043411526E+03  0.63548195692E+02  0.27408843744E+03  0.12699999809E+01 0. -1.
</event>
<event>
 5   0  0.1637228E-03  0.7987996E+03  0.7818609E-02  0.9561756E-01
       -1   -1    0    0    0  501  0.00000000000E+00  0.00000000000E+00  0.67561085214E+03  0.67561085216E+03  0.50400001928E-02 0.  1.
        1   -1    0    0  501    0  0.00000000000E+00  0.00000000000E+00 -0.23611252688E+03  0.23611252693E+03  0.50400001928E-02 0. -1.
    10030    2    1    2    0    0  0.00000000000E+00  0.00000000000E+00  0.43949832526E+03  0.91172337909E+03  0.79879956314E+03 0.  0.
        2    1    3    3  502    0  0.38730923813E+03 -0.72764492008E+02  0.29386833975E+03  0.49159100719E+03  0.25500000920E-02 0.  1.
       -2    1    3    3    0  502 -0.38730923813E+03  0.72764492008E+02  0.14562998552E+03  0.42013237191E+03  0.25500000920E-02 0. -1.
</event>
<event>
 5   0  0.2873212E-03  0.7998915E+03  0.7818609E-02  0.9560174E-01
        2   -1    0    0  501    0  0.00000000000E+00  0.00000000000E+00  0.15278964424E+04  0.15278964424E+04  0.25500000920E-02 0. -1.
       -2   -1    0    0    0  501  0.00000000000E+00  0.00000000000E+00 -0.10469073593E+03  0.10469073597E+03  0.25500000920E-02 0.  1.
    10030    2    1    2    0    0  0.00000000000E+00  0.00000000000E+00  0.14232057064E+04  0.16325871783E+04  0.79989150016E+03 0.  0.
        2    1    3    3  502    0 -0.88015615433E+02 -0.38859451109E+03  0.64077770875E+03  0.75455186346E+03  0.25500000920E-02 0.  1.
       -2    1    3    3    0  502  0.88015615433E+02  0.38859451109E+03  0.78242799767E+03  0.87803531486E+03  0.25500000920E-02 0. -1.
</event>
<event>
 5   0  0.1617491E-03  0.7995089E+03  0.7818609E-02  0.9560728E-01
       -1   -1    0    0    0  501  0.00000000000E+00  0.00000000000E+00  0.32584668725E+03  0.32584668728E+03  0.50400001928E-02 0.  1.
        1   -1    0    0  501    0  0.00000000000E+00  0.00000000000E+00 -0.49042576451E+03  0.49042576454E+03  0.50400001928E-02 0. -1.
    10030    2    1    2    0    0  0.00000000000E+00  0.00000000000E+00 -0.16457907727E+03  0.81627245182E+03  0.79950887608E+03 0.  0.
        1    1    3    3  502    0  0.87876793554E+02 -0.28453343889E+03  0.18998926694E+03  0.35323863078E+03  0.50400001928E-02 0.  1.
       -1    1    3    3    0  502 -0.87876793554E+02  0.28453343889E+03 -0.35456834421E+03  0.46303382105E+03  0.50400001928E-02 0. -1.
</event>
<event>
 5   0  0.2873212E-03  0.8002986E+03  0.7818609E-02  0.9559585E-01
        2   -1    0    0  501    0  0.00000000000E+00  0.00000000000E+00  0.53638379827E+03  0.53638379828E+03  0.25500000920E-02 0. -1.
       -2   -1    0    0    0  501  0.00000000000E+00  0.00000000000E+00 -0.29851657432E+03  0.29851657433E+03  0.25500000920E-02 0.  1.
    10030    2    1    2    0    0  0.00000000000E+00  0.00000000000E+00  0.23786722395E+03  0.83490037261E+03  0.80029857925E+03 0.  0.
        2    1    3    3  502    0  0.95549837856E+02  0.21324952760E+03  0.45780766281E+03  0.51399707068E+03  0.25500000920E-02 0. -1.
       -2    1    3    3    0  502 -0.95549837856E+02 -0.21324952760E+03 -0.21994043886E+03  0.32090330193E+03  0.25500000920E-02 0.  1.
</event>
<event>
 5   0  0.2690809E-03  0.8005361E+03  0.7818609E-02  0.9559241E-01
        2   -1    0    0  501    0  0.00000000000E+00  0.00000000000E+00  0.90134719283E+03  0.90134719283E+03  0.25500000920E-02 0. -1.
       -2   -1    0    0    0  501  0.00000000000E+00  0.00000000000E+00 -0.17775005021E+03  0.17775005023E+03  0.25500000920E-02 0.  1.
    10030    2    1    2    0    0  0.00000000000E+00  0.00000000000E+00  0.72359714261E+03  0.10790972431E+04  0.80053609237E+03 0.  0.
        5    1    3    3  502    0  0.71139990397E+02 -0.52346092271E+02  0.88800955105E+03  0.89240353225E+03  0.46999998093E+01 0. -1.
       -5    1    3    3    0  502 -0.71139990397E+02  0.52346092271E+02 -0.16441240844E+03  0.18669371081E+03  0.46999998093E+01 0.  1.
</event>
<event>
 5   0  0.2690809E-03  0.8036460E+03  0.7818609E-02  0.9554755E-01
       -2   -1    0    0    0  501  0.00000000000E+00  0.00000000000E+00  0.43740824604E+03  0.43740824604E+03  0.25500000920E-02 0.  1.
        2   -1    0    0  501    0  0.00000000000E+00  0.00000000000E+00 -0.36913273996E+03  0.36913273997E+03  0.25500000920E-02 0. -1.
    10030    2    1    2    0    0  0.00000000000E+00  0.00000000000E+00  0.68275506074E+02  0.80654098602E+03  0.80364595276E+03 0.  0.
        5    1    3    3  502    0 -0.36687380976E+01  0.52737683157E+02 -0.36559959409E+03  0.36943182871E+03  0.46999998093E+01 0. -1.
       -5    1    3    3    0  502  0.36687380976E+01 -0.52737683157E+02  0.43387510016E+03  0.43710915731E+03  0.46999998093E+01 0.  1.
</event>
<event>
 5   0  0.1095350E-03  0.8021752E+03  0.7818609E-02  0.9556874E-01
       -4   -1    0    0    0  501  0.00000000000E+00  0.00000000000E+00  0.85775877989E+03  0.85775972007E+03  0.12699999809E+01 0.  1.
        4   -1    0    0  501    0  0.00000000000E+00  0.00000000000E+00 -0.18754517259E+03  0.18754947257E+03  0.12699999809E+01 0. -1.
    10030    2    1    2    0    0  0.00000000000E+00  0.00000000000E+00  0.67021360730E+03  0.10453091926E+04  0.80217518585E+03 0.  0.
        2    1    3    3  502    0 -0.26166538501E+03 -0.24961113146E+02  0.72988050674E+03  0.77576889922E+03  0.25500000920E-02 0.  1.
       -2    1    3    3    0  502  0.26166538501E+03  0.24961113146E+02 -0.59666899435E+02  0.26954029342E+03  0.25500000920E-02 0. -1.
</event>
<event>
 5   0  0.1617491E-03  0.7991885E+03  0.7818609E-02  0.9561193E-01
        1   -1    0    0  501    0  0.00000000000E+00  0.00000000000E+00  0.19003287992E+03  0.19003287998E+03  0.50400001928E-02 0.  1.
       -1   -1    0    0    0  501  0.00000000000E+00  0.00000000000E+00 -0.84025220800E+03  0.84025220801E+03  0.50400001928E-02 0. -1.
    10030    2    1    2    0    0  0.00000000000E+00  0.00000000000E+00 -0.65021932808E+03  0.10302850880E+04  0.79918845583E+03 0.  0.
        1    1    3    3  502    0 -0.10175265831E+03 -0.13398895984E+02 -0.82297145248E+03  0.82934621571E+03  0.50400001928E-02 0. -1.
       -1    1    3    3    0  502  0.10175265831E+03  0.13398895984E+02  0.17275212440E+03  0.20093887229E+03  0.50400001928E-02 0.  1.
</event>
<event>
 5   0  0.1617491E-03  0.8007071E+03  0.7818609E-02  0.9558994E-01
        1   -1    0    0  501    0  0.00000000000E+00  0.00000000000E+00  0.95619049354E+03  0.95619049355E+03  0.50400001928E-02 0. -1.
       -1   -1    0    0    0  501  0.00000000000E+00  0.00000000000E+00 -0.16762660717E+03  0.16762660725E+03  0.50400001928E-02 0.  1.
    10030    2    1    2    0    0  0.00000000000E+00  0.00000000000E+00  0.78856388637E+03  0.11238171008E+04  0.80070710823E+03 0.  0.
        1    1    3    3  502    0 -0.15598166397E+03 -0.27741018949E+03  0.53376253158E+02  0.32270066184E+03  0.50400001928E-02 0.  1.
       -1    1    3    3    0  502  0.15598166397E+03  0.27741018949E+03  0.73518763321E+03  0.80111643896E+03  0.50400001928E-02 0. -1.
</event>
<event>
 5   0  0.1656051E-03  0.7993552E+03  0.7818609E-02  0.9560951E-01
       -1   -1    0    0    0  501  0.00000000000E+00  0.00000000000E+00  0.91141741987E+02  0.91141742127E+02  0.50400001928E-02 0. -1.
        1   -1    0    0  501    0  0.00000000000E+00  0.00000000000E+00 -0.17526787117E+04  0.17526787117E+04  0.50400001928E-02 0.  1.
    10030    2    1    2    0    0  0.00000000000E+00  0.00000000000E+00 -0.16615369697E+04  0.18438204538E+04  0.79935521782E+03 0.  0.
        3    1    3    3  502    0 -0.24629583832E+03 -0.74564701548E+02 -0.12537318166E+03  0.28625160187E+03  0.10100000352E+00 0. -1.
       -3    1    3    3    0  502  0.24629583832E+03  0.74564701548E+02 -0.15361637881E+04  0.15575688520E+04  0.10100000352E+00 0.  1.
</event>
<event>
 5   0  0.2910501E-03  0.7994806E+03  0.7818609E-02  0.9560769E-01
       -2   -1    0    0    0  501  0.00000000000E+00  0.00000000000E+00  0.14531910657E+03  0.14531910659E+03  0.25500000920E-02 0. -1.
        2   -1    0    0  501    0  0.00000000000E+00  0.00000000000E+00 -0.10995959275E+04  0.10995959275E+04  0.25500000920E-02 0.  1.
    10030    2    1    2    0    0  0.00000000000E+00  0.00000000000E+00 -0.95427682098E+03  0.12449150341E+04  0.79948057586E+03 0.  0.
        1    1    3    3  502    0 -0.57993003091E+02  0.39541846646E+03 -0.49047421615E+03  0.63267994180E+03  0.50400001928E-02 0. -1.
       -1    1    3    3    0  502  0.57993003091E+02 -0.39541846646E+03 -0.46380260483E+03  0.61223509234E+03  0.50400001928E-02 0.  1.
</event>
<event>
 5   0  0.1640035E-03  0.7987188E+03  0.7818609E-02  0.9561873E-01
       -1   -1    0    0    0  501  0.00000000000E+00  0.00000000000E+00  0.80962924694E+03  0.80962924695E+03  0.50400001928E-02 0. -1.
        1   -1    0    0  501    0  0.00000000000E+00  0.00000000000E+00 -0.19698884871E+03  0.19698884877E+03  0.50400001928E-02 0.  1.
    10030    2    1    2    0    0  0.00000000000E+00  0.00000000000E+00  0.61264039823E+03  0.10066180957E+04  0.79871880728E+03 0.  0.
        5    1    3    3  502    0  0.18124915482E+03  0.18456119997E+03  0.68972993922E+03  0.73665702448E+03  0.46999998093E+01 0. -1.
       -5    1    3    3    0  502 -0.18124915482E+03 -0.18456119997E+03 -0.77089540997E+02  0.26996107124E+03  0.46999998093E+01 0.  1.
</event>
<event>
 5   0  0.2910501E-03  0.8011943E+03  0.7818609E-02  0.9558290E-01
       -2   -1    0    0    0  501  0.00000000000E+00  0.00000000000E+00  0.80336119323E+02  0.80336119364E+02  0.25500000920E-02 0. -1.
        2   -1    0    0  501    0  0.00000000000E+00  0.00000000000E+00 -0.19975829183E+04  0.19975829183E+04  0.25500000920E-02 0.  1.
    10030    2    1    2    0    0  0.00000000000E+00  0.00000000000E+00 -0.19172467990E+04  0.20779190377E+04  0.80119425792E+03 0.  0.
        1    1    3    3  502    0 -0.30780114147E+03  0.98682778554E+02 -0.34489258465E+03  0.47268459721E+03  0.50400001928E-02 0. -1.
       -1    1    3    3    0  502  0.30780114147E+03 -0.98682778554E+02 -0.15723542144E+04  0.16052344405E+04  0.50400001928E-02 0.  1.
</event>
<event>
 5   0  0.2763587E-03  0.7997043E+03  0.7818609E-02  0.9560445E-01
       -2   -1    0    0    0  501  0.00000000000E+00  0.00000000000E+00  0.10324146796E+03  0.10324146799E+03  0.25500000920E-02 0. -1.
        2   -1    0    0  501    0  0.00000000000E+00  0.00000000000E+00 -0.15486192774E+04  0.15486192774E+04  0.25500000920E-02 0.  1.
    10030    2    1    2    0    0  0.00000000000E+00  0.00000000000E+00 -0.14453778095E+04  0.16518607454E+04  0.79970426419E+03 0.  0.
        3    1    3    3  502    0 -0.36258860523E+03  0.15171300419E+02 -0.10694438187E+04  0.11293408505E+04  0.10100000352E+00 0.  1.
       -3    1    3    3    0  502  0.36258860523E+03 -0.15171300419E+02 -0.37593399079E+03  0.52251989497E+03  0.10100000352E+00 0. -1.
</event>
<event>
 5   0  0.2873212E-03  0.8007850E+03  0.7818609E-02  0.9558882E-01
       -2   -1    0    0    0  501  0.00000000000E+00  0.00000000000E+00  0.10661754764E+03  0.10661754767E+03  0.25500000920E-02 0. -1.
        2   -1    0    0  501    0  0.00000000000E+00  0.00000000000E+00 -0.15036376274E+04  0.15036376274E+04  0.25500000920E-02 0.  1.
    10030    2    1    2    0    0  0.00000000000E+00  0.00000000000E+00 -0.13970200798E+04  0.16102551751E+04  0.80078500585E+03 0.  0.
        2    1    3    3  502    0 -0.17157834811E+03 -0.25002178989E+03 -0.12242765522E+04  0.12612704315E+04  0.25500000920E-02 0.  1.
       -2    1    3    3    0  502  0.17157834811E+03  0.25002178989E+03 -0.17274352755E+03  0.34898474362E+03  0.25500000920E-02 0. -1.
</event>
<event>
 5   0  0.1637228E-03  0.8005216E+03  0.7818609E-02  0.9559262E-01
       -1   -1    0    0    0  501  0.00000000000E+00  0.00000000000E+00  0.30231195178E+03  0.30231195182E+03  0.50400001928E-02 0.  1.
        1   -1    0    0  501    0  0.00000000000E+00  0.00000000000E+00 -0.52994501756E+03  0.52994501759E+03  0.50400001928E-02 0. -1.
    10030    2    1    2    0    0  0.00000000000E+00  0.00000000000E+00 -0.22763306578E+03  0.83225696941E+03  0.80052161151E+03 0.  0.
        2    1    3    3  502    0 -0.23119840247E+03  0.22565027751E+03  0.13185179237E+03  0.34893501430E+03  0.25500000920E-02 0.  1.
       -2    1    3    3    0  502  0.23119840247E+03 -0.22565027751E+03 -0.35948485815E+03  0.48332195511E+03  0.25500000920E-02 0. -1.
</event>
<event>
 5   0  0.2690809E-03  0.7994030E+03  0.7818609E-02  0.9560882E-01
       -2   -1    0    0    0  501  0.00000000000E+00  0.00000000000E+00  0.27904259420E+03  0.27904259422E+03  0.25500000920E-02 0.  1.
        2   -1    0    0  501    0  0.00000000000E+00  0.00000000000E+00 -0.57253364740E+03  0.57253364740E+03  0.25500000920E-02 0. -1.
    10030    2    1    2    0    0  0.00000000000E+00  0.00000000000E+00 -0.29349105319E+03  0.85157624162E+03  0.79940296283E+03 0.  0.
        5    1    3    3  502    0 -0.15275530986E+03  0.30669909564E+03 -0.36594354141E+03  0.50133350721E+03  0.46999998093E+01 0. -1.
       -5    1    3    3    0  502  0.15275530986E+03 -0.30669909564E+03  0.72452488220E+02  0.35024273440E+03  0.46999998093E+01 0.  1.
</event>
<event>
 5   0  0.1095350E-03  0.8014139E+03  0.7818609E-02  0.9557973E-01
        3   -1    0    0  501    0  0.00000000000E+00  0.00000000000E+00  0.20167668240E+03  0.20167670769E+03  0.10100000352E+00 0. -1.
       -3   -1    0    0    0  501  0.00000000000E+00  0.00000000000E+00 -0.79615572079E+03  0.79615572720E+03  0.10100000352E+00 0.  1.
    10030    2    1    2    0    0  0.00000000000E+00  0.00000000000E+00 -0.59447903840E+03  0.99783243489E+03  0.80141390119E+03 0.  0.
        2    1    3    3  502    0  0.18226628759E+03  0.26429836358E+03 -0.59577937748E+03  0.67677743108E+03  0.25500000920E-02 0.  1.
       -2    1    3    3    0  502 -0.18226628759E+03 -0.26429836358E+03  0.13003390824E+01  0.32105500381E+03  0.25500000920E-02 0. -1.
</event>
<event>
 5   0  0.2690809E-03  0.7994081E+03  0.7818609E-02  0.9560874E-01
       -2   -1    0    0    0  501  0.00000000000E+00  0.00000000000E+00  0.11159340351E+03  0.11159340354E+03  0.25500000920E-02 0.  1.
        2   -1    0    0  501    0  0.00000000000E+00  0.00000000000E+00 -0.14316557279E+04  0.14316557279E+04  0.25500000920E-02 0. -1.
    10030    2    1    2    0    0  0.00000000000E+00  0.00000000000E+00 -0.13200623244E+04  0.15432491314E+04  0.79940811945E+03 0.  0.
        5    1    3    3  502    0  0.28209285640E+03  0.55616488387E+02 -0.11959695635E+04  0.12300548200E+04  0.46999998093E+01 0. -1.
       -5    1    3    3    0  502 -0.28209285640E+03 -0.55616488387E+02 -0.12409276089E+03  0.31319431144E+03  0.46999998093E+01 0.  1.
</event>
<event>
 5   0  0.2910501E-03  0.8007156E+03  0.7818609E-02  0.9558982E-01
       -2   -1    0    0    0  501  0.00000000000E+00  0.00000000000E+00  0.48900335397E+03  0.48900335397E+03  0.25500000920E-02 0. -1.
        2   -1    0    0  501    0  0.00000000000E+00  0.00000000000E+00 -0.32778176552E+03  0.32778176553E+03  0.25500000920E-02 0.  1.
    10030    2    1    2    0    0  0.00000000000E+00  0.00000000000E+00  0.16122158845E+03  0.81678511950E+03  0.80071563670E+03 0.  0.
        1    1    3    3  502    0 -0.14905957339E+03 -0.15528901470E+03  0.42495461197E+03  0.47636105715E+03  0.50400001928E-02 0. -1.
       -1    1    3    3    0  502  0.14905957339E+03  0.15528901470E+03 -0.26373302352E+03  0.34042406235E+03  0.50400001928E-02 0.  1.
</event>
<event>
 5   0  0.2768834E-03  0.7983251E+03  0.7818609E-02  0.9562445E-01
       -2   -1    0    0    0  501  0.00000000000E+00  0.00000000000E+00  0.89746940300E+03  0.89746940300E+03  0.25500000920E-02 0. -1.
        2   -1    0    0  501    0  0.00000000000E+00  0.00000000000E+00 -0.17753334658E+03  0.17753334660E+03  0.25500000920E-02 0.  1.
    10030    2    1    2    0    0  0.00000000000E+00  0.00000000000E+00  0.71993605642E+03  0.10750027496E+04  0.79832511317E+03 0.  0.
        4    1    3    3  502    0  0.36945454789E+03 -0.11727798035E+03  0.48826994670E+03  0.62342597105E+03  0.12699999809E+01 0.  1.
       -4    1    3    3    0  502 -0.36945454789E+03  0.11727798035E+03  0.23166610972E+03  0.45157677855E+03  0.12699999809E+01 0. -1.
</event>
<event>
 5   0  0.1637228E-03  0.8042359E+03  0.7818609E-02  0.9553906E-01
       -1   -1    0    0    0  501  0.00000000000E+00  0.00000000000E+00  0.42546971970E+03  0.42546971973E+03  0.50400001928E-02 0. -1.
        1   -1    0    0  501    0  0.00000000000E+00  0.00000000000E+00 -0.38004783650E+03  0.38004783653E+03  0.50400001928E-02 0.  1.
    10030    2    1    2    0    0  0.00000000000E+00  0.00000000000E+00  0.45421883197E+02  0.80551755626E+03  0.80423590194E+03 0.  0.
        2    1    3    3  502    0  0.12711230857E+03 -0.27368072331E+03  0.28891668374E+03  0.41776970624E+03  0.25500000920E-02 0. -1.
       -2    1    3    3    0  502 -0.12711230857E+03  0.27368072331E+03 -0.24349480054E+03  0.38774785002E+03  0.25500000920E-02 0.  1.
</event>
<event>
 5   0  0.1637228E-03  0.7983299E+03  0.7818609E-02  0.9562438E-01
       -1   -1    0    0    0  501  0.00000000000E+00  0.00000000000E+00  0.28892379552E+03  0.28892379556E+03  0.50400001928E-02 0.  1.
        1   -1    0    0  501    0  0.00000000000E+00  0.00000000000E+00 -0.55146949180E+03  0.55146949182E+03  0.50400001928E-02 0. -1.
    10030    2    1    2    0    0  0.00000000000E+00  0.00000000000E+00 -0.26254569628E+03  0.84039328739E+03  0.79832990352E+03 0.  0.
        2    1    3    3  502    0 -0.30949403148E+03 -0.97651626575E+02 -0.37591896324E+03  0.49662607929E+03  0.25500000920E-02 0. -1.
       -2    1    3    3    0  502  0.30949403148E+03  0.97651626575E+02  0.11337326697E+03  0.34376720810E+03  0.25500000920E-02 0.  1.
</event>
<event>
 5   0  0.2690809E-03  0.7958263E+03  0.7818609E-02  0.9566078E-01
        2   -1    0    0  501    0  0.00000000000E+00  0.00000000000E+00  0.88616037101E+03  0.88616037102E+03  0.25500000920E-02 0. -1.
       -2   -1    0    0    0  501  0.00000000000E+00  0.00000000000E+00 -0.17867520589E+03  0.17867520591E+03  0.25500000920E-02 0.  1.
    10030    2    1    2    0    0  0.00000000000E+00  0.00000000000E+00  0.70748516513E+03  0.10648355769E+04  0.79582632968E+03 0.  0.
        5    1    3    3  502    0 -0.55240246056E+02  0.22473898965E+03 -0.79318275376E+02  0.24468873505E+03  0.46999998093E+01 0.  1.
       -5    1    3    3    0  502  0.55240246056E+02 -0.22473898965E+03  0.78680344050E+03  0.82014684187E+03  0.46999998093E+01 0. -1.
</event>
<event>
 5   0  0.2763587E-03  0.8031262E+03  0.7818609E-02  0.9555503E-01
       -2   -1    0    0    0  501  0.00000000000E+00  0.00000000000E+00  0.63299679622E+02  0.63299679674E+02  0.25500000920E-02 0. -1.
        2   -1    0    0  501    0  0.00000000000E+00  0.00000000000E+00 -0.25474521586E+04  0.25474521586E+04  0.25500000920E-02 0.  1.
    10030    2    1    2    0    0  0.00000000000E+00  0.00000000000E+00 -0.24841524789E+04  0.26107518382E+04  0.80312615587E+03 0.  0.
        3    1    3    3  502    0  0.19162816646E+02 -0.34051705101E+03 -0.19311544100E+04  0.19610396327E+04  0.10100000352E+00 0.  1.
       -3    1    3    3    0  502 -0.19162816646E+02  0.34051705101E+03 -0.55299806895E+03  0.64971220554E+03  0.10100000352E+00 0. -1.
</event>
<event>
 5   0  0.1637228E-03  0.7996894E+03  0.7818609E-02  0.9560467E-01
       -1   -1    0    0    0  501  0.00000000000E+00  0.00000000000E+00  0.11170719206E+03  0.11170719217E+03  0.50400001928E-02 0.  1.
        1   -1    0    0  501    0  0.00000000000E+00  0.00000000000E+00 -0.14312040238E+04  0.14312040238E+04  0.50400001928E-02 0. -1.
    10030    2    1    2    0    0  0.00000000000E+00  0.00000000000E+00 -0.13194968317E+04  0.15429112159E+04  0.79968939684E+03 0.  0.
        2    1    3    3  502    0  0.35552559912E+02  0.14305730409E+02  0.10815567447E+03  0.11474444808E+03  0.25500000920E-02 0.  1.
       -2    1    3    3    0  502 -0.35552559912E+02 -0.14305730409E+02 -0.14276525062E+04  0.14281667679E+04  0.25500000920E-02 0. -1.
</event>
<event>
 5   0  0.2768834E-03  0.7987927E+03  0.7818609E-02  0.9561766E-01
       -2   -1    0    0    0  501  0.00000000000E+00  0.00000000000E+00  0.10211727865E+04  0.10211727865E+04  0.25500000920E-02 0.  1.
        2   -1    0    0  501    0  0.00000000000E+00  0.00000000000E+00 -0.15621003532E+03  0.15621003534E+03  0.25500000920E-02 0. -1.
    10030    2    1    2    0    0  0.00000000000E+00  0.00000000000E+00  0.86496275119E+03  0.11773828219E+04  0.79879268166E+03 0.  0.
        4    1    3    3  502    0 -0.34617895222E+02  0.27096687073E+03  0.30210100097E+01  0.27318891468E+03  0.12699999809E+01 0. -1.
       -4    1    3    3    0  502  0.34617895222E+02 -0.27096687073E+03  0.86194174118E+03  0.90419390719E+03  0.12699999809E+01 0.  1.
</event>
<event>
 5   0  0.1637228E-03  0.8010974E+03  0.7818609E-02  0.9558430E-01
        1   -1    0    0  501    0  0.00000000000E+00  0.00000000000E+00  0.30270294453E+03  0.30270294458E+03  0.50400001928E-02 0.  1.
       -1   -1    0    0    0  501  0.00000000000E+00  0.00000000000E+00 -0.53002216986E+03  0.53002216989E+03  0.50400001928E-02 0. -1.
    10030    2    1    2    0    0  0.00000000000E+00  0.00000000000E+00 -0.22731922533E+03  0.83272511446E+03  0.80109742607E+03 0.  0.
        2    1    3    3  502    0 -0.12447091860E+03  0.28828699034E+03  0.14482820916E+03  0.34579995453E+03  0.25500000920E-02 0.  1.
       -2    1    3    3    0  502  0.12447091860E+03 -0.28828699034E+03 -0.37214743449E+03  0.48692515994E+03  0.25500000920E-02 0. -1.
</event>
<event>
 5   0  0.1095350E-03  0.7915799E+03  0.7818609E-02  0.9572285E-01
       -3   -1    0    0    0  501  0.00000000000E+00  0.00000000000E+00  0.24601367741E+04  0.24601367762E+04  0.10100000352E+00 0.  1.
        3   -1    0    0  501    0  0.00000000000E+00  0.00000000000E+00 -0.63675155215E+02  0.63675235317E+02  0.10100000352E+00 0. -1.
    10030    2    1    2    0    0  0.00000000000E+00  0.00000000000E+00  0.23964616189E+04  0.25238120115E+04  0.79157992557E+03 0.  0.
        5    1    3    3  502    0  0.17914930699E+03 -0.17800343714E+03  0.22671854033E+03  0.33941579863E+03  0.46999998093E+01 0. -1.
       -5    1    3    3    0  502 -0.17914930699E+03  0.17800343714E+03  0.21697430786E+04  0.21843962129E+04  0.46999998093E+01 0.  1.
</event>
<event>
 5   0  0.1656051E-03  0.8001075E+03  0.7818609E-02  0.9559861E-01
       -1   -1    0    0    0  501  0.00000000000E+00  0.00000000000E+00  0.24316530294E+03  0.24316530299E+03  0.50400001928E-02 0. -1.
        1   -1    0    0  501    0  0.00000000000E+00  0.00000000000E+00 -0.65816552701E+03  0.65816552703E+03  0.50400001928E-02 0.  1.
    10030    2    1    2    0    0  0.00000000000E+00  0.00000000000E+00 -0.41500022407E+03  0.90133083002E+03  0.80010754225E+03 0.  0.
        3    1    3    3  502    0 -0.39725832633E+03  0.45969533945E+02 -0.19538637676E+03  0.44508788156E+03  0.10100000352E+00 0. -1.
       -3    1    3    3    0  502  0.39725832633E+03 -0.45969533945E+02 -0.21961384731E+03  0.45624294846E+03  0.10100000352E+00 0.  1.
</event>
<event>
 5   0  0.2763587E-03  0.7996545E+03  0.7818609E-02  0.9560517E-01
        2   -1    0    0  501    0  0.00000000000E+00  0.00000000000E+00  0.16039645981E+04  0.16039645981E+04  0.25500000920E-02 0. -1.
       -2   -1    0    0    0  501  0.00000000000E+00  0.00000000000E+00 -0.99666678294E+02  0.99666678326E+02  0.25500000920E-02 0.  1.
    10030    2    1    2    0    0  0.00000000000E+00  0.00000000000E+00  0.15042979198E+04  0.17036312765E+04  0.79965448445E+03 0.  0.
        3    1    3    3  502    0  0.14967442986E+03  0.37030249928E+03  0.71312969939E+03  0.81736182580E+03  0.10100000352E+00 0. -1.
       -3    1    3    3    0  502 -0.14967442986E+03 -0.37030249928E+03  0.79116822045E+03  0.88626945066E+03  0.10100000352E+00 0.  1.
</event>
<event>
 5   0  0.1637228E-03  0.8001712E+03  0.7818609E-02  0.9559769E-01
       -1   -1    0    0    0  501  0.00000000000E+00  0.00000000000E+00  0.21753421127E+03  0.21753421132E+03  0.50400001928E-02 0.  1.
        1   -1    0    0  501    0  0.00000000000E+00  0.00000000000E+00 -0.73583133134E+03  0.73583133136E+03  0.50400001928E-02 0. -1.
    10030    2    1    2    0    0  0.00000000000E+00  0.00000000000E+00 -0.51829712008E+03  0.95336554269E+03  0.80017120249E+03 0.  0.
        2    1    3    3  502    0  0.39449125598E+03  0.63144015822E+02 -0.23365119482E+03  0.46282113027E+03  0.25500000920E-02 0. -1.
       -2    1    3    3    0  502 -0.39449125598E+03 -0.63144015822E+02 -0.28464592526E+03  0.49054441242E+03  0.25500000920E-02 0.  1.
</event>
<event>
 5   0  0.2910501E-03  0.8021152E+03  0.7818609E-02  0.9556960E-01
        2   -1    0    0  501    0  0.00000000000E+00  0.00000000000E+00  0.57114702529E+03  0.57114702529E+03  0.25500000920E-02 0.  1.
       -2   -1    0    0    0  501  0.00000000000E+00  0.00000000000E+00 -0.28162135557E+03  0.28162135558E+03  0.25500000920E-02 0. -1.
    10030    2    1    2    0    0  0.00000000000E+00  0.00000000000E+00  0.28952566971E+03  0.85276838088E+03  0.80211520245E+03 0.  0.
        1    1    3    3  502    0 -0.24059980873E+03  0.22818504672E+03 -0.95072279464E+02  0.34495713046E+03  0.50400001928E-02 0. -1.
       -1    1    3    3    0  502  0.24059980873E+03 -0.22818504672E+03  0.38459794918E+03  0.50781125041E+03  0.50400001928E-02 0.  1.
</event>
<event>
 5   0  0.2763587E-03  0.8003922E+03  0.7818609E-02  0.9559450E-01
       -2   -1    0    0    0  501  0.00000000000E+00  0.00000000000E+00  0.78458143726E+02  0.78458143768E+02  0.25500000920E-02 0.  1.
        2   -1    0    0  501    0  0.00000000000E+00  0.00000000000E+00 -0.20413040484E+04  0.20413040484E+04  0.25500000920E-02 0. -1.
    10030    2    1    2    0    0  0.00000000000E+00  0.00000000000E+00 -0.19628459047E+04  0.21197621922E+04  0.80039222002E+03 0.  0.
        3    1    3    3  502    0 -0.32509689063E+03 -0.10054357063E+03 -0.15392244199E+04  0.15763910755E+04  0.10100000352E+00 0. -1.
       -3    1    3    3    0  502  0.32509689063E+03  0.10054357063E+03 -0.42362148485E+03  0.54337111675E+03  0.10100000352E+00 0.  1.
</event>
<event>
 5   0  0.1617491E-03  0.8041513E+03  0.7818609E-02  0.9554028E-01
        1   -1    0    0  501    0  0.00000000000E+00  0.00000000000E+00  0.38225594815E+03  0.38225594818E+03  0.50400001928E-02 0. -1.
       -1   -1    0    0    0  501  0.00000000000E+00  0.00000000000E+00 -0.42292299575E+03  0.42292299578E+03  0.50400001928E-02 0.  1.
    10030    2    1    2    0    0  0.00000000000E+00  0.00000000000E+00 -0.40667047605E+02  0.80517894396E+03  0.80415130606E+03 0.  0.
        1    1    3    3  502    0 -0.25534463413E+03 -0.22724011871E+03 -0.23232531050E+03  0.41329650816E+03  0.50400001928E-02 0.  1.
       -1    1    3    3    0  502  0.25534463413E+03  0.22724011871E+03  0.19165826290E+03  0.39188243580E+03  0.50400001928E-02 0. -1.
</event>
<event>
 5   0  0.1617491E-03  0.7931045E+03  0.7818609E-02  0.9570052E-01
        1   -1    0    0  501    0  0.00000000000E+00  0.00000000000E+00  0.41296312589E+03  0.41296312592E+03  0.50400001928E-02 0. -1.
       -1   -1    0    0    0  501  0.00000000000E+00  0.00000000000E+00 -0.38079349393E+03  0.38079349396E+03  0.50400001928E-02 0.  1.
    10030    2    1    2    0    0  0.00000000000E+00  0.00000000000E+00  0.32169631956E+02  0.79375661988E+03  0.79310446121E+03 0.  0.
        1    1    3    3  502    0 -0.30307549633E+03 -0.13653878251E+03  0.23249415337E+03  0.40564901945E+03  0.50400001928E-02 0. -1.
       -1    1    3    3    0  502  0.30307549633E+03  0.13653878251E+03 -0.20032452141E+03  0.38810760043E+03  0.50400001928E-02 0.  1.
</event>
<event>
 5   0  0.2910501E-03  0.8011990E+03  0.7818609E-02  0.9558283E-01
        2   -1    0    0  501    0  0.00000000000E+00  0.00000000000E+00  0.10129808308E+04  0.10129808308E+04  0.25500000920E-02 0. -1.
       -2   -1    0    0    0  501  0.00000000000E+00  0.00000000000E+00 -0.15842348679E+03  0.15842348682E+03  0.25500000920E-02 0.  1.
    10030    2    1    2    0    0  0.00000000000E+00  0.00000000000E+00  0.85455734398E+03  0.11714043176E+04  0.80119898972E+03 0.  0.
        1    1    3    3  502    0 -0.37988411800E+03  0.12094889303E+03  0.48464261333E+03  0.62755003029E+03  0.50400001928E-02 0. -1.
       -1    1    3    3    0  502  0.37988411800E+03 -0.12094889303E+03  0.36991473064E+03  0.54385428730E+03  0.50400001928E-02 0.  1.
</event>
<event>
 5   0  0.1637228E-03  0.7999325E+03  0.7818609E-02  0.9560115E-01
       -1   -1    0    0    0  501  0.00000000000E+00  0.00000000000E+00  0.19774926598E+03  0.19774926604E+03  0.50400001928E-02 0.  1.
        1   -1    0    0  501    0  0.00000000000E+00  0.00000000000E+00 -0.80896892228E+03  0.80896892230E+03  0.50400001928E-02 0. -1.
    10030    2    1    2    0    0  0.00000000000E+00  0.00000000000E+00 -0.61121965630E+03  0.10067181883E+04  0.79993252371E+03 0.  0.
        2    1    3    3  502    0 -0.15255581894E+02 -0.31993059972E+03 -0.41339441828E+01  0.32032079376E+03  0.25500000920E-02 0.  1.
       -2    1    3    3    0  502  0.15255581894E+02  0.31993059972E+03 -0.60708571212E+03  0.68639739458E+03  0.25500000920E-02 0. -1.
</event>
<event>
 5   0  0.1617491E-03  0.7998206E+03  0.7818609E-02  0.9560277E-01
        1   -1    0    0  501    0  0.00000000000E+00  0.00000000000E+00  0.38703329728E+03  0.38703329732E+03  0.50400001928E-02 0.  1.
       -1   -1    0    0    0  501  0.00000000000E+00  0.00000000000E+00 -0.41321576545E+03  0.41321576548E+03  0.50400001928E-02 0. -1.
    10030    2    1    2    0    0  0.00000000000E+00  0.00000000000E+00 -0.26182468169E+02  0.80024906280E+03  0.79982063043E+03 0.  0.
        1    1    3    3  502    0  0.32465287699E+03 -0.22816923312E+03  0.36610023246E+02  0.39849841067E+03  0.50400001928E-02 0.  1.
       -1    1    3    3    0  502 -0.32465287699E+03  0.22816923312E+03 -0.62792491415E+02  0.40175065213E+03  0.50400001928E-02 0. -1.
</event>
<event>
 5   0  0.2763587E-03  0.8000157E+03  0.7818609E-02  0.9559994E-01
       -2   -1    0    0    0  501  0.00000000000E+00  0.00000000000E+00  0.15683356796E+03  0.15683356798E+03  0.25500000920E-02 0. -1.
        2   -1    0    0  501    0  0.00000000000E+00  0.00000000000E+00 -0.10202299098E+04  0.10202299098E+04  0.25500000920E-02 0.  1.
    10030    2    1    2    0    0  0.00000000000E+00  0.00000000000E+00 -0.86339634187E+03  0.11770634778E+04  0.80001574213E+03 0.  0.
        3    1    3    3  502    0 -0.15394452530E+03  0.21498023143E+03 -0.87331106167E+03  0.91246240328E+03  0.10100000352E+00 0.  1.
       -3    1    3    3    0  502  0.15394452530E+03 -0.21498023143E+03  0.99147198001E+01  0.26460107453E+03  0.10100000352E+00 0. -1.
</event>
<event>
 5   0  0.1712793E-03  0.7925761E+03  0.7818609E-02  0.9570825E-01
        1   -1    0    0  501    0  0.00000000000E+00  0.00000000000E+00  0.81811439812E+03  0.81811439814E+03  0.50400001928E-02 0.  1.
       -1   -1    0    0    0  501  0.00000000000E+00  0.00000000000E+00 -0.19195876092E+03  0.19195876098E+03  0.50400001928E-02 0. -1.
    10030    2    1    2    0    0  0.00000000000E+00  0.00000000000E+00  0.62615563720E+03  0.10100731591E+04  0.79257611922E+03 0.  0.
        4    1    3    3  502    0  0.67347981061E+02 -0.25443379218E+02 -0.18355203995E+03  0.19717018124E+03  0.12699999809E+01 0. -1.
       -4    1    3    3    0  502 -0.67347981061E+02  0.25443379218E+02  0.80970767716E+03  0.81290297788E+03  0.12699999809E+01 0.  1.
</event>
<event>
 5   0  0.1712793E-03  0.7997491E+03  0.7818609E-02  0.9560380E-01
       -1   -1    0    0    0  501  0.00000000000E+00  0.00000000000E+00  0.27611166242E+03  0.27611166247E+03  0.50400001928E-02 0. -1.
        1   -1    0    0  501    0  0.00000000000E+00  0.00000000000E+00 -0.57911222725E+03  0.57911222727E+03  0.50400001928E-02 0.  1.
    10030    2    1    2    0    0  0.00000000000E+00  0.00000000000E+00 -0.30300056483E+03  0.85522388974E+03  0.79974906021E+03 0.  0.
        4    1    3    3  502    0 -0.10281760758E+03  0.24085761267E+03 -0.47464360783E+03  0.54209963785E+03  0.12699999809E+01 0.  1.
       -4    1    3    3    0  502  0.10281760758E+03 -0.24085761267E+03  0.17164304300E+03  0.31312425189E+03  0.12699999809E+01 0. -1.
</event>
<event>
 5   0  0.1712793E-03  0.7994547E+03  0.7818609E-02  0.9560807E-01
        1   -1    0    0  501    0  0.00000000000E+00  0.00000000000E+00  0.13355915907E+04  0.13355915907E+04  0.50400001928E-02 0. -1.
       -1   -1    0    0    0  501  0.00000000000E+00  0.00000000000E+00 -0.11963383796E+03  0.11963383807E+03  0.50400001928E-02 0.  1.
    10030    2    1    2    0    0  0.00000000000E+00  0.00000000000E+00  0.12159577527E+04  0.14552254288E+04  0.79945468423E+03 0.  0.
        4    1    3    3  502    0 -0.83929577405E+01 -0.12777293606E+03 -0.81286914249E+02  0.15167577347E+03  0.12699999809E+01 0.  1.
       -4    1    3    3    0  502  0.83929577405E+01  0.12777293606E+03  0.12972446670E+04  0.13035496553E+04  0.12699999809E+01 0. -1.
</event>
<event>
 5   0  0.2873212E-03  0.8018017E+03  0.7818609E-02  0.9557413E-01
        2   -1    0    0  501    0  0.00000000000E+00  0.00000000000E+00  0.12327384799E+04  0.12327384799E+04  0.25500000920E-02 0.  1.
       -2   -1    0    0    0  501  0.00000000000E+00  0.00000000000E+00 -0.13037760524E+03  0.13037760526E+03  0.25500000920E-02 0. -1.
    10030    2    1    2    0    0  0.00000000000E+00  0.00000000000E+00  0.11023608746E+04  0.13631160851E+04  0.80180169845E+03 0.  0.
        2    1    3    3  502    0 -0.12604169541E+03 -0.29264263372E+03  0.13755296429E+03  0.34705480553E+03  0.25500000920E-02 0. -1.
       -2    1    3    3    0  502  0.12604169541E+03  0.29264263372E+03  0.96480791033E+03  0.10160612796E+04  0.25500000920E-02 0.  1.
</event>
<event>
 5   0  0.2768834E-03  0.8010056E+03  0.7818609E-02  0.9558563E-01
        2   -1    0    0  501    0  0.00000000000E+00  0.00000000000E+00  0.18550955286E+04  0.18550955286E+04  0.25500000920E-02 0.  1.
       -2   -1    0    0    0  501  0.00000000000E+00  0.00000000000E+00 -0.86465900434E+02  0.86465900472E+02  0.25500000920E-02 0. -1.
    10030    2    1    2    0    0  0.00000000000E+00  0.00000000000E+00  0.17686296282E+04  0.19415614291E+04  0.80100563121E+03 0.  0.
        4    1    3    3  502    0  0.39670714958E+03 -0.53781742106E+02  0.91214796513E+03  0.99613481091E+03  0.12699999809E+01 0.  1.
       -4    1    3    3    0  502 -0.39670714958E+03  0.53781742106E+02  0.85648166303E+03  0.94542661816E+03  0.12699999809E+01 0. -1.
</event>
<event>
 5   0  0.2763587E-03  0.7979963E+03  0.7818609E-02  0.9562922E-01
       -2   -1    0    0    0  501  0.00000000000E+00  0.00000000000E+00  0.24966771791E+03  0.24966771792E+03  0.25500000920E-02 0.  1.
        2   -1    0    0  501    0  0.00000000000E+00  0.00000000000E+00 -0.63764559545E+03  0.63764559545E+03  0.25500000920E-02 0. -1.
    10030    2    1    2    0    0  0.00000000000E+00  0.00000000000E+00 -0.38797787754E+03  0.88731331338E+03  0.79799629237E+03 0.  0.
        3    1    3    3  502    0  0.23654681698E+03 -0.17963589674E+03  0.10224312425E+03  0.31412914331E+03  0.10100000352E+00 0.  1.
       -3    1    3    3    0  502 -0.23654681698E+03  0.17963589674E+03 -0.49022100179E+03  0.57318417007E+03  0.10100000352E+00 0. -1.
</event>
<event>
 5   0  0.1656051E-03  0.8022642E+03  0.7818609E-02  0.9556746E-01
        1   -1    0    0  501    0  0.00000000000E+00  0.00000000000E+00  0.95861780294E+03  0.95861780295E+03  0.50400001928E-02 0.  1.
       -1   -1    0    0    0  501  0.00000000000E+00  0.00000000000E+00 -0.16785307496E+03  0.16785307504E+03  0.50400001928E-02 0. -1.
    10030    2    1    2    0    0  0.00000000000E+00  0.00000000000E+00  0.79076472798E+03  0.11264708780E+04  0.80226416095E+03 0.  0.
        3    1    3    3  502    0  0.11547085305E+03 -0.20566998184E+03 -0.60194485435E+02  0.24342770100E+03  0.10100000352E+00 0. -1.
       -3    1    3    3    0  502 -0.11547085305E+03  0.20566998184E+03  0.85095921341E+03  0.88304317699E+03  0.10100000352E+00 0.  1.
</event>
<event>
 5   0  0.2690809E-03  0.7987229E+03  0.7818609E-02  0.9561867E-01
        2   -1    0    0  501    0  0.00000000000E+00  0.00000000000E+00  0.36556991879E+03  0.36556991880E+03  0.25500000920E-02 0. -1.
       -2   -1    0    0    0  501  0.00000000000E+00  0.00000000000E+00 -0.43627655942E+03  0.43627655943E+03  0.25500000920E-02 0.  1.
    10030    2    1    2    0    0  0.00000000000E+00  0.00000000000E+00 -0.70706640633E+02  0.80184647823E+03  0.79872294672E+03 0.  0.
        5    1    3    3  502    0  0.39706916852E+03 -0.41096227961E+02 -0.24602948006E+02  0.39997527372E+03  0.46999998093E+01 0.  1.
       -5    1    3    3    0  502 -0.39706916852E+03  0.41096227961E+02 -0.46103692627E+02  0.40187120451E+03  0.46999998093E+01 0. -1.
</event>
<event>
 5   0  0.1095350E-03  0.8005231E+03  0.7818609E-02  0.9559260E-01
        3   -1    0    0  501    0  0.00000000000E+00  0.00000000000E+00  0.18030858375E+03  0.18030861204E+03  0.10100000352E+00 0. -1.
       -3   -1    0    0    0  501  0.00000000000E+00  0.00000000000E+00 -0.88852840233E+03  0.88852840807E+03  0.10100000352E+00 0.  1.
    10030    2    1    2    0    0  0.00000000000E+00  0.00000000000E+00 -0.70821981858E+03  0.10688370201E+04  0.80052311904E+03 0.  0.
        3    1    3    3  502    0  0.21667537263E+03 -0.27681505530E+03 -0.98555825591E+02  0.36508636363E+03  0.10100000352E+00 0. -1.
       -3    1    3    3    0  502 -0.21667537263E+03  0.27681505530E+03 -0.60966399299E+03  0.70375065648E+03  0.10100000352E+00 0.  1.
</event>
<event>
 5   0  0.2873212E-03  0.8032262E+03  0.7818609E-02  0.9555359E-01
       -2   -1    0    0    0  501  0.00000000000E+00  0.00000000000E+00  0.31866671849E+03  0.31866671850E+03  0.25500000920E-02 0.  1.
        2   -1    0    0  501    0  0.00000000000E+00  0.00000000000E+00 -0.50614974808E+03  0.50614974809E+03  0.25500000920E-02 0. -1.
    10030    2    1    2    0    0  0.00000000000E+00  0.00000000000E+00 -0.18748302958E+03  0.82481646659E+03  0.80322619303E+03 0.  0.
        2    1    3    3  502    0  0.12069881447E+03 -0.88675776895E+02 -0.47639912807E+03  0.49938735112E+03  0.25500000920E-02 0. -1.
       -2    1    3    3    0  502 -0.12069881447E+03  0.88675776895E+02  0.28891609849E+03  0.32542911547E+03  0.25500000920E-02 0.  1.
</event>
<event>
 5   0  0.1656051E-03  0.8009233E+03  0.7818609E-02  0.9558682E-01
        1   -1    0    0  501    0  0.00000000000E+00  0.00000000000E+00  0.26201868036E+03  0.26201868041E+03  0.50400001928E-02 0. -1.
       -1   -1    0    0    0  501  0.00000000000E+00  0.00000000000E+00 -0.61205374128E+03  0.61205374130E+03  0.50400001928E-02 0.  1.
    10030    2    1    2    0    0  0.00000000000E+00  0.00000000000E+00 -0.35003506091E+03  0.87407242171E+03  0.80092325133E+03 0.  0.
        3    1    3    3  502    0  0.35491759014E+03  0.61676167815E+02  0.15884498514E+02  0.36058670658E+03  0.10100000352E+00 0.  1.
       -3    1    3    3    0  502 -0.35491759014E+03 -0.61676167815E+02 -0.36591955943E+03  0.51348571513E+03  0.10100000352E+00 0. -1.
</event>
<event>
 5   0  0.2690809E-03  0.7978294E+03  0.7818609E-02  0.9563164E-01
       -2   -1    0    0    0  501  0.00000000000E+00  0.00000000000E+00  0.52575603858E+03  0.52575603858E+03  0.25500000920E-02 0. -1.
        2   -1    0    0  501    0  0.00000000000E+00  0.00000000000E+00 -0.30267446908E+03  0.30267446909E+03  0.25500000920E-02 0.  1.
    10030    2    1    2    0    0  0.00000000000E+00  0.00000000000E+00  0.22308156949E+03  0.82843050768E+03  0.79782937988E+03 0.  0.
        5    1    3    3  502    0  0.19732926901E+03  0.25741676757E+03 -0.12954694897E+03  0.34929462438E+03  0.46999998093E+01 0.  1.
       -5    1    3    3    0  502 -0.19732926901E+03 -0.25741676757E+03  0.35262851847E+03  0.47913588330E+03  0.46999998093E+01 0. -1.
</event>
<event>
 5   0  0.1640035E-03  0.8000960E+03  0.7818609E-02  0.9559878E-01
       -1   -1    0    0    0  501  0.00000000000E+00  0.00000000000E+00  0.72615357417E+03  0.72615357419E+03  0.50400001928E-02 0. -1.
        1   -1    0    0  501    0  0.00000000000E+00  0.00000000000E+00 -0.22039193767E+03  0.22039193773E+03  0.50400001928E-02 0.  1.
    10030    2    1    2    0    0  0.00000000000E+00  0.00000000000E+00  0.50576163650E+03  0.94654551192E+03  0.80009597748E+03 0.  0.
        5    1    3    3  502    0 -0.84919963597E+02 -0.11591031366E+03 -0.18877463763E+03  0.23728580834E+03  0.46999998093E+01 0.  1.
       -5    1    3    3    0  502  0.84919963597E+02  0.11591031366E+03  0.69453627414E+03  0.70925970358E+03  0.46999998093E+01 0. -1.
</event>
<event>
 5   0  0.2690809E-03  0.8005383E+03  0.7818609E-02  0.9559238E-01
        2   -1    0    0  501    0  0.00000000000E+00  0.00000000000E+00  0.44917007915E+03  0.44917007916E+03  0.25500000920E-02 0. -1.
       -2   -1    0    0    0  501  0.00000000000E+00  0.00000000000E+00 -0.35669200164E+03  0.35669200165E+03  0.25500000920E-02 0.  1.
    10030    2    1    2    0    0  0.00000000000E+00  0.00000000000E+00  0.92478077507E+02  0.80586208081E+03  0.80053825547E+03 0.  0.
        5    1    3    3  502    0  0.25861930465E+03 -0.26156964587E+03 -0.11257790663E+03  0.38470573097E+03  0.46999998093E+01 0.  1.
       -5    1    3    3    0  502 -0.25861930465E+03  0.26156964587E+03  0.20505598414E+03  0.42115634984E+03  0.46999998093E+01 0. -1.
</event>
<event>
 5   0  0.2910501E-03  0.8011438E+03  0.7818609E-02  0.9558363E-01
       -2   -1    0    0    0  501  0.00000000000E+00  0.00000000000E+00  0.29975333163E+03  0.29975333164E+03  0.25500000920E-02 0.  1.
        2   -1    0    0  501    0  0.00000000000E+00  0.00000000000E+00 -0.53529963362E+03  0.53529963363E+03  0.25500000920E-02 0. -1.
    10030    2    1    2    0    0  0.00000000000E+00  0.00000000000E+00 -0.23554630199E+03  0.83505296526E+03  0.80114380383E+03 0.  0.
        1    1    3    3  502    0  0.10997880307E+03  0.25164369010E+03 -0.42172862772E+03  0.50326426393E+03  0.50400001928E-02 0.  1.
       -1    1    3    3    0  502 -0.10997880307E+03 -0.25164369010E+03  0.18618232572E+03  0.33178870133E+03  0.50400001928E-02 0. -1.
</event>
<event>
 5   0  0.2768834E-03  0.8003372E+03  0.7818609E-02  0.9559529E-01
        2   -1    0    0  501    0  0.00000000000E+00  0.00000000000E+00  0.13475929548E+03  0.13475929551E+03  0.25500000920E-02 0.  1.
       -2   -1    0    0    0  501  0.00000000000E+00  0.00000000000E+00 -0.11883032355E+04  0.11883032355E+04  0.25500000920E-02 0. -1.
    10030    2    1    2    0    0  0.00000000000E+00  0.00000000000E+00 -0.10535439400E+04  0.13230625310E+04  0.80033719606E+03 0.  0.
        4    1    3    3  502    0 -0.36698299825E+03 -0.52230448667E+02 -0.27754492096E+03  0.46307379199E+03  0.12699999809E+01 0.  1.
       -4    1    3    3    0  502  0.36698299825E+03  0.52230448667E+02 -0.77599901901E+03  0.85998873899E+03  0.12699999809E+01 0. -1.
</event>
<event>
 5   0  0.1656051E-03  0.7969081E+03  0.7818609E-02  0.9564503E-01
       -1   -1    0    0    0  501  0.00000000000E+00  0.00000000000E+00  0.29087338835E+03  0.29087338839E+03  0.50400001928E-02 0. -1.
        1   -1    0    0  501    0  0.00000000000E+00  0.00000000000E+00 -0.54582384106E+03  0.54582384108E+03  0.50400001928E-02 0.  1.
    10030    2    1    2    0    0  0.00000000000E+00  0.00000000000E+00 -0.25495045271E+03  0.83669722947E+03  0.79690810039E+03 0.  0.
        3    1    3    3  502    0 -0.75575317554E+02  0.23023690813E+03  0.20461622137E+03  0.31715685510E+03  0.10100000352E+00 0. -1.
       -3    1    3    3    0  502  0.75575317554E+02 -0.23023690813E+03 -0.45956667408E+03  0.51954037438E+03  0.10100000352E+00 0.  1.
</event>
<event>
 5   0  0.1712793E-03  0.7995236E+03  0.7818609E-02  0.9560707E-01
       -1   -1    0    0    0  501  0.00000000000E+00  0.00000000000E+00  0.44463681755E+03  0.44463681758E+03  0.50400001928E-02 0.  1.
        1   -1    0    0  501    0  0.00000000000E+00  0.00000000000E+00 -0.35941584110E+03  0.35941584114E+03  0.50400001928E-02 0. -1.
    10030    2    1    2    0    0  0.00000000000E+00  0.00000000000E+00  0.85220976446E+02  0.80405265872E+03  0.79952364766E+03 0.  0.
        4    1    3    3  502    0 -0.38165942877E+01 -0.30224648087E+03  0.30570358478E+03  0.42991138184E+03  0.12699999809E+01 0.  1.
       -4    1    3    3    0  502  0.38165942877E+01  0.30224648087E+03 -0.22048260833E+03  0.37414127688E+03  0.12699999809E+01 0. -1.
</event>
<event>
 5   0  0.2910501E-03  0.7995939E+03  0.7818609E-02  0.9560605E-01
        2   -1    0    0  501    0  0.00000000000E+00  0.00000000000E+00  0.95198421442E+03  0.95198421442E+03  0.25500000920E-02 0. -1.
       -2   -1    0    0    0  501  0.00000000000E+00  0.00000000000E+00 -0.16789943952E+03  0.16789943954E+03  0.25500000920E-02 0.  1.
    10030    2    1    2    0    0  0.00000000000E+00  0.00000000000E+00  0.78408477490E+03  0.11198836540E+04  0.79959393706E+03 0.  0.
        1    1    3    3  502    0 -0.21210435268E+03  0.24580769696E+03  0.71879144589E+03  0.78871466515E+03  0.50400001928E-02 0. -1.
       -1    1    3    3    0  502  0.21210435268E+03 -0.24580769696E+03  0.65293329009E+02  0.33116898881E+03  0.50400001928E-02 0.  1.
</event>
<event>
 5   0  0.1712793E-03  0.7999714E+03  0.7818609E-02  0.9560059E-01
       -1   -1    0    0    0  501  0.00000000000E+00  0.00000000000E+00  0.54000733805E+03  0.54000733807E+03  0.50400001928E-02 0.  1.
        1   -1    0    0  501    0  0.00000000000E+00  0.00000000000E+00 -0.29627104901E+03  0.29627104906E+03  0.50400001928E-02 0. -1.
    10030    2    1    2    0    0  0.00000000000E+00  0.00000000000E+00  0.24373628903E+03  0.83627838713E+03  0.79997135085E+03 0.  0.
        4    1    3    3  502    0 -0.18061680559E+03 -0.10306924458E+03  0.47904932448E+03  0.52224090976E+03  0.12699999809E+01 0.  1.
       -4    1    3    3    0  502  0.18061680559E+03  0.10306924458E+03 -0.23531303545E+03  0.31403747737E+03  0.12699999809E+01 0. -1.
</event>
<event>
 5   0  0.2768834E-03  0.8001808E+03  0.7818609E-02  0.9559755E-01
        2   -1    0    0  501    0  0.00000000000E+00  0.00000000000E+00  0.36005921465E+03  0.36005921466E+03  0.25500000920E-02 0. -1.
       -2   -1    0    0    0  501  0.00000000000E+00  0.00000000000E+00 -0.44457225624E+03  0.44457225624E+03  0.25500000920E-02 0.  1.
    10030    2    1    2    0    0  0.00000000000E+00  0.00000000000E+00 -0.84513041590E+02  0.80463147090E+03  0.80018082317E+03 0.  0.
        4    1    3    3  502    0 -0.38016874287E+02 -0.19435425365E+03  0.30731460711E+03  0.36559915110E+03  0.12699999809E+01 0. -1.
       -4    1    3    3    0  502  0.38016874287E+02  0.19435425365E+03 -0.39182764870E+03  0.43903231980E+03  0.12699999809E+01 0.  1.
</event>
<event>
 5   0  0.2690809E-03  0.7998018E+03  0.7818609E-02  0.9560304E-01
       -2   -1    0    0    0  501  0.00000000000E+00  0.00000000000E+00  0.17405040086E+03  0.17405040088E+03  0.25500000920E-02 0.  1.
        2   -1    0    0  501    0  0.00000000000E+00  0.00000000000E+00 -0.91881847680E+03  0.91881847681E+03  0.25500000920E-02 0. -1.
    10030    2    1    2    0    0  0.00000000000E+00  0.00000000000E+00 -0.74476807594E+03  0.10928688777E+04  0.79980178599E+03 0.  0.
        5    1    3    3  502    0 -0.22564254432E+03  0.31418780274E+03 -0.51085957137E+03  0.64080271914E+03  0.46999998093E+01 0. -1.
       -5    1    3    3    0  502  0.22564254432E+03 -0.31418780274E+03 -0.23390850457E+03  0.45206615855E+03  0.46999998093E+01 0.  1.
</event>
<event>
 5   0  0.2690809E-03  0.7942045E+03  0.7818609E-02  0.9568444E-01
       -2   -1    0    0    0  501  0.00000000000E+00  0.00000000000E+00  0.42526001301E+03  0.42526001302E+03  0.25500000920E-02 0.  1.
        2   -1    0    0  501    0  0.00000000000E+00  0.00000000000E+00 -0.37080886254E+03  0.37080886255E+03  0.25500000920E-02 0. -1.
    10030    2    1    2    0    0  0.00000000000E+00  0.00000000000E+00  0.54451150467E+02  0.79606887557E+03  0.79420446162E+03 0.  0.
        5    1    3    3  502    0 -0.22477919146E+03 -0.11941772426E+02  0.35510170995E+03  0.42046118162E+03  0.46999998093E+01 0.  1.
       -5    1    3    3    0  502  0.22477919146E+03  0.11941772426E+02 -0.30065055948E+03  0.37560769395E+03  0.46999998093E+01 0. -1.
</event>
<event>
 5   0  0.1712793E-03  0.8025591E+03  0.7818609E-02  0.9556320E-01
        1   -1    0    0  501    0  0.00000000000E+00  0.00000000000E+00  0.51308316579E+03  0.51308316582E+03  0.50400001928E-02 0.  1.
       -1   -1    0    0    0  501  0.00000000000E+00  0.00000000000E+00 -0.31383856971E+03  0.31383856975E+03  0.50400001928E-02 0. -1.
    10030    2    1    2    0    0  0.00000000000E+00  0.00000000000E+00  0.19924459608E+03  0.82692173556E+03  0.80255912410E+03 0.  0.
        4    1    3    3  502    0  0.91044673520E+02 -0.22599287541E+03  0.42814560562E+03  0.49261768627E+03  0.12699999809E+01 0.  1.
       -4    1    3    3    0  502 -0.91044673520E+02  0.22599287541E+03 -0.22890100953E+03  0.33430404930E+03  0.12699999809E+01 0. -1.
</event>
<event>
 5   0  0.1712793E-03  0.7989994E+03  0.7818609E-02  0.9561467E-01
        1   -1    0    0  501    0  0.00000000000E+00  0.00000000000E+00  0.91637984520E+03  0.91637984521E+03  0.50400001928E-02 0.  1.
       -1   -1    0    0    0  501  0.00000000000E+00  0.00000000000E+00 -0.17416357960E+03  0.17416357968E+03  0.50400001928E-02 0. -1.
    10030    2    1    2    0    0  0.00000000000E+00  0.00000000000E+00  0.74221626559E+03  0.10905434249E+04  0.79899935961E+03 0.  0.
        4    1    3    3  502    0  0.12530181384E+03  0.25275191369E+03 -0.14974579946E+02  0.28250650500E+03  0.12699999809E+01 0. -1.
       -4    1    3    3    0  502 -0.12530181384E+03 -0.25275191369E+03  0.75719084554E+03  0.80803691988E+03  0.12699999809E+01 0.  1.
</event>
<event>
 5   0  0.1095350E-03  0.7998965E+03  0.7818609E-02  0.9560167E-01
        3   -1    0    0  501    0  0.00000000000E+00  0.00000000000E+00  0.95981256427E+03  0.95981256958E+03  0.10100000352E+00 0. -1.
       -3   -1    0    0    0  501  0.00000000000E+00  0.00000000000E+00 -0.16665606237E+03  0.16665609297E+03  0.10100000352E+00 0.  1.
    10030    2    1    2    0    0  0.00000000000E+00  0.00000000000E+00  0.79315650190E+03  0.11264686626E+04  0.79989650031E+03 0.  0.
        1    1    3    3  502    0 -0.39260794871E+02 -0.13121913766E+03 -0.13259844961E+03  0.19063635793E+03  0.50400001928E-02 0.  1.
       -1    1    3    3    0  502  0.39260794871E+02  0.13121913766E+03  0.92575495151E+03  0.93583230462E+03  0.50400001928E-02 0. -1.
</event>
<event>
 5   0  0.1617491E-03  0.8033837E+03  0.7818609E-02  0.9555132E-01
       -1   -1    0    0    0  501  0.00000000000E+00  0.00000000000E+00  0.26209765744E+03  0.26209765749E+03  0.50400001928E-02 0.  1.
        1   -1    0    0  501    0  0.00000000000E+00  0.00000000000E+00 -0.61563445786E+03  0.61563445788E+03  0.50400001928E-02 0. -1.
    10030    2    1    2    0    0  0.00000000000E+00  0.00000000000E+00 -0.35353680042E+03  0.87773211536E+03  0.80338371722E+03 0.  0.
        1    1    3    3  502    0 -0.33273315189E+03  0.21323643119E+03 -0.25536495509E+03  0.47052352361E+03  0.50400001928E-02 0. -1.
       -1    1    3    3    0  502  0.33273315189E+03 -0.21323643119E+03 -0.98171845331E+02  0.40720859176E+03  0.50400001928E-02 0.  1.
</event>
<event>
 5   0  0.2690809E-03  0.8012856E+03  0.7818609E-02  0.9558158E-01
       -2   -1    0    0    0  501  0.00000000000E+00  0.00000000000E+00  0.21919786781E+03  0.21919786783E+03  0.25500000920E-02 0.  1.
        2   -1    0    0  501    0  0.00000000000E+00  0.00000000000E+00 -0.73228205334E+03  0.73228205334E+03  0.25500000920E-02 0. -1.
    10030    2    1    2    0    0  0.00000000000E+00  0.00000000000E+00 -0.51308418552E+03  0.95147992117E+03  0.80128562882E+03 0.  0.
        5    1    3    3  502    0  0.25554978934E+03 -0.21280077245E+02  0.10893932371E+03  0.27865462991E+03  0.46999998093E+01 0.  1.
       -5    1    3    3    0  502 -0.25554978934E+03  0.21280077245E+02 -0.62202350923E+03  0.67282529126E+03  0.46999998093E+01 0. -1.
</event>
<event>
 5   0  0.2910501E-03  0.8010789E+03  0.7818609E-02  0.9558457E-01
       -2   -1    0    0    0  501  0.00000000000E+00  0.00000000000E+00  0.12336683405E+03  0.12336683407E+03  0.25500000920E-02 0. -1.
        2   -1    0    0  501    0  0.00000000000E+00  0.00000000000E+00 -0.13004456574E+04  0.13004456575E+04  0.25500000920E-02 0.  1.
    10030    2    1    2    0    0  0.00000000000E+00  0.00000000000E+00 -0.11770788234E+04  0.14238124915E+04  0.80107893152E+03 0.  0.
        1    1    3    3  502    0 -0.78000715919E+02 -0.36325267809E+03 -0.85452333403E+03  0.93179758975E+03  0.50400001928E-02 0.  1.
       -1    1    3    3    0  502  0.78000715919E+02  0.36325267809E+03 -0.32255548937E+03  0.49201490178E+03  0.50400001928E-02 0. -1.
</event>
<event>
 5   0  0.2910501E-03  0.8031096E+03  0.7818609E-02  0.9555527E-01
        2   -1    0    0  501    0  0.00000000000E+00  0.00000000000E+00  0.15543724438E+04  0.15543724438E+04  0.25500000920E-02 0. -1.
       -2   -1    0    0    0  501  0.00000000000E+00  0.00000000000E+00 -0.10373721503E+03  0.10373721506E+03  0.25500000920E-02 0.  1.
    10030    2    1    2    0    0  0.00000000000E+00  0.00000000000E+00  0.14506352287E+04  0.16581096588E+04  0.80310962754E+03 0.  0.
        1    1    3    3  502    0 -0.33825952418E+02  0.39999652938E+03  0.70417676870E+03  0.81055927616E+03  0.50400001928E-02 0. -1.
       -1    1    3    3    0  502  0.33825952418E+02 -0.39999652938E+03  0.74645846004E+03  0.84755038267E+03  0.50400001928E-02 0.  1.
</event>
<event>
 5   0  0.2910501E-03  0.8014094E+03  0.7818609E-02  0.9557979E-01
        2   -1    0    0  501    0  0.00000000000E+00  0.00000000000E+00  0.12542306274E+04  0.12542306274E+04  0.25500000920E-02 0. -1.
       -2   -1    0    0    0  501  0.00000000000E+00  0.00000000000E+00 -0.12801813730E+03  0.12801813733E+03  0.25500000920E-02 0.  1.
    10030    2    1    2    0    0  0.00000000000E+00  0.00000000000E+00  0.11262124901E+04  0.13822487647E+04  0.80140943016E+03 0.  0.
        1    1    3    3  502    0 -0.10832052316E+03 -0.42740877749E+02 -0.98190766517E+02  0.15232053382E+03  0.50400001928E-02 0.  1.
       -1    1    3    3    0  502  0.10832052316E+03  0.42740877749E+02  0.12244032566E+04  0.12299282309E+04  0.50400001928E-02 0. -1.
</event>
<event>
 5   0  0.1637228E-03  0.7992472E+03  0.7818609E-02  0.9561107E-01
        1   -1    0    0  501    0  0.00000000000E+00  0.00000000000E+00  0.44083995728E+03  0.44083995731E+03  0.50400001928E-02 0.  1.
       -1   -1    0    0    0  501  0.00000000000E+00  0.00000000000E+00 -0.36226076340E+03  0.36226076344E+03  0.50400001928E-02 0. -1.
    10030    2    1    2    0    0  0.00000000000E+00  0.00000000000E+00  0.78579193876E+02  0.80310072075E+03  0.79924719453E+03 0.  0.
        2    1    3    3  502    0  0.26968611339E+03  0.42015603991E+02 -0.25401347767E+03  0.37285219267E+03  0.25500000920E-02 0. -1.
       -2    1    3    3    0  502 -0.26968611339E+03 -0.42015603991E+02  0.33259267155E+03  0.43024852808E+03  0.25500000920E-02 0.  1.
</event>
<event>
 5   0  0.1640035E-03  0.7978430E+03  0.7818609E-02  0.9563145E-01
        1   -1    0    0  501    0  0.00000000000E+00  0.00000000000E+00  0.79493393191E+03  0.79493393192E+03  0.50400001928E-02 0. -1.
       -1   -1    0    0    0  501  0.00000000000E+00  0.00000000000E+00 -0.20019068690E+03  0.20019068697E+03  0.50400001928E-02 0.  1.
    10030    2    1    2    0    0  0.00000000000E+00  0.00000000000E+00  0.59474324500E+03  0.99512461889E+03  0.79784301692E+03 0.  0.
        5    1    3    3  502    0  0.93437162712E+02 -0.30207152327E+03 -0.59444590231E+01  0.31628331467E+03  0.46999998093E+01 0.  1.
       -5    1    3    3    0  502 -0.93437162712E+02  0.30207152327E+03  0.60068770403E+03  0.67884130422E+03  0.46999998093E+01 0. -1.
</event>
<event>
 5   0  0.2690809E-03  0.8003629E+03  0.7818609E-02  0.9559492E-01
        2   -1    0    0  501    0  0.00000000000E+00  0.00000000000E+00  0.18502377923E+04  0.18502377923E+04  0.25500000920E-02 0.  1.
       -2   -1    0    0    0  501  0.00000000000E+00  0.00000000000E+00 -0.86553849727E+02  0.86553849765E+02  0.25500000920E-02 0. -1.
    10030    2    1    2    0    0  0.00000000000E+00  0.00000000000E+00  0.17636839426E+04  0.19367916421E+04  0.80036292736E+03 0.  0.
        5    1    3    3  502    0  0.77595744650E+02  0.25255827862E+03  0.16090841842E+04  0.16306381528E+04  0.46999998093E+01 0.  1.
       -5    1    3    3    0  502 -0.77595744650E+02 -0.25255827862E+03  0.15459975842E+03  0.30615348927E+03  0.46999998093E+01 0. -1.
</event>
<event>
 5   0  0.1712793E-03  0.8004430E+03  0.7818609E-02  0.9559376E-01
       -1   -1    0    0    0  501  0.00000000000E+00  0.00000000000E+00  0.56509290801E+03  0.56509290804E+03  0.50400001928E-02 0. -1.
        1   -1    0    0  501    0  0.00000000000E+00  0.00000000000E+00 -0.28345292850E+03  0.28345292854E+03  0.50400001928E-02 0.  1.
    10030    2    1    2    0    0  0.00000000000E+00  0.00000000000E+00  0.28163997951E+03  0.84854583658E+03  0.80044297656E+03 0.  0.
        4    1    3    3  502    0 -0.17012648275E+03 -0.15222279663E+03 -0.20766096806E+03  0.30860896050E+03  0.12699999809E+01 0.  1.
       -4    1    3    3    0  502  0.17012648275E+03  0.15222279663E+03  0.48930094758E+03  0.53993687608E+03  0.12699999809E+01 0. -1.
</event>
<event>
 5   0  0.2873212E-03  0.8000256E+03  0.7818609E-02  0.9559980E-01
        2   -1    0    0  501    0  0.00000000000E+00  0.00000000000E+00  0.55351498819E+03  0.55351498820E+03  0.25500000920E-02 0. -1.
       -2   -1    0    0    0  501  0.00000000000E+00  0.00000000000E+00 -0.28908021561E+03  0.28908021562E+03  0.25500000920E-02 0.  1.
    10030    2    1    2    0    0  0.00000000000E+00  0.00000000000E+00  0.26443477258E+03  0.84259520382E+03  0.80002557993E+03 0.  0.
        2    1    3    3  502    0  0.28581147370E+03 -0.25033785552E+03  0.44822329950E+00  0.37994399760E+03  0.25500000920E-02 0. -1.
       -2    1    3    3    0  502 -0.28581147370E+03  0.25033785552E+03  0.26398654928E+03  0.46265120622E+03  0.25500000920E-02 0.  1.
</event>
<event>
 5   0  0.1617491E-03  0.8025185E+03  0.7818609E-02  0.9556379E-01
        1   -1    0    0  501    0  0.00000000000E+00  0.00000000000E+00  0.64439163806E+03  0.64439163808E+03  0.50400001928E-02 0.  1.
       -1   -1    0    0    0  501  0.00000000000E+00  0.00000000000E+00 -0.24986203015E+03  0.24986203021E+03  0.50400001928E-02 0. -1.
    10030    2    1    2    0    0  0.00000000000E+00  0.00000000000E+00  0.39452960791E+03  0.89425366829E+03  0.80251854292E+03 0.  0.
        1    1    3    3  502    0 -0.24210623192E+03  0.31741345659E+03  0.24242214108E+03  0.46704948824E+03  0.50400001928E-02 0.  1.
       -1    1    3    3    0  502  0.24210623192E+03 -0.31741345659E+03  0.15210746683E+03  0.42720418004E+03  0.50400001928E-02 0. -1.
</event>
<event>
 5   0  0.2763587E-03  0.8003898E+03  0.7818609E-02  0.9559453E-01
       -2   -1    0    0    0  501  0.00000000000E+00  0.00000000000E+00  0.26968548377E+03  0.26968548378E+03  0.25500000920E-02 0. -1.
        2   -1    0    0  501    0  0.00000000000E+00  0.00000000000E+00 -0.59386202679E+03  0.59386202680E+03  0.25500000920E-02 0.  1.
    10030    2    1    2    0    0  0.00000000000E+00  0.00000000000E+00 -0.32417654302E+03  0.86354751058E+03  0.80038982501E+03 0.  0.
        3    1    3    3  502    0  0.35840643136E+03 -0.11455331949E+03 -0.30914603356E+03  0.48697937669E+03  0.10100000352E+00 0.  1.
       -3    1    3    3    0  502 -0.35840643136E+03  0.11455331949E+03 -0.15030509461E+02  0.37656813389E+03  0.10100000352E+00 0. -1.
</event>
<event>
 5   0  0.2690809E-03  0.8050591E+03  0.7818609E-02  0.9552723E-01
        2   -1    0    0  501    0  0.00000000000E+00  0.00000000000E+00  0.44486845426E+03  0.44486845426E+03  0.25500000920E-02 0.  1.
       -2   -1    0    0    0  501  0.00000000000E+00  0.00000000000E+00 -0.36422011530E+03  0.36422011531E+03  0.25500000920E-02 0. -1.
    10030    2    1    2    0    0  0.00000000000E+00  0.00000000000E+00  0.80648338958E+02  0.80908856957E+03  0.80505910270E+03 0.  0.
        5    1    3    3  502    0  0.22949206046E+03  0.10344895154E+03 -0.27531731734E+03  0.37308176934E+03  0.46999998093E+01 0. -1.
       -5    1    3    3    0  502 -0.22949206046E+03 -0.10344895154E+03  0.35596565629E+03  0.43600680023E+03  0.46999998093E+01 0.  1.
</event>
<event>
 5   0  0.1617491E-03  0.8013395E+03  0.7818609E-02  0.9558080E-01
        1   -1    0    0  501    0  0.00000000000E+00  0.00000000000E+00  0.11509139620E+04  0.11509139620E+04  0.50400001928E-02 0.  1.
       -1   -1    0    0    0  501  0.00000000000E+00  0.00000000000E+00 -0.13948589068E+03  0.13948589078E+03  0.50400001928E-02 0. -1.
    10030    2    1    2    0    0  0.00000000000E+00  0.00000000000E+00  0.10114280713E+04  0.12903998527E+04  0.80133952642E+03 0.  0.
        1    1    3    3  502    0  0.72723984192E+02  0.18111656184E+03  0.10691920519E+04  0.10868595267E+04  0.50400001928E-02 0.  1.
       -1    1    3    3    0  502 -0.72723984192E+02 -0.18111656184E+03 -0.57763980639E+02  0.20354032606E+03  0.50400001928E-02 0. -1.
</event>
<event>
 5   0  0.1712793E-03  0.7990191E+03  0.7818609E-02  0.9561438E-01
        1   -1    0    0  501    0  0.00000000000E+00  0.00000000000E+00  0.22683473990E+04  0.22683473990E+04  0.50400001928E-02 0. -1.
       -1   -1    0    0    0  501  0.00000000000E+00  0.00000000000E+00 -0.70363075173E+02  0.70363075354E+02  0.50400001928E-02 0.  1.
    10030    2    1    2    0    0  0.00000000000E+00  0.00000000000E+00  0.21979843238E+04  0.23387104744E+04  0.79901914563E+03 0.  0.
        4    1    3    3  502    0 -0.48754154618E+02 -0.29200981964E+03  0.31382234646E+03  0.43143108417E+03  0.12699999809E+01 0.  1.
       -4    1    3    3    0  502  0.48754154618E+02  0.29200981964E+03  0.18841619774E+04  0.19072793902E+04  0.12699999809E+01 0. -1.
</event>
<event>
 5   0  0.1640035E-03  0.8001990E+03  0.7818609E-02  0.9559729E-01
       -1   -1    0    0    0  501  0.00000000000E+00  0.00000000000E+00  0.25473184313E+03  0.25473184318E+03  0.50400001928E-02 0.  1.
        1   -1    0    0  501    0  0.00000000000E+00  0.00000000000E+00 -0.62842396529E+03  0.62842396531E+03  0.50400001928E-02 0. -1.
    10030    2    1    2    0    0  0.00000000000E+00  0.00000000000E+00 -0.37369212216E+03  0.88315580849E+03  0.80019896270E+03 0.  0.
        5    1    3    3  502    0  0.38736544057E+03  0.99554543493E+02 -0.17612208264E+03  0.43704023804E+03  0.46999998093E+01 0.  1.
       -5    1    3    3    0  502 -0.38736544057E+03 -0.99554543493E+02 -0.19757003952E+03  0.44611557044E+03  0.46999998093E+01 0. -1.
</event>
<event>
 5   0  0.1640035E-03  0.8000976E+03  0.7818609E-02  0.9559876E-01
        1   -1    0    0  501    0  0.00000000000E+00  0.00000000000E+00  0.30147602215E+03  0.30147602219E+03  0.50400001928E-02 0.  1.
       -1   -1    0    0    0  501  0.00000000000E+00  0.00000000000E+00 -0.53085168732E+03  0.53085168734E+03  0.50400001928E-02 0. -1.
    10030    2    1    2    0    0  0.00000000000E+00  0.00000000000E+00 -0.22937566516E+03  0.83232770954E+03  0.80009763172E+03 0.  0.
        5    1    3    3  502    0  0.38755023920E+03  0.77757691619E+01 -0.11908563946E+02  0.38783959878E+03  0.46999998093E+01 0.  1.
       -5    1    3    3    0  502 -0.38755023920E+03 -0.77757691619E+01 -0.21746710122E+03  0.44448811075E+03  0.46999998093E+01 0. -1.
</event>
<event>
 5   0  0.2690809E-03  0.8000917E+03  0.7818609E-02  0.9559884E-01
       -2   -1    0    0    0  501  0.00000000000E+00  0.00000000000E+00  0.31537609922E+03  0.31537609923E+03  0.25500000920E-02 0. -1.
        2   -1    0    0  501    0  0.00000000000E+00  0.00000000000E+00 -0.50744702973E+03  0.50744702974E+03  0.25500000920E-02 0.  1.
    10030    2    1    2    0    0  0.00000000000E+00  0.00000000000E+00 -0.19207093051E+03  0.82282312897E+03  0.80009165676E+03 0.  0.
        5    1    3    3  502    0 -0.20536519206E+03 -0.52114393012E+02 -0.44497430491E+03  0.49286407264E+03  0.46999998093E+01 0.  1.
       -5    1    3    3    0  502  0.20536519206E+03  0.52114393012E+02  0.25290337440E+03  0.32995905633E+03  0.46999998093E+01 0. -1.
</event>
<event>
 5   0  0.2690809E-03  0.7986214E+03  0.7818609E-02  0.9562015E-01
        2   -1    0    0  501    0  0.00000000000E+00  0.00000000000E+00  0.67455383692E+03  0.67455383693E+03  0.25500000920E-02 0.  1.
       -2   -1    0    0    0  501  0.00000000000E+00  0.00000000000E+00 -0.23637700610E+03  0.23637700612E+03  0.25500000920E-02 0. -1.
    10030    2    1    2    0    0  0.00000000000E+00  0.00000000000E+00  0.43817683082E+03  0.91093084304E+03  0.79862135317E+03 0.  0.
        5    1    3    3  502    0  0.12813340525E+03 -0.19892140137E+03 -0.14776005696E+03  0.27900361628E+03  0.46999998093E+01 0. -1.
       -5    1    3    3    0  502 -0.12813340525E+03  0.19892140137E+03  0.58593688778E+03  0.63192722676E+03  0.46999998093E+01 0.  1.
</event>
<event>
 5   0  0.2690809E-03  0.7995139E+03  0.7818609E-02  0.9560721E-01
        2   -1    0    0  501    0  0.00000000000E+00  0.00000000000E+00  0.61306960350E+03  0.61306960350E+03  0.25500000920E-02 0.  1.
       -2   -1    0    0    0  501  0.00000000000E+00  0.00000000000E+00 -0.26066474875E+03  0.26066474876E+03  0.25500000920E-02 0. -1.
    10030    2    1    2    0    0  0.00000000000E+00  0.00000000000E+00  0.35240485475E+03  0.87373435226E+03  0.79951393776E+03 0.  0.
        5    1    3    3  502    0 -0.21050961076E+03 -0.62921774483E+02  0.54113318701E+03  0.58405535868E+03  0.46999998093E+01 0.  1.
       -5    1    3    3    0  502  0.21050961076E+03  0.62921774483E+02 -0.18872833226E+03  0.28967899358E+03  0.46999998093E+01 0. -1.
</event>
<event>
 5   0  0.2690809E-03  0.7990097E+03  0.7818609E-02  0.9561452E-01
        2   -1    0    0  501    0  0.00000000000E+00  0.00000000000E+00  0.13499023897E+04  0.13499023897E+04  0.25500000920E-02 0. -1.
       -2   -1    0    0    0  501  0.00000000000E+00  0.00000000000E+00 -0.11823382668E+03  0.11823382671E+03  0.25500000920E-02 0.  1.
    10030    2    1    2    0    0  0.00000000000E+00  0.00000000000E+00  0.12316685630E+04  0.14681362164E+04  0.79900970006E+03 0.  0.
        5    1    3    3  502    0 -0.38752234670E+03  0.42597646060E+02  0.77595477678E+03  0.86839854574E+03  0.46999998093E+01 0. -1.
       -5    1    3    3    0  502  0.38752234670E+03 -0.42597646060E+02  0.45571378625E+03  0.59973767067E+03  0.46999998093E+01 0.  1.
</event>
<event>
 5   0  0.1637228E-03  0.7989008E+03  0.7818609E-02  0.9561610E-01
        1   -1    0    0  501    0  0.00000000000E+00  0.00000000000E+00  0.12554923422E+03  0.12554923432E+03  0.50400001928E-02 0. -1.
       -1   -1    0    0    0  501  0.00000000000E+00  0.00000000000E+00 -0.12709006690E+04  0.12709006690E+04  0.50400001928E-02 0.  1.
    10030    2    1    2    0    0  0.00000000000E+00  0.00000000000E+00 -0.11453514347E+04  0.13964499033E+04  0.79890075937E+03 0.  0.
        2    1    3    3  502    0 -0.85260948167E+01 -0.48179054182E+02  0.12029164433E+03  0.12986144638E+03  0.25500000920E-02 0. -1.
       -2    1    3    3    0  502  0.85260948167E+01  0.48179054182E+02 -0.12656430791E+04  0.12665884569E+04  0.25500000920E-02 0.  1.
</event>
<event>
 5   0  0.2763587E-03  0.8012791E+03  0.7818609E-02  0.9558167E-01
       -2   -1    0    0    0  501  0.00000000000E+00  0.00000000000E+00  0.25551603372E+03  0.25551603374E+03  0.25500000920E-02 0.  1.
        2   -1    0    0  501    0  0.00000000000E+00  0.00000000000E+00 -0.62818783394E+03  0.62818783394E+03  0.25500000920E-02 0. -1.
    10030    2    1    2    0    0  0.00000000000E+00  0.00000000000E+00 -0.37267180021E+03  0.88370386768E+03  0.80127913681E+03 0.  0.
        3    1    3    3  502    0  0.27854742805E+03 -0.91683877415E+02  0.11472330782E+03  0.31489053750E+03  0.10100000352E+00 0.  1.
       -3    1    3    3    0  502 -0.27854742805E+03  0.91683877415E+02 -0.48739510804E+03  0.56881333018E+03  0.10100000352E+00 0. -1.
</event>
<event>
 5   0  0.2768834E-03  0.7992981E+03  0.7818609E-02  0.9561034E-01
        2   -1    0    0  501    0  0.00000000000E+00  0.00000000000E+00  0.65163880210E+03  0.65163880210E+03  0.25500000920E-02 0.  1.
       -2   -1    0    0    0  501  0.00000000000E+00  0.00000000000E+00 -0.24510414347E+03  0.24510414349E+03  0.25500000920E-02 0. -1.
    10030    2    1    2    0    0  0.00000000000E+00  0.00000000000E+00  0.40653465862E+03  0.89674294559E+03  0.79929811823E+03 0.  0.
        4    1    3    3  502    0  0.57982979635E+02 -0.24132886173E+03 -0.14815499252E+03  0.28905563503E+03  0.12699999809E+01 0. -1.
       -4    1    3    3    0  502 -0.57982979635E+02  0.24132886173E+03  0.55468965115E+03  0.60768731056E+03  0.12699999809E+01 0.  1.
</event>
<event>
 5   0  0.2763587E-03  0.8013686E+03  0.7818609E-02  0.9558038E-01
        2   -1    0    0  501    0  0.00000000000E+00  0.00000000000E+00  0.31005397013E+03  0.31005397014E+03  0.25500000920E-02 0. -1.
       -2   -1    0    0    0  501  0.00000000000E+00  0.00000000000E+00 -0.51780636705E+03  0.51780636706E+03  0.25500000920E-02 0.  1.
    10030    2    1    2    0    0  0.00000000000E+00  0.00000000000E+00 -0.20775239693E+03  0.82786033719E+03  0.80136862895E+03 0.  0.
        3    1    3    3  502    0 -0.24730231495E+03  0.11736927273E+03  0.19839512790E+03  0.33807487060E+03  0.10100000352E+00 0. -1.
       -3    1    3    3    0  502  0.24730231495E+03 -0.11736927273E+03 -0.40614752483E+03  0.48978546659E+03  0.10100000352E+00 0.  1.
</event>
<event>
 5   0  0.1637228E-03  0.8002869E+03  0.7818609E-02  0.9559602E-01
       -1   -1    0    0    0  501  0.00000000000E+00  0.00000000000E+00  0.22064843653E+03  0.22064843659E+03  0.50400001928E-02 0.  1.
        1   -1    0    0  501    0  0.00000000000E+00  0.00000000000E+00 -0.72565567348E+03  0.72565567350E+03  0.50400001928E-02 0. -1.
    10030    2    1    2    0    0  0.00000000000E+00  0.00000000000E+00 -0.50500723695E+03  0.94630411008E+03  0.80028692317E+03 0.  0.
        2    1    3    3  502    0  0.33574193647E+03 -0.21676601940E+03 -0.27628935495E+03  0.48584561616E+03  0.25500000920E-02 0. -1.
       -2    1    3    3    0  502 -0.33574193647E+03  0.21676601940E+03 -0.22871788200E+03  0.46045849393E+03  0.25500000920E-02 0.  1.
</event>
<event>
 5   0  0.2873212E-03  0.8004842E+03  0.7818609E-02  0.9559317E-01
       -2   -1    0    0    0  501  0.00000000000E+00  0.00000000000E+00  0.18261845006E+03  0.18261845008E+03  0.25500000920E-02 0. -1.
        2   -1    0    0  501    0  0.00000000000E+00  0.00000000000E+00 -0.87720453733E+03  0.87720453733E+03  0.25500000920E-02 0.  1.
    10030    2    1    2    0    0  0.00000000000E+00  0.00000000000E+00 -0.69458608727E+03  0.10598229874E+04  0.80048418598E+03 0.  0.
        2    1    3    3  502    0 -0.25236085723E+03 -0.27623326747E+03 -0.15910693072E+03  0.40657820371E+03  0.25500000920E-02 0. -1.
       -2    1    3    3    0  502  0.25236085723E+03  0.27623326747E+03 -0.53547915654E+03  0.65324478369E+03  0.25500000920E-02 0.  1.
</event>
<event>
 5   0  0.1712793E-03  0.8003114E+03  0.7818609E-02  0.9559566E-01
       -1   -1    0    0    0  501  0.00000000000E+00  0.00000000000E+00  0.36473058676E+03  0.36473058679E+03  0.50400001928E-02 0. -1.
        1   -1    0    0  501    0  0.00000000000E+00  0.00000000000E+00 -0.43902154928E+03  0.43902154931E+03  0.50400001928E-02 0.  1.
    10030    2    1    2    0    0  0.00000000000E+00  0.00000000000E+00 -0.74290962523E+02  0.80375213610E+03  0.80031140763E+03 0.  0.
        4    1    3    3  502    0 -0.38738887555E+03 -0.65257757068E+02 -0.11359276716E+03  0.40894210520E+03  0.12699999809E+01 0.  1.
       -4    1    3    3    0  502  0.38738887555E+03  0.65257757068E+02  0.39301804639E+02  0.39481003090E+03  0.12699999809E+01 0. -1.
</event>
<event>
 5   0  0.1712793E-03  0.7989404E+03  0.7818609E-02  0.9561552E-01
       -1   -1    0    0    0  501  0.00000000000E+00  0.00000000000E+00  0.10719927649E+03  0.10719927661E+03  0.50400001928E-02 0. -1.
        1   -1    0    0  501    0  0.00000000000E+00  0.00000000000E+00 -0.14885961670E+04  0.14885961670E+04  0.50400001928E-02 0.  1.
    10030    2    1    2    0    0  0.00000000000E+00  0.00000000000E+00 -0.13813968905E+04  0.15957954436E+04  0.79894037873E+03 0.  0.
        4    1    3    3  502    0  0.19669154957E+03  0.69434251608E+02 -0.13711788398E+04  0.13869541105E+04  0.12699999809E+01 0.  1.
       -4    1    3    3    0  502 -0.19669154957E+03 -0.69434251608E+02 -0.10218050707E+02  0.20884133314E+03  0.12699999809E+01 0. -1.
</event>
<event>
 5   0  0.2768834E-03  0.8124300E+03  0.7818609E-02  0.9542197E-01
        2   -1    0    0  501    0  0.00000000000E+00  0.00000000000E+00  0.50063759621E+03  0.50063759622E+03  0.25500000920E-02 0.  1.
       -2   -1    0    0    0  501  0.00000000000E+00  0.00000000000E+00 -0.32960097221E+03  0.32960097222E+03  0.25500000920E-02 0. -1.
    10030    2    1    2    0    0  0.00000000000E+00  0.00000000000E+00  0.17103662400E+03  0.83023856844E+03  0.81243003008E+03 0.  0.
        4    1    3    3  502    0  0.77953444000E+02  0.38924611303E+03  0.17354443233E+03  0.43325345796E+03  0.12699999809E+01 0. -1.
       -4    1    3    3    0  502 -0.77953444000E+02 -0.38924611303E+03 -0.25078083267E+01  0.39698511048E+03  0.12699999809E+01 0.  1.
</event>
<event>
 5   0  0.1656051E-03  0.7982540E+03  0.7818609E-02  0.9562548E-01
       -1   -1    0    0    0  501  0.00000000000E+00  0.00000000000E+00  0.67747949297E+03  0.67747949299E+03  0.50400001928E-02 0.  1.
        1   -1    0    0  501    0  0.00000000000E+00  0.00000000000E+00 -0.23513976085E+03  0.23513976091E+03  0.50400001928E-02 0. -1.
    10030    2    1    2    0    0  0.00000000000E+00  0.00000000000E+00  0.44233973212E+03  0.91261925390E+03  0.79825400968E+03 0.  0.
        3    1    3    3  502    0 -0.32937311024E+03 -0.15180110582E+03  0.41169538220E+03  0.54865592078E+03  0.10100000352E+00 0.  1.
       -3    1    3    3    0  502  0.32937311024E+03  0.15180110582E+03  0.30644349916E+02  0.36396333312E+03  0.10100000352E+00 0. -1.
</event>
<event>
 5   0  0.1095350E-03  0.7997097E+03  0.7818609E-02  0.9560437E-01
       -4   -1    0    0    0  501  0.00000000000E+00  0.00000000000E+00  0.43284258127E+03  0.43284444441E+03  0.12699999809E+01 0. -1.
        4   -1    0    0  501    0  0.00000000000E+00  0.00000000000E+00 -0.36937746825E+03  0.36937965152E+03  0.12699999809E+01 0.  1.
    10030    2    1    2    0    0  0.00000000000E+00  0.00000000000E+00  0.63465113012E+02  0.80222409593E+03  0.79970974704E+03 0.  0.
        1    1    3    3  502    0 -0.20810311035E+03 -0.23722144456E+03  0.27807133179E+03  0.42060026614E+03  0.50400001928E-02 0. -1.
       -1    1    3    3    0  502  0.20810311035E+03  0.23722144456E+03 -0.21460621878E+03  0.38162382978E+03  0.50400001928E-02 0.  1.
</event>
<event>
 5   0  0.2763587E-03  0.7996491E+03  0.7818609E-02  0.9560525E-01
        2   -1    0    0  501    0  0.00000000000E+00  0.00000000000E+00  0.26688093608E+03  0.26688093609E+03  0.25500000920E-02 0. -1.
       -2   -1    0    0    0  501  0.00000000000E+00  0.00000000000E+00 -0.59899247491E+03  0.59899247492E+03  0.25500000920E-02 0.  1.
    10030    2    1    2    0    0  0.00000000000E+00  0.00000000000E+00 -0.33211153883E+03  0.86587341101E+03  0.79964910409E+03 0.  0.
        3    1    3    3  502    0 -0.26082761497E+03 -0.28806108872E+03 -0.26791784368E+03  0.47200658547E+03  0.10100000352E+00 0.  1.
       -3    1    3    3    0  502  0.26082761497E+03  0.28806108872E+03 -0.64193695151E+02  0.39386682554E+03  0.10100000352E+00 0. -1.
</event>
<event>
 5   0  0.2763587E-03  0.8019032E+03  0.7818609E-02  0.9557266E-01
        2   -1    0    0  501    0  0.00000000000E+00  0.00000000000E+00  0.78145739274E+03  0.78145739274E+03  0.25500000920E-02 0.  1.
       -2   -1    0    0    0  501  0.00000000000E+00  0.00000000000E+00 -0.20572096323E+03  0.20572096325E+03  0.25500000920E-02 0. -1.
    10030    2    1    2    0    0  0.00000000000E+00  0.00000000000E+00  0.57573642951E+03  0.98717835599E+03  0.80190315517E+03 0.  0.
        3    1    3    3  502    0  0.12857655320E+03  0.19321427162E+02  0.75478454772E+03  0.76590141092E+03  0.10100000352E+00 0.  1.
       -3    1    3    3    0  502 -0.12857655320E+03 -0.19321427162E+02 -0.17904811821E+03  0.22127694506E+03  0.10100000352E+00 0. -1.
</event>
<event>
 5   0  0.2768834E-03  0.7994054E+03  0.7818609E-02  0.9560878E-01
        2   -1    0    0  501    0  0.00000000000E+00  0.00000000000E+00  0.32161423831E+03  0.32161423832E+03  0.25500000920E-02 0.  1.
       -2   -1    0    0    0  501  0.00000000000E+00  0.00000000000E+00 -0.49675111792E+03  0.49675111793E+03  0.25500000920E-02 0. -1.
    10030    2    1    2    0    0  0.00000000000E+00  0.00000000000E+00 -0.17513687961E+03  0.81836535625E+03  0.79940536007E+03 0.  0.
        4    1    3    3  502    0 -0.72828845249E+02 -0.20288004961E+03 -0.43214678050E+03  0.48292526132E+03  0.12699999809E+01 0. -1.
       -4    1    3    3    0  502  0.72828845249E+02  0.20288004961E+03  0.25700990088E+03  0.33544009492E+03  0.12699999809E+01 0.  1.
</event>
<event>
 5   0  0.1617491E-03  0.8001162E+03  0.7818609E-02  0.9559849E-01
        1   -1    0    0  501    0  0.00000000000E+00  0.00000000000E+00  0.50396441787E+03  0.50396441790E+03  0.50400001928E-02 0. -1.
       -1   -1    0    0    0  501  0.00000000000E+00  0.00000000000E+00 -0.31757496403E+03  0.31757496407E+03  0.50400001928E-02 0.  1.
    10030    2    1    2    0    0  0.00000000000E+00  0.00000000000E+00  0.18638945384E+03  0.82153938196E+03  0.80011619632E+03 0.  0.
        1    1    3    3  502    0  0.88562532017E+02  0.27043263641E+01 -0.30737370966E+03  0.31988940726E+03  0.50400001928E-02 0.  1.
       -1    1    3    3    0  502 -0.88562532017E+02 -0.27043263641E+01  0.49376316351E+03  0.50164997470E+03  0.50400001928E-02 0. -1.
</event>
<event>
 5   0  0.2768834E-03  0.7998643E+03  0.7818609E-02  0.9560214E-01
       -2   -1    0    0    0  501  0.00000000000E+00  0.00000000000E+00  0.10484067574E+03  0.10484067577E+03  0.25500000920E-02 0.  1.
        2   -1    0    0  501    0  0.00000000000E+00  0.00000000000E+00 -0.15256075654E+04  0.15256075654E+04  0.25500000920E-02 0. -1.
    10030    2    1    2    0    0  0.00000000000E+00  0.00000000000E+00 -0.14207668897E+04  0.16304482412E+04  0.79986430875E+03 0.  0.
        4    1    3    3  502    0  0.26192759737E+03  0.11244660584E+02 -0.13260077404E+04  0.13516769767E+04  0.12699999809E+01 0.  1.
       -4    1    3    3    0  502 -0.26192759737E+03 -0.11244660584E+02 -0.94759149227E+02  0.27877126451E+03  0.12699999809E+01 0. -1.
</event>
<event>
 5   0  0.1656051E-03  0.7994631E+03  0.7818609E-02  0.9560795E-01
       -1   -1    0    0    0  501  0.00000000000E+00  0.00000000000E+00  0.12692892554E+03  0.12692892564E+03  0.50400001928E-02 0.  1.
        1   -1    0    0  501    0  0.00000000000E+00  0.00000000000E+00 -0.12588566792E+04  0.12588566792E+04  0.50400001928E-02 0. -1.
    10030    2    1    2    0    0  0.00000000000E+00  0.00000000000E+00 -0.11319277536E+04  0.13857856048E+04  0.79946313429E+03 0.  0.
        3    1    3    3  502    0  0.24971865155E+03 -0.15375001994E+03 -0.95109008039E+02  0.30829240531E+03  0.10100000352E+00 0.  1.
       -3    1    3    3    0  502 -0.24971865155E+03  0.15375001994E+03 -0.10368187456E+04  0.10774931995E+04  0.10100000352E+00 0. -1.
</event>
<event>
 5   0  0.2763587E-03  0.8020526E+03  0.7818609E-02  0.9557051E-01
       -2   -1    0    0    0  501  0.00000000000E+00  0.00000000000E+00  0.16757215381E+03  0.16757215383E+03  0.25500000920E-02 0. -1.
        2   -1    0    0  501    0  0.00000000000E+00  0.00000000000E+00 -0.95971845148E+03  0.95971845148E+03  0.25500000920E-02 0.  1.
    10030    2    1    2    0    0  0.00000000000E+00  0.00000000000E+00 -0.79214629766E+03  0.11272906053E+04  0.80205258676E+03 0.  0.
        3    1    3    3  502    0 -0.23462170201E+03 -0.40969329630E+02 -0.84954526075E+03  0.88229982959E+03  0.10100000352E+00 0.  1.
       -3    1    3    3    0  502  0.23462170201E+03  0.40969329630E+02  0.57398963089E+02  0.24499077573E+03  0.10100000352E+00 0. -1.
</event>
<event>
 5   0  0.2690809E-03  0.7956527E+03  0.7818609E-02  0.9566331E-01
        2   -1    0    0  501    0  0.00000000000E+00  0.00000000000E+00  0.31906527947E+03  0.31906527948E+03  0.25500000920E-02 0. -1.
       -2   -1    0    0    0  501  0.00000000000E+00  0.00000000000E+00 -0.49602948324E+03  0.49602948325E+03  0.25500000920E-02 0.  1.
    10030    2    1    2    0    0  0.00000000000E+00  0.00000000000E+00 -0.17696420378E+03  0.81509476272E+03  0.79565265211E+03 0.  0.
        5    1    3    3  502    0  0.61476684824E+02  0.95992308261E+02  0.30194714590E+03  0.32278177603E+03  0.46999998093E+01 0. -1.
       -5    1    3    3    0  502 -0.61476684824E+02 -0.95992308261E+02 -0.47891134968E+03  0.49231298670E+03  0.46999998093E+01 0.  1.
</event>
<event>
 5   0  0.1712793E-03  0.7999397E+03  0.7818609E-02  0.9560104E-01
        1   -1    0    0  501    0  0.00000000000E+00  0.00000000000E+00  0.71568041030E+03  0.71568041032E+03  0.50400001928E-02 0. -1.
       -1   -1    0    0    0  501  0.00000000000E+00  0.00000000000E+00 -0.22352977926E+03  0.22352977932E+03  0.50400001928E-02 0.  1.
    10030    2    1    2    0    0  0.00000000000E+00  0.00000000000E+00  0.49215063104E+03  0.93921018964E+03  0.79993970816E+03 0.  0.
        4    1    3    3  502    0  0.38087071576E+03 -0.47836623810E+02  0.11416031925E+03  0.40048100590E+03  0.12699999809E+01 0. -1.
       -4    1    3    3    0  502 -0.38087071576E+03  0.47836623810E+02  0.37799031179E+03  0.53872918373E+03  0.12699999809E+01 0.  1.
</event>
<event>
 5   0  0.1617491E-03  0.8021117E+03  0.7818609E-02  0.9556966E-01
       -1   -1    0    0    0  501  0.00000000000E+00  0.00000000000E+00  0.85676276632E+03  0.85676276633E+03  0.50400001928E-02 0.  1.
        1   -1    0    0  501    0  0.00000000000E+00  0.00000000000E+00 -0.18773667338E+03  0.18773667345E+03  0.50400001928E-02 0. -1.
    10030    2    1    2    0    0  0.00000000000E+00  0.00000000000E+00  0.66902609293E+03  0.10444994398E+04  0.80211169215E+03 0.  0.
        1    1    3    3  502    0  0.16689309363E+02  0.26998557535E+02  0.85512464564E+03  0.85571351208E+03  0.50400001928E-02 0.  1.
       -1    1    3    3    0  502 -0.16689309363E+02 -0.26998557535E+02 -0.18609855270E+03  0.18878592771E+03  0.50400001928E-02 0. -1.
</event>
<event>
 5   0  0.2910501E-03  0.7987519E+03  0.7818609E-02  0.9561825E-01
        2   -1    0    0  501    0  0.00000000000E+00  0.00000000000E+00  0.10846626750E+04  0.10846626750E+04  0.25500000920E-02 0. -1.
       -2   -1    0    0    0  501  0.00000000000E+00  0.00000000000E+00 -0.14705137022E+03  0.14705137025E+03  0.25500000920E-02 0.  1.
    10030    2    1    2    0    0  0.00000000000E+00  0.00000000000E+00  0.93761130478E+03  0.12317140452E+04  0.79875185785E+03 0.  0.
        1    1    3    3  502    0  0.22630308918E+02  0.46696371578E+02  0.10794421300E+04  0.10806886666E+04  0.50400001928E-02 0. -1.
       -1    1    3    3    0  502 -0.22630308918E+02 -0.46696371578E+02 -0.14183082522E+03  0.15102537869E+03  0.50400001928E-02 0.  1.
</event>
<event>
 5   0  0.1712793E-03  0.7996534E+03  0.7818609E-02  0.9560519E-01
       -1   -1    0    0    0  501  0.00000000000E+00  0.00000000000E+00  0.15106500208E+03  0.15106500216E+03  0.50400001928E-02 0.  1.
        1   -1    0    0  501    0  0.00000000000E+00  0.00000000000E+00 -0.10582290731E+04  0.10582290731E+04  0.50400001928E-02 0. -1.
    10030    2    1    2    0    0  0.00000000000E+00  0.00000000000E+00 -0.90716407105E+03  0.12092940753E+04  0.79965336788E+03 0.  0.
        4    1    3    3  502    0  0.26408903904E+03 -0.60402516704E+02 -0.89827326480E+03  0.93823662032E+03  0.12699999809E+01 0. -1.
       -4    1    3    3    0  502 -0.26408903904E+03  0.60402516704E+02 -0.88908062506E+01  0.27105745498E+03  0.12699999809E+01 0.  1.
</event>
<event>
 5   0  0.2690809E-03  0.7960191E+03  0.7818609E-02  0.9565797E-01
       -2   -1    0    0    0  501  0.00000000000E+00  0.00000000000E+00  0.74101288653E+02  0.74101288697E+02  0.25500000920E-02 0. -1.
        2   -1    0    0  501    0  0.00000000000E+00  0.00000000000E+00 -0.21377713998E+04  0.21377713998E+04  0.25500000920E-02 0.  1.
    10030    2    1    2    0    0  0.00000000000E+00  0.00000000000E+00 -0.20636701111E+04  0.22118726885E+04  0.79601913449E+03 0.  0.
        5    1    3    3  502    0  0.13800442990E+03 -0.25983308525E+03 -0.17765546640E+04  0.18007573460E+04  0.46999998093E+01 0.  1.
       -5    1    3    3    0  502 -0.13800442990E+03  0.25983308525E+03 -0.28711544708E+03  0.41111534247E+03  0.46999998093E+01 0. -1.
</event>
<event>
 5   0  0.1637228E-03  0.8016862E+03  0.7818609E-02  0.9557580E-01
       -1   -1    0    0    0  501  0.00000000000E+00  0.00000000000E+00  0.23221487509E+03  0.23221487515E+03  0.50400001928E-02 0.  1.
        1   -1    0    0  501    0  0.00000000000E+00  0.00000000000E+00 -0.69192463682E+03  0.69192463684E+03  0.50400001928E-02 0. -1.
    10030    2    1    2    0    0  0.00000000000E+00  0.00000000000E+00 -0.45970976173E+03  0.92413951199E+03  0.80168620581E+03 0.  0.
        2    1    3    3  502    0  0.45833247873E+02  0.10321739929E+03 -0.67320575400E+03  0.68261299823E+03  0.25500000920E-02 0. -1.
       -2    1    3    3    0  502 -0.45833247873E+02 -0.10321739929E+03  0.21349599227E+03  0.24152651376E+03  0.25500000920E-02 0.  1.
</event>
<event>
 5   0  0.1640035E-03  0.8001560E+03  0.7818609E-02  0.9559791E-01
        1   -1    0    0  501    0  0.00000000000E+00  0.00000000000E+00  0.66524727053E+03  0.66524727055E+03  0.50400001928E-02 0.  1.
       -1   -1    0    0    0  501  0.00000000000E+00  0.00000000000E+00 -0.24060586806E+03  0.24060586812E+03  0.50400001928E-02 0. -1.
    10030    2    1    2    0    0  0.00000000000E+00  0.00000000000E+00  0.42464140246E+03  0.90585313866E+03  0.80015597738E+03 0.  0.
        5    1    3    3  502    0 -0.45070802399E+02 -0.34717164781E+03  0.43149389237E+03  0.55566950557E+03  0.46999998093E+01 0. -1.
       -5    1    3    3    0  502  0.45070802399E+02  0.34717164781E+03 -0.68524899062E+01  0.35018363309E+03  0.46999998093E+01 0.  1.
</event>
<event>
 5   0  0.1617491E-03  0.8005281E+03  0.7818609E-02  0.9559253E-01
       -1   -1    0    0    0  501  0.00000000000E+00  0.00000000000E+00  0.18832636785E+03  0.18832636792E+03  0.50400001928E-02 0. -1.
        1   -1    0    0  501    0  0.00000000000E+00  0.00000000000E+00 -0.85071102336E+03  0.85071102338E+03  0.50400001928E-02 0.  1.
    10030    2    1    2    0    0  0.00000000000E+00  0.00000000000E+00 -0.66238465551E+03  0.10390373913E+04  0.80052811859E+03 0.  0.
        1    1    3    3  502    0 -0.18359453488E+03 -0.19638515270E+03  0.53701538514E+02  0.27414947876E+03  0.50400001928E-02 0. -1.
       -1    1    3    3    0  502  0.18359453488E+03  0.19638515270E+03 -0.71608619402E+03  0.76488791253E+03  0.50400001928E-02 0.  1.
</event>
<event>
 5   0  0.2690809E-03  0.7994034E+03  0.7818609E-02  0.9560881E-01
       -2   -1    0    0    0  501  0.00000000000E+00  0.00000000000E+00  0.15023366393E+03  0.15023366395E+03  0.25500000920E-02 0.  1.
        2   -1    0    0  501    0  0.00000000000E+00  0.00000000000E+00 -0.10634198456E+04  0.10634198456E+04  0.25500000920E-02 0. -1.
    10030    2    1    2    0    0  0.00000000000E+00  0.00000000000E+00 -0.91318618166E+03  0.12136535095E+04  0.79940342685E+03 0.  0.
        5    1    3    3  502    0 -0.59134256068E+02  0.70564183129E+02 -0.10470597230E+04  0.10511100407E+04  0.46999998093E+01 0. -1.
       -5    1    3    3    0  502  0.59134256068E+02 -0.70564183129E+02  0.13387354135E+03  0.16254346881E+03  0.46999998093E+01 0.  1.
</event>
<event>
 5   0  0.1637228E-03  0.7991825E+03  0.7818609E-02  0.9561201E-01
        1   -1    0    0  501    0  0.00000000000E+00  0.00000000000E+00  0.54504605385E+03  0.54504605387E+03  0.50400001928E-02 0. -1.
       -1   -1    0    0    0  501  0.00000000000E+00  0.00000000000E+00 -0.29295356611E+03  0.29295356615E+03  0.50400001928E-02 0.  1.
    10030    2    1    2    0    0  0.00000000000E+00  0.00000000000E+00  0.25209248774E+03  0.83799962002E+03  0.79918254534E+03 0.  0.
        2    1    3    3  502    0  0.72265336500E+02  0.88507310804E+02 -0.27545836292E+03  0.29821658679E+03  0.25500000920E-02 0.  1.
       -2    1    3    3    0  502 -0.72265336500E+02 -0.88507310804E+02  0.52755085066E+03  0.53978303323E+03  0.25500000920E-02 0. -1.
</event>
<event>
 5   0  0.1656051E-03  0.8017664E+03  0.7818609E-02  0.9557464E-01
       -1   -1    0    0    0  501  0.00000000000E+00  0.00000000000E+00  0.37016203777E+03  0.37016203780E+03  0.50400001928E-02 0.  1.
        1   -1    0    0  501    0  0.00000000000E+00  0.00000000000E+00 -0.43415403558E+03  0.43415403561E+03  0.50400001928E-02 0. -1.
    10030    2    1    2    0    0  0.00000000000E+00  0.00000000000E+00 -0.63991997813E+02  0.80431607342E+03  0.80176640624E+03 0.  0.
        3    1    3    3  502    0  0.21620462197E+03 -0.20601899337E+02 -0.37002221454E+03  0.42905165921E+03  0.10100000352E+00 0. -1.
       -3    1    3    3    0  502 -0.21620462197E+03  0.20601899337E+02  0.30603021673E+03  0.37526441421E+03  0.10100000352E+00 0.  1.
</event>
<event>
 5   0  0.2763587E-03  0.7978873E+03  0.7818609E-02  0.9563080E-01
        2   -1    0    0  501    0  0.00000000000E+00  0.00000000000E+00  0.16078878122E+04  0.16078878122E+04  0.25500000920E-02 0. -1.
       -2   -1    0    0    0  501  0.00000000000E+00  0.00000000000E+00 -0.98984548122E+02  0.98984548155E+02  0.25500000920E-02 0.  1.
    10030    2    1    2    0    0  0.00000000000E+00  0.00000000000E+00  0.15089032641E+04  0.17068723604E+04  0.79788733177E+03 0.  0.
        3    1    3    3  502    0 -0.11437273052E+03 -0.28635058555E+03  0.21293122451E+03  0.37472322573E+03  0.10100000352E+00 0.  1.
       -3    1    3    3    0  502  0.11437273052E+03  0.28635058555E+03  0.12959720396E+04  0.13321491346E+04  0.10100000352E+00 0. -1.
</event>
<event>
 5   0  0.2690809E-03  0.7993057E+03  0.7818609E-02  0.9561023E-01
       -2   -1    0    0    0  501  0.00000000000E+00  0.00000000000E+00  0.20967887799E+03  0.20967887801E+03  0.25500000920E-02 0. -1.
        2   -1    0    0  501    0  0.00000000000E+00  0.00000000000E+00 -0.76174773892E+03  0.76174773892E+03  0.25500000920E-02 0.  1.
    10030    2    1    2    0    0  0.00000000000E+00  0.00000000000E+00 -0.55206886093E+03  0.97142661693E+03  0.79930572679E+03 0.  0.
        5    1    3    3  502    0  0.36097979215E+03 -0.69873126779E+02 -0.46631016626E+03  0.59384840266E+03  0.46999998093E+01 0.  1.
       -5    1    3    3    0  502 -0.36097979215E+03  0.69873126779E+02 -0.85758694665E+02  0.37757821427E+03  0.46999998093E+01 0. -1.
</event>
<event>
 5   0  0.2910501E-03  0.7884411E+03  0.7818609E-02  0.9576900E-01
       -2   -1    0    0    0  501  0.00000000000E+00  0.00000000000E+00  0.35796268285E+03  0.35796268286E+03  0.25500000920E-02 0. -1.
        2   -1    0    0  501    0  0.00000000000E+00  0.00000000000E+00 -0.43415099522E+03  0.43415099523E+03  0.25500000920E-02 0.  1.
    10030    2    1    2    0    0  0.00000000000E+00  0.00000000000E+00 -0.76188312371E+02  0.79211367809E+03  0.78844113292E+03 0.  0.
        1    1    3    3  502    0 -0.23978476386E+03  0.15047813222E+03 -0.31372487739E+03  0.42256798267E+03  0.50400001928E-02 0.  1.
       -1    1    3    3    0  502  0.23978476386E+03 -0.15047813222E+03  0.23753656502E+03  0.36954569542E+03  0.50400001928E-02 0. -1.
</event>
<event>
 5   0  0.1712793E-03  0.8007340E+03  0.7818609E-02  0.9558955E-01
        1   -1    0    0  501    0  0.00000000000E+00  0.00000000000E+00  0.34718475742E+03  0.34718475746E+03  0.50400001928E-02 0. -1.
       -1   -1    0    0    0  501  0.00000000000E+00  0.00000000000E+00 -0.46169575833E+03  0.46169575835E+03  0.50400001928E-02 0.  1.
    10030    2    1    2    0    0  0.00000000000E+00  0.00000000000E+00 -0.11451100090E+03  0.80888051582E+03  0.80073398800E+03 0.  0.
        4    1    3    3  502    0 -0.39828057212E+03 -0.40632301783E+02 -0.60997087783E+02  0.40496994419E+03  0.12699999809E+01 0.  1.
       -4    1    3    3    0  502  0.39828057212E+03  0.40632301783E+02 -0.53513913121E+02  0.40391057163E+03  0.12699999809E+01 0. -1.
</event>
<event>
 5   0  0.1656051E-03  0.7981297E+03  0.7818609E-02  0.9562728E-01
        1   -1    0    0  501    0  0.00000000000E+00  0.00000000000E+00  0.46767081388E+03  0.46767081391E+03  0.50400001928E-02 0. -1.
       -1   -1    0    0    0  501  0.00000000000E+00  0.00000000000E+00 -0.34052316660E+03  0.34052316663E+03  0.50400001928E-02 0.  1.
    10030    2    1    2    0    0  0.00000000000E+00  0.00000000000E+00  0.12714764729E+03  0.80819398054E+03  0.79812967992E+03 0.  0.
        3    1    3    3  502    0 -0.13447231009E+03 -0.18852386579E+03 -0.26553012212E+03  0.35232131089E+03  0.10100000352E+00 0.  1.
       -3    1    3    3    0  502  0.13447231009E+03  0.18852386579E+03  0.39267776941E+03  0.45587266966E+03  0.10100000352E+00 0. -1.
</event>
<event>
 5   0  0.1617491E-03  0.7986463E+03  0.7818609E-02  0.9561979E-01
        1   -1    0    0  501    0  0.00000000000E+00  0.00000000000E+00  0.10952472998E+04  0.10952472999E+04  0.50400001928E-02 0.  1.
       -1   -1    0    0    0  501  0.00000000000E+00  0.00000000000E+00 -0.14559175535E+03  0.14559175544E+03  0.50400001928E-02 0. -1.
    10030    2    1    2    0    0  0.00000000000E+00  0.00000000000E+00  0.94965554449E+03  0.12408390553E+04  0.79864629716E+03 0.  0.
        1    1    3    3  502    0 -0.15888626994E+03  0.32227450056E+03  0.74551250474E+03  0.82758358807E+03  0.50400001928E-02 0.  1.
       -1    1    3    3    0  502  0.15888626994E+03 -0.32227450056E+03  0.20414303974E+03  0.41325546722E+03  0.50400001928E-02 0. -1.
</event>
<event>
 5   0  0.2873212E-03  0.8021586E+03  0.7818609E-02  0.9556898E-01
        2   -1    0    0  501    0  0.00000000000E+00  0.00000000000E+00  0.16159245521E+04  0.16159245521E+04  0.25500000920E-02 0. -1.
       -2   -1    0    0    0  501  0.00000000000E+00  0.00000000000E+00 -0.99549586638E+02  0.99549586670E+02  0.25500000920E-02 0.  1.
    10030    2    1    2    0    0  0.00000000000E+00  0.00000000000E+00  0.15163749655E+04  0.17154741388E+04  0.80215864075E+03 0.  0.
        2    1    3    3  502    0 -0.28875091264E+03  0.27539407807E+03  0.84494167314E+03  0.93442250551E+03  0.25500000920E-02 0. -1.
       -2    1    3    3    0  502  0.28875091264E+03 -0.27539407807E+03  0.67143329236E+03  0.78105163330E+03  0.25500000920E-02 0.  1.
</event>
<event>
 5   0  0.1617491E-03  0.7968404E+03  0.7818609E-02  0.9564602E-01
       -1   -1    0    0    0  501  0.00000000000E+00  0.00000000000E+00  0.25289928457E+03  0.25289928462E+03  0.50400001928E-02 0.  1.
        1   -1    0    0  501    0  0.00000000000E+00  0.00000000000E+00 -0.62767545335E+03  0.62767545337E+03  0.50400001928E-02 0. -1.
    10030    2    1    2    0    0  0.00000000000E+00  0.00000000000E+00 -0.37477616878E+03  0.88057473798E+03  0.79684044356E+03 0.  0.
        1    1    3    3  502    0 -0.19149944985E+03  0.10365313260E+03 -0.55609955177E+03  0.59721246027E+03  0.50400001928E-02 0. -1.
       -1    1    3    3    0  502  0.19149944985E+03 -0.10365313260E+03  0.18132338299E+03  0.28336227772E+03  0.50400001928E-02 0.  1.
</event>
<event>
 5   0  0.1095350E-03  0.7999259E+03  0.7818609E-02  0.9560124E-01
        4   -1    0    0  501    0  0.00000000000E+00  0.00000000000E+00  0.55272995579E+03  0.55273141482E+03  0.12699999809E+01 0.  1.
       -4   -1    0    0    0  501  0.00000000000E+00  0.00000000000E+00 -0.28941540313E+03  0.28941818959E+03  0.12699999809E+01 0. -1.
    10030    2    1    2    0    0  0.00000000000E+00  0.00000000000E+00  0.26331455267E+03  0.84214960441E+03  0.79992587317E+03 0.  0.
        1    1    3    3  502    0 -0.10919952198E+02 -0.38636515676E+03  0.23991031034E+03  0.45492223154E+03  0.50400001928E-02 0. -1.
       -1    1    3    3    0  502  0.10919952198E+02  0.38636515676E+03  0.23404242326E+02  0.38722737287E+03  0.50400001928E-02 0.  1.
</event>
<event>
 5   0  0.1712793E-03  0.7985144E+03  0.7818609E-02  0.9562170E-01
        1   -1    0    0  501    0  0.00000000000E+00  0.00000000000E+00  0.45757856784E+03  0.45757856787E+03  0.50400001928E-02 0. -1.
       -1   -1    0    0    0  501  0.00000000000E+00  0.00000000000E+00 -0.34836930293E+03  0.34836930296E+03  0.50400001928E-02 0.  1.
    10030    2    1    2    0    0  0.00000000000E+00  0.00000000000E+00  0.10920926491E+03  0.80594787083E+03  0.79851443754E+03 0.  0.
        4    1    3    3  502    0 -0.11550102275E+03 -0.14822011778E+03  0.41015518971E+03  0.45115250428E+03  0.12699999809E+01 0. -1.
       -4    1    3    3    0  502  0.11550102275E+03  0.14822011778E+03 -0.30094592480E+03  0.35479536655E+03  0.12699999809E+01 0.  1.
</event>
<event>
 5   0  0.2763587E-03  0.7967446E+03  0.7818609E-02  0.9564741E-01
        2   -1    0    0  501    0  0.00000000000E+00  0.00000000000E+00  0.98488528155E+03  0.98488528155E+03  0.25500000920E-02 0.  1.
       -2   -1    0    0    0  501  0.00000000000E+00  0.00000000000E+00 -0.16113603084E+03  0.16113603086E+03  0.25500000920E-02 0. -1.
    10030    2    1    2    0    0  0.00000000000E+00  0.00000000000E+00  0.82374925071E+03  0.11460213124E+04  0.79674463943E+03 0.  0.
        3    1    3    3  502    0  0.37331215623E+03  0.11784253567E+03  0.30567129079E+03  0.49667270653E+03  0.10100000352E+00 0. -1.
       -3    1    3    3    0  502 -0.37331215623E+03 -0.11784253567E+03  0.51807795992E+03  0.64934860588E+03  0.10100000352E+00 0.  1.
</event>
<event>
 5   0  0.2763587E-03  0.7982059E+03  0.7818609E-02  0.9562618E-01
        2   -1    0    0  501    0  0.00000000000E+00  0.00000000000E+00  0.17295551289E+04  0.17295551289E+04  0.25500000920E-02 0. -1.
       -2   -1    0    0    0  501  0.00000000000E+00  0.00000000000E+00 -0.92094878699E+02  0.92094878734E+02  0.25500000920E-02 0.  1.
    10030    2    1    2    0    0  0.00000000000E+00  0.00000000000E+00  0.16374602502E+04  0.18216500076E+04  0.79820591286E+03 0.  0.
        3    1    3    3  502    0 -0.16883614519E+03  0.31703362388E+03  0.12157718065E+04  0.12677212068E+04  0.10100000352E+00 0. -1.
       -3    1    3    3    0  502  0.16883614519E+03 -0.31703362388E+03  0.42168844369E+03  0.55392880078E+03  0.10100000352E+00 0.  1.
</event>
<event>
 5   0  0.1637228E-03  0.8000613E+03  0.7818609E-02  0.9559928E-01
        1   -1    0    0  501    0  0.00000000000E+00  0.00000000000E+00  0.10909264499E+04  0.10909264499E+04  0.50400001928E-02 0.  1.
       -1   -1    0    0    0  501  0.00000000000E+00  0.00000000000E+00 -0.14668681373E+03  0.14668681382E+03  0.50400001928E-02 0. -1.
    10030    2    1    2    0    0  0.00000000000E+00  0.00000000000E+00  0.94423963618E+03  0.12376132637E+04  0.80006131018E+03 0.  0.
        2    1    3    3  502    0  0.31337661035E+03  0.22288799136E+02  0.89054532711E+02  0.32654616869E+03  0.25500000920E-02 0. -1.
       -2    1    3    3    0  502 -0.31337661035E+03 -0.22288799136E+02  0.85518510346E+03  0.91106709505E+03  0.25500000920E-02 0.  1.
</event>
<event>
 5   0  0.1095350E-03  0.8000860E+03  0.7818609E-02  0.9559893E-01
        3   -1    0    0  501    0  0.00000000000E+00  0.00000000000E+00  0.18883000902E+03  0.18883003603E+03  0.10100000352E+00 0. -1.
       -3   -1    0    0    0  501  0.00000000000E+00  0.00000000000E+00 -0.84750496883E+03  0.84750497485E+03  0.10100000352E+00 0.  1.
    10030    2    1    2    0    0  0.00000000000E+00  0.00000000000E+00 -0.65867495981E+03  0.10363350109E+04  0.80008596545E+03 0.  0.
        4    1    3    3  502    0  0.15304199118E+03  0.75325403712E+02 -0.79803723188E+03  0.81606421553E+03  0.12699999809E+01 0.  1.
       -4    1    3    3    0  502 -0.15304199118E+03 -0.75325403712E+02  0.13936227207E+03  0.22027079535E+03  0.12699999809E+01 0. -1.
</event>
<event>
 5   0  0.1640035E-03  0.7986773E+03  0.7818609E-02  0.9561934E-01
        1   -1    0    0  501    0  0.00000000000E+00  0.00000000000E+00  0.12148211400E+04  0.12148211400E+04  0.50400001928E-02 0. -1.
       -1   -1    0    0    0  501  0.00000000000E+00  0.00000000000E+00 -0.13127146784E+03  0.13127146793E+03  0.50400001928E-02 0.  1.
    10030    2    1    2    0    0  0.00000000000E+00  0.00000000000E+00  0.10835496722E+04  0.13460926080E+04  0.79867729223E+03 0.  0.
        5    1    3    3  502    0  0.37941503507E+03 -0.94132797607E+02  0.40451527051E+03  0.56255794946E+03  0.46999998093E+01 0.  1.
       -5    1    3    3    0  502 -0.37941503507E+03  0.94132797607E+02  0.67903440168E+03  0.78353465851E+03  0.46999998093E+01 0. -1.
</event>
<event>
 5   0  0.2690809E-03  0.8005094E+03  0.7818609E-02  0.9559280E-01
        2   -1    0    0  501    0  0.00000000000E+00  0.00000000000E+00  0.86600450055E+03  0.86600450055E+03  0.25500000920E-02 0.  1.
       -2   -1    0    0    0  501  0.00000000000E+00  0.00000000000E+00 -0.18499191377E+03  0.18499191378E+03  0.25500000920E-02 0. -1.
    10030    2    1    2    0    0  0.00000000000E+00  0.00000000000E+00  0.68101258678E+03  0.10509964143E+04  0.80050941255E+03 0.  0.
        5    1    3    3  502    0 -0.36865082293E+03  0.14005807030E+03  0.43015068894E+03  0.58358495310E+03  0.46999998093E+01 0.  1.
       -5    1    3    3    0  502  0.36865082293E+03 -0.14005807030E+03  0.25086189784E+03  0.46741146123E+03  0.46999998093E+01 0. -1.
</event>
<event>
 5   0  0.2910501E-03  0.7985448E+03  0.7818609E-02  0.9562126E-01
        2   -1    0    0  501    0  0.00000000000E+00  0.00000000000E+00  0.35791134769E+03  0.35791134770E+03  0.25500000920E-02 0. -1.
       -2   -1    0    0    0  501  0.00000000000E+00  0.00000000000E+00 -0.44541323457E+03  0.44541323458E+03  0.25500000920E-02 0.  1.
    10030    2    1    2    0    0  0.00000000000E+00  0.00000000000E+00 -0.87501886884E+02  0.80332458227E+03  0.79854480418E+03 0.  0.
        1    1    3    3  502    0 -0.38679476790E+03  0.15220361496E+02  0.54694908949E+02  0.39093910647E+03  0.50400001928E-02 0. -1.
       -1    1    3    3    0  502  0.38679476790E+03 -0.15220361496E+02 -0.14219679583E+03  0.41238547580E+03  0.50400001928E-02 0.  1.
</event>
<event>
 5   0  0.1640035E-03  0.7996795E+03  0.7818609E-02  0.9560481E-01
       -1   -1    0    0    0  501  0.00000000000E+00  0.00000000000E+00  0.26395216720E+03  0.26395216725E+03  0.50400001928E-02 0. -1.
        1   -1    0    0  501    0  0.00000000000E+00  0.00000000000E+00 -0.60568489073E+03  0.60568489075E+03  0.50400001928E-02 0.  1.
    10030    2    1    2    0    0  0.00000000000E+00  0.00000000000E+00 -0.34173272353E+03  0.86963705800E+03  0.79967953476E+03 0.  0.
        5    1    3    3  502    0 -0.26256315333E+03 -0.67142963970E+02 -0.49052346717E+03  0.56043103852E+03  0.46999998093E+01 0.  1.
       -5    1    3    3    0  502  0.26256315333E+03  0.67142963970E+02  0.14879074363E+03  0.30920601948E+03  0.46999998093E+01 0. -1.
</event>
<event>
 5   0  0.1637228E-03  0.7994843E+03  0.7818609E-02  0.9560764E-01
       -1   -1    0    0    0  501  0.00000000000E+00  0.00000000000E+00  0.61132290806E+03  0.61132290808E+03  0.50400001928E-02 0. -1.
        1   -1    0    0  501    0  0.00000000000E+00  0.00000000000E+00 -0.26139014226E+03  0.26139014231E+03  0.50400001928E-02 0.  1.
    10030    2    1    2    0    0  0.00000000000E+00  0.00000000000E+00  0.34993276580E+03  0.87271305039E+03  0.79948428862E+03 0.  0.
        2    1    3    3  502    0  0.34858895615E+03 -0.14807369163E+03  0.35371468837E+02  0.38038299031E+03  0.25500000920E-02 0.  1.
       -2    1    3    3    0  502 -0.34858895615E+03  0.14807369163E+03  0.31456129696E+03  0.49233006008E+03  0.25500000920E-02 0. -1.
</event>
<event>
 5   0  0.2768834E-03  0.7963150E+03  0.7818609E-02  0.9565366E-01
       -2   -1    0    0    0  501  0.00000000000E+00  0.00000000000E+00  0.17976529296E+03  0.17976529298E+03  0.25500000920E-02 0. -1.
        2   -1    0    0  501    0  0.00000000000E+00  0.00000000000E+00 -0.88186869397E+03  0.88186869397E+03  0.25500000920E-02 0.  1.
    10030    2    1    2    0    0  0.00000000000E+00  0.00000000000E+00 -0.70210340101E+03  0.10616339870E+04  0.79631497319E+03 0.  0.
        4    1    3    3  502    0  0.92482678854E+02  0.25422978206E+03 -0.74051917594E+03  0.78838828683E+03  0.12699999809E+01 0.  1.
       -4    1    3    3    0  502 -0.92482678854E+02 -0.25422978206E+03  0.38415774928E+02  0.27324570012E+03  0.12699999809E+01 0. -1.
</event>
<event>
 5   0  0.2763587E-03  0.8005702E+03  0.7818609E-02  0.9559192E-01
       -2   -1    0    0    0  501  0.00000000000E+00  0.00000000000E+00  0.23999780864E+03  0.23999780865E+03  0.25500000920E-02 0. -1.
        2   -1    0    0  501    0  0.00000000000E+00  0.00000000000E+00 -0.66762341496E+03  0.66762341496E+03  0.25500000920E-02 0.  1.
    10030    2    1    2    0    0  0.00000000000E+00  0.00000000000E+00 -0.42762560632E+03  0.90762122361E+03  0.80057018828E+03 0.  0.
        3    1    3    3  502    0 -0.22027359197E+03 -0.11966337147E+03 -0.56761357370E+03  0.62050379293E+03  0.10100000352E+00 0.  1.
       -3    1    3    3    0  502  0.22027359197E+03  0.11966337147E+03  0.13998796738E+03  0.28711743068E+03  0.10100000352E+00 0. -1.
</event>
<event>
 5   0  0.2690809E-03  0.8014374E+03  0.7818609E-02  0.9557939E-01
       -2   -1    0    0    0  501  0.00000000000E+00  0.00000000000E+00  0.15820386740E+03  0.15820386742E+03  0.25500000920E-02 0. -1.
        2   -1    0    0  501    0  0.00000000000E+00  0.00000000000E+00 -0.10149909274E+04  0.10149909274E+04  0.25500000920E-02 0.  1.
    10030    2    1    2    0    0  0.00000000000E+00  0.00000000000E+00 -0.85678706004E+03  0.11731947949E+04  0.80143743389E+03 0.  0.
        5    1    3    3  502    0 -0.62375732425E+02 -0.30466565492E+03 -0.79826605168E+03  0.85671621470E+03  0.46999998093E+01 0.  1.
       -5    1    3    3    0  502  0.62375732425E+02  0.30466565492E+03 -0.58521008366E+02  0.31647858016E+03  0.46999998093E+01 0. -1.
</event>
<event>
 5   0  0.2690809E-03  0.8019107E+03  0.7818609E-02  0.9557256E-01
        2   -1    0    0  501    0  0.00000000000E+00  0.00000000000E+00  0.99184757798E+03  0.99184757798E+03  0.25500000920E-02 0. -1.
       -2   -1    0    0    0  501  0.00000000000E+00  0.00000000000E+00 -0.16208660292E+03  0.16208660294E+03  0.25500000920E-02 0.  1.
    10030    2    1    2    0    0  0.00000000000E+00  0.00000000000E+00  0.82976097505E+03  0.11539341809E+04  0.80191072956E+03 0.  0.
        5    1    3    3  502    0 -0.29959078221E+03 -0.92202572561E+02  0.55172220965E+02  0.31831119229E+03  0.46999998093E+01 0.  1.
       -5    1    3    3    0  502  0.29959078221E+03  0.92202572561E+02  0.77458875409E+03  0.83562298863E+03  0.46999998093E+01 0. -1.
</event>
<event>
 5   0  0.2690809E-03  0.8006247E+03  0.7818609E-02  0.9559113E-01
       -2   -1    0    0    0  501  0.00000000000E+00  0.00000000000E+00  0.91237605751E+02  0.91237605787E+02  0.25500000920E-02 0. -1.
        2   -1    0    0  501    0  0.00000000000E+00  0.00000000000E+00 -0.17564026219E+04  0.17564026219E+04  0.25500000920E-02 0.  1.
    10030    2    1    2    0    0  0.00000000000E+00  0.00000000000E+00 -0.16651650161E+04  0.18476402277E+04  0.80062468109E+03 0.  0.
        5    1    3    3  502    0 -0.12837446810E+03 -0.27149514507E+03 -0.14433221582E+04  0.14742423682E+04  0.46999998093E+01 0.  1.
       -5    1    3    3    0  502  0.12837446810E+03  0.27149514507E+03 -0.22184285797E+03  0.37339785951E+03  0.46999998093E+01 0. -1.
</event>
<event>
 5   0  0.1640035E-03  0.7993191E+03  0.7818609E-02  0.9561003E-01
       -1   -1    0    0    0  501  0.00000000000E+00  0.00000000000E+00  0.37613194646E+03  0.37613194650E+03  0.50400001928E-02 0. -1.
        1   -1    0    0  501    0  0.00000000000E+00  0.00000000000E+00 -0.42465881298E+03  0.42465881301E+03  0.50400001928E-02 0.  1.
    10030    2    1    2    0    0  0.00000000000E+00  0.00000000000E+00 -0.48526866511E+02  0.80079075950E+03  0.79931907505E+03 0.  0.
        5    1    3    3  502    0 -0.41565369653E+01 -0.21600357336E+03 -0.36108302469E+03  0.42080620388E+03  0.46999998093E+01 0.  1.
       -5    1    3    3    0  502  0.41565369653E+01  0.21600357336E+03  0.31255615818E+03  0.37998455563E+03  0.46999998093E+01 0. -1.
</event>
<event>
 5   0  0.2910501E-03  0.8089129E+03  0.7818609E-02  0.9547205E-01
        2   -1    0    0  501    0  0.00000000000E+00  0.00000000000E+00  0.81580494003E+03  0.81580494003E+03  0.25500000920E-02 0. -1.
       -2   -1    0    0    0  501  0.00000000000E+00  0.00000000000E+00 -0.20051977741E+03  0.20051977743E+03  0.25500000920E-02 0.  1.
    10030    2    1    2    0    0  0.00000000000E+00  0.00000000000E+00  0.61528516261E+03  0.10163247175E+04  0.80891291249E+03 0.  0.
        1    1    3    3  502    0  0.83062614257E+02 -0.34348253507E+03  0.55482430746E+03  0.65780670562E+03  0.50400001928E-02 0. -1.
       -1    1    3    3    0  502 -0.83062614257E+02  0.34348253507E+03  0.60460855157E+02  0.35851801185E+03  0.50400001928E-02 0.  1.
</event>
<event>
 5   0  0.1637228E-03  0.8099320E+03  0.7818609E-02  0.9545751E-01
       -1   -1    0    0    0  501  0.00000000000E+00  0.00000000000E+00  0.10923532952E+03  0.10923532964E+03  0.50400001928E-02 0. -1.
        1   -1    0    0  501    0  0.00000000000E+00  0.00000000000E+00 -0.15013223817E+04  0.15013223818E+04  0.50400001928E-02 0.  1.
    10030    2    1    2    0    0  0.00000000000E+00  0.00000000000E+00 -0.13920870522E+04  0.16105577114E+04  0.80993196058E+03 0.  0.
        2    1    3    3  502    0 -0.74497535909E+02 -0.11595288248E+01 -0.14875759196E+04  0.14894406145E+04  0.25500000920E-02 0.  1.
       -2    1    3    3    0  502  0.74497535909E+02  0.11595288248E+01  0.95488867406E+02  0.12111709693E+03  0.25500000920E-02 0. -1.
</event>
<event>
 5   0  0.1637228E-03  0.7995112E+03  0.7818609E-02  0.9560725E-01
       -1   -1    0    0    0  501  0.00000000000E+00  0.00000000000E+00  0.17834275775E+03  0.17834275782E+03  0.50400001928E-02 0. -1.
        1   -1    0    0  501    0  0.00000000000E+00  0.00000000000E+00 -0.89605276728E+03  0.89605276730E+03  0.50400001928E-02 0.  1.
    10030    2    1    2    0    0  0.00000000000E+00  0.00000000000E+00 -0.71771000953E+03  0.10743955251E+04  0.79951115477E+03 0.  0.
        2    1    3    3  502    0  0.20655326816E+03  0.24891935173E+03 -0.43188682656E+02  0.32632860520E+03  0.25500000920E-02 0. -1.
       -2    1    3    3    0  502 -0.20655326816E+03 -0.24891935173E+03 -0.67452132688E+03  0.74806691992E+03  0.25500000920E-02 0.  1.
</event>
<event>
 5   0  0.1656051E-03  0.7998472E+03  0.7818609E-02  0.9560238E-01
        1   -1    0    0  501    0  0.00000000000E+00  0.00000000000E+00  0.19527780625E+03  0.19527780632E+03  0.50400001928E-02 0.  1.
       -1   -1    0    0    0  501  0.00000000000E+00  0.00000000000E+00 -0.81903247970E+03  0.81903247971E+03  0.50400001928E-02 0. -1.
    10030    2    1    2    0    0  0.00000000000E+00  0.00000000000E+00 -0.62375467344E+03  0.10143102860E+04  0.79984715021E+03 0.  0.
        3    1    3    3  502    0 -0.88266471697E+02  0.38414463752E+03 -0.22604840735E+03  0.45437425678E+03  0.10100000352E+00 0.  1.
       -3    1    3    3    0  502  0.88266471697E+02 -0.38414463752E+03 -0.39770626610E+03  0.55993602925E+03  0.10100000352E+00 0. -1.
</event>
<event>
 5   0  0.2910501E-03  0.7976905E+03  0.7818609E-02  0.9563366E-01
        2   -1    0    0  501    0  0.00000000000E+00  0.00000000000E+00  0.45307424921E+03  0.45307424922E+03  0.25500000920E-02 0. -1.
       -2   -1    0    0    0  501  0.00000000000E+00  0.00000000000E+00 -0.35110696090E+03  0.35110696091E+03  0.25500000920E-02 0.  1.
    10030    2    1    2    0    0  0.00000000000E+00  0.00000000000E+00  0.10196728832E+03  0.80418121013E+03  0.79769047307E+03 0.  0.
        1    1    3    3  502    0 -0.55882630095E+02  0.33206942023E+03  0.26646227793E+03  0.42941252169E+03  0.50400001928E-02 0. -1.
       -1    1    3    3    0  502  0.55882630095E+02 -0.33206942023E+03 -0.16449498961E+03  0.37476868844E+03  0.50400001928E-02 0.  1.
</event>
<event>
 5   0  0.1712793E-03  0.8032427E+03  0.7818609E-02  0.9555335E-01
       -1   -1    0    0    0  501  0.00000000000E+00  0.00000000000E+00  0.28740066670E+03  0.28740066675E+03  0.50400001928E-02 0. -1.
        1   -1    0    0  501    0  0.00000000000E+00  0.00000000000E+00 -0.56123642000E+03  0.56123642002E+03  0.50400001928E-02 0.  1.
    10030    2    1    2    0    0  0.00000000000E+00  0.00000000000E+00 -0.27383575329E+03  0.84863708677E+03  0.80324273122E+03 0.  0.
        4    1    3    3  502    0 -0.31006758388E+03 -0.24929482973E+03 -0.78970332888E+02  0.40562019807E+03  0.12699999809E+01 0. -1.
       -4    1    3    3    0  502  0.31006758388E+03  0.24929482973E+03 -0.19486542041E+03  0.44301688870E+03  0.12699999809E+01 0.  1.
</event>
<event>
 5   0  0.1712793E-03  0.7905469E+03  0.7818609E-02  0.9573802E-01
        1   -1    0    0  501    0  0.00000000000E+00  0.00000000000E+00  0.13256641540E+03  0.13256641550E+03  0.50400001928E-02 0.  1.
       -1   -1    0    0    0  501  0.00000000000E+00  0.00000000000E+00 -0.11785874061E+04  0.11785874061E+04  0.50400001928E-02 0. -1.
    10030    2    1    2    0    0  0.00000000000E+00  0.00000000000E+00 -0.10460209907E+04  0.13111538216E+04  0.79054691885E+03 0.  0.
        4    1    3    3  502    0 -0.35713126269E+03  0.13979283010E+03 -0.36432086662E+03  0.52897644645E+03  0.12699999809E+01 0. -1.
       -4    1    3    3    0  502  0.35713126269E+03 -0.13979283010E+03 -0.68170012404E+03  0.78217737512E+03  0.12699999809E+01 0.  1.
</event>
<event>
 5   0  0.1640035E-03  0.8036756E+03  0.7818609E-02  0.9554712E-01
       -1   -1    0    0    0  501  0.00000000000E+00  0.00000000000E+00  0.97377782183E+02  0.97377782313E+02  0.50400001928E-02 0. -1.
        1   -1    0    0  501    0  0.00000000000E+00  0.00000000000E+00 -0.16582181517E+04  0.16582181517E+04  0.50400001928E-02 0.  1.
    10030    2    1    2    0    0  0.00000000000E+00  0.00000000000E+00 -0.15608403695E+04  0.17555959340E+04  0.80367557162E+03 0.  0.
        5    1    3    3  502    0 -0.15538166247E+03  0.49685661395E+02  0.21723536316E+02  0.16463938778E+03  0.46999998093E+01 0. -1.
       -5    1    3    3    0  502  0.15538166247E+03 -0.49685661395E+02 -0.15825639058E+04  0.15909565462E+04  0.46999998093E+01 0.  1.
</event>
<event>
 5   0  0.2873212E-03  0.8017733E+03  0.7818609E-02  0.9557454E-01
        2   -1    0    0  501    0  0.00000000000E+00  0.00000000000E+00  0.94977162995E+03  0.94977162995E+03  0.25500000920E-02 0.  1.
       -2   -1    0    0    0  501  0.00000000000E+00  0.00000000000E+00 -0.16920919511E+03  0.16920919513E+03  0.25500000920E-02 0. -1.
    10030    2    1    2    0    0  0.00000000000E+00  0.00000000000E+00  0.78056243484E+03  0.11189808251E+04  0.80177326733E+03 0.  0.
        2    1    3    3  502    0 -0.18563230715E+03  0.13859785930E+03 -0.66330348647E+02  0.24097393058E+03  0.25500000920E-02 0. -1.
       -2    1    3    3    0  502  0.18563230715E+03 -0.13859785930E+03  0.84689278348E+03  0.87800689450E+03  0.25500000920E-02 0.  1.
</event>
<event>
 5   0  0.2768834E-03  0.7986857E+03  0.7818609E-02  0.9561921E-01
        2   -1    0    0  501    0  0.00000000000E+00  0.00000000000E+00  0.17915100274E+04  0.17915100274E+04  0.25500000920E-02 0.  1.
       -2   -1    0    0    0  501  0.00000000000E+00  0.00000000000E+00 -0.89016927526E+02  0.89016927563E+02  0.25500000920E-02 0. -1.
    10030    2    1    2    0    0  0.00000000000E+00  0.00000000000E+00  0.17024930999E+04  0.18805269550E+04  0.79868571618E+03 0.  0.
        4    1    3    3  502    0  0.33163474896E+03  0.18645518125E+03  0.11369697554E+04  0.11989366033E+04  0.12699999809E+01 0.  1.
       -4    1    3    3    0  502 -0.33163474896E+03 -0.18645518125E+03  0.56552334452E+03  0.68159035162E+03  0.12699999809E+01 0. -1.
</event>
<event>
 5   0  0.2690809E-03  0.8051199E+03  0.7818609E-02  0.9552636E-01
       -2   -1    0    0    0  501  0.00000000000E+00  0.00000000000E+00  0.21991383265E+03  0.21991383266E+03  0.25500000920E-02 0.  1.
        2   -1    0    0  501    0  0.00000000000E+00  0.00000000000E+00 -0.73690001547E+03  0.73690001548E+03  0.25500000920E-02 0. -1.
    10030    2    1    2    0    0  0.00000000000E+00  0.00000000000E+00 -0.51698618283E+03  0.95681384814E+03  0.80511988347E+03 0.  0.
        5    1    3    3  502    0 -0.27238215193E+03 -0.71448026491E+02 -0.60032531825E+03  0.66310590022E+03  0.46999998093E+01 0. -1.
       -5    1    3    3    0  502  0.27238215193E+03  0.71448026491E+02  0.83339135425E+02  0.29370794792E+03  0.46999998093E+01 0.  1.
</event>
<event>
 5   0  0.2763587E-03  0.8030544E+03  0.7818609E-02  0.9555606E-01
        2   -1    0    0  501    0  0.00000000000E+00  0.00000000000E+00  0.10761077445E+04  0.10761077445E+04  0.25500000920E-02 0.  1.
       -2   -1    0    0    0  501  0.00000000000E+00  0.00000000000E+00 -0.14982151585E+03  0.14982151587E+03  0.25500000920E-02 0. -1.
    10030    2    1    2    0    0  0.00000000000E+00  0.00000000000E+00  0.92628622862E+03  0.12259292603E+04  0.80305440291E+03 0.  0.
        3    1    3    3  502    0 -0.12959694253E+03  0.16926169251E+03  0.98258349312E+03  0.10054427976E+04  0.10100000352E+00 0.  1.
       -3    1    3    3    0  502  0.12959694253E+03 -0.16926169251E+03 -0.56297264504E+02  0.22048646275E+03  0.10100000352E+00 0. -1.
</event>
<event>
 5   0  0.2690809E-03  0.7993426E+03  0.7818609E-02  0.9560969E-01
       -2   -1    0    0    0  501  0.00000000000E+00  0.00000000000E+00  0.86383886983E+02  0.86383887021E+02  0.25500000920E-02 0.  1.
        2   -1    0    0  501    0  0.00000000000E+00  0.00000000000E+00 -0.18491546038E+04  0.18491546038E+04  0.25500000920E-02 0. -1.
    10030    2    1    2    0    0  0.00000000000E+00  0.00000000000E+00 -0.17627707168E+04  0.19355384908E+04  0.79934263578E+03 0.  0.
        5    1    3    3  502    0  0.20532545672E+02 -0.35908772230E+03 -0.45954845940E+03  0.58358585853E+03  0.46999998093E+01 0.  1.
       -5    1    3    3    0  502 -0.20532545672E+02  0.35908772230E+03 -0.13032222574E+04  0.13519526323E+04  0.46999998093E+01 0. -1.
</event>
<event>
 5   0  0.2873212E-03  0.8008528E+03  0.7818609E-02  0.9558784E-01
        2   -1    0    0  501    0  0.00000000000E+00  0.00000000000E+00  0.48673407681E+03  0.48673407681E+03  0.25500000920E-02 0.  1.
       -2   -1    0    0    0  501  0.00000000000E+00  0.00000000000E+00 -0.32942280132E+03  0.32942280133E+03  0.25500000920E-02 0. -1.
    10030    2    1    2    0    0  0.00000000000E+00  0.00000000000E+00  0.15731127549E+03  0.81615687814E+03  0.80085280317E+03 0.  0.
        2    1    3    3  502    0  0.46000413392E+02 -0.34173422946E+03 -0.12881012675E+03  0.36809016610E+03  0.25500000920E-02 0. -1.
       -2    1    3    3    0  502 -0.46000413392E+02  0.34173422946E+03  0.28612140224E+03  0.44806671204E+03  0.25500000920E-02 0.  1.
</event>
<event>
 5   0  0.1617491E-03  0.7987483E+03  0.7818609E-02  0.9561831E-01
       -1   -1    0    0    0  501  0.00000000000E+00  0.00000000000E+00  0.60300124732E+03  0.60300124735E+03  0.50400001928E-02 0.  1.
        1   -1    0    0  501    0  0.00000000000E+00  0.00000000000E+00 -0.26450976839E+03  0.26450976844E+03  0.50400001928E-02 0. -1.
    10030    2    1    2    0    0  0.00000000000E+00  0.00000000000E+00  0.33849147893E+03  0.86751101579E+03  0.79874832157E+03 0.  0.
        1    1    3    3  502    0 -0.24647390551E+03  0.57885439056E+01 -0.17199481059E+03  0.30060789783E+03  0.50400001928E-02 0. -1.
       -1    1    3    3    0  502  0.24647390551E+03 -0.57885439056E+01  0.51048628952E+03  0.56690311796E+03  0.50400001928E-02 0.  1.
</event>
<event>
 5   0  0.1712793E-03  0.7993284E+03  0.7818609E-02  0.9560990E-01
        1   -1    0    0  501    0  0.00000000000E+00  0.00000000000E+00  0.26844077143E+03  0.26844077148E+03  0.50400001928E-02 0.  1.
       -1   -1    0    0    0  501  0.00000000000E+00  0.00000000000E+00 -0.59503433596E+03  0.59503433598E+03  0.50400001928E-02 0. -1.
    10030    2    1    2    0    0  0.00000000000E+00  0.00000000000E+00 -0.32659356453E+03  0.86347510746E+03  0.79932840861E+03 0.  0.
        4    1    3    3  502    0 -0.39106596508E+03 -0.82063435769E+02 -0.15473162873E+03  0.42849794207E+03  0.12699999809E+01 0. -1.
       -4    1    3    3    0  502  0.39106596508E+03  0.82063435769E+02 -0.17186193580E+03  0.43497716539E+03  0.12699999809E+01 0.  1.
</event>
<event>
 5   0  0.2768834E-03  0.8009749E+03  0.7818609E-02  0.9558607E-01
       -2   -1    0    0    0  501  0.00000000000E+00  0.00000000000E+00  0.51328164422E+03  0.51328164422E+03  0.25500000920E-02 0. -1.
        2   -1    0    0  501    0  0.00000000000E+00  0.00000000000E+00 -0.31247986629E+03  0.31247986630E+03  0.25500000920E-02 0.  1.
    10030    2    1    2    0    0  0.00000000000E+00  0.00000000000E+00  0.20080177793E+03  0.82576151052E+03  0.80097485494E+03 0.  0.
        4    1    3    3  502    0 -0.14067202801E+03  0.13004404260E+03  0.46297801721E+03  0.50104922892E+03  0.12699999809E+01 0. -1.
       -4    1    3    3    0  502  0.14067202801E+03 -0.13004404260E+03 -0.26217623928E+03  0.32471228160E+03  0.12699999809E+01 0.  1.
</event>
<event>
 5   0  0.2768834E-03  0.8015418E+03  0.7818609E-02  0.9557788E-01
       -2   -1    0    0    0  501  0.00000000000E+00  0.00000000000E+00  0.71097786674E+03  0.71097786674E+03  0.25500000920E-02 0.  1.
        2   -1    0    0  501    0  0.00000000000E+00  0.00000000000E+00 -0.22591044726E+03  0.22591044727E+03  0.25500000920E-02 0. -1.
    10030    2    1    2    0    0  0.00000000000E+00  0.00000000000E+00  0.48506741948E+03  0.93688831401E+03  0.80154183390E+03 0.  0.
        4    1    3    3  502    0  0.70442046853E+01  0.24971576820E+03  0.60883238436E+03  0.65809275247E+03  0.12699999809E+01 0.  1.
       -4    1    3    3    0  502 -0.70442046853E+01 -0.24971576820E+03 -0.12376496488E+03  0.27879556155E+03  0.12699999809E+01 0. -1.
</event>
<event>
 5   0  0.1637228E-03  0.7937245E+03  0.7818609E-02  0.9569145E-01
        1   -1    0    0  501    0  0.00000000000E+00  0.00000000000E+00  0.97285287602E+03  0.97285287603E+03  0.50400001928E-02 0. -1.
       -1   -1    0    0    0  501  0.00000000000E+00  0.00000000000E+00 -0.16189463233E+03  0.16189463241E+03  0.50400001928E-02 0.  1.
    10030    2    1    2    0    0  0.00000000000E+00  0.00000000000E+00  0.81095824368E+03  0.11347475084E+04  0.79372453340E+03 0.  0.
        2    1    3    3  502    0  0.13706288117E+03 -0.24856526056E+03  0.89512368469E+01  0.28399127945E+03  0.25500000920E-02 0.  1.
       -2    1    3    3    0  502 -0.13706288117E+03  0.24856526056E+03  0.80200700684E+03  0.85075622900E+03  0.25500000920E-02 0. -1.
</event>
<event>
 5   0  0.1095350E-03  0.7998026E+03  0.7818609E-02  0.9560303E-01
       -4   -1    0    0    0  501  0.00000000000E+00  0.00000000000E+00  0.97571879295E+03  0.97571961947E+03  0.12699999809E+01 0. -1.
        4   -1    0    0  501    0  0.00000000000E+00  0.00000000000E+00 -0.16389742013E+03  0.16390234051E+03  0.12699999809E+01 0.  1.
    10030    2    1    2    0    0  0.00000000000E+00  0.00000000000E+00  0.81182137283E+03  0.11396219600E+04  0.79980264459E+03 0.  0.
        5    1    3    3  502    0 -0.13385162949E+03 -0.14666731172E+03 -0.88650449870E+02  0.21750529029E+03  0.46999998093E+01 0.  1.
       -5    1    3    3    0  502  0.13385162949E+03  0.14666731172E+03  0.90047182270E+03  0.92211666969E+03  0.46999998093E+01 0. -1.
</event>
<event>
 5   0  0.2873212E-03  0.8013811E+03  0.7818609E-02  0.9558020E-01
       -2   -1    0    0    0  501  0.00000000000E+00  0.00000000000E+00  0.14385518440E+03  0.14385518442E+03  0.25500000920E-02 0.  1.
        2   -1    0    0  501    0  0.00000000000E+00  0.00000000000E+00 -0.11160730907E+04  0.11160730907E+04  0.25500000920E-02 0. -1.
    10030    2    1    2    0    0  0.00000000000E+00  0.00000000000E+00 -0.97221790635E+03  0.12599282752E+04  0.80138105865E+03 0.  0.
        2    1    3    3  502    0  0.30410480274E+03 -0.11194689998E+01 -0.89630430668E+03  0.94648951101E+03  0.25500000920E-02 0. -1.
       -2    1    3    3    0  502 -0.30410480274E+03  0.11194689998E+01 -0.75913599663E+02  0.31343876417E+03  0.25500000920E-02 0.  1.
</event>
<event>
 5   0  0.2763587E-03  0.8032239E+03  0.7818609E-02  0.9555362E-01
        2   -1    0    0  501    0  0.00000000000E+00  0.00000000000E+00  0.22818303302E+04  0.22818303302E+04  0.25500000920E-02 0.  1.
       -2   -1    0    0    0  501  0.00000000000E+00  0.00000000000E+00 -0.70685433830E+02  0.70685433876E+02  0.25500000920E-02 0. -1.
    10030    2    1    2    0    0  0.00000000000E+00  0.00000000000E+00  0.22111448964E+04  0.23525157641E+04  0.80322392113E+03 0.  0.
        3    1    3    3  502    0  0.32870855104E+03  0.19400931758E+03  0.14714225340E+04  0.15201227617E+04  0.10100000352E+00 0.  1.
       -3    1    3    3    0  502 -0.32870855104E+03 -0.19400931758E+03  0.73972236235E+03  0.83239300237E+03  0.10100000352E+00 0. -1.
</event>
<event>
 5   0  0.1095350E-03  0.7997949E+03  0.7818609E-02  0.9560314E-01
        3   -1    0    0  501    0  0.00000000000E+00  0.00000000000E+00  0.30294093779E+03  0.30294095463E+03  0.10100000352E+00 0.  1.
       -3   -1    0    0    0  501  0.00000000000E+00  0.00000000000E+00 -0.52788495707E+03  0.52788496673E+03  0.10100000352E+00 0. -1.
    10030    2    1    2    0    0  0.00000000000E+00  0.00000000000E+00 -0.22494401927E+03  0.83082592136E+03  0.79979491108E+03 0.  0.
        3    1    3    3  502    0  0.24874658301E+03 -0.93611146223E+02  0.19791863803E+03  0.33137547697E+03  0.10100000352E+00 0.  1.
       -3    1    3    3    0  502 -0.24874658301E+03  0.93611146223E+02 -0.42286265730E+03  0.49945044439E+03  0.10100000352E+00 0. -1.
</event>
<event>
 5   0  0.2873212E-03  0.7999742E+03  0.7818609E-02  0.9560054E-01
       -2   -1    0    0    0  501  0.00000000000E+00  0.00000000000E+00  0.25778403983E+03  0.25778403984E+03  0.25500000920E-02 0.  1.
        2   -1    0    0  501    0  0.00000000000E+00  0.00000000000E+00 -0.62063459853E+03  0.62063459854E+03  0.25500000920E-02 0. -1.
    10030    2    1    2    0    0  0.00000000000E+00  0.00000000000E+00 -0.36285055871E+03  0.87841863838E+03  0.79997423478E+03 0.  0.
        2    1    3    3  502    0  0.29856765487E+03 -0.20764554650E+03  0.14282830989E+01  0.36367754607E+03  0.25500000920E-02 0.  1.
       -2    1    3    3    0  502 -0.29856765487E+03  0.20764554650E+03 -0.36427884180E+03  0.51474109231E+03  0.25500000920E-02 0. -1.
</event>
<event>
 5   0  0.2910501E-03  0.8000626E+03  0.7818609E-02  0.9559926E-01
        2   -1    0    0  501    0  0.00000000000E+00  0.00000000000E+00  0.10042107114E+04  0.10042107114E+04  0.25500000920E-02 0.  1.
       -2   -1    0    0    0  501  0.00000000000E+00  0.00000000000E+00 -0.15935406560E+03  0.15935406562E+03  0.25500000920E-02 0. -1.
    10030    2    1    2    0    0  0.00000000000E+00  0.00000000000E+00  0.84485664576E+03  0.11635647770E+04  0.80006264651E+03 0.  0.
        1    1    3    3  502    0 -0.18340258529E+03 -0.29970759734E+03  0.14433352077E+03  0.37985960227E+03  0.50400001928E-02 0. -1.
       -1    1    3    3    0  502  0.18340258529E+03  0.29970759734E+03  0.70052312499E+03  0.78370517471E+03  0.50400001928E-02 0.  1.
</event>
<event>
 5   0  0.1656051E-03  0.7991009E+03  0.7818609E-02  0.9561319E-01
       -1   -1    0    0    0  501  0.00000000000E+00  0.00000000000E+00  0.43958452764E+03  0.43958452767E+03  0.50400001928E-02 0.  1.
        1   -1    0    0  501    0  0.00000000000E+00  0.00000000000E+00 -0.36316235826E+03  0.36316235830E+03  0.50400001928E-02 0. -1.
    10030    2    1    2    0    0  0.00000000000E+00  0.00000000000E+00  0.76422169374E+02  0.80274688597E+03  0.79910087909E+03 0.  0.
        3    1    3    3  502    0 -0.18769365322E+03  0.34973484997E+03  0.84214907512E+02  0.40575304507E+03  0.10100000352E+00 0. -1.
       -3    1    3    3    0  502  0.18769365322E+03 -0.34973484997E+03 -0.77927381381E+01  0.39699384089E+03  0.10100000352E+00 0.  1.
</event>
<event>
 5   0  0.2690809E-03  0.7998386E+03  0.7818609E-02  0.9560251E-01
        2   -1    0    0  501    0  0.00000000000E+00  0.00000000000E+00  0.73050240900E+03  0.73050240901E+03  0.25500000920E-02 0. -1.
       -2   -1    0    0    0  501  0.00000000000E+00  0.00000000000E+00 -0.21893895560E+03  0.21893895562E+03  0.25500000920E-02 0.  1.
    10030    2    1    2    0    0  0.00000000000E+00  0.00000000000E+00  0.51156345340E+03  0.94944136462E+03  0.79983856996E+03 0.  0.
        5    1    3    3  502    0 -0.50040799562E+02 -0.13010099791E+03 -0.18913392280E+03  0.23499804686E+03  0.46999998093E+01 0.  1.
       -5    1    3    3    0  502  0.50040799562E+02  0.13010099791E+03  0.70069737620E+03  0.71444331776E+03  0.46999998093E+01 0. -1.
</event>
<event>
 5   0  0.2768834E-03  0.7998703E+03  0.7818609E-02  0.9560205E-01
        2   -1    0    0  501    0  0.00000000000E+00  0.00000000000E+00  0.12677129550E+04  0.12677129550E+04  0.25500000920E-02 0. -1.
       -2   -1    0    0    0  501  0.00000000000E+00  0.00000000000E+00 -0.12617060993E+03  0.12617060995E+03  0.25500000920E-02 0.  1.
    10030    2    1    2    0    0  0.00000000000E+00  0.00000000000E+00  0.11415423450E+04  0.13938835649E+04  0.79987028138E+03 0.  0.
        4    1    3    3  502    0 -0.36535479797E+03  0.52161327875E+02  0.30226042979E+03  0.47704078740E+03  0.12699999809E+01 0.  1.
       -4    1    3    3    0  502  0.36535479797E+03 -0.52161327875E+02  0.83928191525E+03  0.91684277752E+03  0.12699999809E+01 0. -1.
</event>
<event>
 5   0  0.2873212E-03  0.8004167E+03  0.7818609E-02  0.9559414E-01
        2   -1    0    0  501    0  0.00000000000E+00  0.00000000000E+00  0.26560008248E+03  0.26560008249E+03  0.25500000920E-02 0. -1.
       -2   -1    0    0    0  501  0.00000000000E+00  0.00000000000E+00 -0.60303716197E+03  0.60303716197E+03  0.25500000920E-02 0.  1.
    10030    2    1    2    0    0  0.00000000000E+00  0.00000000000E+00 -0.33743707949E+03  0.86863724447E+03  0.80041669139E+03 0.  0.
        2    1    3    3  502    0  0.18513465992E+03 -0.30185818809E+03  0.33651672523E+02  0.35570443220E+03  0.25500000920E-02 0. -1.
       -2    1    3    3    0  502 -0.18513465992E+03  0.30185818809E+03 -0.37108875201E+03  0.51293281226E+03  0.25500000920E-02 0.  1.
</event>
<event>
 5   0  0.1656051E-03  0.7972866E+03  0.7818609E-02  0.9563953E-01
       -1   -1    0    0    0  501  0.00000000000E+00  0.00000000000E+00  0.74485616929E+03  0.74485616930E+03  0.50400001928E-02 0. -1.
        1   -1    0    0  501    0  0.00000000000E+00  0.00000000000E+00 -0.21335191174E+03  0.21335191180E+03  0.50400001928E-02 0.  1.
    10030    2    1    2    0    0  0.00000000000E+00  0.00000000000E+00  0.53150425755E+03  0.95820808110E+03  0.79728661778E+03 0.  0.
        3    1    3    3  502    0  0.37227762831E+03 -0.56800959668E+02  0.42291031541E+03  0.56627742904E+03  0.10100000352E+00 0.  1.
       -3    1    3    3    0  502 -0.37227762831E+03  0.56800959668E+02  0.10859394214E+03  0.39193065206E+03  0.10100000352E+00 0. -1.
</event>
<event>
 5   0  0.1640035E-03  0.7997427E+03  0.7818609E-02  0.9560390E-01
        1   -1    0    0  501    0  0.00000000000E+00  0.00000000000E+00  0.14645886277E+03  0.14645886286E+03  0.50400001928E-02 0. -1.
       -1   -1    0    0    0  501  0.00000000000E+00  0.00000000000E+00 -0.10917542463E+04  0.10917542464E+04  0.50400001928E-02 0.  1.
    10030    2    1    2    0    0  0.00000000000E+00  0.00000000000E+00 -0.94529538357E+03  0.12382131092E+04  0.79974267213E+03 0.  0.
        5    1    3    3  502    0 -0.28117640443E+03  0.14834439635E+03 -0.84810983779E+03  0.90574754611E+03  0.46999998093E+01 0.  1.
       -5    1    3    3    0  502  0.28117640443E+03 -0.14834439635E+03 -0.97185545778E+02  0.33246556309E+03  0.46999998093E+01 0. -1.
</event>
<event>
 5   0  0.2910501E-03  0.7995681E+03  0.7818609E-02  0.9560642E-01
        2   -1    0    0  501    0  0.00000000000E+00  0.00000000000E+00  0.64893868167E+03  0.64893868167E+03  0.25500000920E-02 0. -1.
       -2   -1    0    0    0  501  0.00000000000E+00  0.00000000000E+00 -0.24629027964E+03  0.24629027966E+03  0.25500000920E-02 0.  1.
    10030    2    1    2    0    0  0.00000000000E+00  0.00000000000E+00  0.40264840203E+03  0.89522896133E+03  0.79956810689E+03 0.  0.
        1    1    3    3  502    0  0.11097234585E+03 -0.14598685015E+03 -0.19642452601E+03  0.26871847053E+03  0.50400001928E-02 0.  1.
       -1    1    3    3    0  502 -0.11097234585E+03  0.14598685015E+03  0.59907292803E+03  0.62651049080E+03  0.50400001928E-02 0. -1.
</event>
<event>
 5   0  0.2690809E-03  0.7981707E+03  0.7818609E-02  0.9562669E-01
        2   -1    0    0  501    0  0.00000000000E+00  0.00000000000E+00  0.96758280222E+03  0.96758280222E+03  0.25500000920E-02 0.  1.
       -2   -1    0    0    0  501  0.00000000000E+00  0.00000000000E+00 -0.16460514443E+03  0.16460514445E+03  0.25500000920E-02 0. -1.
    10030    2    1    2    0    0  0.00000000000E+00  0.00000000000E+00  0.80297765779E+03  0.11321879467E+04  0.79817067577E+03 0.  0.
        5    1    3    3  502    0 -0.93485974433E+02 -0.40942377492E+02 -0.14574082220E+03  0.17798422106E+03  0.46999998093E+01 0. -1.
       -5    1    3    3    0  502  0.93485974433E+02  0.40942377492E+02  0.94871847999E+03  0.95420372561E+03  0.46999998093E+01 0.  1.
</event>
<event>
 5   0  0.2690809E-03  0.7996604E+03  0.7818609E-02  0.9560509E-01
       -2   -1    0    0    0  501  0.00000000000E+00  0.00000000000E+00  0.94899930132E+02  0.94899930166E+02  0.25500000920E-02 0.  1.
        2   -1    0    0  501    0  0.00000000000E+00  0.00000000000E+00 -0.16845552296E+04  0.16845552296E+04  0.25500000920E-02 0. -1.
    10030    2    1    2    0    0  0.00000000000E+00  0.00000000000E+00 -0.15896552994E+04  0.17794551597E+04  0.79966036195E+03 0.  0.
        5    1    3    3  502    0  0.32207891761E+03 -0.13733187846E+03 -0.12242932184E+04  0.12733855852E+04  0.46999998093E+01 0. -1.
       -5    1    3    3    0  502 -0.32207891761E+03  0.13733187846E+03 -0.36536208107E+03  0.50606957455E+03  0.46999998093E+01 0.  1.
</event>
<event>
 5   0  0.1712793E-03  0.8003990E+03  0.7818609E-02  0.9559440E-01
       -1   -1    0    0    0  501  0.00000000000E+00  0.00000000000E+00  0.19722535271E+03  0.19722535277E+03  0.50400001928E-02 0.  1.
        1   -1    0    0  501    0  0.00000000000E+00  0.00000000000E+00 -0.81206416429E+03  0.81206416431E+03  0.50400001928E-02 0. -1.
    10030    2    1    2    0    0  0.00000000000E+00  0.00000000000E+00 -0.61483881159E+03  0.10092895171E+04  0.80039900366E+03 0.  0.
        4    1    3    3  502    0 -0.21480646098E+03  0.24339680934E+03 -0.60253847203E+03  0.68442533972E+03  0.12699999809E+01 0. -1.
       -4    1    3    3    0  502  0.21480646098E+03 -0.24339680934E+03 -0.12300339557E+02  0.32486417736E+03  0.12699999809E+01 0.  1.
</event>
<event>
 5   0  0.1712793E-03  0.7999568E+03  0.7818609E-02  0.9560080E-01
       -1   -1    0    0    0  501  0.00000000000E+00  0.00000000000E+00  0.64631932380E+03  0.64631932382E+03  0.50400001928E-02 0. -1.
        1   -1    0    0  501    0  0.00000000000E+00  0.00000000000E+00 -0.24752888821E+03  0.24752888826E+03  0.50400001928E-02 0.  1.
    10030    2    1    2    0    0  0.00000000000E+00  0.00000000000E+00  0.39879043559E+03  0.89384821208E+03  0.79995675804E+03 0.  0.
        4    1    3    3  502    0  0.10774123221E+03  0.12390605966E+03 -0.20813148639E+03  0.26510604155E+03  0.12699999809E+01 0.  1.
       -4    1    3    3    0  502 -0.10774123221E+03 -0.12390605966E+03  0.60692192197E+03  0.62874217054E+03  0.12699999809E+01 0. -1.
</event>
<event>
 5   0  0.1637228E-03  0.8010140E+03  0.7818609E-02  0.9558550E-01
       -1   -1    0    0    0  501  0.00000000000E+00  0.00000000000E+00  0.25049131066E+03  0.25049131071E+03  0.50400001928E-02 0. -1.
        1   -1    0    0  501    0  0.00000000000E+00  0.00000000000E+00 -0.64036500630E+03  0.64036500632E+03  0.50400001928E-02 0.  1.
    10030    2    1    2    0    0  0.00000000000E+00  0.00000000000E+00 -0.38987369564E+03  0.89085631702E+03  0.80101403173E+03 0.  0.
        2    1    3    3  502    0 -0.69523393220E+02  0.28017076828E+03 -0.50370259719E+03  0.58055617129E+03  0.25500000920E-02 0.  1.
       -2    1    3    3    0  502  0.69523393220E+02 -0.28017076828E+03  0.11382890155E+03  0.31030014573E+03  0.25500000920E-02 0. -1.
</event>
<event>
 5   0  0.2910501E-03  0.7997380E+03  0.7818609E-02  0.9560396E-01
       -2   -1    0    0    0  501  0.00000000000E+00  0.00000000000E+00  0.14298585413E+03  0.14298585415E+03  0.25500000920E-02 0. -1.
        2   -1    0    0  501    0  0.00000000000E+00  0.00000000000E+00 -0.11182589502E+04  0.11182589502E+04  0.25500000920E-02 0.  1.
    10030    2    1    2    0    0  0.00000000000E+00  0.00000000000E+00 -0.97527309607E+03  0.12612448044E+04  0.79973798497E+03 0.  0.
        1    1    3    3  502    0  0.20637620051E+03 -0.31021379236E+02  0.50285642532E+02  0.21466743576E+03  0.50400001928E-02 0. -1.
       -1    1    3    3    0  502 -0.20637620051E+03  0.31021379236E+02 -0.10255587386E+04  0.10465773686E+04  0.50400001928E-02 0.  1.
</event>
<event>
 5   0  0.2690809E-03  0.7761082E+03  0.7818609E-02  0.9595258E-01
       -2   -1    0    0    0  501  0.00000000000E+00  0.00000000000E+00  0.21940007295E+03  0.21940007296E+03  0.25500000920E-02 0.  1.
        2   -1    0    0  501    0  0.00000000000E+00  0.00000000000E+00 -0.68635331347E+03  0.68635331347E+03  0.25500000920E-02 0. -1.
    10030    2    1    2    0    0  0.00000000000E+00  0.00000000000E+00 -0.46695324052E+03  0.90575338644E+03  0.77610815497E+03 0.  0.
        5    1    3    3  502    0  0.25905387513E+02  0.78508251744E+02  0.20896939464E+03  0.22477751798E+03  0.46999998093E+01 0.  1.
       -5    1    3    3    0  502 -0.25905387513E+02 -0.78508251744E+02 -0.67592263516E+03  0.68097586845E+03  0.46999998093E+01 0. -1.
</event>
<event>
 5   0  0.2763587E-03  0.7988513E+03  0.7818609E-02  0.9561681E-01
        2   -1    0    0  501    0  0.00000000000E+00  0.00000000000E+00  0.66437678251E+03  0.66437678252E+03  0.25500000920E-02 0. -1.
       -2   -1    0    0    0  501  0.00000000000E+00  0.00000000000E+00 -0.24013608410E+03  0.24013608411E+03  0.25500000920E-02 0.  1.
    10030    2    1    2    0    0  0.00000000000E+00  0.00000000000E+00  0.42424069841E+03  0.90451286663E+03  0.79885127258E+03 0.  0.
        3    1    3    3  502    0 -0.15628736217E+03  0.31441167102E+03  0.42772844043E+03  0.55338238804E+03  0.10100000352E+00 0.  1.
       -3    1    3    3    0  502  0.15628736217E+03 -0.31441167102E+03 -0.34877420173E+01  0.35113047858E+03  0.10100000352E+00 0. -1.
</event>
<event>
 5   0  0.1712793E-03  0.7999511E+03  0.7818609E-02  0.9560088E-01
        1   -1    0    0  501    0  0.00000000000E+00  0.00000000000E+00  0.10822039578E+04  0.10822039578E+04  0.50400001928E-02 0. -1.
       -1   -1    0    0    0  501  0.00000000000E+00  0.00000000000E+00 -0.14782835883E+03  0.14782835892E+03  0.50400001928E-02 0.  1.
    10030    2    1    2    0    0  0.00000000000E+00  0.00000000000E+00  0.93437559899E+03  0.12300323168E+04  0.79995108618E+03 0.  0.
        4    1    3    3  502    0  0.48160033117E+02  0.75975220981E+02  0.10664455729E+04  0.10702333371E+04  0.12699999809E+01 0. -1.
       -4    1    3    3    0  502 -0.48160033117E+02 -0.75975220981E+02 -0.13206997390E+03  0.15979897966E+03  0.12699999809E+01 0.  1.
</event>
<event>
 5   0  0.2910501E-03  0.7789923E+03  0.7818609E-02  0.9590933E-01
       -2   -1    0    0    0  501  0.00000000000E+00  0.00000000000E+00  0.17636486482E+03  0.17636486483E+03  0.25500000920E-02 0. -1.
        2   -1    0    0  501    0  0.00000000000E+00  0.00000000000E+00 -0.86018977491E+03  0.86018977491E+03  0.25500000920E-02 0.  1.
    10030    2    1    2    0    0  0.00000000000E+00  0.00000000000E+00 -0.68382491009E+03  0.10365546397E+04  0.77899230646E+03 0.  0.
        1    1    3    3  502    0  0.33128167120E+03 -0.20094200194E+03 -0.28898695709E+03  0.48336186776E+03  0.50400001928E-02 0.  1.
       -1    1    3    3    0  502 -0.33128167120E+03  0.20094200194E+03 -0.39483795301E+03  0.55319277198E+03  0.50400001928E-02 0. -1.
</event>
<event>
 5   0  0.1712793E-03  0.7992650E+03  0.7818609E-02  0.9561082E-01
        1   -1    0    0  501    0  0.00000000000E+00  0.00000000000E+00  0.48554251862E+03  0.48554251865E+03  0.50400001928E-02 0. -1.
       -1   -1    0    0    0  501  0.00000000000E+00  0.00000000000E+00 -0.32892303857E+03  0.32892303861E+03  0.50400001928E-02 0.  1.
    10030    2    1    2    0    0  0.00000000000E+00  0.00000000000E+00  0.15661948005E+03  0.81446555726E+03  0.79926496384E+03 0.  0.
        4    1    3    3  502    0  0.20871867465E+02 -0.25934042342E+03 -0.23079296692E+03  0.34779318071E+03  0.12699999809E+01 0.  1.
       -4    1    3    3    0  502 -0.20871867465E+02  0.25934042342E+03  0.38741244697E+03  0.46667237655E+03  0.12699999809E+01 0. -1.
</event>
<event>
 5   0  0.2763587E-03  0.7808595E+03  0.7818609E-02  0.9588143E-01
       -2   -1    0    0    0  501  0.00000000000E+00  0.00000000000E+00  0.29585843445E+03  0.29585843446E+03  0.25500000920E-02 0. -1.
        2   -1    0    0  501    0  0.00000000000E+00  0.00000000000E+00 -0.51523088729E+03  0.51523088730E+03  0.25500000920E-02 0.  1.
    10030    2    1    2    0    0  0.00000000000E+00  0.00000000000E+00 -0.21937245284E+03  0.81108932176E+03  0.78085953590E+03 0.  0.
        3    1    3    3  502    0 -0.14265038036E+03 -0.35114002172E+03 -0.20705389801E+03  0.43187934976E+03  0.10100000352E+00 0.  1.
       -3    1    3    3    0  502  0.14265038036E+03  0.35114002172E+03 -0.12318554827E+02  0.37920997200E+03  0.10100000352E+00 0. -1.
</event>
<event>
 5   0  0.2768834E-03  0.8003339E+03  0.7818609E-02  0.9559534E-01
       -2   -1    0    0    0  501  0.00000000000E+00  0.00000000000E+00  0.37698980387E+03  0.37698980388E+03  0.25500000920E-02 0.  1.
        2   -1    0    0  501    0  0.00000000000E+00  0.00000000000E+00 -0.42476896418E+03  0.42476896419E+03  0.25500000920E-02 0. -1.
    10030    2    1    2    0    0  0.00000000000E+00  0.00000000000E+00 -0.47779160310E+02  0.80175876807E+03  0.80033385160E+03 0.  0.
        4    1    3    3  502    0 -0.38808565522E+03 -0.74033700607E+02 -0.87567607742E+02  0.40467414477E+03  0.12699999809E+01 0. -1.
       -4    1    3    3    0  502  0.38808565522E+03  0.74033700607E+02  0.39788447432E+02  0.39708462330E+03  0.12699999809E+01 0.  1.
</event>
<event>
 5   0  0.1617491E-03  0.7997238E+03  0.7818609E-02  0.9560417E-01
       -1   -1    0    0    0  501  0.00000000000E+00  0.00000000000E+00  0.20477063383E+03  0.20477063389E+03  0.50400001928E-02 0. -1.
        1   -1    0    0  501    0  0.00000000000E+00  0.00000000000E+00 -0.78082260460E+03  0.78082260462E+03  0.50400001928E-02 0.  1.
    10030    2    1    2    0    0  0.00000000000E+00  0.00000000000E+00 -0.57605197077E+03  0.98559323851E+03  0.79972380156E+03 0.  0.
        1    1    3    3  502    0  0.85019830719E+02  0.38664411700E+03 -0.21866493654E+03  0.45225700583E+03  0.50400001928E-02 0. -1.
       -1    1    3    3    0  502 -0.85019830719E+02 -0.38664411700E+03 -0.35738703423E+03  0.53333623268E+03  0.50400001928E-02 0.  1.
</event>
<event>
 5   0  0.2763587E-03  0.7998490E+03  0.7818609E-02  0.9560236E-01
       -2   -1    0    0    0  501  0.00000000000E+00  0.00000000000E+00  0.14124496399E+03  0.14124496401E+03  0.25500000920E-02 0. -1.
        2   -1    0    0  501    0  0.00000000000E+00  0.00000000000E+00 -0.11323562248E+04  0.11323562248E+04  0.25500000920E-02 0.  1.
    10030    2    1    2    0    0  0.00000000000E+00  0.00000000000E+00 -0.99111126080E+03  0.12736011888E+04  0.79984902128E+03 0.  0.
        3    1    3    3  502    0  0.34573941861E+02 -0.29450161006E+03 -0.92285380279E+03  0.96932229279E+03  0.10100000352E+00 0.  1.
       -3    1    3    3    0  502 -0.34573941861E+02  0.29450161006E+03 -0.68257458007E+02  0.30427889601E+03  0.10100000352E+00 0. -1.
</event>
<event>
 5   0  0.1640035E-03  0.7994014E+03  0.7818609E-02  0.9560884E-01
       -1   -1    0    0    0  501  0.00000000000E+00  0.00000000000E+00  0.19102522487E+03  0.19102522494E+03  0.50400001928E-02 0. -1.
        1   -1    0    0  501    0  0.00000000000E+00  0.00000000000E+00 -0.83633267435E+03  0.83633267436E+03  0.50400001928E-02 0.  1.
    10030    2    1    2    0    0  0.00000000000E+00  0.00000000000E+00 -0.64530744948E+03  0.10273578993E+04  0.79940136909E+03 0.  0.
        5    1    3    3  502    0 -0.13632926294E+03  0.22250871581E+03  0.66396736851E+02  0.26930728399E+03  0.46999998093E+01 0. -1.
       -5    1    3    3    0  502  0.13632926294E+03 -0.22250871581E+03 -0.71170418633E+03  0.75805061532E+03  0.46999998093E+01 0.  1.
</event>
<event>
 5   0  0.1640035E-03  0.8044894E+03  0.7818609E-02  0.9553541E-01
       -1   -1    0    0    0  501  0.00000000000E+00  0.00000000000E+00  0.54964006755E+03  0.54964006757E+03  0.50400001928E-02 0. -1.
        1   -1    0    0  501    0  0.00000000000E+00  0.00000000000E+00 -0.29437594111E+03  0.29437594116E+03  0.50400001928E-02 0.  1.
    10030    2    1    2    0    0  0.00000000000E+00  0.00000000000E+00  0.25526412644E+03  0.84401600873E+03  0.80448943358E+03 0.  0.
        5    1    3    3  502    0 -0.41878119895E+01 -0.30670898375E+03 -0.14532548649E+03  0.33945474736E+03  0.46999998093E+01 0.  1.
       -5    1    3    3    0  502  0.41878119895E+01  0.30670898375E+03  0.40058961293E+03  0.50456126136E+03  0.46999998093E+01 0. -1.
</event>
<event>
 5   0  0.1712793E-03  0.7978529E+03  0.7818609E-02  0.9563130E-01
        1   -1    0    0  501    0  0.00000000000E+00  0.00000000000E+00  0.14758044179E+04  0.14758044179E+04  0.50400001928E-02 0.  1.
       -1   -1    0    0    0  501  0.00000000000E+00  0.00000000000E+00 -0.10783429204E+03  0.10783429216E+03  0.50400001928E-02 0. -1.
    10030    2    1    2    0    0  0.00000000000E+00  0.00000000000E+00  0.13679701259E+04  0.15836387101E+04  0.79785293056E+03 0.  0.
        4    1    3    3  502    0 -0.14284692505E+03 -0.17495524059E+03  0.31307629236E+02  0.22802710530E+03  0.12699999809E+01 0. -1.
       -4    1    3    3    0  502  0.14284692505E+03  0.17495524059E+03  0.13366624966E+04  0.13556116048E+04  0.12699999809E+01 0.  1.
</event>
<event>
 5   0  0.1656051E-03  0.7998446E+03  0.7818609E-02  0.9560242E-01
       -1   -1    0    0    0  501  0.00000000000E+00  0.00000000000E+00  0.15198942414E+03  0.15198942423E+03  0.50400001928E-02 0.  1.
        1   -1    0    0  501    0  0.00000000000E+00  0.00000000000E+00 -0.10522957815E+04  0.10522957815E+04  0.50400001928E-02 0. -1.
    10030    2    1    2    0    0  0.00000000000E+00  0.00000000000E+00 -0.90030635739E+03  0.12042852058E+04  0.79984455970E+03 0.  0.
        3    1    3    3  502    0  0.70212645225E+02 -0.29834155473E+03 -0.63343992391E+02  0.31296959980E+03  0.10100000352E+00 0.  1.
       -3    1    3    3    0  502 -0.70212645225E+02  0.29834155473E+03 -0.83696236500E+03  0.89131560598E+03  0.10100000352E+00 0. -1.
</event>
<event>
 5   0  0.1656051E-03  0.8011585E+03  0.7818609E-02  0.9558342E-01
       -1   -1    0    0    0  501  0.00000000000E+00  0.00000000000E+00  0.21298224934E+03  0.21298224940E+03  0.50400001928E-02 0. -1.
        1   -1    0    0  501    0  0.00000000000E+00  0.00000000000E+00 -0.75341359091E+03  0.75341359093E+03  0.50400001928E-02 0.  1.
    10030    2    1    2    0    0  0.00000000000E+00  0.00000000000E+00 -0.54043134157E+03  0.96639584033E+03  0.80115846451E+03 0.  0.
        3    1    3    3  502    0 -0.12695233377E+03 -0.33666969882E+03 -0.48259868719E+03  0.60196751094E+03  0.10100000352E+00 0.  1.
       -3    1    3    3    0  502  0.12695233377E+03  0.33666969882E+03 -0.57832654383E+02  0.36442832939E+03  0.10100000352E+00 0. -1.
</event>
<event>
 5   0  0.1712793E-03  0.7981948E+03  0.7818609E-02  0.9562634E-01
       -1   -1    0    0    0  501  0.00000000000E+00  0.00000000000E+00  0.98862703736E+03  0.98862703737E+03  0.50400001928E-02 0.  1.
        1   -1    0    0  501    0  0.00000000000E+00  0.00000000000E+00 -0.16111104086E+03  0.16111104093E+03  0.50400001928E-02 0. -1.
    10030    2    1    2    0    0  0.00000000000E+00  0.00000000000E+00  0.82751599650E+03  0.11497380783E+04  0.79819479091E+03 0.  0.
        4    1    3    3  502    0  0.12988103709E+03  0.28774501290E+03  0.76544203330E+03  0.82799118080E+03  0.12699999809E+01 0.  1.
       -4    1    3    3    0  502 -0.12988103709E+03 -0.28774501290E+03  0.62073963204E+02  0.32174689750E+03  0.12699999809E+01 0. -1.
</event>
<event>
 5   0  0.1656051E-03  0.8009237E+03  0.7818609E-02  0.9558681E-01
        1   -1    0    0  501    0  0.00000000000E+00  0.00000000000E+00  0.13458824761E+03  0.13458824771E+03  0.50400001928E-02 0.  1.
       -1   -1    0    0    0  501  0.00000000000E+00  0.00000000000E+00 -0.11915579019E+04  0.11915579019E+04  0.50400001928E-02 0. -1.
    10030    2    1    2    0    0  0.00000000000E+00  0.00000000000E+00 -0.10569696543E+04  0.13261461496E+04  0.80092369179E+03 0.  0.
        3    1    3    3  502    0 -0.25367160328E+03 -0.81799839874E+02 -0.33608213535E+02  0.26864478095E+03  0.10100000352E+00 0.  1.
       -3    1    3    3    0  502  0.25367160328E+03  0.81799839874E+02 -0.10233614408E+04  0.10575013687E+04  0.10100000352E+00 0. -1.
</event>
<event>
 5   0  0.1617491E-03  0.8007452E+03  0.7818609E-02  0.9558939E-01
        1   -1    0    0  501    0  0.00000000000E+00  0.00000000000E+00  0.26119349854E+04  0.26119349854E+04  0.50400001928E-02 0. -1.
       -1   -1    0    0    0  501  0.00000000000E+00  0.00000000000E+00 -0.61371448087E+02  0.61371448294E+02  0.50400001928E-02 0.  1.
    10030    2    1    2    0    0  0.00000000000E+00  0.00000000000E+00  0.25505635373E+04  0.26733064336E+04  0.80074523450E+03 0.  0.
        1    1    3    3  502    0  0.10610458144E+02 -0.32899249079E+03  0.20362130720E+04  0.20626469197E+04  0.50400001928E-02 0. -1.
       -1    1    3    3    0  502 -0.10610458144E+02  0.32899249079E+03  0.51435046531E+03  0.61065951398E+03  0.50400001928E-02 0.  1.
</event>
<event>
 5   0  0.1640035E-03  0.8021459E+03  0.7818609E-02  0.9556916E-01
        1   -1    0    0  501    0  0.00000000000E+00  0.00000000000E+00  0.19418406609E+03  0.19418406616E+03  0.50400001928E-02 0. -1.
       -1   -1    0    0    0  501  0.00000000000E+00  0.00000000000E+00 -0.82838673802E+03  0.82838673804E+03  0.50400001928E-02 0.  1.
    10030    2    1    2    0    0  0.00000000000E+00  0.00000000000E+00 -0.63420267193E+03  0.10225708042E+04  0.80214588481E+03 0.  0.
        5    1    3    3  502    0 -0.23443731615E+03 -0.22014422646E+02  0.96749367571E+02  0.25461347201E+03  0.46999998093E+01 0. -1.
       -5    1    3    3    0  502  0.23443731615E+03  0.22014422646E+02 -0.73095203950E+03  0.76795733219E+03  0.46999998093E+01 0.  1.
</event>
<event>
 5   0  0.2763587E-03  0.8037806E+03  0.7818609E-02  0.9554561E-01
       -2   -1    0    0    0  501  0.00000000000E+00  0.00000000000E+00  0.13983280674E+03  0.13983280676E+03  0.25500000920E-02 0.  1.
        2   -1    0    0  501    0  0.00000000000E+00  0.00000000000E+00 -0.11550638935E+04  0.11550638935E+04  0.25500000920E-02 0. -1.
    10030    2    1    2    0    0  0.00000000000E+00  0.00000000000E+00 -0.10152310868E+04  0.12948967003E+04  0.80378063229E+03 0.  0.
        3    1    3    3  502    0  0.21500350957E+02  0.29275047410E+03 -0.94983847947E+03  0.99416208561E+03  0.10100000352E+00 0. -1.
       -3    1    3    3    0  502 -0.21500350957E+02 -0.29275047410E+03 -0.65392607319E+02  0.30073461468E+03  0.10100000352E+00 0.  1.
</event>
<event>
 5   0  0.2873212E-03  0.8015094E+03  0.7818609E-02  0.9557835E-01
       -2   -1    0    0    0  501  0.00000000000E+00  0.00000000000E+00  0.57361839855E+03  0.57361839856E+03  0.25500000920E-02 0.  1.
        2   -1    0    0  501    0  0.00000000000E+00  0.00000000000E+00 -0.27998463750E+03  0.27998463751E+03  0.25500000920E-02 0. -1.
    10030    2    1    2    0    0  0.00000000000E+00  0.00000000000E+00  0.29363376105E+03  0.85360303607E+03  0.80150942450E+03 0.  0.
        2    1    3    3  502    0  0.65544335939E+02  0.71827485014E+02 -0.26723054515E+03  0.28437196037E+03  0.25500000920E-02 0. -1.
       -2    1    3    3    0  502 -0.65544335939E+02 -0.71827485014E+02  0.56086430619E+03  0.56923107570E+03  0.25500000920E-02 0.  1.
</event>
<event>
 5   0  0.1640035E-03  0.8003750E+03  0.7818609E-02  0.9559475E-01
       -1   -1    0    0    0  501  0.00000000000E+00  0.00000000000E+00  0.10582733241E+04  0.10582733241E+04  0.50400001928E-02 0. -1.
        1   -1    0    0  501    0  0.00000000000E+00  0.00000000000E+00 -0.15133143760E+03  0.15133143768E+03  0.50400001928E-02 0.  1.
    10030    2    1    2    0    0  0.00000000000E+00  0.00000000000E+00  0.90694188650E+03  0.12096047618E+04  0.80037497103E+03 0.  0.
        5    1    3    3  502    0  0.35768583308E+03 -0.81197632664E+02  0.69525835597E+03  0.78609063236E+03  0.46999998093E+01 0. -1.
       -5    1    3    3    0  502 -0.35768583308E+03  0.81197632664E+02  0.21168353053E+03  0.42351412943E+03  0.46999998093E+01 0.  1.
</event>
<event>
 5   0  0.2763587E-03  0.7998464E+03  0.7818609E-02  0.9560239E-01
        2   -1    0    0  501    0  0.00000000000E+00  0.00000000000E+00  0.38111796141E+03  0.38111796141E+03  0.25500000920E-02 0. -1.
       -2   -1    0    0    0  501  0.00000000000E+00  0.00000000000E+00 -0.41965635033E+03  0.41965635033E+03  0.25500000920E-02 0.  1.
    10030    2    1    2    0    0  0.00000000000E+00  0.00000000000E+00 -0.38538388920E+02  0.80077431175E+03  0.79984641709E+03 0.  0.
        3    1    3    3  502    0  0.79113718887E+02  0.32924281306E+02  0.37181881174E+03  0.38156549606E+03  0.10100000352E+00 0. -1.
       -3    1    3    3    0  502 -0.79113718887E+02 -0.32924281306E+02 -0.41035720066E+03  0.41920881569E+03  0.10100000352E+00 0.  1.
</event>
<event>
 5   0  0.2910501E-03  0.7992812E+03  0.7818609E-02  0.9561058E-01
       -2   -1    0    0    0  501  0.00000000000E+00  0.00000000000E+00  0.21541556679E+03  0.21541556680E+03  0.25500000920E-02 0.  1.
        2   -1    0    0  501    0  0.00000000000E+00  0.00000000000E+00 -0.74141621381E+03  0.74141621381E+03  0.25500000920E-02 0. -1.
    10030    2    1    2    0    0  0.00000000000E+00  0.00000000000E+00 -0.52600064702E+03  0.95683178061E+03  0.79928116187E+03 0.  0.
        1    1    3    3  502    0  0.17594512560E+03 -0.16807297538E+03 -0.64252060896E+03  0.68705017666E+03  0.50400001928E-02 0. -1.
       -1    1    3    3    0  502 -0.17594512560E+03  0.16807297538E+03  0.11651996194E+03  0.26978160395E+03  0.50400001928E-02 0.  1.
</event>
<event>
 5   0  0.2768834E-03  0.7989764E+03  0.7818609E-02  0.9561500E-01
       -2   -1    0    0    0  501  0.00000000000E+00  0.00000000000E+00  0.21303674198E+03  0.21303674199E+03  0.25500000920E-02 0.  1.
        2   -1    0    0  501    0  0.00000000000E+00  0.00000000000E+00 -0.74912339403E+03  0.74912339403E+03  0.25500000920E-02 0. -1.
    10030    2    1    2    0    0  0.00000000000E+00  0.00000000000E+00 -0.53608665205E+03  0.96216013602E+03  0.79897636313E+03 0.  0.
        4    1    3    3  502    0 -0.25041615308E+03 -0.40089479930E+02 -0.63974979724E+03  0.68818371972E+03  0.12699999809E+01 0. -1.
       -4    1    3    3    0  502  0.25041615308E+03  0.40089479930E+02  0.10366314518E+03  0.27397641631E+03  0.12699999809E+01 0.  1.
</event>
<event>
 5   0  0.2873212E-03  0.8078436E+03  0.7818609E-02  0.9548733E-01
        2   -1    0    0  501    0  0.00000000000E+00  0.00000000000E+00  0.80886508708E+03  0.80886508708E+03  0.25500000920E-02 0. -1.
       -2   -1    0    0    0  501  0.00000000000E+00  0.00000000000E+00 -0.20170584313E+03  0.20170584315E+03  0.25500000920E-02 0.  1.
    10030    2    1    2    0    0  0.00000000000E+00  0.00000000000E+00  0.60715924395E+03  0.10105709302E+04  0.80784358481E+03 0.  0.
        2    1    3    3  502    0  0.15486228731E+03 -0.36222116258E+03  0.19192716667E+03  0.43820376078E+03  0.25500000920E-02 0.  1.
       -2    1    3    3    0  502 -0.15486228731E+03  0.36222116258E+03  0.41523207728E+03  0.57236716944E+03  0.25500000920E-02 0. -1.
</event>
<event>
 5   0  0.1640035E-03  0.7987383E+03  0.7818609E-02  0.9561845E-01
       -1   -1    0    0    0  501  0.00000000000E+00  0.00000000000E+00  0.15224098703E+03  0.15224098712E+03  0.50400001928E-02 0.  1.
        1   -1    0    0  501    0  0.00000000000E+00  0.00000000000E+00 -0.10476530008E+04  0.10476530008E+04  0.50400001928E-02 0. -1.
    10030    2    1    2    0    0  0.00000000000E+00  0.00000000000E+00 -0.89541201376E+03  0.11998939879E+04  0.79873832252E+03 0.  0.
        5    1    3    3  502    0 -0.77254858622E+02  0.21348029942E+03 -0.94123472921E+03  0.96823915273E+03  0.46999998093E+01 0. -1.
       -5    1    3    3    0  502  0.77254858622E+02 -0.21348029942E+03  0.45822715444E+02  0.23165483519E+03  0.46999998093E+01 0.  1.
</event>
<event>
 5   0  0.2873212E-03  0.8000924E+03  0.7818609E-02  0.9559883E-01
        2   -1    0    0  501    0  0.00000000000E+00  0.00000000000E+00  0.55640985618E+03  0.55640985619E+03  0.25500000920E-02 0.  1.
       -2   -1    0    0    0  501  0.00000000000E+00  0.00000000000E+00 -0.28762425081E+03  0.28762425083E+03  0.25500000920E-02 0. -1.
    10030    2    1    2    0    0  0.00000000000E+00  0.00000000000E+00  0.26878560537E+03  0.84403410701E+03  0.80009241475E+03 0.  0.
        2    1    3    3  502    0 -0.25536609704E+02  0.25568175409E+03 -0.18905989224E+03  0.31901241460E+03  0.25500000920E-02 0. -1.
       -2    1    3    3    0  502  0.25536609704E+02 -0.25568175409E+03  0.45784549761E+03  0.52502169241E+03  0.25500000920E-02 0.  1.
</event>
<event>
 5   0  0.1640035E-03  0.8000101E+03  0.7818609E-02  0.9560003E-01
       -1   -1    0    0    0  501  0.00000000000E+00  0.00000000000E+00  0.69310102857E+03  0.69310102859E+03  0.50400001928E-02 0. -1.
        1   -1    0    0  501    0  0.00000000000E+00  0.00000000000E+00 -0.23085238726E+03  0.23085238732E+03  0.50400001928E-02 0.  1.
    10030    2    1    2    0    0  0.00000000000E+00  0.00000000000E+00  0.46224864131E+03  0.92395341591E+03  0.80001006767E+03 0.  0.
        5    1    3    3  502    0 -0.29723681694E+03 -0.24077705567E+03  0.96147854490E+02  0.39444874927E+03  0.46999998093E+01 0.  1.
       -5    1    3    3    0  502  0.29723681694E+03  0.24077705567E+03  0.36610078682E+03  0.52950466664E+03  0.46999998093E+01 0. -1.
</event>
<event>
 5   0  0.1637228E-03  0.8007152E+03  0.7818609E-02  0.9558982E-01
       -1   -1    0    0    0  501  0.00000000000E+00  0.00000000000E+00  0.12346820593E+03  0.12346820603E+03  0.50400001928E-02 0. -1.
        1   -1    0    0  501    0  0.00000000000E+00  0.00000000000E+00 -0.12981981673E+04  0.12981981673E+04  0.50400001928E-02 0.  1.
    10030    2    1    2    0    0  0.00000000000E+00  0.00000000000E+00 -0.11747299614E+04  0.14216663734E+04  0.80071517718E+03 0.  0.
        2    1    3    3  502    0  0.34517540304E+03 -0.11502436000E+03 -0.88398191551E+03  0.95592922814E+03  0.25500000920E-02 0.  1.
       -2    1    3    3    0  502 -0.34517540304E+03  0.11502436000E+03 -0.29074804590E+03  0.46573714524E+03  0.25500000920E-02 0. -1.
</event>
<event>
 5   0  0.1637228E-03  0.8006050E+03  0.7818609E-02  0.9559142E-01
       -1   -1    0    0    0  501  0.00000000000E+00  0.00000000000E+00  0.17192819807E+03  0.17192819815E+03  0.50400001928E-02 0.  1.
        1   -1    0    0  501    0  0.00000000000E+00  0.00000000000E+00 -0.93202920801E+03  0.93202920802E+03  0.50400001928E-02 0. -1.
    10030    2    1    2    0    0  0.00000000000E+00  0.00000000000E+00 -0.76010100993E+03  0.11039574062E+04  0.80060502705E+03 0.  0.
        2    1    3    3  502    0 -0.29304495469E+02  0.17819088103E+03  0.11257024503E+03  0.21279756485E+03  0.25500000920E-02 0.  1.
       -2    1    3    3    0  502  0.29304495469E+02 -0.17819088103E+03 -0.87267125496E+03  0.89115984132E+03  0.25500000920E-02 0. -1.
</event>
<event>
 5   0  0.1637228E-03  0.8013511E+03  0.7818609E-02  0.9558064E-01
        1   -1    0    0  501    0  0.00000000000E+00  0.00000000000E+00  0.34858946796E+03  0.34858946800E+03  0.50400001928E-02 0. -1.
       -1   -1    0    0    0  501  0.00000000000E+00  0.00000000000E+00 -0.46054428558E+03  0.46054428561E+03  0.50400001928E-02 0.  1.
    10030    2    1    2    0    0  0.00000000000E+00  0.00000000000E+00 -0.11195481762E+03  0.80913375360E+03  0.80135107789E+03 0.  0.
        2    1    3    3  502    0 -0.22511856710E+03 -0.29131687470E+03 -0.21561729520E+03  0.42665525748E+03  0.25500000920E-02 0.  1.
       -2    1    3    3    0  502  0.22511856710E+03  0.29131687470E+03  0.10366247757E+03  0.38247849613E+03  0.25500000920E-02 0. -1.
</event>
<event>
 5   0  0.2910501E-03  0.8006070E+03  0.7818609E-02  0.9559139E-01
        2   -1    0    0  501    0  0.00000000000E+00  0.00000000000E+00  0.40971905811E+03  0.40971905812E+03  0.25500000920E-02 0.  1.
       -2   -1    0    0    0  501  0.00000000000E+00  0.00000000000E+00 -0.39110427548E+03  0.39110427549E+03  0.25500000920E-02 0. -1.
    10030    2    1    2    0    0  0.00000000000E+00  0.00000000000E+00  0.18614782634E+02  0.80082333361E+03  0.80060695820E+03 0.  0.
        1    1    3    3  502    0 -0.33935237622E+03  0.19998855759E+03 -0.62038016438E+02  0.39875327450E+03  0.50400001928E-02 0. -1.
       -1    1    3    3    0  502  0.33935237622E+03 -0.19998855759E+03  0.80652799073E+02  0.40207005911E+03  0.50400001928E-02 0.  1.
</event>
<event>
 5   0  0.2768834E-03  0.7980704E+03  0.7818609E-02  0.9562814E-01
        2   -1    0    0  501    0  0.00000000000E+00  0.00000000000E+00  0.56546350569E+03  0.56546350570E+03  0.25500000920E-02 0.  1.
       -2   -1    0    0    0  501  0.00000000000E+00  0.00000000000E+00 -0.28159036984E+03  0.28159036985E+03  0.25500000920E-02 0. -1.
    10030    2    1    2    0    0  0.00000000000E+00  0.00000000000E+00  0.28387313585E+03  0.84705387555E+03  0.79807036709E+03 0.  0.
        4    1    3    3  502    0  0.11886194856E+02 -0.45006308871E+02  0.56256971730E+03  0.56449371050E+03  0.12699999809E+01 0.  1.
       -4    1    3    3    0  502 -0.11886194856E+02  0.45006308871E+02 -0.27869658145E+03  0.28256016506E+03  0.12699999809E+01 0. -1.
</event>
<event>
 5   0  0.1656051E-03  0.8044031E+03  0.7818609E-02  0.9553666E-01
        1   -1    0    0  501    0  0.00000000000E+00  0.00000000000E+00  0.78039941581E+03  0.78039941583E+03  0.50400001928E-02 0.  1.
       -1   -1    0    0    0  501  0.00000000000E+00  0.00000000000E+00 -0.20728629052E+03  0.20728629058E+03  0.50400001928E-02 0. -1.
    10030    2    1    2    0    0  0.00000000000E+00  0.00000000000E+00  0.57311312529E+03  0.98768570641E+03  0.80440313293E+03 0.  0.
        3    1    3    3  502    0 -0.20043229312E+02  0.26074681687E+03  0.66175531365E+03  0.71155515521E+03  0.10100000352E+00 0.  1.
       -3    1    3    3    0  502  0.20043229312E+02 -0.26074681687E+03 -0.88642188363E+02  0.27613055121E+03  0.10100000352E+00 0. -1.
</event>
<event>
 5   0  0.2763587E-03  0.8079440E+03  0.7818609E-02  0.9548589E-01
        2   -1    0    0  501    0  0.00000000000E+00  0.00000000000E+00  0.89300331007E+03  0.89300331007E+03  0.25500000920E-02 0.  1.
       -2   -1    0    0    0  501  0.00000000000E+00  0.00000000000E+00 -0.18274666816E+03  0.18274666818E+03  0.25500000920E-02 0. -1.
    10030    2    1    2    0    0  0.00000000000E+00  0.00000000000E+00  0.71025664191E+03  0.10757499782E+04  0.80794400692E+03 0.  0.
        3    1    3    3  502    0 -0.38621221329E+02  0.73394402166E+02  0.88154598609E+03  0.88543868946E+03  0.10100000352E+00 0.  1.
       -3    1    3    3    0  502  0.38621221329E+02 -0.73394402166E+02 -0.17128934418E+03  0.19031128878E+03  0.10100000352E+00 0. -1.
</event>
<event>
 5   0  0.1656051E-03  0.7913765E+03  0.7818609E-02  0.9572584E-01
        1   -1    0    0  501    0  0.00000000000E+00  0.00000000000E+00  0.45880736371E+03  0.45880736374E+03  0.50400001928E-02 0.  1.
       -1   -1    0    0    0  501  0.00000000000E+00  0.00000000000E+00 -0.34125254202E+03  0.34125254206E+03  0.50400001928E-02 0. -1.
    10030    2    1    2    0    0  0.00000000000E+00  0.00000000000E+00  0.11755482169E+03  0.80005990579E+03  0.79137646967E+03 0.  0.
        3    1    3    3  502    0 -0.12519659218E+03  0.33797400145E+03 -0.10631956925E+03  0.37577183683E+03  0.10100000352E+00 0.  1.
       -3    1    3    3    0  502  0.12519659218E+03 -0.33797400145E+03  0.22387439094E+03  0.42428806896E+03  0.10100000352E+00 0. -1.
</event>
<event>
 5   0  0.1637228E-03  0.7979164E+03  0.7818609E-02  0.9563038E-01
       -1   -1    0    0    0  501  0.00000000000E+00  0.00000000000E+00  0.92355628196E+02  0.92355628333E+02  0.50400001928E-02 0.  1.
        1   -1    0    0  501    0  0.00000000000E+00  0.00000000000E+00 -0.17234210243E+04  0.17234210243E+04  0.50400001928E-02 0. -1.
    10030    2    1    2    0    0  0.00000000000E+00  0.00000000000E+00 -0.16310653961E+04  0.18157766526E+04  0.79791636523E+03 0.  0.
        2    1    3    3  502    0  0.54520596689E+02  0.24808758705E+03 -0.15156326590E+04  0.15367700880E+04  0.25500000920E-02 0. -1.
       -2    1    3    3    0  502 -0.54520596689E+02 -0.24808758705E+03 -0.11543273710E+03  0.27900656465E+03  0.25500000920E-02 0.  1.
</event>
<event>
 5   0  0.2873212E-03  0.7990394E+03  0.7818609E-02  0.9561409E-01
       -2   -1    0    0    0  501  0.00000000000E+00  0.00000000000E+00  0.14893608299E+03  0.14893608301E+03  0.25500000920E-02 0. -1.
        2   -1    0    0  501    0  0.00000000000E+00  0.00000000000E+00 -0.10717080294E+04  0.10717080294E+04  0.25500000920E-02 0.  1.
    10030    2    1    2    0    0  0.00000000000E+00  0.00000000000E+00 -0.92277194643E+03  0.12206441124E+04  0.79903941335E+03 0.  0.
        2    1    3    3  502    0 -0.36102858047E+03 -0.15806217690E+03 -0.36132024608E+03  0.53467523593E+03  0.25500000920E-02 0. -1.
       -2    1    3    3    0  502  0.36102858047E+03  0.15806217690E+03 -0.56145170035E+03  0.68596887650E+03  0.25500000920E-02 0.  1.
</event>
<event>
 5   0  0.1640035E-03  0.7995848E+03  0.7818609E-02  0.9560618E-01
        1   -1    0    0  501    0  0.00000000000E+00  0.00000000000E+00  0.53790732020E+03  0.53790732023E+03  0.50400001928E-02 0.  1.
       -1   -1    0    0    0  501  0.00000000000E+00  0.00000000000E+00 -0.29714032174E+03  0.29714032179E+03  0.50400001928E-02 0. -1.
    10030    2    1    2    0    0  0.00000000000E+00  0.00000000000E+00  0.24076699846E+03  0.83504764201E+03  0.79958477780E+03 0.  0.
        5    1    3    3  502    0 -0.44451795291E+00 -0.16084513918E+03  0.50259408135E+03  0.52772555083E+03  0.46999998093E+01 0.  1.
       -5    1    3    3    0  502  0.44451795291E+00  0.16084513918E+03 -0.26182708289E+03  0.30732209118E+03  0.46999998093E+01 0. -1.
</event>
<event>
 5   0  0.1617491E-03  0.7848868E+03  0.7818609E-02  0.9582154E-01
        1   -1    0    0  501    0  0.00000000000E+00  0.00000000000E+00  0.31078477809E+03  0.31078477814E+03  0.50400001928E-02 0.  1.
       -1   -1    0    0    0  501  0.00000000000E+00  0.00000000000E+00 -0.49555774930E+03  0.49555774932E+03  0.50400001928E-02 0. -1.
    10030    2    1    2    0    0  0.00000000000E+00  0.00000000000E+00 -0.18477297120E+03  0.80634252746E+03  0.78488675661E+03 0.  0.
        1    1    3    3  502    0  0.67837513276E+02 -0.24894996907E+03 -0.39616161604E+03  0.47278117703E+03  0.50400001928E-02 0. -1.
       -1    1    3    3    0  502 -0.67837513276E+02  0.24894996907E+03  0.21138864483E+03  0.33356135043E+03  0.50400001928E-02 0.  1.
</event>
<event>
 5   0  0.2768834E-03  0.8022456E+03  0.7818609E-02  0.9556772E-01
        2   -1    0    0  501    0  0.00000000000E+00  0.00000000000E+00  0.82075502834E+03  0.82075502835E+03  0.25500000920E-02 0.  1.
       -2   -1    0    0    0  501  0.00000000000E+00  0.00000000000E+00 -0.19603841393E+03  0.19603841395E+03  0.25500000920E-02 0. -1.
    10030    2    1    2    0    0  0.00000000000E+00  0.00000000000E+00  0.62471661441E+03  0.10167934423E+04  0.80224563319E+03 0.  0.
        4    1    3    3  502    0  0.27842137069E+03  0.73053540745E+02  0.66643007536E+03  0.72593797098E+03  0.12699999809E+01 0.  1.
       -4    1    3    3    0  502 -0.27842137069E+03 -0.73053540745E+02 -0.41713460947E+02  0.29085547132E+03  0.12699999809E+01 0. -1.
</event>
<event>
 5   0  0.1617491E-03  0.7994263E+03  0.7818609E-02  0.9560848E-01
       -1   -1    0    0    0  501  0.00000000000E+00  0.00000000000E+00  0.30979894588E+03  0.30979894592E+03  0.50400001928E-02 0. -1.
        1   -1    0    0  501    0  0.00000000000E+00  0.00000000000E+00 -0.51572351933E+03  0.51572351936E+03  0.50400001928E-02 0.  1.
    10030    2    1    2    0    0  0.00000000000E+00  0.00000000000E+00 -0.20592457345E+03  0.82552246528E+03  0.79942630100E+03 0.  0.
        1    1    3    3  502    0  0.20648005486E+03 -0.10268527948E+02  0.25030318761E+03  0.32464001828E+03  0.50400001928E-02 0. -1.
       -1    1    3    3    0  502 -0.20648005486E+03  0.10268527948E+02 -0.45622776106E+03  0.50088244699E+03  0.50400001928E-02 0.  1.
</event>
<event>
 5   0  0.2768834E-03  0.7998925E+03  0.7818609E-02  0.9560173E-01
       -2   -1    0    0    0  501  0.00000000000E+00  0.00000000000E+00  0.62894439502E+02  0.62894439554E+02  0.25500000920E-02 0.  1.
        2   -1    0    0  501    0  0.00000000000E+00  0.00000000000E+00 -0.25432615144E+04  0.25432615144E+04  0.25500000920E-02 0. -1.
    10030    2    1    2    0    0  0.00000000000E+00  0.00000000000E+00 -0.24803670749E+04  0.26061559539E+04  0.79989251158E+03 0.  0.
        4    1    3    3  502    0 -0.18527613693E+03  0.32549479673E+03 -0.16972669854E+04  0.17380998079E+04  0.12699999809E+01 0. -1.
       -4    1    3    3    0  502  0.18527613693E+03 -0.32549479673E+03 -0.78310008946E+03  0.86805614601E+03  0.12699999809E+01 0.  1.
</event>
<event>
 5   0  0.2690809E-03  0.8013790E+03  0.7818609E-02  0.9558023E-01
        2   -1    0    0  501    0  0.00000000000E+00  0.00000000000E+00  0.16889538421E+04  0.16889538421E+04  0.25500000920E-02 0. -1.
       -2   -1    0    0    0  501  0.00000000000E+00  0.00000000000E+00 -0.95060072927E+02  0.95060072961E+02  0.25500000920E-02 0.  1.
    10030    2    1    2    0    0  0.00000000000E+00  0.00000000000E+00  0.15938937691E+04  0.17840139150E+04  0.80137900005E+03 0.  0.
        5    1    3    3  502    0 -0.24829551580E+02  0.32205662982E+02  0.16842863608E+04  0.16847837685E+04  0.46999998093E+01 0. -1.
       -5    1    3    3    0  502  0.24829551580E+02 -0.32205662982E+02 -0.90392591658E+02  0.99230146552E+02  0.46999998093E+01 0.  1.
</event>
<event>
 5   0  0.1712793E-03  0.8015010E+03  0.7818609E-02  0.9557847E-01
       -1   -1    0    0    0  501  0.00000000000E+00  0.00000000000E+00  0.34056586208E+03  0.34056586212E+03  0.50400001928E-02 0. -1.
        1   -1    0    0  501    0  0.00000000000E+00  0.00000000000E+00 -0.47157093818E+03  0.47157093821E+03  0.50400001928E-02 0.  1.
    10030    2    1    2    0    0  0.00000000000E+00  0.00000000000E+00 -0.13100507610E+03  0.81213680033E+03  0.80150099968E+03 0.  0.
        4    1    3    3  502    0 -0.17327119904E+03  0.10041053952E+03 -0.41723150024E+03  0.46280549106E+03  0.12699999809E+01 0.  1.
       -4    1    3    3    0  502  0.17327119904E+03 -0.10041053952E+03  0.28622642413E+03  0.34933130927E+03  0.12699999809E+01 0. -1.
</event>
<event>
 5   0  0.2690809E-03  0.8014060E+03  0.7818609E-02  0.9557984E-01
       -2   -1    0    0    0  501  0.00000000000E+00  0.00000000000E+00  0.24627762708E+03  0.24627762710E+03  0.25500000920E-02 0.  1.
        2   -1    0    0  501    0  0.00000000000E+00  0.00000000000E+00 -0.65195892970E+03  0.65195892971E+03  0.25500000920E-02 0. -1.
    10030    2    1    2    0    0  0.00000000000E+00  0.00000000000E+00 -0.40568130262E+03  0.89823655681E+03  0.80140600989E+03 0.  0.
        5    1    3    3  502    0 -0.17741267314E+03 -0.30535433266E+03 -0.41498276195E+03  0.54493055317E+03  0.46999998093E+01 0. -1.
       -5    1    3    3    0  502  0.17741267314E+03  0.30535433266E+03  0.93014593297E+01  0.35330600364E+03  0.46999998093E+01 0.  1.
</event>
<event>
 5   0  0.1095350E-03  0.7996988E+03  0.7818609E-02  0.9560453E-01
       -4   -1    0    0    0  501  0.00000000000E+00  0.00000000000E+00  0.13518820950E+03  0.13519417475E+03  0.12699999809E+01 0.  1.
        4   -1    0    0  501    0  0.00000000000E+00  0.00000000000E+00 -0.11826116557E+04  0.11826123376E+04  0.12699999809E+01 0. -1.
    10030    2    1    2    0    0  0.00000000000E+00  0.00000000000E+00 -0.10474234462E+04  0.13178065124E+04  0.79969877355E+03 0.  0.
        3    1    3    3  502    0  0.21069881071E+03  0.31869169430E+03 -0.32928203747E+03  0.50436599336E+03  0.10100000352E+00 0.  1.
       -3    1    3    3    0  502 -0.21069881071E+03 -0.31869169430E+03 -0.71814140875E+03  0.81344051904E+03  0.10100000352E+00 0. -1.
</event>
<event>
 5   0  0.2873212E-03  0.8004436E+03  0.7818609E-02  0.9559375E-01
       -2   -1    0    0    0  501  0.00000000000E+00  0.00000000000E+00  0.27111378302E+03  0.27111378303E+03  0.25500000920E-02 0.  1.
        2   -1    0    0  501    0  0.00000000000E+00  0.00000000000E+00 -0.59081274796E+03  0.59081274796E+03  0.25500000920E-02 0. -1.
    10030    2    1    2    0    0  0.00000000000E+00  0.00000000000E+00 -0.31969896494E+03  0.86192653099E+03  0.80044357492E+03 0.  0.
        2    1    3    3  502    0  0.27980589623E+03 -0.22209658980E+03 -0.35415122023E+03  0.50303212776E+03  0.25500000920E-02 0.  1.
       -2    1    3    3    0  502 -0.27980589623E+03  0.22209658980E+03  0.34452255290E+02  0.35889440323E+03  0.25500000920E-02 0. -1.
</event>
<event>
 5   0  0.1656051E-03  0.8032060E+03  0.7818609E-02  0.9555388E-01
        1   -1    0    0  501    0  0.00000000000E+00  0.00000000000E+00  0.34842208755E+03  0.34842208759E+03  0.50400001928E-02 0. -1.
       -1   -1    0    0    0  501  0.00000000000E+00  0.00000000000E+00 -0.46290112745E+03  0.46290112748E+03  0.50400001928E-02 0.  1.
    10030    2    1    2    0    0  0.00000000000E+00  0.00000000000E+00 -0.11447903990E+03  0.81132321507E+03  0.80320601886E+03 0.  0.
        3    1    3    3  502    0  0.70255236108E+01  0.29960169803E+03  0.21280931237E+03  0.36755727319E+03  0.10100000352E+00 0. -1.
       -3    1    3    3    0  502 -0.70255236108E+01 -0.29960169803E+03 -0.32728835227E+03  0.44376594188E+03  0.10100000352E+00 0.  1.
</event>
</LesHouchesEvents>
