<LesHouchesEvents version="3.0">
<header>
<!--
#*********************************************************************
#                                                                    *
#                        MadGraph5_aMC@NLO                           *
#                                                                    *
#                           Going Beyond                             *
#                                                                    *
#                   http://madgraph.hep.uiuc.edu                     *
#                   http://madgraph.phys.ucl.ac.be                   *
#                   http://amcatnlo.cern.ch                          *
#                                                                    *
#                     The MadGraph5_aMC@NLO team                     *
#                                                                    *
#....................................................................*
#                                                                    *
# This file contains all the information necessary to reproduce      *
# the events generated:                                              *
#                                                                    *
# 1. software version                                                *
# 2. proc_card          : code generation info including model       *
# 3. param_card         : model primary parameters in the LH format  *
# 4. run_card           : running parameters (collider and cuts)     *
# 5. pythia_card        : present only if pythia has been run        *
# 6. pgs_card           : present only if pgs has been run           *
# 7. delphes_cards      : present only if delphes has been run       *
#                                                                    *
#                                                                    *
#*********************************************************************
-->
<MGVersion>
#5.2.2.3
</MGVersion>
<MG5ProcCard>
#************************************************************
#*                     MadGraph5_aMC@NLO                    *
#*                                                          *
#*                *                       *                 *
#*                  *        * *        *                   *
#*                    * * * * 5 * * * *                     *
#*                  *        * *        *                   *
#*                *                       *                 *
#*                                                          *
#*                                                          *
#*         VERSION 2.2.3                 2015-02-10         *
#*                                                          *
#*    The MadGraph5_aMC@NLO Development Team - Find us at   *
#*    https://server06.fynu.ucl.ac.be/projects/madgraph     *
#*                                                          *
#************************************************************
#*                                                          *
#*               Command File for MadGraph5_aMC@NLO         *
#*                                                          *
#*     run as ./bin/mg5_aMC  filename                       *
#*                                                          *
#************************************************************
set group_subprocesses Auto
set ignore_six_quark_processes False
set loop_optimized_output True
set gauge unitary
set complex_mass_scheme False
import model sm
define p = g u c d s u~ c~ d~ s~
define j = g u c d s u~ c~ d~ s~
define l+ = e+ mu+
define l- = e- mu-
define vl = ve vm vt
define vl~ = ve~ vm~ vt~
import model Zprime_UFO
generate p p > zph, zph > j j
add process p p > zph, zph > b b~
output Dijet_signal
</MG5ProcCard>
<MGProcCard>
#*********************************************************************
#                        MadGraph/MadEvent                           *
#                   http://madgraph.hep.uiuc.edu                     *
#                                                                    *
#                          proc_card.dat                             *
#*********************************************************************
#                                                                    *
#            This Files is generated by MADGRAPH 5                   *
#                                                                    *
# WARNING: This Files is generated for MADEVENT (compatibility issue)*
#          This files is NOT a valid MG4 proc_card.dat               *
#          Running this in MG4 will NEVER reproduce the result of MG5*
#                                                                    *
#*********************************************************************
#*********************************************************************
# Process(es) requested : mg2 input                                  *
#*********************************************************************
# Begin PROCESS # This is TAG. Do not modify this line
p p > zph , zph > j j           #Process
# Be carefull the coupling are here in MG5 convention
          
end_coup           # End the couplings input

done               # this tells MG there are no more procs
# End PROCESS  # This is TAG. Do not modify this line
#*********************************************************************
# Model information                                                  *
#*********************************************************************
# Begin MODEL  # This is TAG. Do not modify this line
Zprime_UFO
# End   MODEL  # This is TAG. Do not modify this line
#*********************************************************************
# Start multiparticle definitions                                    *
#*********************************************************************
# Begin MULTIPARTICLES # This is TAG. Do not modify this line

# End  MULTIPARTICLES # This is TAG. Do not modify this line
</MGProcCard>
<MGRunCard>
#*********************************************************************
#                       MadGraph5_aMC@NLO                            *
#                                                                    *
#                     run_card.dat MadEvent                          *
#                                                                    *
#  This file is used to set the parameters of the run.               *
#                                                                    *
#  Some notation/conventions:                                        *
#                                                                    *
#   Lines starting with a '# ' are info or comments                  *
#                                                                    *
#   mind the format:   value    = variable     ! comment             *
#*********************************************************************
#
#*******************                                                 
# Running parameters
#*******************                                                 
#                                                                    
#*********************************************************************
# Tag name for the run (one word)                                    *
#*********************************************************************
  tag_1     = run_tag ! name of the run 
#*********************************************************************
# Run to generate the grid pack                                      *
#*********************************************************************
  .false.     = gridpack  !True = setting up the grid pack
#*********************************************************************
# Number of events and rnd seed                                      *
# Warning: Do not generate more than 1M events in a single run       *
# If you want to run Pythia, avoid more than 50k events in a run.    *
#*********************************************************************
  2000 = nevents ! Number of unweighted events requested 
 2991 = iseed   ! rnd seed (0=assigned automatically=default))
#*********************************************************************
# Collider type and energy                                           *
# lpp: 0=No PDF, 1=proton, -1=antiproton, 2=photon from proton,      *
#                                         3=photon from electron     *
#*********************************************************************
        1     = lpp1    ! beam 1 type 
        1     = lpp2    ! beam 2 type
     4000     = ebeam1  ! beam 1 total energy in GeV
     4000     = ebeam2  ! beam 2 total energy in GeV
#*********************************************************************
# Beam polarization from -100 (left-handed) to 100 (right-handed)    *
#*********************************************************************
        0     = polbeam1 ! beam polarization for beam 1
        0     = polbeam2 ! beam polarization for beam 2
#*********************************************************************
# PDF CHOICE: this automatically fixes also alpha_s and its evol.    *
#*********************************************************************
 'nn23lo1'    = pdlabel     ! PDF set                                     
 230000    = lhaid     ! if pdlabel=lhapdf, this is the lhapdf number
#*********************************************************************
# Renormalization and factorization scales                           *
#*********************************************************************
 F        = fixed_ren_scale  ! if .true. use fixed ren scale
 F        = fixed_fac_scale  ! if .true. use fixed fac scale
 91.1880  = scale            ! fixed ren scale
 91.1880  = dsqrt_q2fact1    ! fixed fact scale for pdf1
 91.1880  = dsqrt_q2fact2    ! fixed fact scale for pdf2
 1        = scalefact        ! scale factor for event-by-event scales
#*********************************************************************
# Matching - Warning! ickkw > 1 is still beta
#*********************************************************************
 0        = ickkw            ! 0 no matching, 1 MLM, 2 CKKW matching
 1        = highestmult      ! for ickkw=2, highest mult group
 1        = ktscheme         ! for ickkw=1, 1 Durham kT, 2 Pythia pTE
 1        = alpsfact         ! scale factor for QCD emission vx
 F        = chcluster        ! cluster only according to channel diag
 T        = pdfwgt           ! for ickkw=1, perform pdf reweighting
 5        = asrwgtflavor     ! highest quark flavor for a_s reweight
 T        = clusinfo         ! include clustering tag in output
 3.0      = lhe_version       ! Change the way clustering information pass to shower.        
#*********************************************************************
#**********************************************************
#
#**********************************************************
# Automatic ptj and mjj cuts if xqcut > 0
# (turn off for VBF and single top processes)
#**********************************************************
   T  = auto_ptj_mjj  ! Automatic setting of ptj and mjj
#**********************************************************
#                                                                    
#**********************************
# BW cutoff (M+/-bwcutoff*Gamma)
#**********************************
  15  = bwcutoff      ! (M+/-bwcutoff*Gamma)
#**********************************************************
# Apply pt/E/eta/dr/mij cuts on decay products or not
# (note that etmiss/ptll/ptheavy/ht/sorted cuts always apply)
#**********************************************************
   T  = cut_decays    ! Cut decay products 
#*************************************************************
# Number of helicities to sum per event (0 = all helicities)
# 0 gives more stable result, but longer run time (needed for
# long decay chains e.g.).
# Use >=2 if most helicities contribute, e.g. pure QCD.
#*************************************************************
   0  = nhel          ! Number of helicities used per event
#*******************                                                 
# Standard Cuts
#*******************                                                 
#                                                                    
#*********************************************************************
# Minimum and maximum pt's (for max, -1 means no cut)                *
#*********************************************************************
 20  = ptj       ! minimum pt for the jets 
  0  = ptb       ! minimum pt for the b 
 10  = pta       ! minimum pt for the photons 
 10  = ptl       ! minimum pt for the charged leptons 
  0  = misset    ! minimum missing Et (sum of neutrino's momenta)
  0  = ptheavy   ! minimum pt for one heavy final state
 1.0 = ptonium   ! minimum pt for the quarkonium states
 -1  = ptjmax    ! maximum pt for the jets
 -1  = ptbmax    ! maximum pt for the b
 -1  = ptamax    ! maximum pt for the photons
 -1  = ptlmax    ! maximum pt for the charged leptons
 -1  = missetmax ! maximum missing Et (sum of neutrino's momenta)
#*********************************************************************
# Minimum and maximum E's (in the center of mass frame)              *
#*********************************************************************
  0  = ej     ! minimum E for the jets 
  0  = eb     ! minimum E for the b 
  0  = ea     ! minimum E for the photons 
  0  = el     ! minimum E for the charged leptons 
 -1   = ejmax ! maximum E for the jets
 -1   = ebmax ! maximum E for the b
 -1   = eamax ! maximum E for the photons
 -1   = elmax ! maximum E for the charged leptons
#*********************************************************************
# Maximum and minimum absolute rapidity (for max, -1 means no cut)   *
#*********************************************************************
   5  = etaj    ! max rap for the jets 
  -1  = etab    ! max rap for the b
 2.5  = etaa    ! max rap for the photons 
 2.5  = etal    ! max rap for the charged leptons 
 0.6  = etaonium ! max rap for the quarkonium states
   0  = etajmin ! min rap for the jets
   0  = etabmin ! min rap for the b
   0  = etaamin ! min rap for the photons
   0  = etalmin ! main rap for the charged leptons
#*********************************************************************
# Minimum and maximum DeltaR distance                                *
#*********************************************************************
 0.4 = drjj    ! min distance between jets 
 0   = drbb    ! min distance between b's 
 0.4 = drll    ! min distance between leptons 
 0.4 = draa    ! min distance between gammas 
 0   = drbj    ! min distance between b and jet 
 0.4 = draj    ! min distance between gamma and jet 
 0.4 = drjl    ! min distance between jet and lepton 
 0   = drab    ! min distance between gamma and b 
 0   = drbl    ! min distance between b and lepton 
 0.4 = dral    ! min distance between gamma and lepton 
 -1  = drjjmax ! max distance between jets
 -1  = drbbmax ! max distance between b's
 -1  = drllmax ! max distance between leptons
 -1  = draamax ! max distance between gammas
 -1  = drbjmax ! max distance between b and jet
 -1  = drajmax ! max distance between gamma and jet
 -1  = drjlmax ! max distance between jet and lepton
 -1  = drabmax ! max distance between gamma and b
 -1  = drblmax ! max distance between b and lepton
 -1  = dralmax ! maxdistance between gamma and lepton
#*********************************************************************
# Minimum and maximum invariant mass for pairs                       *
# WARNING: for four lepton final state mmll cut require to have      *
#          different lepton masses for each flavor!                  *           
#*********************************************************************
 0   = mmjj    ! min invariant mass of a jet pair 
 0   = mmbb    ! min invariant mass of a b pair 
 0   = mmaa    ! min invariant mass of gamma gamma pair
 0   = mmll    ! min invariant mass of l+l- (same flavour) lepton pair
 -1  = mmjjmax ! max invariant mass of a jet pair
 -1  = mmbbmax ! max invariant mass of a b pair
 -1  = mmaamax ! max invariant mass of gamma gamma pair
 -1  = mmllmax ! max invariant mass of l+l- (same flavour) lepton pair
#*********************************************************************
# Minimum and maximum invariant mass for all letpons                 *
#*********************************************************************
 0   = mmnl    ! min invariant mass for all letpons (l+- and vl) 
 -1  = mmnlmax ! max invariant mass for all letpons (l+- and vl) 
#*********************************************************************
# Minimum and maximum pt for 4-momenta sum of leptons                *
#*********************************************************************
 0   = ptllmin  ! Minimum pt for 4-momenta sum of leptons(l and vl)
 -1  = ptllmax  ! Maximum pt for 4-momenta sum of leptons(l and vl)
#*********************************************************************
# Inclusive cuts                                                     *
#*********************************************************************
 0  = xptj ! minimum pt for at least one jet  
 0  = xptb ! minimum pt for at least one b 
 0  = xpta ! minimum pt for at least one photon 
 0  = xptl ! minimum pt for at least one charged lepton 
#*********************************************************************
# Control the pt's of the jets sorted by pt                          *
#*********************************************************************
 0   = ptj1min ! minimum pt for the leading jet in pt
 0   = ptj2min ! minimum pt for the second jet in pt
 0   = ptj3min ! minimum pt for the third jet in pt
 0   = ptj4min ! minimum pt for the fourth jet in pt
 -1  = ptj1max ! maximum pt for the leading jet in pt 
 -1  = ptj2max ! maximum pt for the second jet in pt
 -1  = ptj3max ! maximum pt for the third jet in pt
 -1  = ptj4max ! maximum pt for the fourth jet in pt
 0   = cutuse  ! reject event if fails any (0) / all (1) jet pt cuts
#*********************************************************************
# Control the pt's of leptons sorted by pt                           *
#*********************************************************************
 0   = ptl1min ! minimum pt for the leading lepton in pt
 0   = ptl2min ! minimum pt for the second lepton in pt
 0   = ptl3min ! minimum pt for the third lepton in pt
 0   = ptl4min ! minimum pt for the fourth lepton in pt
 -1  = ptl1max ! maximum pt for the leading lepton in pt 
 -1  = ptl2max ! maximum pt for the second lepton in pt
 -1  = ptl3max ! maximum pt for the third lepton in pt
 -1  = ptl4max ! maximum pt for the fourth lepton in pt
#*********************************************************************
# Control the Ht(k)=Sum of k leading jets                            *
#*********************************************************************
 0   = htjmin ! minimum jet HT=Sum(jet pt)
 -1  = htjmax ! maximum jet HT=Sum(jet pt)
 0   = ihtmin  !inclusive Ht for all partons (including b)
 -1  = ihtmax  !inclusive Ht for all partons (including b)
 0   = ht2min ! minimum Ht for the two leading jets
 0   = ht3min ! minimum Ht for the three leading jets
 0   = ht4min ! minimum Ht for the four leading jets
 -1  = ht2max ! maximum Ht for the two leading jets
 -1  = ht3max ! maximum Ht for the three leading jets
 -1  = ht4max ! maximum Ht for the four leading jets
#***********************************************************************
# Photon-isolation cuts, according to hep-ph/9801442                   *
# When ptgmin=0, all the other parameters are ignored                  *
# When ptgmin>0, pta and draj are not going to be used                 *
#***********************************************************************
   0 = ptgmin ! Min photon transverse momentum
 0.4 = R0gamma ! Radius of isolation code
 1.0 = xn ! n parameter of eq.(3.4) in hep-ph/9801442
 1.0 = epsgamma ! epsilon_gamma parameter of eq.(3.4) in hep-ph/9801442
 .true. = isoEM ! isolate photons from EM energy (photons and leptons)
#*********************************************************************
# WBF cuts                                                           *
#*********************************************************************
 0   = xetamin ! minimum rapidity for two jets in the WBF case  
 0   = deltaeta ! minimum rapidity for two jets in the WBF case 
#*********************************************************************
# KT DURHAM CUT                                                      *
#*********************************************************************
 -1    =  ktdurham        
 0.4  =  dparameter 
#*********************************************************************
# maximal pdg code for quark to be considered as a light jet         *
# (otherwise b cuts are applied)                                     *
#*********************************************************************
 4 = maxjetflavor    ! Maximum jet pdg code
#*********************************************************************
# Jet measure cuts                                                   *
#*********************************************************************
 0   = xqcut   ! minimum kt jet measure between partons
#*********************************************************************
#
#*********************************************************************
# Store info for systematics studies                                 *
# WARNING: If use_syst is T, matched Pythia output is                *
#          meaningful ONLY if plotted taking matchscale              *
#          reweighting into account!                                 *
#*********************************************************************
   F  = use_syst      ! Enable systematics studies
#
#**************************************
# Parameter of the systematics study
#  will be used by SysCalc (if installed)
#**************************************                                  
#
0.5 1 2 = sys_scalefact  # factorization/renormalization scale factor
0.5 1 2 = sys_alpsfact  # \alpha_s emission scale factors
30 50 = sys_matchscale # variation of merging scale
# PDF sets and number of members (0 or none for all members).
CT10nlo.LHgrid = sys_pdf # matching scales
# MSTW2008nlo68cl.LHgrid 1  = sys_pdf
</MGRunCard>
<slha>
######################################################################
## PARAM_CARD AUTOMATICALY GENERATED BY MG5 FOLLOWING UFO MODEL   ####
######################################################################
##                                                                  ##
##  Width set on Auto will be computed following the information    ##
##        present in the decay.py files of the model.               ##
##        See  arXiv:1402.1178 for more details.                    ##
##                                                                  ##
######################################################################

###################################
## INFORMATION FOR CKMBLOCK
###################################
Block ckmblock 
    1 2.277360e-01 # cabi 

###################################
## INFORMATION FOR FRBLOCK
###################################
Block frblock 
    1 1.600000e+00 # gz 

###################################
## INFORMATION FOR MASS
###################################
Block mass 
    1 5.040000e-03 # MD 
    2 2.550000e-03 # MU 
    3 1.010000e-01 # MS 
    4 1.270000e+00 # MC 
    5 4.700000e+00 # MB 
    6 1.720000e+02 # MT 
   11 5.110000e-04 # Me 
   13 1.056600e-01 # MM 
   15 1.777000e+00 # MTA 
   23 9.118760e+01 # MZ 
   25 1.200000e+02 # MH 
  10030 3.000000e+03 # MZph 
  10031 3.000000e+02 # MZpl 
## Dependent parameters, given by model restrictions.
## Those values should be edited following the 
## analytical expression. MG5 ignores those values 
## but they are important for interfacing the output of MG5
## to external program such as Pythia.
  12 0.000000 # ve : 0.0 
  14 0.000000 # vm : 0.0 
  16 0.000000 # vt : 0.0 
  21 0.000000 # g : 0.0 
  22 0.000000 # a : 0.0 
  24 79.824360 # w+ : cmath.sqrt(MZ__exp__2/2. + cmath.sqrt(MZ__exp__4/4. - (aEW*cmath.pi*MZ__exp__2)/(Gf*sqrt__2))) 

###################################
## INFORMATION FOR SMINPUTS
###################################
Block sminputs 
    1 1.279000e+02 # aEWM1 
    2 1.166370e-05 # Gf 
    3 1.184000e-01 # aS 

###################################
## INFORMATION FOR YUKAWA
###################################
Block yukawa 
    1 5.040000e-03 # ymdo 
    2 2.550000e-03 # ymup 
    3 1.010000e-01 # yms 
    4 1.270000e+00 # ymc 
    5 4.700000e+00 # ymb 
    6 1.720000e+02 # ymt 
   11 5.110000e-04 # yme 
   13 1.056600e-01 # ymm 
   15 1.777000e+00 # ymtau 

###################################
## INFORMATION FOR DECAY
###################################
DECAY   6 1.508336e+00 # WT 
DECAY  23 2.495200e+00 # WZ 
DECAY  24 2.085000e+00 # WW 
DECAY  25 5.753088e-03 # WH 
## Dependent parameters, given by model restrictions.
## Those values should be edited following the 
## analytical expression. MG5 ignores those values 
## but they are important for interfacing the output of MG5
## to external program such as Pythia.
DECAY  1 0.000000 # d : 0.0 
DECAY  2 0.000000 # u : 0.0 
DECAY  3 0.000000 # s : 0.0 
DECAY  4 0.000000 # c : 0.0 
DECAY  5 0.000000 # b : 0.0 
DECAY  11 0.000000 # e- : 0.0 
DECAY  12 0.000000 # ve : 0.0 
DECAY  13 0.000000 # mu- : 0.0 
DECAY  14 0.000000 # vm : 0.0 
DECAY  15 0.000000 # ta- : 0.0 
DECAY  16 0.000000 # vt : 0.0 
DECAY  21 0.000000 # g : 0.0 
DECAY  22 0.000000 # a : 0.0 
DECAY  10030 0.308725 # zph : (gz__exp__2*MZph*(5 + cmath.sqrt(1 - (4*MT__exp__2)/MZph__exp__2)))/(144.*cmath.pi) 
DECAY  10031 0.132629 # zpl : (5*gz__exp__2*MZpl)/(144.*cmath.pi) 
#===========================================================
# QUANTUM NUMBERS OF NEW STATE(S) (NON SM PDG CODE)
#===========================================================

Block QNUMBERS 10030  # zph 
        1 0  # 3 times electric charge
        2 3  # number of spin states (2S+1)
        3 1  # colour rep (1: singlet, 3: triplet, 8: octet)
        4 0  # Particle/Antiparticle distinction (0=own anti)
Block QNUMBERS 10031  # zpl 
        1 0  # 3 times electric charge
        2 3  # number of spin states (2S+1)
        3 1  # colour rep (1: singlet, 3: triplet, 8: octet)
        4 0  # Particle/Antiparticle distinction (0=own anti)
</slha>
## END BANNER##
<MGGenerationInfo>
#  Number of Events        :         3872
#  Integrated weight (pb)  :  0.38449E-02
#  Max wgt                 :  0.15230E-05
#  Average wgt             :  0.99300E-06
</MGGenerationInfo>
</header>
<init>
     2212     2212  0.40000000000E+04  0.40000000000E+04 0 0  247000  247000 2   1
  0.38501170738E-02  0.17487696579E-04  0.15230290000E-05   0
</init>
<event>
 5   0  0.1480547E-05  0.3089039E+04  0.7818609E-02  0.8218752E-01
        2   -1    0    0  501    0  0.00000000000E+00  0.00000000000E+00  0.17424556033E+04  0.17424556033E+04  0.25500000920E-02 0.  1.
       -2   -1    0    0    0  501  0.00000000000E+00  0.00000000000E+00 -0.13690681723E+04  0.13690681723E+04  0.25500000920E-02 0. -1.
    10030    2    1    2    0    0  0.00000000000E+00  0.00000000000E+00  0.37338743096E+03  0.31115237756E+04  0.30890390144E+04 0.  0.
        1    1    3    3  502    0  0.86928724760E+03  0.11761224232E+04 -0.31352572007E+03  0.14957348196E+04  0.50400001928E-02 0. -1.
       -1    1    3    3    0  502 -0.86928724760E+03 -0.11761224232E+04  0.68691315103E+03  0.16157889560E+04  0.50400001928E-02 0.  1.
</event>
<event>
 5   0  0.1480547E-05  0.2954426E+04  0.7818609E-02  0.8256866E-01
        2   -1    0    0  501    0  0.00000000000E+00  0.00000000000E+00  0.20345549338E+04  0.20345549338E+04  0.25500000920E-02 0.  1.
       -2   -1    0    0    0  501  0.00000000000E+00  0.00000000000E+00 -0.10725481124E+04  0.10725481124E+04  0.25500000920E-02 0. -1.
    10030    2    1    2    0    0  0.00000000000E+00  0.00000000000E+00  0.96200682145E+03  0.31071030462E+04  0.29544258689E+04 0.  0.
        1    1    3    3  502    0 -0.68946652605E+03  0.83137796255E+03  0.15408546183E+04  0.18816977340E+04  0.50400001928E-02 0.  1.
       -1    1    3    3    0  502  0.68946652605E+03 -0.83137796255E+03 -0.57884779689E+03  0.12254053122E+04  0.50400001928E-02 0. -1.
</event>
<event>
 5   0  0.1423692E-05  0.3017153E+04  0.7818609E-02  0.8238850E-01
        2   -1    0    0  501    0  0.00000000000E+00  0.00000000000E+00  0.16582348476E+04  0.16582348476E+04  0.25500000920E-02 0. -1.
       -2   -1    0    0    0  501  0.00000000000E+00  0.00000000000E+00 -0.13724254273E+04  0.13724254273E+04  0.25500000920E-02 0.  1.
    10030    2    1    2    0    0  0.00000000000E+00  0.00000000000E+00  0.28580942029E+03  0.30306602749E+04  0.30171534063E+04 0.  0.
        3    1    3    3  502    0 -0.79196715430E+03 -0.10987945334E+04 -0.52432966681E+03  0.14524059384E+04  0.10100000352E+00 0.  1.
       -3    1    3    3    0  502  0.79196715430E+03  0.10987945334E+04  0.81013908710E+03  0.15782543366E+04  0.10100000352E+00 0. -1.
</event>
<event>
 5   0  0.1480547E-05  0.2929146E+04  0.7818609E-02  0.8264258E-01
       -2   -1    0    0    0  501  0.00000000000E+00  0.00000000000E+00  0.90256615217E+03  0.90256615218E+03  0.25500000920E-02 0. -1.
        2   -1    0    0  501    0  0.00000000000E+00  0.00000000000E+00 -0.23765282390E+04  0.23765282390E+04  0.25500000920E-02 0.  1.
    10030    2    1    2    0    0  0.00000000000E+00  0.00000000000E+00 -0.14739620869E+04  0.32790943912E+04  0.29291459153E+04 0.  0.
        1    1    3    3  502    0  0.10137656896E+04 -0.10569438997E+04 -0.74937980317E+03  0.16451204727E+04  0.50400001928E-02 0. -1.
       -1    1    3    3    0  502 -0.10137656896E+04  0.10569438997E+04 -0.72458228370E+03  0.16339739185E+04  0.50400001928E-02 0.  1.
</event>
<event>
 5   0  0.1423692E-05  0.1844302E+04  0.7818609E-02  0.8683089E-01
        2   -1    0    0  501    0  0.00000000000E+00  0.00000000000E+00  0.11494250755E+04  0.11494250755E+04  0.25500000920E-02 0.  1.
       -2   -1    0    0    0  501  0.00000000000E+00  0.00000000000E+00 -0.73981513230E+03  0.73981513230E+03  0.25500000920E-02 0. -1.
    10030    2    1    2    0    0  0.00000000000E+00  0.00000000000E+00  0.40960994320E+03  0.18892402078E+04  0.18443015635E+04 0.  0.
        3    1    3    3  502    0  0.54808953960E+03  0.70881096211E+03 -0.18560731059E+02  0.89619173974E+03  0.10100000352E+00 0. -1.
       -3    1    3    3    0  502 -0.54808953960E+03 -0.70881096211E+03  0.42817067426E+03  0.99304846807E+03  0.10100000352E+00 0.  1.
</event>
<event>
 5   0  0.5730920E-06  0.2109998E+04  0.7818609E-02  0.8556852E-01
       -1   -1    0    0    0  501  0.00000000000E+00  0.00000000000E+00  0.15651397321E+04  0.15651397321E+04  0.50400001928E-02 0.  1.
        1   -1    0    0  501    0  0.00000000000E+00  0.00000000000E+00 -0.71113351885E+03  0.71113351887E+03  0.50400001928E-02 0. -1.
    10030    2    1    2    0    0  0.00000000000E+00  0.00000000000E+00  0.85400621325E+03  0.22762732510E+04  0.21099984125E+04 0.  0.
        1    1    3    3  502    0  0.66769101226E+03 -0.45225659744E+03 -0.30680204438E+03  0.86282953834E+03  0.50400001928E-02 0. -1.
       -1    1    3    3    0  502 -0.66769101226E+03  0.45225659744E+03  0.11608082576E+04  0.14134437126E+04  0.50400001928E-02 0.  1.
</event>
<event>
 5   0  0.5522695E-06  0.2887417E+04  0.7818609E-02  0.8276631E-01
        1   -1    0    0  501    0  0.00000000000E+00  0.00000000000E+00  0.14010963058E+04  0.14010963058E+04  0.50400001928E-02 0. -1.
       -1   -1    0    0    0  501  0.00000000000E+00  0.00000000000E+00 -0.14876163296E+04  0.14876163296E+04  0.50400001928E-02 0.  1.
    10030    2    1    2    0    0  0.00000000000E+00  0.00000000000E+00 -0.86520023811E+02  0.28887126353E+04  0.28874166611E+04 0.  0.
        3    1    3    3  502    0 -0.89817712829E+03  0.28872347122E+03  0.10500297872E+04  0.14116111224E+04  0.10100000352E+00 0. -1.
       -3    1    3    3    0  502  0.89817712829E+03 -0.28872347122E+03 -0.11365498110E+04  0.14771015130E+04  0.10100000352E+00 0.  1.
</event>
<event>
 5   0  0.1480547E-05  0.2948336E+04  0.7818609E-02  0.8258640E-01
        2   -1    0    0  501    0  0.00000000000E+00  0.00000000000E+00  0.18558296335E+04  0.18558296335E+04  0.25500000920E-02 0.  1.
       -2   -1    0    0    0  501  0.00000000000E+00  0.00000000000E+00 -0.11709973308E+04  0.11709973308E+04  0.25500000920E-02 0. -1.
    10030    2    1    2    0    0  0.00000000000E+00  0.00000000000E+00  0.68483230265E+03  0.30268269643E+04  0.29483361730E+04 0.  0.
        1    1    3    3  502    0 -0.94478287091E+02  0.72552951617E+03 -0.97144043867E+03  0.12161479151E+04  0.50400001928E-02 0. -1.
       -1    1    3    3    0  502  0.94478287091E+02 -0.72552951617E+03  0.16562727413E+04  0.18106790492E+04  0.50400001928E-02 0.  1.
</event>
<event>
 5   0  0.5392262E-06  0.2495748E+04  0.7818609E-02  0.8404502E-01
       -1   -1    0    0    0  501  0.00000000000E+00  0.00000000000E+00  0.10983410601E+04  0.10983410601E+04  0.50400001928E-02 0. -1.
        1   -1    0    0  501    0  0.00000000000E+00  0.00000000000E+00 -0.14177653254E+04  0.14177653254E+04  0.50400001928E-02 0.  1.
    10030    2    1    2    0    0  0.00000000000E+00  0.00000000000E+00 -0.31942426534E+03  0.25161063855E+04  0.24957482810E+04 0.  0.
        2    1    3    3  502    0  0.93798288093E+03  0.81090134334E+03 -0.30163328868E+03  0.12760703407E+04  0.25500000920E-02 0.  1.
       -2    1    3    3    0  502 -0.93798288093E+03 -0.81090134334E+03 -0.17790976662E+02  0.12400360448E+04  0.25500000920E-02 0. -1.
</event>
<event>
 5   0  0.1480547E-05  0.3123189E+04  0.7818609E-02  0.8209403E-01
       -2   -1    0    0    0  501  0.00000000000E+00  0.00000000000E+00  0.17099049373E+04  0.17099049373E+04  0.25500000920E-02 0.  1.
        2   -1    0    0  501    0  0.00000000000E+00  0.00000000000E+00 -0.14261477151E+04  0.14261477151E+04  0.25500000920E-02 0. -1.
    10030    2    1    2    0    0  0.00000000000E+00  0.00000000000E+00  0.28375722213E+03  0.31360526524E+04  0.31231887675E+04 0.  0.
        1    1    3    3  502    0 -0.57289740160E+03  0.87890017909E+03 -0.10195618419E+04  0.14629365356E+04  0.50400001928E-02 0. -1.
       -1    1    3    3    0  502  0.57289740160E+03 -0.87890017909E+03  0.13033190641E+04  0.16731161168E+04  0.50400001928E-02 0.  1.
</event>
<event>
 5   0  0.4806125E-06  0.2661571E+04  0.7818609E-02  0.8347583E-01
        4   -1    0    0  501    0  0.00000000000E+00  0.00000000000E+00  0.18667160458E+04  0.18667164778E+04  0.12699999809E+01 0. -1.
       -4   -1    0    0    0  501  0.00000000000E+00  0.00000000000E+00 -0.94871844347E+03  0.94871929351E+03  0.12699999809E+01 0.  1.
    10030    2    1    2    0    0  0.00000000000E+00  0.00000000000E+00  0.91799760230E+03  0.28154357713E+04  0.26615707739E+04 0.  0.
        3    1    3    3  502    0  0.50327975165E+03 -0.10937664619E+04  0.10586698448E+04  0.16032459051E+04  0.10100000352E+00 0. -1.
       -3    1    3    3    0  502 -0.50327975165E+03  0.10937664619E+04 -0.14067224251E+03  0.12121898662E+04  0.10100000352E+00 0.  1.
</event>
<event>
 5   0  0.1523029E-05  0.1827308E+04  0.7818609E-02  0.8691911E-01
       -2   -1    0    0    0  501  0.00000000000E+00  0.00000000000E+00  0.14323543294E+04  0.14323543294E+04  0.25500000920E-02 0.  1.
        2   -1    0    0  501    0  0.00000000000E+00  0.00000000000E+00 -0.58279146081E+03  0.58279146081E+03  0.25500000920E-02 0. -1.
    10030    2    1    2    0    0  0.00000000000E+00  0.00000000000E+00  0.84956286858E+03  0.20151457902E+04  0.18273082630E+04 0.  0.
        5    1    3    3  502    0  0.65390025792E+03  0.22979610455E+02 -0.27844208246E+03  0.71110174594E+03  0.46999998093E+01 0. -1.
       -5    1    3    3    0  502 -0.65390025792E+03 -0.22979610455E+02  0.11280049510E+04  0.13040440443E+04  0.46999998093E+01 0.  1.
</event>
<event>
 5   0  0.7032692E-06  0.3054418E+04  0.7818609E-02  0.8228360E-01
       -1   -1    0    0    0  501  0.00000000000E+00  0.00000000000E+00  0.10228946038E+04  0.10228946038E+04  0.50400001928E-02 0. -1.
        1   -1    0    0  501    0  0.00000000000E+00  0.00000000000E+00 -0.22801636494E+04  0.22801636494E+04  0.50400001928E-02 0.  1.
    10030    2    1    2    0    0  0.00000000000E+00  0.00000000000E+00 -0.12572690456E+04  0.33030582533E+04  0.30544178449E+04 0.  0.
        5    1    3    3  502    0 -0.98257242551E+03  0.57195182568E+03  0.47406176478E+03  0.12318011646E+04  0.46999998093E+01 0. -1.
       -5    1    3    3    0  502  0.98257242551E+03 -0.57195182568E+03 -0.17313308104E+04  0.20712570887E+04  0.46999998093E+01 0.  1.
</event>
<event>
 5   0  0.5730920E-06  0.3429614E+04  0.7818609E-02  0.8130676E-01
       -1   -1    0    0    0  501  0.00000000000E+00  0.00000000000E+00  0.17728219390E+04  0.17728219391E+04  0.50400001928E-02 0.  1.
        1   -1    0    0  501    0  0.00000000000E+00  0.00000000000E+00 -0.16586909658E+04  0.16586909658E+04  0.50400001928E-02 0. -1.
    10030    2    1    2    0    0  0.00000000000E+00  0.00000000000E+00  0.11413097326E+03  0.34315129049E+04  0.34296144006E+04 0.  0.
        1    1    3    3  502    0 -0.10889555955E+04 -0.16229238440E+03  0.13724797601E+04  0.17595066919E+04  0.50400001928E-02 0.  1.
       -1    1    3    3    0  502  0.10889555955E+04  0.16229238440E+03 -0.12583487868E+04  0.16720062130E+04  0.50400001928E-02 0. -1.
</event>
<event>
 5   0  0.5522695E-06  0.2956488E+04  0.7818609E-02  0.8256266E-01
       -1   -1    0    0    0  501  0.00000000000E+00  0.00000000000E+00  0.13078185864E+04  0.13078185864E+04  0.50400001928E-02 0. -1.
        1   -1    0    0  501    0  0.00000000000E+00  0.00000000000E+00 -0.16708784103E+04  0.16708784103E+04  0.50400001928E-02 0.  1.
    10030    2    1    2    0    0  0.00000000000E+00  0.00000000000E+00 -0.36305982394E+03  0.29786969967E+04  0.29564883498E+04 0.  0.
        3    1    3    3  502    0  0.48133829224E+03 -0.10002043916E+04  0.80207745321E+03  0.13694610720E+04  0.10100000352E+00 0. -1.
       -3    1    3    3    0  502 -0.48133829224E+03  0.10002043916E+04 -0.11651372772E+04  0.16092359247E+04  0.10100000352E+00 0.  1.
</event>
<event>
 5   0  0.5522695E-06  0.2934181E+04  0.7818609E-02  0.8262780E-01
       -1   -1    0    0    0  501  0.00000000000E+00  0.00000000000E+00  0.13476491626E+04  0.13476491626E+04  0.50400001928E-02 0.  1.
        1   -1    0    0  501    0  0.00000000000E+00  0.00000000000E+00 -0.15971175275E+04  0.15971175276E+04  0.50400001928E-02 0. -1.
    10030    2    1    2    0    0  0.00000000000E+00  0.00000000000E+00 -0.24946836491E+03  0.29447666902E+04  0.29341807024E+04 0.  0.
        3    1    3    3  502    0  0.21459103371E+02 -0.11939714097E+04  0.73058811015E+03  0.13999240041E+04  0.10100000352E+00 0.  1.
       -3    1    3    3    0  502 -0.21459103371E+02  0.11939714097E+04 -0.98005647506E+03  0.15448426861E+04  0.10100000352E+00 0. -1.
</event>
<event>
 5   0  0.1480547E-05  0.2981759E+04  0.7818609E-02  0.8248959E-01
        2   -1    0    0  501    0  0.00000000000E+00  0.00000000000E+00  0.21836989341E+04  0.21836989341E+04  0.25500000920E-02 0.  1.
       -2   -1    0    0    0  501  0.00000000000E+00  0.00000000000E+00 -0.10178697257E+04  0.10178697257E+04  0.25500000920E-02 0. -1.
    10030    2    1    2    0    0  0.00000000000E+00  0.00000000000E+00  0.11658292084E+04  0.32015686599E+04  0.29817585651E+04 0.  0.
        1    1    3    3  502    0  0.70753976451E+03  0.10772798933E+04  0.13875420201E+04  0.18937838695E+04  0.50400001928E-02 0.  1.
       -1    1    3    3    0  502 -0.70753976451E+03 -0.10772798933E+04 -0.22171281172E+03  0.13077847903E+04  0.50400001928E-02 0. -1.
</event>
<event>
 5   0  0.5329891E-06  0.3028365E+04  0.7818609E-02  0.8235677E-01
       -1   -1    0    0    0  501  0.00000000000E+00  0.00000000000E+00  0.11562623237E+04  0.11562623237E+04  0.50400001928E-02 0.  1.
        1   -1    0    0  501    0  0.00000000000E+00  0.00000000000E+00 -0.19828960966E+04  0.19828960966E+04  0.50400001928E-02 0. -1.
    10030    2    1    2    0    0  0.00000000000E+00  0.00000000000E+00 -0.82663377290E+03  0.31391584203E+04  0.30283646070E+04 0.  0.
        4    1    3    3  502    0  0.11417627569E+04 -0.23715194484E+03 -0.14145119666E+04  0.18332236510E+04  0.12699999809E+01 0. -1.
       -4    1    3    3    0  502 -0.11417627569E+04  0.23715194484E+03  0.58787819372E+03  0.13059347693E+04  0.12699999809E+01 0.  1.
</event>
<event>
 5   0  0.5730920E-06  0.3044978E+04  0.7818609E-02  0.8231003E-01
       -1   -1    0    0    0  501  0.00000000000E+00  0.00000000000E+00  0.10515080545E+04  0.10515080545E+04  0.50400001928E-02 0.  1.
        1   -1    0    0  501    0  0.00000000000E+00  0.00000000000E+00 -0.22044269060E+04  0.22044269060E+04  0.50400001928E-02 0. -1.
    10030    2    1    2    0    0  0.00000000000E+00  0.00000000000E+00 -0.11529188515E+04  0.32559349605E+04  0.30449779291E+04 0.  0.
        1    1    3    3  502    0 -0.18523690600E+03 -0.10277815782E+04 -0.17610584095E+04  0.20474311724E+04  0.50400001928E-02 0. -1.
       -1    1    3    3    0  502  0.18523690600E+03  0.10277815782E+04  0.60813955799E+03  0.12085037881E+04  0.50400001928E-02 0.  1.
</event>
<event>
 5   0  0.1345931E-05  0.3048714E+04  0.7818609E-02  0.8229955E-01
       -2   -1    0    0    0  501  0.00000000000E+00  0.00000000000E+00  0.10853997557E+04  0.10853997557E+04  0.25500000920E-02 0.  1.
        2   -1    0    0  501    0  0.00000000000E+00  0.00000000000E+00 -0.21408375724E+04  0.21408375724E+04  0.25500000920E-02 0. -1.
    10030    2    1    2    0    0  0.00000000000E+00  0.00000000000E+00 -0.10554378167E+04  0.32262373282E+04  0.30487142065E+04 0.  0.
        2    1    3    3  502    0  0.43603451109E+03  0.80875344749E+02  0.10156263909E+04  0.11082255557E+04  0.25500000920E-02 0.  1.
       -2    1    3    3    0  502 -0.43603451109E+03 -0.80875344749E+02 -0.20710642076E+04  0.21180117725E+04  0.25500000920E-02 0. -1.
</event>
<event>
 5   0  0.5522695E-06  0.2984844E+04  0.7818609E-02  0.8248072E-01
       -1   -1    0    0    0  501  0.00000000000E+00  0.00000000000E+00  0.18452760222E+04  0.18452760222E+04  0.50400001928E-02 0.  1.
        1   -1    0    0  501    0  0.00000000000E+00  0.00000000000E+00 -0.12070406046E+04  0.12070406046E+04  0.50400001928E-02 0. -1.
    10030    2    1    2    0    0  0.00000000000E+00  0.00000000000E+00  0.63823541761E+03  0.30523166268E+04  0.29848437718E+04 0.  0.
        3    1    3    3  502    0  0.12617575657E+04 -0.70632609470E+03  0.69678223802E+03  0.16051274729E+04  0.10100000352E+00 0.  1.
       -3    1    3    3    0  502 -0.12617575657E+04  0.70632609470E+03 -0.58546820410E+02  0.14471891539E+04  0.10100000352E+00 0. -1.
</event>
<event>
 5   0  0.1423692E-05  0.2972028E+04  0.7818609E-02  0.8251764E-01
       -2   -1    0    0    0  501  0.00000000000E+00  0.00000000000E+00  0.16681741149E+04  0.16681741149E+04  0.25500000920E-02 0.  1.
        2   -1    0    0  501    0  0.00000000000E+00  0.00000000000E+00 -0.13237454518E+04  0.13237454518E+04  0.25500000920E-02 0. -1.
    10030    2    1    2    0    0  0.00000000000E+00  0.00000000000E+00  0.34442866318E+03  0.29919195667E+04  0.29720281946E+04 0.  0.
        3    1    3    3  502    0 -0.56104512475E+02 -0.10939872517E+04 -0.83863868101E+03  0.13795907621E+04  0.10100000352E+00 0. -1.
       -3    1    3    3    0  502  0.56104512475E+02  0.10939872517E+04  0.11830673442E+04  0.16123288047E+04  0.10100000352E+00 0.  1.
</event>
<event>
 5   0  0.5730920E-06  0.3009940E+04  0.7818609E-02  0.8240898E-01
        1   -1    0    0  501    0  0.00000000000E+00  0.00000000000E+00  0.22653591822E+04  0.22653591822E+04  0.50400001928E-02 0. -1.
       -1   -1    0    0    0  501  0.00000000000E+00  0.00000000000E+00 -0.99981265977E+03  0.99981265979E+03  0.50400001928E-02 0.  1.
    10030    2    1    2    0    0  0.00000000000E+00  0.00000000000E+00  0.12655465224E+04  0.32651718420E+04  0.30099400588E+04 0.  0.
        1    1    3    3  502    0  0.48590851134E+00  0.27292988691E+03 -0.97274132726E+03  0.10103052257E+04  0.50400001928E-02 0.  1.
       -1    1    3    3    0  502 -0.48590851134E+00 -0.27292988691E+03  0.22382878497E+04  0.22548666163E+04  0.50400001928E-02 0. -1.
</event>
<event>
 5   0  0.1345931E-05  0.2958202E+04  0.7818609E-02  0.8255768E-01
       -2   -1    0    0    0  501  0.00000000000E+00  0.00000000000E+00  0.15450699053E+04  0.15450699053E+04  0.25500000920E-02 0. -1.
        2   -1    0    0  501    0  0.00000000000E+00  0.00000000000E+00 -0.14159485491E+04  0.14159485491E+04  0.25500000920E-02 0.  1.
    10030    2    1    2    0    0  0.00000000000E+00  0.00000000000E+00  0.12912135620E+03  0.29610184544E+04  0.29582018123E+04 0.  0.
        2    1    3    3  502    0  0.13908436616E+04  0.46458131455E+03 -0.12916326486E+03  0.14720614925E+04  0.25500000920E-02 0. -1.
       -2    1    3    3    0  502 -0.13908436616E+04 -0.46458131455E+03  0.25828462106E+03  0.14889569619E+04  0.25500000920E-02 0.  1.
</event>
<event>
 5   0  0.5392262E-06  0.2998397E+04  0.7818609E-02  0.8244189E-01
        1   -1    0    0  501    0  0.00000000000E+00  0.00000000000E+00  0.13419951108E+04  0.13419951108E+04  0.50400001928E-02 0. -1.
       -1   -1    0    0    0  501  0.00000000000E+00  0.00000000000E+00 -0.16748166015E+04  0.16748166015E+04  0.50400001928E-02 0.  1.
    10030    2    1    2    0    0  0.00000000000E+00  0.00000000000E+00 -0.33282149069E+03  0.30168117123E+04  0.29983966987E+04 0.  0.
        2    1    3    3  502    0  0.14610504504E+04 -0.29316039920E+03 -0.11330263809E+01  0.14901720444E+04  0.25500000920E-02 0. -1.
       -2    1    3    3    0  502 -0.14610504504E+04  0.29316039920E+03 -0.33168846431E+03  0.15266396679E+04  0.25500000920E-02 0.  1.
</event>
<event>
 5   0  0.1423692E-05  0.3000740E+04  0.7818609E-02  0.8243520E-01
        2   -1    0    0  501    0  0.00000000000E+00  0.00000000000E+00  0.18785162621E+04  0.18785162621E+04  0.25500000920E-02 0.  1.
       -2   -1    0    0    0  501  0.00000000000E+00  0.00000000000E+00 -0.11983446160E+04  0.11983446160E+04  0.25500000920E-02 0. -1.
    10030    2    1    2    0    0  0.00000000000E+00  0.00000000000E+00  0.68017164606E+03  0.30768608781E+04  0.30007398079E+04 0.  0.
        3    1    3    3  502    0 -0.40982453183E+03  0.79858025413E+03 -0.89266993898E+03  0.12659171376E+04  0.10100000352E+00 0. -1.
       -3    1    3    3    0  502  0.40982453183E+03 -0.79858025413E+03  0.15728415850E+04  0.18109437404E+04  0.10100000352E+00 0.  1.
</event>
<event>
 5   0  0.1523029E-05  0.1513703E+04  0.7818609E-02  0.8875392E-01
        2   -1    0    0  501    0  0.00000000000E+00  0.00000000000E+00  0.21884364561E+04  0.21884364561E+04  0.25500000920E-02 0.  1.
       -2   -1    0    0    0  501  0.00000000000E+00  0.00000000000E+00 -0.26175037533E+03  0.26175037534E+03  0.25500000920E-02 0. -1.
    10030    2    1    2    0    0  0.00000000000E+00  0.00000000000E+00  0.19266860808E+04  0.24501868314E+04  0.15137028292E+04 0.  0.
        5    1    3    3  502    0  0.50226781879E+01  0.73123155143E+03  0.64748576854E+03  0.97672141349E+03  0.46999998093E+01 0.  1.
       -5    1    3    3    0  502 -0.50226781879E+01 -0.73123155143E+03  0.12792003122E+04  0.14734654180E+04  0.46999998093E+01 0. -1.
</event>
<event>
 5   0  0.5392262E-06  0.3021709E+04  0.7818609E-02  0.8237559E-01
        1   -1    0    0  501    0  0.00000000000E+00  0.00000000000E+00  0.14229129536E+04  0.14229129536E+04  0.50400001928E-02 0. -1.
       -1   -1    0    0    0  501  0.00000000000E+00  0.00000000000E+00 -0.16042310995E+04  0.16042310995E+04  0.50400001928E-02 0.  1.
    10030    2    1    2    0    0  0.00000000000E+00  0.00000000000E+00 -0.18131814594E+03  0.30271440531E+04  0.30217089284E+04 0.  0.
        2    1    3    3  502    0 -0.12111070296E+04 -0.40873672873E+02 -0.99462923381E+03  0.15677175150E+04  0.25500000920E-02 0.  1.
       -2    1    3    3    0  502  0.12111070296E+04  0.40873672873E+02  0.81331108787E+03  0.14594265380E+04  0.25500000920E-02 0. -1.
</event>
<event>
 5   0  0.1423692E-05  0.2676746E+04  0.7818609E-02  0.8342590E-01
        2   -1    0    0  501    0  0.00000000000E+00  0.00000000000E+00  0.19724240618E+04  0.19724240618E+04  0.25500000920E-02 0. -1.
       -2   -1    0    0    0  501  0.00000000000E+00  0.00000000000E+00 -0.90814226297E+03  0.90814226297E+03  0.25500000920E-02 0.  1.
    10030    2    1    2    0    0  0.00000000000E+00  0.00000000000E+00  0.10642817989E+04  0.28805663248E+04  0.26767455247E+04 0.  0.
        3    1    3    3  502    0  0.85044219854E+03  0.91535962992E+03  0.10483613381E+04  0.16310109413E+04  0.10100000352E+00 0. -1.
       -3    1    3    3    0  502 -0.85044219854E+03 -0.91535962992E+03  0.15920460722E+02  0.12495553835E+04  0.10100000352E+00 0.  1.
</event>
<event>
 5   0  0.1480547E-05  0.3019493E+04  0.7818609E-02  0.8238186E-01
       -2   -1    0    0    0  501  0.00000000000E+00  0.00000000000E+00  0.19840411452E+04  0.19840411452E+04  0.25500000920E-02 0. -1.
        2   -1    0    0  501    0  0.00000000000E+00  0.00000000000E+00 -0.11488345472E+04  0.11488345472E+04  0.25500000920E-02 0.  1.
    10030    2    1    2    0    0  0.00000000000E+00  0.00000000000E+00  0.83520659796E+03  0.31328756924E+04  0.30194933420E+04 0.  0.
        1    1    3    3  502    0  0.10249415563E+04  0.49037599359E+03 -0.61389123554E+03  0.12914473500E+04  0.50400001928E-02 0.  1.
       -1    1    3    3    0  502 -0.10249415563E+04 -0.49037599359E+03  0.14490978335E+04  0.18414283423E+04  0.50400001928E-02 0. -1.
</event>
<event>
 5   0  0.7032692E-06  0.2914131E+04  0.7818609E-02  0.8268685E-01
        1   -1    0    0  501    0  0.00000000000E+00  0.00000000000E+00  0.20976476007E+04  0.20976476007E+04  0.50400001928E-02 0. -1.
       -1   -1    0    0    0  501  0.00000000000E+00  0.00000000000E+00 -0.10121053196E+04  0.10121053196E+04  0.50400001928E-02 0.  1.
    10030    2    1    2    0    0  0.00000000000E+00  0.00000000000E+00  0.10855422811E+04  0.31097529203E+04  0.29141312910E+04 0.  0.
        5    1    3    3  502    0 -0.67273301133E+03 -0.66100809797E+03 -0.64242247580E+03  0.11411529860E+04  0.46999998093E+01 0.  1.
       -5    1    3    3    0  502  0.67273301133E+03  0.66100809797E+03  0.17279647569E+04  0.19685999342E+04  0.46999998093E+01 0. -1.
</event>
<event>
 5   0  0.1423692E-05  0.2945415E+04  0.7818609E-02  0.8259492E-01
       -2   -1    0    0    0  501  0.00000000000E+00  0.00000000000E+00  0.15941501464E+04  0.15941501464E+04  0.25500000920E-02 0.  1.
        2   -1    0    0  501    0  0.00000000000E+00  0.00000000000E+00 -0.13605161607E+04  0.13605161607E+04  0.25500000920E-02 0. -1.
    10030    2    1    2    0    0  0.00000000000E+00  0.00000000000E+00  0.23363398572E+03  0.29546663070E+04  0.29454147665E+04 0.  0.
        3    1    3    3  502    0  0.31418019442E+03  0.65018771003E+03  0.14043646899E+04  0.15791432630E+04  0.10100000352E+00 0.  1.
       -3    1    3    3    0  502 -0.31418019442E+03 -0.65018771003E+03 -0.11707307041E+04  0.13755230440E+04  0.10100000352E+00 0. -1.
</event>
<event>
 5   0  0.5329891E-06  0.1932927E+04  0.7818609E-02  0.8638638E-01
       -1   -1    0    0    0  501  0.00000000000E+00  0.00000000000E+00  0.10130500610E+04  0.10130500610E+04  0.50400001928E-02 0.  1.
        1   -1    0    0  501    0  0.00000000000E+00  0.00000000000E+00 -0.92201913583E+03  0.92201913584E+03  0.50400001928E-02 0. -1.
    10030    2    1    2    0    0  0.00000000000E+00  0.00000000000E+00  0.91030925146E+02  0.19350691968E+04  0.19329268396E+04 0.  0.
        4    1    3    3  502    0 -0.29857321324E+03  0.51107886234E+02  0.96429731401E+03  0.10107565990E+04  0.12699999809E+01 0.  1.
       -4    1    3    3    0  502  0.29857321324E+03 -0.51107886234E+02 -0.87326638887E+03  0.92431259784E+03  0.12699999809E+01 0. -1.
</event>
<event>
 5   0  0.5730920E-06  0.2942898E+04  0.7818609E-02  0.8260227E-01
        1   -1    0    0  501    0  0.00000000000E+00  0.00000000000E+00  0.80826834537E+03  0.80826834538E+03  0.50400001928E-02 0.  1.
       -1   -1    0    0    0  501  0.00000000000E+00  0.00000000000E+00 -0.26787657758E+04  0.26787657758E+04  0.50400001928E-02 0. -1.
    10030    2    1    2    0    0  0.00000000000E+00  0.00000000000E+00 -0.18704974305E+04  0.34870341212E+04  0.29428976070E+04 0.  0.
        1    1    3    3  502    0 -0.30392968226E+03 -0.12440955367E+04 -0.17938009954E+04  0.22040573875E+04  0.50400001928E-02 0. -1.
       -1    1    3    3    0  502  0.30392968226E+03  0.12440955367E+04 -0.76696435061E+02  0.12829767337E+04  0.50400001928E-02 0.  1.
</event>
<event>
 5   0  0.5522695E-06  0.3026794E+04  0.7818609E-02  0.8236121E-01
        1   -1    0    0  501    0  0.00000000000E+00  0.00000000000E+00  0.99560265927E+03  0.99560265928E+03  0.50400001928E-02 0.  1.
       -1   -1    0    0    0  501  0.00000000000E+00  0.00000000000E+00 -0.23004871042E+04  0.23004871042E+04  0.50400001928E-02 0. -1.
    10030    2    1    2    0    0  0.00000000000E+00  0.00000000000E+00 -0.13048844450E+04  0.32960897635E+04  0.30267943958E+04 0.  0.
        3    1    3    3  502    0 -0.44221396305E+03 -0.22091557526E+03  0.90520975137E+03  0.10313881833E+04  0.10100000352E+00 0.  1.
       -3    1    3    3    0  502  0.44221396305E+03  0.22091557526E+03 -0.22100941963E+04  0.22647015802E+04  0.10100000352E+00 0. -1.
</event>
<event>
 5   0  0.1388724E-05  0.3067584E+04  0.7818609E-02  0.8224691E-01
       -2   -1    0    0    0  501  0.00000000000E+00  0.00000000000E+00  0.11626054883E+04  0.11626054883E+04  0.25500000920E-02 0.  1.
        2   -1    0    0  501    0  0.00000000000E+00  0.00000000000E+00 -0.20234880791E+04  0.20234880791E+04  0.25500000920E-02 0. -1.
    10030    2    1    2    0    0  0.00000000000E+00  0.00000000000E+00 -0.86088259079E+03  0.31860935674E+04  0.30675842915E+04 0.  0.
        4    1    3    3  502    0  0.84757447603E+03  0.12735735067E+04 -0.31598055253E+03  0.15621194871E+04  0.12699999809E+01 0.  1.
       -4    1    3    3    0  502 -0.84757447603E+03 -0.12735735067E+04 -0.54490203826E+03  0.16239740804E+04  0.12699999809E+01 0. -1.
</event>
<event>
 5   0  0.1388724E-05  0.3005255E+04  0.7818609E-02  0.8242232E-01
       -2   -1    0    0    0  501  0.00000000000E+00  0.00000000000E+00  0.10179950940E+04  0.10179950940E+04  0.25500000920E-02 0.  1.
        2   -1    0    0  501    0  0.00000000000E+00  0.00000000000E+00 -0.22179769496E+04  0.22179769496E+04  0.25500000920E-02 0. -1.
    10030    2    1    2    0    0  0.00000000000E+00  0.00000000000E+00 -0.11999818556E+04  0.32359720435E+04  0.30052551660E+04 0.  0.
        4    1    3    3  502    0  0.10244258770E+04  0.34221195049E+03 -0.17248589832E+04  0.20351160953E+04  0.12699999809E+01 0. -1.
       -4    1    3    3    0  502 -0.10244258770E+04 -0.34221195049E+03  0.52487712757E+03  0.12008559483E+04  0.12699999809E+01 0.  1.
</event>
<event>
 5   0  0.5392262E-06  0.2553851E+04  0.7818609E-02  0.8384048E-01
        1   -1    0    0  501    0  0.00000000000E+00  0.00000000000E+00  0.10182714775E+04  0.10182714775E+04  0.50400001928E-02 0.  1.
       -1   -1    0    0    0  501  0.00000000000E+00  0.00000000000E+00 -0.16012808758E+04  0.16012808758E+04  0.50400001928E-02 0. -1.
    10030    2    1    2    0    0  0.00000000000E+00  0.00000000000E+00 -0.58300939827E+03  0.26195523533E+04  0.25538509301E+04 0.  0.
        2    1    3    3  502    0  0.10784494192E+04 -0.55884103333E+03  0.11256146182E+03  0.12198469301E+04  0.25500000920E-02 0.  1.
       -2    1    3    3    0  502 -0.10784494192E+04  0.55884103333E+03 -0.69557086009E+03  0.13997054232E+04  0.25500000920E-02 0. -1.
</event>
<event>
 5   0  0.5522695E-06  0.3045416E+04  0.7818609E-02  0.8230880E-01
        1   -1    0    0  501    0  0.00000000000E+00  0.00000000000E+00  0.19455006565E+04  0.19455006565E+04  0.50400001928E-02 0. -1.
       -1   -1    0    0    0  501  0.00000000000E+00  0.00000000000E+00 -0.11917955759E+04  0.11917955759E+04  0.50400001928E-02 0.  1.
    10030    2    1    2    0    0  0.00000000000E+00  0.00000000000E+00  0.75370508064E+03  0.31372962324E+04  0.30454156204E+04 0.  0.
        3    1    3    3  502    0 -0.92780704138E+03  0.11332236566E+04 -0.52392672045E+02  0.14655261049E+04  0.10100000352E+00 0.  1.
       -3    1    3    3    0  502  0.92780704138E+03 -0.11332236566E+04  0.80609775269E+03  0.16717701274E+04  0.10100000352E+00 0. -1.
</event>
<event>
 5   0  0.7032692E-06  0.1818574E+04  0.7818609E-02  0.8696484E-01
       -1   -1    0    0    0  501  0.00000000000E+00  0.00000000000E+00  0.16705896348E+04  0.16705896348E+04  0.50400001928E-02 0.  1.
        1   -1    0    0  501    0  0.00000000000E+00  0.00000000000E+00 -0.49491663563E+03  0.49491663566E+03  0.50400001928E-02 0. -1.
    10030    2    1    2    0    0  0.00000000000E+00  0.00000000000E+00  0.11756729992E+04  0.21655062705E+04  0.18185737286E+04 0.  0.
        5    1    3    3  502    0 -0.59371977912E+02 -0.90563636550E+03  0.65390291030E+03  0.11186211890E+04  0.46999998093E+01 0. -1.
       -5    1    3    3    0  502  0.59371977912E+02  0.90563636550E+03  0.52177008888E+03  0.10468850815E+04  0.46999998093E+01 0.  1.
</event>
<event>
 5   0  0.1345931E-05  0.3016183E+04  0.7818609E-02  0.8239125E-01
        2   -1    0    0  501    0  0.00000000000E+00  0.00000000000E+00  0.18797776409E+04  0.18797776409E+04  0.25500000920E-02 0. -1.
       -2   -1    0    0    0  501  0.00000000000E+00  0.00000000000E+00 -0.12098985887E+04  0.12098985887E+04  0.25500000920E-02 0.  1.
    10030    2    1    2    0    0  0.00000000000E+00  0.00000000000E+00  0.66987905222E+03  0.30896762295E+04  0.30161832270E+04 0.  0.
        2    1    3    3  502    0  0.73683231899E+03  0.58141291473E+03 -0.87423682097E+03  0.12826741063E+04  0.25500000920E-02 0.  1.
       -2    1    3    3    0  502 -0.73683231899E+03 -0.58141291473E+03  0.15441158732E+04  0.18070021233E+04  0.25500000920E-02 0. -1.
</event>
<event>
 5   0  0.1423692E-05  0.3006252E+04  0.7818609E-02  0.8241948E-01
       -2   -1    0    0    0  501  0.00000000000E+00  0.00000000000E+00  0.13931083409E+04  0.13931083409E+04  0.25500000920E-02 0.  1.
        2   -1    0    0  501    0  0.00000000000E+00  0.00000000000E+00 -0.16218320424E+04  0.16218320424E+04  0.25500000920E-02 0. -1.
    10030    2    1    2    0    0  0.00000000000E+00  0.00000000000E+00 -0.22872370157E+03  0.30149403833E+04  0.30062519827E+04 0.  0.
        3    1    3    3  502    0 -0.65557654805E+03 -0.10407812983E+04  0.75206869946E+03  0.14417398032E+04  0.10100000352E+00 0.  1.
       -3    1    3    3    0  502  0.65557654805E+03  0.10407812983E+04 -0.98079240103E+03  0.15732005801E+04  0.10100000352E+00 0. -1.
</event>
<event>
 5   0  0.1480547E-05  0.2550800E+04  0.7818609E-02  0.8385108E-01
       -2   -1    0    0    0  501  0.00000000000E+00  0.00000000000E+00  0.17130111151E+04  0.17130111151E+04  0.25500000920E-02 0. -1.
        2   -1    0    0  501    0  0.00000000000E+00  0.00000000000E+00 -0.94958253692E+03  0.94958253693E+03  0.25500000920E-02 0.  1.
    10030    2    1    2    0    0  0.00000000000E+00  0.00000000000E+00  0.76342857822E+03  0.26625936521E+04  0.25508002199E+04 0.  0.
        1    1    3    3  502    0 -0.35772783951E+03 -0.12159529099E+04  0.52983016539E+03  0.13737651511E+04  0.50400001928E-02 0.  1.
       -1    1    3    3    0  502  0.35772783951E+03  0.12159529099E+04  0.23359841283E+03  0.12888285009E+04  0.50400001928E-02 0. -1.
</event>
<event>
 5   0  0.1345931E-05  0.2139956E+04  0.7818609E-02  0.8543844E-01
        2   -1    0    0  501    0  0.00000000000E+00  0.00000000000E+00  0.19746029308E+04  0.19746029308E+04  0.25500000920E-02 0. -1.
       -2   -1    0    0    0  501  0.00000000000E+00  0.00000000000E+00 -0.57978868668E+03  0.57978868669E+03  0.25500000920E-02 0.  1.
    10030    2    1    2    0    0  0.00000000000E+00  0.00000000000E+00  0.13948142441E+04  0.25543916175E+04  0.21399555509E+04 0.  0.
        2    1    3    3  502    0 -0.58992613403E+03  0.18976760514E+03 -0.34377314627E+03  0.70866392859E+03  0.25500000920E-02 0.  1.
       -2    1    3    3    0  502  0.58992613403E+03 -0.18976760514E+03  0.17385873904E+04  0.18457276889E+04  0.25500000920E-02 0. -1.
</event>
<event>
 5   0  0.1423692E-05  0.2864364E+04  0.7818609E-02  0.8283560E-01
       -2   -1    0    0    0  501  0.00000000000E+00  0.00000000000E+00  0.30034242080E+04  0.30034242080E+04  0.25500000920E-02 0.  1.
        2   -1    0    0  501    0  0.00000000000E+00  0.00000000000E+00 -0.68293538711E+03  0.68293538712E+03  0.25500000920E-02 0. -1.
    10030    2    1    2    0    0  0.00000000000E+00  0.00000000000E+00  0.23204888209E+04  0.36863595951E+04  0.28643635762E+04 0.  0.
        3    1    3    3  502    0  0.36925105412E+03  0.13382084106E+04  0.70706059079E+03  0.15579097472E+04  0.10100000352E+00 0. -1.
       -3    1    3    3    0  502 -0.36925105412E+03 -0.13382084106E+04  0.16134282301E+04  0.21284498479E+04  0.10100000352E+00 0.  1.
</event>
<event>
 5   0  0.5522695E-06  0.2556678E+04  0.7818609E-02  0.8383067E-01
        1   -1    0    0  501    0  0.00000000000E+00  0.00000000000E+00  0.24170461735E+04  0.24170461735E+04  0.50400001928E-02 0.  1.
       -1   -1    0    0    0  501  0.00000000000E+00  0.00000000000E+00 -0.67609433997E+03  0.67609433999E+03  0.50400001928E-02 0. -1.
    10030    2    1    2    0    0  0.00000000000E+00  0.00000000000E+00  0.17409518335E+04  0.30931405135E+04  0.25566784994E+04 0.  0.
        3    1    3    3  502    0 -0.73229321302E+03 -0.71785337890E+02 -0.39421061321E+03  0.83475056294E+03  0.10100000352E+00 0. -1.
       -3    1    3    3    0  502  0.73229321302E+03  0.71785337890E+02  0.21351624467E+04  0.22583899506E+04  0.10100000352E+00 0.  1.
</event>
<event>
 5   0  0.1523029E-05  0.3017229E+04  0.7818609E-02  0.8238828E-01
       -2   -1    0    0    0  501  0.00000000000E+00  0.00000000000E+00  0.17656882655E+04  0.17656882655E+04  0.25500000920E-02 0. -1.
        2   -1    0    0  501    0  0.00000000000E+00  0.00000000000E+00 -0.12889693563E+04  0.12889693563E+04  0.25500000920E-02 0.  1.
    10030    2    1    2    0    0  0.00000000000E+00  0.00000000000E+00  0.47671890927E+03  0.30546576218E+04  0.30172292369E+04 0.  0.
        5    1    3    3  502    0 -0.11750908018E+04  0.53915759819E+03 -0.54869446274E+03  0.14044988471E+04  0.46999998093E+01 0.  1.
       -5    1    3    3    0  502  0.11750908018E+04 -0.53915759819E+03  0.10254133720E+04  0.16501587747E+04  0.46999998093E+01 0. -1.
</event>
<event>
 5   0  0.7032692E-06  0.3029216E+04  0.7818609E-02  0.8235437E-01
        1   -1    0    0  501    0  0.00000000000E+00  0.00000000000E+00  0.12376706813E+04  0.12376706813E+04  0.50400001928E-02 0. -1.
       -1   -1    0    0    0  501  0.00000000000E+00  0.00000000000E+00 -0.18535118916E+04  0.18535118916E+04  0.50400001928E-02 0.  1.
    10030    2    1    2    0    0  0.00000000000E+00  0.00000000000E+00 -0.61584121033E+03  0.30911825729E+04  0.30292159551E+04 0.  0.
        5    1    3    3  502    0 -0.76114032716E+03  0.11130972466E+04 -0.10117360388E+04  0.16858089987E+04  0.46999998093E+01 0.  1.
       -5    1    3    3    0  502  0.76114032716E+03 -0.11130972466E+04  0.39589482844E+03  0.14053735742E+04  0.46999998093E+01 0. -1.
</event>
<event>
 5   0  0.5522695E-06  0.2707889E+04  0.7818609E-02  0.8332450E-01
        1   -1    0    0  501    0  0.00000000000E+00  0.00000000000E+00  0.21194918745E+04  0.21194918745E+04  0.50400001928E-02 0. -1.
       -1   -1    0    0    0  501  0.00000000000E+00  0.00000000000E+00 -0.86490828749E+03  0.86490828750E+03  0.50400001928E-02 0.  1.
    10030    2    1    2    0    0  0.00000000000E+00  0.00000000000E+00  0.12545835870E+04  0.29844001620E+04  0.27078892795E+04 0.  0.
        3    1    3    3  502    0 -0.48162796545E+03 -0.72084712789E+03  0.17734787862E+04  0.19740347247E+04  0.10100000352E+00 0. -1.
       -3    1    3    3    0  502  0.48162796545E+03  0.72084712789E+03 -0.51889519924E+03  0.10103654373E+04  0.10100000352E+00 0.  1.
</event>
<event>
 5   0  0.1423692E-05  0.2060549E+04  0.7818609E-02  0.8578824E-01
        2   -1    0    0  501    0  0.00000000000E+00  0.00000000000E+00  0.12540828575E+04  0.12540828575E+04  0.25500000920E-02 0. -1.
       -2   -1    0    0    0  501  0.00000000000E+00  0.00000000000E+00 -0.84640773323E+03  0.84640773323E+03  0.25500000920E-02 0.  1.
    10030    2    1    2    0    0  0.00000000000E+00  0.00000000000E+00  0.40767512422E+03  0.21004905907E+04  0.20605488867E+04 0.  0.
        3    1    3    3  502    0 -0.93839746985E+03  0.66885326243E+02  0.63198122585E+03  0.11333418453E+04  0.10100000352E+00 0.  1.
       -3    1    3    3    0  502  0.93839746985E+03 -0.66885326243E+02 -0.22430610162E+03  0.96714874539E+03  0.10100000352E+00 0. -1.
</event>
<event>
 5   0  0.5730920E-06  0.2976444E+04  0.7818609E-02  0.8250490E-01
        1   -1    0    0  501    0  0.00000000000E+00  0.00000000000E+00  0.14373290565E+04  0.14373290565E+04  0.50400001928E-02 0.  1.
       -1   -1    0    0    0  501  0.00000000000E+00  0.00000000000E+00 -0.15409166867E+04  0.15409166868E+04  0.50400001928E-02 0. -1.
    10030    2    1    2    0    0  0.00000000000E+00  0.00000000000E+00 -0.10358763022E+03  0.29782457433E+04  0.29764437354E+04 0.  0.
        1    1    3    3  502    0 -0.14655004343E+04 -0.12731355255E+03  0.17396206959E+03  0.14812707603E+04  0.50400001928E-02 0.  1.
       -1    1    3    3    0  502  0.14655004343E+04  0.12731355255E+03 -0.27754969981E+03  0.14969749830E+04  0.50400001928E-02 0. -1.
</event>
<event>
 5   0  0.5522695E-06  0.2920557E+04  0.7818609E-02  0.8266787E-01
       -1   -1    0    0    0  501  0.00000000000E+00  0.00000000000E+00  0.17275864248E+04  0.17275864248E+04  0.50400001928E-02 0.  1.
        1   -1    0    0  501    0  0.00000000000E+00  0.00000000000E+00 -0.12343308020E+04  0.12343308020E+04  0.50400001928E-02 0. -1.
    10030    2    1    2    0    0  0.00000000000E+00  0.00000000000E+00  0.49325562280E+03  0.29619172267E+04  0.29205568902E+04 0.  0.
        3    1    3    3  502    0  0.17236156563E+03  0.13916387761E+04  0.65988615645E+03  0.15497795786E+04  0.10100000352E+00 0.  1.
       -3    1    3    3    0  502 -0.17236156563E+03 -0.13916387761E+04 -0.16663053365E+03  0.14121376482E+04  0.10100000352E+00 0. -1.
</event>
<event>
 5   0  0.5392262E-06  0.3206808E+04  0.7818609E-02  0.8187021E-01
       -1   -1    0    0    0  501  0.00000000000E+00  0.00000000000E+00  0.14982445248E+04  0.14982445248E+04  0.50400001928E-02 0. -1.
        1   -1    0    0  501    0  0.00000000000E+00  0.00000000000E+00 -0.17159449338E+04  0.17159449339E+04  0.50400001928E-02 0.  1.
    10030    2    1    2    0    0  0.00000000000E+00  0.00000000000E+00 -0.21770040907E+03  0.32141894586E+04  0.32068084458E+04 0.  0.
        2    1    3    3  502    0 -0.45449528437E+02 -0.15492847597E+04 -0.52035110339E+03  0.16349661150E+04  0.25500000920E-02 0.  1.
       -2    1    3    3    0  502  0.45449528437E+02  0.15492847597E+04  0.30265069433E+03  0.15792233437E+04  0.25500000920E-02 0. -1.
</event>
<event>
 5   0  0.7032692E-06  0.2756769E+04  0.7818609E-02  0.8316817E-01
        1   -1    0    0  501    0  0.00000000000E+00  0.00000000000E+00  0.20788320336E+04  0.20788320336E+04  0.50400001928E-02 0.  1.
       -1   -1    0    0    0  501  0.00000000000E+00  0.00000000000E+00 -0.91394746097E+03  0.91394746099E+03  0.50400001928E-02 0. -1.
    10030    2    1    2    0    0  0.00000000000E+00  0.00000000000E+00  0.11648845726E+04  0.29927794946E+04  0.27567685858E+04 0.  0.
        5    1    3    3  502    0  0.79039418899E+03  0.86459574606E+03  0.13710419618E+04  0.18033377191E+04  0.46999998093E+01 0.  1.
       -5    1    3    3    0  502 -0.79039418899E+03 -0.86459574606E+03 -0.20615738922E+03  0.11894417755E+04  0.46999998093E+01 0. -1.
</event>
<event>
 5   0  0.1388724E-05  0.2065615E+04  0.7818609E-02  0.8576543E-01
        2   -1    0    0  501    0  0.00000000000E+00  0.00000000000E+00  0.10591064774E+04  0.10591064774E+04  0.25500000920E-02 0.  1.
       -2   -1    0    0    0  501  0.00000000000E+00  0.00000000000E+00 -0.10071614118E+04  0.10071614118E+04  0.25500000920E-02 0. -1.
    10030    2    1    2    0    0  0.00000000000E+00  0.00000000000E+00  0.51945065588E+02  0.20662678892E+04  0.20656148480E+04 0.  0.
        4    1    3    3  502    0  0.45306796195E+03 -0.36771067414E+02 -0.90171856689E+03  0.10098121985E+04  0.12699999809E+01 0. -1.
       -4    1    3    3    0  502 -0.45306796195E+03  0.36771067414E+02  0.95366363248E+03  0.10564556907E+04  0.12699999809E+01 0.  1.
</event>
<event>
 5   0  0.1480547E-05  0.3147477E+04  0.7818609E-02  0.8202828E-01
        2   -1    0    0  501    0  0.00000000000E+00  0.00000000000E+00  0.25720685341E+04  0.25720685341E+04  0.25500000920E-02 0. -1.
       -2   -1    0    0    0  501  0.00000000000E+00  0.00000000000E+00 -0.96290312724E+03  0.96290312725E+03  0.25500000920E-02 0.  1.
    10030    2    1    2    0    0  0.00000000000E+00  0.00000000000E+00  0.16091654068E+04  0.35349716613E+04  0.31474769800E+04 0.  0.
        1    1    3    3  502    0  0.92199561545E+03  0.40200385103E+03  0.21639528046E+04  0.23862889079E+04  0.50400001928E-02 0. -1.
       -1    1    3    3    0  502 -0.92199561545E+03 -0.40200385103E+03 -0.55478739784E+03  0.11486827534E+04  0.50400001928E-02 0.  1.
</event>
<event>
 5   0  0.5329891E-06  0.3045436E+04  0.7818609E-02  0.8230874E-01
        1   -1    0    0  501    0  0.00000000000E+00  0.00000000000E+00  0.12058375629E+04  0.12058375629E+04  0.50400001928E-02 0. -1.
       -1   -1    0    0    0  501  0.00000000000E+00  0.00000000000E+00 -0.19228705901E+04  0.19228705901E+04  0.50400001928E-02 0.  1.
    10030    2    1    2    0    0  0.00000000000E+00  0.00000000000E+00 -0.71703302722E+03  0.31287081530E+04  0.30454356576E+04 0.  0.
        4    1    3    3  502    0 -0.14114237179E+04  0.50027263109E+03 -0.74779307129E+02  0.14993275741E+04  0.12699999809E+01 0. -1.
       -4    1    3    3    0  502  0.14114237179E+04 -0.50027263109E+03 -0.64225372009E+03  0.16293805789E+04  0.12699999809E+01 0.  1.
</event>
<event>
 5   0  0.1345931E-05  0.1575965E+04  0.7818609E-02  0.8835451E-01
       -2   -1    0    0    0  501  0.00000000000E+00  0.00000000000E+00  0.58706168472E+03  0.58706168473E+03  0.25500000920E-02 0.  1.
        2   -1    0    0  501    0  0.00000000000E+00  0.00000000000E+00 -0.10576685621E+04  0.10576685621E+04  0.25500000920E-02 0. -1.
    10030    2    1    2    0    0  0.00000000000E+00  0.00000000000E+00 -0.47060687734E+03  0.16447302468E+04  0.15759653396E+04 0.  0.
        2    1    3    3  502    0  0.98671832573E+02 -0.76613190770E+03 -0.39773002528E+03  0.86884026354E+03  0.25500000920E-02 0.  1.
       -2    1    3    3    0  502 -0.98671832573E+02  0.76613190770E+03 -0.72876852065E+02  0.77588998325E+03  0.25500000920E-02 0. -1.
</event>
<event>
 5   0  0.7032692E-06  0.3039012E+04  0.7818609E-02  0.8232678E-01
        1   -1    0    0  501    0  0.00000000000E+00  0.00000000000E+00  0.28828285886E+04  0.28828285886E+04  0.50400001928E-02 0.  1.
       -1   -1    0    0    0  501  0.00000000000E+00  0.00000000000E+00 -0.80091413707E+03  0.80091413709E+03  0.50400001928E-02 0. -1.
    10030    2    1    2    0    0  0.00000000000E+00  0.00000000000E+00  0.20819144516E+04  0.36837427257E+04  0.30390117943E+04 0.  0.
        5    1    3    3  502    0  0.23295492543E+03  0.27353810150E+03  0.28305892175E+04  0.28533048380E+04  0.46999998093E+01 0.  1.
       -5    1    3    3    0  502 -0.23295492543E+03 -0.27353810150E+03 -0.74867476593E+03  0.83043788774E+03  0.46999998093E+01 0. -1.
</event>
<event>
 5   0  0.1345931E-05  0.2971505E+04  0.7818609E-02  0.8251915E-01
       -2   -1    0    0    0  501  0.00000000000E+00  0.00000000000E+00  0.12954284285E+04  0.12954284285E+04  0.25500000920E-02 0. -1.
        2   -1    0    0  501    0  0.00000000000E+00  0.00000000000E+00 -0.17040395087E+04  0.17040395087E+04  0.25500000920E-02 0.  1.
    10030    2    1    2    0    0  0.00000000000E+00  0.00000000000E+00 -0.40861108021E+03  0.29994679373E+04  0.29715054925E+04 0.  0.
        2    1    3    3  502    0 -0.89486880289E+03 -0.42472894548E+03  0.91348869803E+03  0.13474592584E+04  0.25500000920E-02 0. -1.
       -2    1    3    3    0  502  0.89486880289E+03  0.42472894548E+03 -0.13220997782E+04  0.16520086789E+04  0.25500000920E-02 0.  1.
</event>
<event>
 5   0  0.5329891E-06  0.3079653E+04  0.7818609E-02  0.8221344E-01
       -1   -1    0    0    0  501  0.00000000000E+00  0.00000000000E+00  0.14420667415E+04  0.14420667415E+04  0.50400001928E-02 0.  1.
        1   -1    0    0  501    0  0.00000000000E+00  0.00000000000E+00 -0.16442132765E+04  0.16442132766E+04  0.50400001928E-02 0. -1.
    10030    2    1    2    0    0  0.00000000000E+00  0.00000000000E+00 -0.20214653501E+03  0.30862800181E+04  0.30796527610E+04 0.  0.
        4    1    3    3  502    0  0.38088553077E+03  0.80395209746E+03 -0.13606195666E+04  0.16256383302E+04  0.12699999809E+01 0. -1.
       -4    1    3    3    0  502 -0.38088553077E+03 -0.80395209746E+03  0.11584730316E+04  0.14606416879E+04  0.12699999809E+01 0.  1.
</event>
<event>
 5   0  0.5329891E-06  0.3044138E+04  0.7818609E-02  0.8231238E-01
        1   -1    0    0  501    0  0.00000000000E+00  0.00000000000E+00  0.16271812869E+04  0.16271812869E+04  0.50400001928E-02 0.  1.
       -1   -1    0    0    0  501  0.00000000000E+00  0.00000000000E+00 -0.14237464985E+04  0.14237464985E+04  0.50400001928E-02 0. -1.
    10030    2    1    2    0    0  0.00000000000E+00  0.00000000000E+00  0.20343478837E+03  0.30509277854E+04  0.30441377497E+04 0.  0.
        4    1    3    3  502    0  0.33947335875E+03 -0.10503320804E+04  0.11520303175E+04  0.15954983879E+04  0.12699999809E+01 0.  1.
       -4    1    3    3    0  502 -0.33947335875E+03  0.10503320804E+04 -0.94859552911E+03  0.14554293975E+04  0.12699999809E+01 0. -1.
</event>
<event>
 5   0  0.5392262E-06  0.2963425E+04  0.7818609E-02  0.8254253E-01
        1   -1    0    0  501    0  0.00000000000E+00  0.00000000000E+00  0.15069177647E+04  0.15069177647E+04  0.50400001928E-02 0.  1.
       -1   -1    0    0    0  501  0.00000000000E+00  0.00000000000E+00 -0.14569290046E+04  0.14569290046E+04  0.50400001928E-02 0. -1.
    10030    2    1    2    0    0  0.00000000000E+00  0.00000000000E+00  0.49988760083E+02  0.29638467692E+04  0.29634251796E+04 0.  0.
        2    1    3    3  502    0 -0.95523481121E+03 -0.86381517182E+03  0.75777999351E+03  0.14942826755E+04  0.25500000920E-02 0.  1.
       -2    1    3    3    0  502  0.95523481121E+03  0.86381517182E+03 -0.70779123342E+03  0.14695640938E+04  0.25500000920E-02 0. -1.
</event>
<event>
 5   0  0.1345931E-05  0.2989948E+04  0.7818609E-02  0.8246607E-01
        2   -1    0    0  501    0  0.00000000000E+00  0.00000000000E+00  0.15672822199E+04  0.15672822199E+04  0.25500000920E-02 0. -1.
       -2   -1    0    0    0  501  0.00000000000E+00  0.00000000000E+00 -0.14260022043E+04  0.14260022043E+04  0.25500000920E-02 0.  1.
    10030    2    1    2    0    0  0.00000000000E+00  0.00000000000E+00  0.14128001563E+03  0.29932844242E+04  0.29899484279E+04 0.  0.
        2    1    3    3  502    0  0.17141137496E+03  0.71613968843E+03 -0.12318534982E+04  0.14351658280E+04  0.25500000920E-02 0.  1.
       -2    1    3    3    0  502 -0.17141137496E+03 -0.71613968843E+03  0.13731335139E+04  0.15581185962E+04  0.25500000920E-02 0. -1.
</event>
<event>
 5   0  0.4806125E-06  0.2663203E+04  0.7818609E-02  0.8347044E-01
        3   -1    0    0  501    0  0.00000000000E+00  0.00000000000E+00  0.14107495494E+04  0.14107495531E+04  0.10100000352E+00 0.  1.
       -3   -1    0    0    0  501  0.00000000000E+00  0.00000000000E+00 -0.12568941970E+04  0.12568942011E+04  0.10100000352E+00 0. -1.
    10030    2    1    2    0    0  0.00000000000E+00  0.00000000000E+00  0.15385535245E+03  0.26676437541E+04  0.26632032835E+04 0.  0.
        5    1    3    3  502    0 -0.39196706094E+03  0.12723517048E+04  0.10194540614E+03  0.13352647652E+04  0.46999998093E+01 0. -1.
       -5    1    3    3    0  502  0.39196706094E+03 -0.12723517048E+04  0.51909946315E+02  0.13323789889E+04  0.46999998093E+01 0.  1.
</event>
<event>
 5   0  0.1523029E-05  0.2990872E+04  0.7818609E-02  0.8246342E-01
       -2   -1    0    0    0  501  0.00000000000E+00  0.00000000000E+00  0.85718096729E+03  0.85718096729E+03  0.25500000920E-02 0. -1.
        2   -1    0    0  501    0  0.00000000000E+00  0.00000000000E+00 -0.26089346350E+04  0.26089346350E+04  0.25500000920E-02 0.  1.
    10030    2    1    2    0    0  0.00000000000E+00  0.00000000000E+00 -0.17517536677E+04  0.34661156023E+04  0.29908721899E+04 0.  0.
        5    1    3    3  502    0  0.14416747496E+04 -0.26007391912E+03 -0.52773938649E+03  0.15571112603E+04  0.46999998093E+01 0. -1.
       -5    1    3    3    0  502 -0.14416747496E+04  0.26007391912E+03 -0.12240142812E+04  0.19090043420E+04  0.46999998093E+01 0.  1.
</event>
<event>
 5   0  0.1523029E-05  0.2962734E+04  0.7818609E-02  0.8254453E-01
       -2   -1    0    0    0  501  0.00000000000E+00  0.00000000000E+00  0.10386548147E+04  0.10386548147E+04  0.25500000920E-02 0.  1.
        2   -1    0    0  501    0  0.00000000000E+00  0.00000000000E+00 -0.21127793907E+04  0.21127793907E+04  0.25500000920E-02 0. -1.
    10030    2    1    2    0    0  0.00000000000E+00  0.00000000000E+00 -0.10741245760E+04  0.31514342054E+04  0.29627342010E+04 0.  0.
        5    1    3    3  502    0 -0.14776925456E+04  0.96896281129E+02 -0.57773714531E+03  0.15895805886E+04  0.46999998093E+01 0.  1.
       -5    1    3    3    0  502  0.14776925456E+04 -0.96896281129E+02 -0.49638743073E+03  0.15618536167E+04  0.46999998093E+01 0. -1.
</event>
<event>
 5   0  0.1388724E-05  0.2913787E+04  0.7818609E-02  0.8268787E-01
        2   -1    0    0  501    0  0.00000000000E+00  0.00000000000E+00  0.19029779732E+04  0.19029779732E+04  0.25500000920E-02 0. -1.
       -2   -1    0    0    0  501  0.00000000000E+00  0.00000000000E+00 -0.11153776186E+04  0.11153776186E+04  0.25500000920E-02 0.  1.
    10030    2    1    2    0    0  0.00000000000E+00  0.00000000000E+00  0.78760035456E+03  0.30183555918E+04  0.29137872537E+04 0.  0.
        4    1    3    3  502    0 -0.27698340627E+03 -0.13644153611E+04  0.83837373972E+03  0.16251834436E+04  0.12699999809E+01 0. -1.
       -4    1    3    3    0  502  0.27698340627E+03  0.13644153611E+04 -0.50773385165E+02  0.13931721482E+04  0.12699999809E+01 0.  1.
</event>
<event>
 5   0  0.5329891E-06  0.2996240E+04  0.7818609E-02  0.8244805E-01
       -1   -1    0    0    0  501  0.00000000000E+00  0.00000000000E+00  0.25364181466E+04  0.25364181466E+04  0.50400001928E-02 0.  1.
        1   -1    0    0  501    0  0.00000000000E+00  0.00000000000E+00 -0.88485572052E+03  0.88485572054E+03  0.50400001928E-02 0. -1.
    10030    2    1    2    0    0  0.00000000000E+00  0.00000000000E+00  0.16515624261E+04  0.34212738671E+04  0.29962403820E+04 0.  0.
        4    1    3    3  502    0  0.14730154213E+04 -0.61844077526E+02  0.11295306270E+04  0.18572668552E+04  0.12699999809E+01 0.  1.
       -4    1    3    3    0  502 -0.14730154213E+04  0.61844077526E+02  0.52203179907E+03  0.15640070119E+04  0.12699999809E+01 0. -1.
</event>
<event>
 5   0  0.5392262E-06  0.2884560E+04  0.7818609E-02  0.8277486E-01
        1   -1    0    0  501    0  0.00000000000E+00  0.00000000000E+00  0.18650353404E+04  0.18650353404E+04  0.50400001928E-02 0.  1.
       -1   -1    0    0    0  501  0.00000000000E+00  0.00000000000E+00 -0.11153521854E+04  0.11153521855E+04  0.50400001928E-02 0. -1.
    10030    2    1    2    0    0  0.00000000000E+00  0.00000000000E+00  0.74968315494E+03  0.29803875258E+04  0.28845597535E+04 0.  0.
        2    1    3    3  502    0 -0.95584965153E+03 -0.60901543540E+03  0.12964508397E+04  0.17220142672E+04  0.25500000920E-02 0.  1.
       -2    1    3    3    0  502  0.95584965153E+03  0.60901543540E+03 -0.54676768474E+03  0.12583732586E+04  0.25500000920E-02 0. -1.
</event>
<event>
 5   0  0.1345931E-05  0.2547495E+04  0.7818609E-02  0.8386258E-01
       -2   -1    0    0    0  501  0.00000000000E+00  0.00000000000E+00  0.11487435573E+04  0.11487435573E+04  0.25500000920E-02 0.  1.
        2   -1    0    0  501    0  0.00000000000E+00  0.00000000000E+00 -0.14123541699E+04  0.14123541699E+04  0.25500000920E-02 0. -1.
    10030    2    1    2    0    0  0.00000000000E+00  0.00000000000E+00 -0.26361061261E+03  0.25610977271E+04  0.25474950467E+04 0.  0.
        2    1    3    3  502    0 -0.64345799015E+03 -0.13034485510E+03  0.96553788376E+03  0.11676006900E+04  0.25500000920E-02 0.  1.
       -2    1    3    3    0  502  0.64345799015E+03  0.13034485510E+03 -0.12291484964E+04  0.13934970371E+04  0.25500000920E-02 0. -1.
</event>
<event>
 5   0  0.5392262E-06  0.3032743E+04  0.7818609E-02  0.8234442E-01
        1   -1    0    0  501    0  0.00000000000E+00  0.00000000000E+00  0.77407052778E+03  0.77407052779E+03  0.50400001928E-02 0. -1.
       -1   -1    0    0    0  501  0.00000000000E+00  0.00000000000E+00 -0.29705071557E+04  0.29705071557E+04  0.50400001928E-02 0.  1.
    10030    2    1    2    0    0  0.00000000000E+00  0.00000000000E+00 -0.21964366279E+04  0.37445776835E+04  0.30327426807E+04 0.  0.
        2    1    3    3  502    0 -0.88948615944E+03 -0.28505154955E+02  0.41771191527E+03  0.98309786688E+03  0.25500000920E-02 0. -1.
       -2    1    3    3    0  502  0.88948615944E+03  0.28505154955E+02 -0.26141485432E+04  0.27614798166E+04  0.25500000920E-02 0.  1.
</event>
<event>
 5   0  0.1423692E-05  0.1590815E+04  0.7818609E-02  0.8826211E-01
        2   -1    0    0  501    0  0.00000000000E+00  0.00000000000E+00  0.88303054209E+03  0.88303054209E+03  0.25500000920E-02 0.  1.
       -2   -1    0    0    0  501  0.00000000000E+00  0.00000000000E+00 -0.71647895595E+03  0.71647895595E+03  0.25500000920E-02 0. -1.
    10030    2    1    2    0    0  0.00000000000E+00  0.00000000000E+00  0.16655158614E+03  0.15995094980E+04  0.15908146352E+04 0.  0.
        3    1    3    3  502    0  0.10609182314E+03 -0.39150326516E+03 -0.60467327204E+03  0.72812090870E+03  0.10100000352E+00 0. -1.
       -3    1    3    3    0  502 -0.10609182314E+03  0.39150326516E+03  0.77122485817E+03  0.87138858934E+03  0.10100000352E+00 0.  1.
</event>
<event>
 5   0  0.1523029E-05  0.1583267E+04  0.7818609E-02  0.8830894E-01
       -2   -1    0    0    0  501  0.00000000000E+00  0.00000000000E+00  0.55249000364E+03  0.55249000364E+03  0.25500000920E-02 0.  1.
        2   -1    0    0  501    0  0.00000000000E+00  0.00000000000E+00 -0.11342897764E+04  0.11342897764E+04  0.25500000920E-02 0. -1.
    10030    2    1    2    0    0  0.00000000000E+00  0.00000000000E+00 -0.58179977276E+03  0.16867797800E+04  0.15832672076E+04 0.  0.
        5    1    3    3  502    0  0.58447880499E+03  0.23460752497E+03  0.22004409537E+03  0.66715639707E+03  0.46999998093E+01 0.  1.
       -5    1    3    3    0  502 -0.58447880499E+03 -0.23460752497E+03 -0.80184386813E+03  0.10196233830E+04  0.46999998093E+01 0. -1.
</event>
<event>
 5   0  0.7032692E-06  0.2950513E+04  0.7818609E-02  0.8258005E-01
       -1   -1    0    0    0  501  0.00000000000E+00  0.00000000000E+00  0.12865534435E+04  0.12865534435E+04  0.50400001928E-02 0. -1.
        1   -1    0    0  501    0  0.00000000000E+00  0.00000000000E+00 -0.16916366874E+04  0.16916366874E+04  0.50400001928E-02 0.  1.
    10030    2    1    2    0    0  0.00000000000E+00  0.00000000000E+00 -0.40508324387E+03  0.29781901309E+04  0.29505125015E+04 0.  0.
        5    1    3    3  502    0  0.84074416045E+03 -0.46875294603E+02  0.10201474476E+04  0.13227890767E+04  0.46999998093E+01 0. -1.
       -5    1    3    3    0  502 -0.84074416045E+03  0.46875294603E+02 -0.14252306915E+04  0.16554010543E+04  0.46999998093E+01 0.  1.
</event>
<event>
 5   0  0.5522695E-06  0.2672959E+04  0.7818609E-02  0.8343832E-01
       -1   -1    0    0    0  501  0.00000000000E+00  0.00000000000E+00  0.10984137934E+04  0.10984137934E+04  0.50400001928E-02 0. -1.
        1   -1    0    0  501    0  0.00000000000E+00  0.00000000000E+00 -0.16261430475E+04  0.16261430475E+04  0.50400001928E-02 0.  1.
    10030    2    1    2    0    0  0.00000000000E+00  0.00000000000E+00 -0.52772925410E+03  0.27245568410E+04  0.26729593738E+04 0.  0.
        3    1    3    3  502    0 -0.64335767989E+03  0.15939211980E+03  0.91908220246E+03  0.11331491769E+04  0.10100000352E+00 0. -1.
       -3    1    3    3    0  502  0.64335767989E+03 -0.15939211980E+03 -0.14468114566E+04  0.15914076640E+04  0.10100000352E+00 0.  1.
</event>
<event>
 5   0  0.1423692E-05  0.3058010E+04  0.7818609E-02  0.8227357E-01
        2   -1    0    0  501    0  0.00000000000E+00  0.00000000000E+00  0.16549528648E+04  0.16549528648E+04  0.25500000920E-02 0. -1.
       -2   -1    0    0    0  501  0.00000000000E+00  0.00000000000E+00 -0.14126423412E+04  0.14126423412E+04  0.25500000920E-02 0.  1.
    10030    2    1    2    0    0  0.00000000000E+00  0.00000000000E+00  0.24231052360E+03  0.30675952060E+04  0.30580101305E+04 0.  0.
        3    1    3    3  502    0 -0.54549902456E+03 -0.12570966491E+04 -0.55920013114E+03  0.14800560692E+04  0.10100000352E+00 0.  1.
       -3    1    3    3    0  502  0.54549902456E+03  0.12570966491E+04  0.80151065474E+03  0.15875391368E+04  0.10100000352E+00 0. -1.
</event>
<event>
 5   0  0.1388724E-05  0.2631870E+04  0.7818609E-02  0.8357456E-01
       -2   -1    0    0    0  501  0.00000000000E+00  0.00000000000E+00  0.86216668921E+03  0.86216668921E+03  0.25500000920E-02 0.  1.
        2   -1    0    0  501    0  0.00000000000E+00  0.00000000000E+00 -0.20085264763E+04  0.20085264763E+04  0.25500000920E-02 0. -1.
    10030    2    1    2    0    0  0.00000000000E+00  0.00000000000E+00 -0.11463597871E+04  0.28706931655E+04  0.26318697705E+04 0.  0.
        4    1    3    3  502    0 -0.73410947100E+02 -0.38556053307E+03 -0.19431967470E+04  0.19824382215E+04  0.12699999809E+01 0. -1.
       -4    1    3    3    0  502  0.73410947100E+02  0.38556053307E+03  0.79683695993E+03  0.88825494394E+03  0.12699999809E+01 0.  1.
</event>
<event>
 5   0  0.1480547E-05  0.3069712E+04  0.7818609E-02  0.8224100E-01
       -2   -1    0    0    0  501  0.00000000000E+00  0.00000000000E+00  0.17780010280E+04  0.17780010280E+04  0.25500000920E-02 0.  1.
        2   -1    0    0  501    0  0.00000000000E+00  0.00000000000E+00 -0.13249616683E+04  0.13249616683E+04  0.25500000920E-02 0. -1.
    10030    2    1    2    0    0  0.00000000000E+00  0.00000000000E+00  0.45303935979E+03  0.31029626963E+04  0.30697121743E+04 0.  0.
        1    1    3    3  502    0 -0.10737767519E+04 -0.10260054114E+04 -0.16510373726E+03  0.14943034702E+04  0.50400001928E-02 0. -1.
       -1    1    3    3    0  502  0.10737767519E+04  0.10260054114E+04  0.61814309705E+03  0.16086592261E+04  0.50400001928E-02 0.  1.
</event>
<event>
 5   0  0.1345931E-05  0.2991455E+04  0.7818609E-02  0.8246175E-01
        2   -1    0    0  501    0  0.00000000000E+00  0.00000000000E+00  0.15873251007E+04  0.15873251007E+04  0.25500000920E-02 0.  1.
       -2   -1    0    0    0  501  0.00000000000E+00  0.00000000000E+00 -0.14094159007E+04  0.14094159007E+04  0.25500000920E-02 0. -1.
    10030    2    1    2    0    0  0.00000000000E+00  0.00000000000E+00  0.17790920005E+03  0.29967410014E+04  0.29914553224E+04 0.  0.
        2    1    3    3  502    0  0.69781820514E+03 -0.86575217128E+02  0.14114219158E+04  0.15768821579E+04  0.25500000920E-02 0.  1.
       -2    1    3    3    0  502 -0.69781820514E+03  0.86575217128E+02 -0.12335127157E+04  0.14198588435E+04  0.25500000920E-02 0. -1.
</event>
<event>
 5   0  0.5730920E-06  0.2145804E+04  0.7818609E-02  0.8541330E-01
       -1   -1    0    0    0  501  0.00000000000E+00  0.00000000000E+00  0.75345020486E+03  0.75345020487E+03  0.50400001928E-02 0. -1.
        1   -1    0    0  501    0  0.00000000000E+00  0.00000000000E+00 -0.15277966321E+04  0.15277966321E+04  0.50400001928E-02 0.  1.
    10030    2    1    2    0    0  0.00000000000E+00  0.00000000000E+00 -0.77434642719E+03  0.22812468369E+04  0.21458039849E+04 0.  0.
        1    1    3    3  502    0 -0.23600146577E+03  0.11065626427E+02  0.72545145805E+03  0.76295409950E+03  0.50400001928E-02 0. -1.
       -1    1    3    3    0  502  0.23600146577E+03 -0.11065626427E+02 -0.14997978852E+04  0.15182927374E+04  0.50400001928E-02 0.  1.
</event>
<event>
 5   0  0.1388724E-05  0.3000952E+04  0.7818609E-02  0.8243459E-01
        2   -1    0    0  501    0  0.00000000000E+00  0.00000000000E+00  0.18144372516E+04  0.18144372516E+04  0.25500000920E-02 0.  1.
       -2   -1    0    0    0  501  0.00000000000E+00  0.00000000000E+00 -0.12408409134E+04  0.12408409134E+04  0.25500000920E-02 0. -1.
    10030    2    1    2    0    0  0.00000000000E+00  0.00000000000E+00  0.57359633826E+03  0.30552781650E+04  0.30009518334E+04 0.  0.
        4    1    3    3  502    0  0.12839823785E+04 -0.21679156811E+03 -0.47222958557E+03  0.13851396055E+04  0.12699999809E+01 0. -1.
       -4    1    3    3    0  502 -0.12839823785E+04  0.21679156811E+03  0.10458259238E+04  0.16701385595E+04  0.12699999809E+01 0.  1.
</event>
<event>
 5   0  0.1388724E-05  0.2688007E+04  0.7818609E-02  0.8338907E-01
        2   -1    0    0  501    0  0.00000000000E+00  0.00000000000E+00  0.15062915486E+04  0.15062915486E+04  0.25500000920E-02 0.  1.
       -2   -1    0    0    0  501  0.00000000000E+00  0.00000000000E+00 -0.11992005014E+04  0.11992005014E+04  0.25500000920E-02 0. -1.
    10030    2    1    2    0    0  0.00000000000E+00  0.00000000000E+00  0.30709104718E+03  0.27054920500E+04  0.26880071282E+04 0.  0.
        4    1    3    3  502    0  0.11898752808E+04 -0.20924224663E+03  0.74623795640E+03  0.14200204936E+04  0.12699999809E+01 0. -1.
       -4    1    3    3    0  502 -0.11898752808E+04  0.20924224663E+03 -0.43914690923E+03  0.12854715564E+04  0.12699999809E+01 0.  1.
</event>
<event>
 5   0  0.1423692E-05  0.2098128E+04  0.7818609E-02  0.8562068E-01
       -2   -1    0    0    0  501  0.00000000000E+00  0.00000000000E+00  0.79362174166E+03  0.79362174167E+03  0.25500000920E-02 0. -1.
        2   -1    0    0  501    0  0.00000000000E+00  0.00000000000E+00 -0.13867253027E+04  0.13867253027E+04  0.25500000920E-02 0.  1.
    10030    2    1    2    0    0  0.00000000000E+00  0.00000000000E+00 -0.59310356100E+03  0.21803470443E+04  0.20981280704E+04 0.  0.
        3    1    3    3  502    0  0.54495926191E+03  0.13221902507E+03 -0.12179026195E+04  0.13408017260E+04  0.10100000352E+00 0.  1.
       -3    1    3    3    0  502 -0.54495926191E+03 -0.13221902507E+03  0.62479905852E+03  0.83954531829E+03  0.10100000352E+00 0. -1.
</event>
<event>
 5   0  0.7032692E-06  0.2049246E+04  0.7818609E-02  0.8583937E-01
        1   -1    0    0  501    0  0.00000000000E+00  0.00000000000E+00  0.17446552396E+04  0.17446552396E+04  0.50400001928E-02 0.  1.
       -1   -1    0    0    0  501  0.00000000000E+00  0.00000000000E+00 -0.60175320880E+03  0.60175320882E+03  0.50400001928E-02 0. -1.
    10030    2    1    2    0    0  0.00000000000E+00  0.00000000000E+00  0.11429020308E+04  0.23464084484E+04  0.20492456063E+04 0.  0.
        5    1    3    3  502    0  0.84316413207E+03 -0.22289154454E+03  0.11872320628E+04  0.14731423744E+04  0.46999998093E+01 0.  1.
       -5    1    3    3    0  502 -0.84316413207E+03  0.22289154454E+03 -0.44330032071E+02  0.87326607399E+03  0.46999998093E+01 0. -1.
</event>
<event>
 5   0  0.5392262E-06  0.1598036E+04  0.7818609E-02  0.8821756E-01
        1   -1    0    0  501    0  0.00000000000E+00  0.00000000000E+00  0.10268341453E+04  0.10268341454E+04  0.50400001928E-02 0.  1.
       -1   -1    0    0    0  501  0.00000000000E+00  0.00000000000E+00 -0.62174546517E+03  0.62174546519E+03  0.50400001928E-02 0. -1.
    10030    2    1    2    0    0  0.00000000000E+00  0.00000000000E+00  0.40508868018E+03  0.16485796106E+04  0.15980356359E+04 0.  0.
        2    1    3    3  502    0  0.23189358058E+03  0.50327217741E+03 -0.39131192176E+03  0.67836755331E+03  0.25500000920E-02 0. -1.
       -2    1    3    3    0  502 -0.23189358058E+03 -0.50327217741E+03  0.79640060193E+03  0.97021205725E+03  0.25500000920E-02 0.  1.
</event>
<event>
 5   0  0.1480547E-05  0.2946082E+04  0.7818609E-02  0.8259297E-01
        2   -1    0    0  501    0  0.00000000000E+00  0.00000000000E+00  0.12943451588E+04  0.12943451588E+04  0.25500000920E-02 0.  1.
       -2   -1    0    0    0  501  0.00000000000E+00  0.00000000000E+00 -0.16764070890E+04  0.16764070890E+04  0.25500000920E-02 0. -1.
    10030    2    1    2    0    0  0.00000000000E+00  0.00000000000E+00 -0.38206193025E+03  0.29707522478E+04  0.29460817367E+04 0.  0.
        1    1    3    3  502    0  0.50277307503E+03 -0.13815521393E+04 -0.98709265842E+02  0.14735028326E+04  0.50400001928E-02 0.  1.
       -1    1    3    3    0  502 -0.50277307503E+03  0.13815521393E+04 -0.28335266441E+03  0.14972494151E+04  0.50400001928E-02 0. -1.
</event>
<event>
 5   0  0.1388724E-05  0.2714474E+04  0.7818609E-02  0.8330324E-01
       -2   -1    0    0    0  501  0.00000000000E+00  0.00000000000E+00  0.10665302071E+04  0.10665302071E+04  0.25500000920E-02 0.  1.
        2   -1    0    0  501    0  0.00000000000E+00  0.00000000000E+00 -0.17271823183E+04  0.17271823183E+04  0.25500000920E-02 0. -1.
    10030    2    1    2    0    0  0.00000000000E+00  0.00000000000E+00 -0.66065211118E+03  0.27937125254E+04  0.27144738832E+04 0.  0.
        4    1    3    3  502    0 -0.22977638190E+03 -0.91417745258E+03  0.67468999565E+03  0.11591918752E+04  0.12699999809E+01 0.  1.
       -4    1    3    3    0  502  0.22977638190E+03  0.91417745258E+03 -0.13353421068E+04  0.16345206501E+04  0.12699999809E+01 0. -1.
</event>
<event>
 5   0  0.1423692E-05  0.3096651E+04  0.7818609E-02  0.8216657E-01
       -2   -1    0    0    0  501  0.00000000000E+00  0.00000000000E+00  0.12107073714E+04  0.12107073714E+04  0.25500000920E-02 0.  1.
        2   -1    0    0  501    0  0.00000000000E+00  0.00000000000E+00 -0.19800925141E+04  0.19800925141E+04  0.25500000920E-02 0. -1.
    10030    2    1    2    0    0  0.00000000000E+00  0.00000000000E+00 -0.76938514273E+03  0.31907998855E+04  0.30966514837E+04 0.  0.
        3    1    3    3  502    0 -0.12244278979E+04 -0.94269497801E+03 -0.48467405219E+03  0.16195080876E+04  0.10100000352E+00 0. -1.
       -3    1    3    3    0  502  0.12244278979E+04  0.94269497801E+03 -0.28471109054E+03  0.15712917979E+04  0.10100000352E+00 0.  1.
</event>
<event>
 5   0  0.5730920E-06  0.2939853E+04  0.7818609E-02  0.8261118E-01
        1   -1    0    0  501    0  0.00000000000E+00  0.00000000000E+00  0.13957226775E+04  0.13957226775E+04  0.50400001928E-02 0. -1.
       -1   -1    0    0    0  501  0.00000000000E+00  0.00000000000E+00 -0.15480751553E+04  0.15480751553E+04  0.50400001928E-02 0.  1.
    10030    2    1    2    0    0  0.00000000000E+00  0.00000000000E+00 -0.15235247783E+03  0.29437978328E+04  0.29398527859E+04 0.  0.
        1    1    3    3  502    0  0.24832002167E+03 -0.11648082046E+04  0.78651490560E+03  0.14272514437E+04  0.50400001928E-02 0. -1.
       -1    1    3    3    0  502 -0.24832002167E+03  0.11648082046E+04 -0.93886738343E+03  0.15165463891E+04  0.50400001928E-02 0.  1.
</event>
<event>
 5   0  0.1345931E-05  0.2929754E+04  0.7818609E-02  0.8264080E-01
        2   -1    0    0  501    0  0.00000000000E+00  0.00000000000E+00  0.20453884758E+04  0.20453884758E+04  0.25500000920E-02 0.  1.
       -2   -1    0    0    0  501  0.00000000000E+00  0.00000000000E+00 -0.10491229263E+04  0.10491229263E+04  0.25500000920E-02 0. -1.
    10030    2    1    2    0    0  0.00000000000E+00  0.00000000000E+00  0.99626554950E+03  0.30945114021E+04  0.29297535345E+04 0.  0.
        2    1    3    3  502    0  0.60043629612E+03  0.10624340626E+03  0.19049712549E+04  0.20001817141E+04  0.25500000920E-02 0.  1.
       -2    1    3    3    0  502 -0.60043629612E+03 -0.10624340626E+03 -0.90870570545E+03  0.10943296881E+04  0.25500000920E-02 0. -1.
</event>
<event>
 5   0  0.5730920E-06  0.2427362E+04  0.7818609E-02  0.8429330E-01
       -1   -1    0    0    0  501  0.00000000000E+00  0.00000000000E+00  0.11773388851E+04  0.11773388851E+04  0.50400001928E-02 0. -1.
        1   -1    0    0  501    0  0.00000000000E+00  0.00000000000E+00 -0.12511444325E+04  0.12511444325E+04  0.50400001928E-02 0.  1.
    10030    2    1    2    0    0  0.00000000000E+00  0.00000000000E+00 -0.73805547469E+02  0.24284833176E+04  0.24273615234E+04 0.  0.
        1    1    3    3  502    0  0.67689693656E+03 -0.47283372494E+01 -0.10447457015E+04  0.12448716403E+04  0.50400001928E-02 0.  1.
       -1    1    3    3    0  502 -0.67689693656E+03  0.47283372494E+01  0.97094015407E+03  0.11836116773E+04  0.50400001928E-02 0. -1.
</event>
<event>
 5   0  0.5392262E-06  0.1474042E+04  0.7818609E-02  0.8901900E-01
       -1   -1    0    0    0  501  0.00000000000E+00  0.00000000000E+00  0.11868493655E+04  0.11868493655E+04  0.50400001928E-02 0.  1.
        1   -1    0    0  501    0  0.00000000000E+00  0.00000000000E+00 -0.45768259035E+03  0.45768259037E+03  0.50400001928E-02 0. -1.
    10030    2    1    2    0    0  0.00000000000E+00  0.00000000000E+00  0.72916677515E+03  0.16445319559E+04  0.14740424580E+04 0.  0.
        2    1    3    3  502    0  0.53253357858E+03 -0.12269118334E+03  0.91630593555E+03  0.10668934840E+04  0.25500000920E-02 0.  1.
       -2    1    3    3    0  502 -0.53253357858E+03  0.12269118334E+03 -0.18713916039E+03  0.57763847183E+03  0.25500000920E-02 0. -1.
</event>
<event>
 5   0  0.1523029E-05  0.3151386E+04  0.7818609E-02  0.8201775E-01
        2   -1    0    0  501    0  0.00000000000E+00  0.00000000000E+00  0.18635798432E+04  0.18635798432E+04  0.25500000920E-02 0.  1.
       -2   -1    0    0    0  501  0.00000000000E+00  0.00000000000E+00 -0.13322787405E+04  0.13322787405E+04  0.25500000920E-02 0. -1.
    10030    2    1    2    0    0  0.00000000000E+00  0.00000000000E+00  0.53130110272E+03  0.31958585837E+04  0.31513856041E+04 0.  0.
        5    1    3    3  502    0  0.53336209024E+03  0.62031773160E+03 -0.11000225752E+04  0.13708905731E+04  0.46999998093E+01 0. -1.
       -5    1    3    3    0  502 -0.53336209024E+03 -0.62031773160E+03  0.16313236780E+04  0.18249680106E+04  0.46999998093E+01 0.  1.
</event>
<event>
 5   0  0.5730920E-06  0.1738437E+04  0.7818609E-02  0.8739741E-01
       -1   -1    0    0    0  501  0.00000000000E+00  0.00000000000E+00  0.54929726917E+03  0.54929726919E+03  0.50400001928E-02 0.  1.
        1   -1    0    0  501    0  0.00000000000E+00  0.00000000000E+00 -0.13754680683E+04  0.13754680683E+04  0.50400001928E-02 0. -1.
    10030    2    1    2    0    0  0.00000000000E+00  0.00000000000E+00 -0.82617079915E+03  0.19247653375E+04  0.17384370610E+04 0.  0.
        1    1    3    3  502    0  0.22315789516E+03  0.26560826769E+03  0.46932759079E+03  0.58362281101E+03  0.50400001928E-02 0.  1.
       -1    1    3    3    0  502 -0.22315789516E+03 -0.26560826769E+03 -0.12954983899E+04  0.13411425265E+04  0.50400001928E-02 0. -1.
</event>
<event>
 5   0  0.1388724E-05  0.2131581E+04  0.7818609E-02  0.8547458E-01
       -2   -1    0    0    0  501  0.00000000000E+00  0.00000000000E+00  0.83073697437E+03  0.83073697438E+03  0.25500000920E-02 0. -1.
        2   -1    0    0  501    0  0.00000000000E+00  0.00000000000E+00 -0.13673518490E+04  0.13673518490E+04  0.25500000920E-02 0.  1.
    10030    2    1    2    0    0  0.00000000000E+00  0.00000000000E+00 -0.53661487460E+03  0.21980888234E+04  0.21315813265E+04 0.  0.
        4    1    3    3  502    0  0.92130335889E+03 -0.37856255369E+03  0.12273214345E+03  0.10035807282E+04  0.12699999809E+01 0. -1.
       -4    1    3    3    0  502 -0.92130335889E+03  0.37856255369E+03 -0.65934701805E+03  0.11945080951E+04  0.12699999809E+01 0.  1.
</event>
<event>
 5   0  0.4806125E-06  0.2300057E+04  0.7818609E-02  0.8477899E-01
       -3   -1    0    0    0  501  0.00000000000E+00  0.00000000000E+00  0.16781362312E+04  0.16781362342E+04  0.10100000352E+00 0.  1.
        3   -1    0    0  501    0  0.00000000000E+00  0.00000000000E+00 -0.78811563568E+03  0.78811564215E+03  0.10100000352E+00 0. -1.
    10030    2    1    2    0    0  0.00000000000E+00  0.00000000000E+00  0.89002059552E+03  0.24662518764E+04  0.23000568813E+04 0.  0.
        5    1    3    3  502    0  0.31148312792E+01  0.67830030332E+03 -0.55077080898E+03  0.87376860649E+03  0.46999998093E+01 0. -1.
       -5    1    3    3    0  502 -0.31148312792E+01 -0.67830030332E+03  0.14407914045E+04  0.15924832699E+04  0.46999998093E+01 0.  1.
</event>
<event>
 5   0  0.1423692E-05  0.1977519E+04  0.7818609E-02  0.8617204E-01
       -2   -1    0    0    0  501  0.00000000000E+00  0.00000000000E+00  0.10515117307E+04  0.10515117307E+04  0.25500000920E-02 0. -1.
        2   -1    0    0  501    0  0.00000000000E+00  0.00000000000E+00 -0.92975206589E+03  0.92975206589E+03  0.25500000920E-02 0.  1.
    10030    2    1    2    0    0  0.00000000000E+00  0.00000000000E+00  0.12175966486E+03  0.19812637966E+04  0.19775188535E+04 0.  0.
        3    1    3    3  502    0  0.31412591671E+03 -0.33720732568E+03 -0.81556897183E+03  0.93676925123E+03  0.10100000352E+00 0.  1.
       -3    1    3    3    0  502 -0.31412591671E+03  0.33720732568E+03  0.93732863668E+03  0.10444945454E+04  0.10100000352E+00 0. -1.
</event>
<event>
 5   0  0.1423692E-05  0.3019367E+04  0.7818609E-02  0.8238222E-01
       -2   -1    0    0    0  501  0.00000000000E+00  0.00000000000E+00  0.75099768765E+03  0.75099768765E+03  0.25500000920E-02 0. -1.
        2   -1    0    0  501    0  0.00000000000E+00  0.00000000000E+00 -0.30348218245E+04  0.30348218245E+04  0.25500000920E-02 0.  1.
    10030    2    1    2    0    0  0.00000000000E+00  0.00000000000E+00 -0.22838241368E+04  0.37858195121E+04  0.30193669354E+04 0.  0.
        3    1    3    3  502    0  0.11993147954E+04 -0.84576983492E+03 -0.69779305163E+03  0.16249916139E+04  0.10100000352E+00 0. -1.
       -3    1    3    3    0  502 -0.11993147954E+04  0.84576983492E+03 -0.15860310852E+04  0.21608278982E+04  0.10100000352E+00 0.  1.
</event>
<event>
 5   0  0.5522695E-06  0.2794076E+04  0.7818609E-02  0.8305110E-01
       -1   -1    0    0    0  501  0.00000000000E+00  0.00000000000E+00  0.80708650973E+03  0.80708650974E+03  0.50400001928E-02 0. -1.
        1   -1    0    0  501    0  0.00000000000E+00  0.00000000000E+00 -0.24182223858E+04  0.24182223858E+04  0.50400001928E-02 0.  1.
    10030    2    1    2    0    0  0.00000000000E+00  0.00000000000E+00 -0.16111358760E+04  0.32253088955E+04  0.27940756361E+04 0.  0.
        3    1    3    3  502    0 -0.29864751527E+03 -0.90574284410E+02  0.76633443409E+03  0.82744336027E+03  0.10100000352E+00 0. -1.
       -3    1    3    3    0  502  0.29864751527E+03  0.90574284410E+02 -0.23774703101E+04  0.23978655352E+04  0.10100000352E+00 0.  1.
</event>
<event>
 5   0  0.1345931E-05  0.2957079E+04  0.7818609E-02  0.8256094E-01
       -2   -1    0    0    0  501  0.00000000000E+00  0.00000000000E+00  0.99295031121E+03  0.99295031122E+03  0.25500000920E-02 0.  1.
        2   -1    0    0  501    0  0.00000000000E+00  0.00000000000E+00 -0.22016001652E+04  0.22016001652E+04  0.25500000920E-02 0. -1.
    10030    2    1    2    0    0  0.00000000000E+00  0.00000000000E+00 -0.12086498540E+04  0.31945504764E+04  0.29570793491E+04 0.  0.
        2    1    3    3  502    0 -0.90238961104E+03  0.46018482408E+03  0.55920145896E+03  0.11570580600E+04  0.25500000920E-02 0.  1.
       -2    1    3    3    0  502  0.90238961104E+03 -0.46018482408E+03 -0.17678513130E+04  0.20374924165E+04  0.25500000920E-02 0. -1.
</event>
<event>
 5   0  0.1388724E-05  0.2288250E+04  0.7818609E-02  0.8482568E-01
        2   -1    0    0  501    0  0.00000000000E+00  0.00000000000E+00  0.89549906922E+03  0.89549906922E+03  0.25500000920E-02 0.  1.
       -2   -1    0    0    0  501  0.00000000000E+00  0.00000000000E+00 -0.14617798279E+04  0.14617798279E+04  0.25500000920E-02 0. -1.
    10030    2    1    2    0    0  0.00000000000E+00  0.00000000000E+00 -0.56628075872E+03  0.23572788972E+04  0.22882504018E+04 0.  0.
        4    1    3    3  502    0  0.76829017093E+03 -0.55758545741E+03  0.37475586304E+03  0.10205953649E+04  0.12699999809E+01 0.  1.
       -4    1    3    3    0  502 -0.76829017093E+03  0.55758545741E+03 -0.94103662175E+03  0.13366835323E+04  0.12699999809E+01 0. -1.
</event>
<event>
 5   0  0.1388724E-05  0.2944499E+04  0.7818609E-02  0.8259760E-01
        2   -1    0    0  501    0  0.00000000000E+00  0.00000000000E+00  0.18178455486E+04  0.18178455486E+04  0.25500000920E-02 0. -1.
       -2   -1    0    0    0  501  0.00000000000E+00  0.00000000000E+00 -0.11923556531E+04  0.11923556531E+04  0.25500000920E-02 0.  1.
    10030    2    1    2    0    0  0.00000000000E+00  0.00000000000E+00  0.62548989555E+03  0.30102012017E+04  0.29444988818E+04 0.  0.
        4    1    3    3  502    0  0.10108008309E+04 -0.10296569426E+04  0.13632932249E+02  0.14429480965E+04  0.12699999809E+01 0. -1.
       -4    1    3    3    0  502 -0.10108008309E+04  0.10296569426E+04  0.61185696330E+03  0.15672531052E+04  0.12699999809E+01 0.  1.
</event>
<event>
 5   0  0.5329891E-06  0.2880705E+04  0.7818609E-02  0.8278641E-01
       -1   -1    0    0    0  501  0.00000000000E+00  0.00000000000E+00  0.10700922955E+04  0.10700922955E+04  0.50400001928E-02 0.  1.
        1   -1    0    0  501    0  0.00000000000E+00  0.00000000000E+00 -0.19387259037E+04  0.19387259037E+04  0.50400001928E-02 0. -1.
    10030    2    1    2    0    0  0.00000000000E+00  0.00000000000E+00 -0.86863360824E+03  0.30088181992E+04  0.28807052280E+04 0.  0.
        4    1    3    3  502    0  0.67726868181E+03  0.12703442647E+04 -0.48270894767E+03  0.15183797151E+04  0.12699999809E+01 0. -1.
       -4    1    3    3    0  502 -0.67726868181E+03 -0.12703442647E+04 -0.38592466057E+03  0.14904384841E+04  0.12699999809E+01 0.  1.
</event>
<event>
 5   0  0.5522695E-06  0.2134281E+04  0.7818609E-02  0.8546291E-01
       -1   -1    0    0    0  501  0.00000000000E+00  0.00000000000E+00  0.49032688474E+03  0.49032688477E+03  0.50400001928E-02 0. -1.
        1   -1    0    0  501    0  0.00000000000E+00  0.00000000000E+00 -0.23225087030E+04  0.23225087030E+04  0.50400001928E-02 0.  1.
    10030    2    1    2    0    0  0.00000000000E+00  0.00000000000E+00 -0.18321818182E+04  0.28128355877E+04  0.21342806349E+04 0.  0.
        3    1    3    3  502    0 -0.69290652652E+03  0.69788218244E+03 -0.14620859925E+04  0.17620597194E+04  0.10100000352E+00 0. -1.
       -3    1    3    3    0  502  0.69290652652E+03 -0.69788218244E+03 -0.37009582573E+03  0.10507758683E+04  0.10100000352E+00 0.  1.
</event>
<event>
 5   0  0.5730920E-06  0.3106101E+04  0.7818609E-02  0.8214066E-01
       -1   -1    0    0    0  501  0.00000000000E+00  0.00000000000E+00  0.81512426098E+03  0.81512426099E+03  0.50400001928E-02 0. -1.
        1   -1    0    0  501    0  0.00000000000E+00  0.00000000000E+00 -0.29590155199E+04  0.29590155199E+04  0.50400001928E-02 0.  1.
    10030    2    1    2    0    0  0.00000000000E+00  0.00000000000E+00 -0.21438912589E+04  0.37741397809E+04  0.31061006673E+04 0.  0.
        1    1    3    3  502    0 -0.98972977958E+03  0.59358271264E+03  0.19083051263E+03  0.11697528619E+04  0.50400001928E-02 0. -1.
       -1    1    3    3    0  502  0.98972977958E+03 -0.59358271264E+03 -0.23347217715E+04  0.26043869190E+04  0.50400001928E-02 0.  1.
</event>
<event>
 5   0  0.5329891E-06  0.3014393E+04  0.7818609E-02  0.8239633E-01
        1   -1    0    0  501    0  0.00000000000E+00  0.00000000000E+00  0.17532393882E+04  0.17532393882E+04  0.50400001928E-02 0.  1.
       -1   -1    0    0    0  501  0.00000000000E+00  0.00000000000E+00 -0.12956825276E+04  0.12956825276E+04  0.50400001928E-02 0. -1.
    10030    2    1    2    0    0  0.00000000000E+00  0.00000000000E+00  0.45755686059E+03  0.30489219158E+04  0.30143932338E+04 0.  0.
        4    1    3    3  502    0 -0.63197027146E+03 -0.11324541764E+04 -0.54800365479E+03  0.14078879587E+04  0.12699999809E+01 0. -1.
       -4    1    3    3    0  502  0.63197027146E+03  0.11324541764E+04  0.10055605154E+04  0.16410339572E+04  0.12699999809E+01 0.  1.
</event>
<event>
 5   0  0.5730920E-06  0.2999784E+04  0.7818609E-02  0.8243793E-01
        1   -1    0    0  501    0  0.00000000000E+00  0.00000000000E+00  0.18554396342E+04  0.18554396342E+04  0.50400001928E-02 0.  1.
       -1   -1    0    0    0  501  0.00000000000E+00  0.00000000000E+00 -0.12124759787E+04  0.12124759787E+04  0.50400001928E-02 0. -1.
    10030    2    1    2    0    0  0.00000000000E+00  0.00000000000E+00  0.64296365548E+03  0.30679156129E+04  0.29997839832E+04 0.  0.
        1    1    3    3  502    0 -0.45090789025E+03  0.86906723267E+03  0.14835458059E+04  0.17774993498E+04  0.50400001928E-02 0. -1.
       -1    1    3    3    0  502  0.45090789025E+03 -0.86906723267E+03 -0.84058215044E+03  0.12904162631E+04  0.50400001928E-02 0.  1.
</event>
<event>
 5   0  0.1345931E-05  0.2983631E+04  0.7818609E-02  0.8248421E-01
        2   -1    0    0  501    0  0.00000000000E+00  0.00000000000E+00  0.19026453352E+04  0.19026453352E+04  0.25500000920E-02 0. -1.
       -2   -1    0    0    0  501  0.00000000000E+00  0.00000000000E+00 -0.11696942477E+04  0.11696942477E+04  0.25500000920E-02 0.  1.
    10030    2    1    2    0    0  0.00000000000E+00  0.00000000000E+00  0.73295108745E+03  0.30723395829E+04  0.29836308779E+04 0.  0.
        2    1    3    3  502    0 -0.55328426847E+03  0.70576485928E+03 -0.86114692746E+03  0.12433026780E+04  0.25500000920E-02 0.  1.
       -2    1    3    3    0  502  0.55328426847E+03 -0.70576485928E+03  0.15940980149E+04  0.18290369049E+04  0.25500000920E-02 0. -1.
</event>
<event>
 5   0  0.5329891E-06  0.3020150E+04  0.7818609E-02  0.8238000E-01
        1   -1    0    0  501    0  0.00000000000E+00  0.00000000000E+00  0.22697854852E+04  0.22697854852E+04  0.50400001928E-02 0. -1.
       -1   -1    0    0    0  501  0.00000000000E+00  0.00000000000E+00 -0.10046438312E+04  0.10046438312E+04  0.50400001928E-02 0.  1.
    10030    2    1    2    0    0  0.00000000000E+00  0.00000000000E+00  0.12651416540E+04  0.32744293165E+04  0.30201496559E+04 0.  0.
        4    1    3    3  502    0 -0.29098657722E+03  0.64683272954E+03  0.20779522511E+04  0.21956668552E+04  0.12699999809E+01 0. -1.
       -4    1    3    3    0  502  0.29098657722E+03 -0.64683272954E+03 -0.81281059714E+03  0.10787624613E+04  0.12699999809E+01 0.  1.
</event>
<event>
 5   0  0.1345931E-05  0.2551868E+04  0.7818609E-02  0.8384737E-01
       -2   -1    0    0    0  501  0.00000000000E+00  0.00000000000E+00  0.57705275757E+03  0.57705275757E+03  0.25500000920E-02 0. -1.
        2   -1    0    0  501    0  0.00000000000E+00  0.00000000000E+00 -0.28212464543E+04  0.28212464543E+04  0.25500000920E-02 0.  1.
    10030    2    1    2    0    0  0.00000000000E+00  0.00000000000E+00 -0.22441936967E+04  0.33982992119E+04  0.25518683714E+04 0.  0.
        2    1    3    3  502    0 -0.37856918190E+03  0.93039012743E+03 -0.74311323974E+02  0.10072053354E+04  0.25500000920E-02 0. -1.
       -2    1    3    3    0  502  0.37856918190E+03 -0.93039012743E+03 -0.21698823727E+04  0.23910938765E+04  0.25500000920E-02 0.  1.
</event>
<event>
 5   0  0.5730920E-06  0.3001938E+04  0.7818609E-02  0.8243178E-01
        1   -1    0    0  501    0  0.00000000000E+00  0.00000000000E+00  0.20663305159E+04  0.20663305159E+04  0.50400001928E-02 0.  1.
       -1   -1    0    0    0  501  0.00000000000E+00  0.00000000000E+00 -0.10902940805E+04  0.10902940805E+04  0.50400001928E-02 0. -1.
    10030    2    1    2    0    0  0.00000000000E+00  0.00000000000E+00  0.97603643544E+03  0.31566245964E+04  0.30019379939E+04 0.  0.
        1    1    3    3  502    0 -0.33493967672E+03 -0.77674191869E+03  0.17918272883E+04  0.19814534127E+04  0.50400001928E-02 0.  1.
       -1    1    3    3    0  502  0.33493967672E+03  0.77674191869E+03 -0.81579085290E+03  0.11751711837E+04  0.50400001928E-02 0. -1.
</event>
<event>
 5   0  0.5522695E-06  0.2852154E+04  0.7818609E-02  0.8287257E-01
       -1   -1    0    0    0  501  0.00000000000E+00  0.00000000000E+00  0.12090947759E+04  0.12090947759E+04  0.50400001928E-02 0.  1.
        1   -1    0    0  501    0  0.00000000000E+00  0.00000000000E+00 -0.16819981228E+04  0.16819981228E+04  0.50400001928E-02 0. -1.
    10030    2    1    2    0    0  0.00000000000E+00  0.00000000000E+00 -0.47290334689E+03  0.28910928986E+04  0.28521536728E+04 0.  0.
        3    1    3    3  502    0 -0.94985068601E+03 -0.26415201626E+02 -0.13143514587E+04  0.16218612320E+04  0.10100000352E+00 0. -1.
       -3    1    3    3    0  502  0.94985068601E+03  0.26415201626E+02  0.84144811182E+03  0.12692316667E+04  0.10100000352E+00 0.  1.
</event>
<event>
 5   0  0.1345931E-05  0.2979847E+04  0.7818609E-02  0.8249509E-01
       -2   -1    0    0    0  501  0.00000000000E+00  0.00000000000E+00  0.20561151117E+04  0.20561151117E+04  0.25500000920E-02 0. -1.
        2   -1    0    0  501    0  0.00000000000E+00  0.00000000000E+00 -0.10796435426E+04  0.10796435426E+04  0.25500000920E-02 0.  1.
    10030    2    1    2    0    0  0.00000000000E+00  0.00000000000E+00  0.97647156908E+03  0.31357586542E+04  0.29798465753E+04 0.  0.
        2    1    3    3  502    0  0.66824425525E+02  0.26172379817E+03  0.20301325464E+04  0.20480241713E+04  0.25500000920E-02 0. -1.
       -2    1    3    3    0  502 -0.66824425525E+02 -0.26172379817E+03 -0.10536609773E+04  0.10877344830E+04  0.25500000920E-02 0.  1.
</event>
<event>
 5   0  0.1480547E-05  0.3025036E+04  0.7818609E-02  0.8236618E-01
        2   -1    0    0  501    0  0.00000000000E+00  0.00000000000E+00  0.17729612773E+04  0.17729612773E+04  0.25500000920E-02 0. -1.
       -2   -1    0    0    0  501  0.00000000000E+00  0.00000000000E+00 -0.12903334145E+04  0.12903334145E+04  0.25500000920E-02 0.  1.
    10030    2    1    2    0    0  0.00000000000E+00  0.00000000000E+00  0.48262786278E+03  0.30632946918E+04  0.30250363163E+04 0.  0.
        1    1    3    3  502    0 -0.61491326688E+02  0.25368086465E+03 -0.12673523953E+04  0.12939541175E+04  0.50400001928E-02 0.  1.
       -1    1    3    3    0  502  0.61491326688E+02 -0.25368086465E+03  0.17499802581E+04  0.17693405743E+04  0.50400001928E-02 0. -1.
</event>
<event>
 5   0  0.1523029E-05  0.2972858E+04  0.7818609E-02  0.8251524E-01
       -2   -1    0    0    0  501  0.00000000000E+00  0.00000000000E+00  0.15155821667E+04  0.15155821667E+04  0.25500000920E-02 0.  1.
        2   -1    0    0  501    0  0.00000000000E+00  0.00000000000E+00 -0.14578362033E+04  0.14578362033E+04  0.25500000920E-02 0. -1.
    10030    2    1    2    0    0  0.00000000000E+00  0.00000000000E+00  0.57745963432E+02  0.29734183699E+04  0.29728575826E+04 0.  0.
        5    1    3    3  502    0 -0.94306458708E+02 -0.61677675139E+03 -0.13205075964E+04  0.14605032254E+04  0.46999998093E+01 0. -1.
       -5    1    3    3    0  502  0.94306458708E+02  0.61677675139E+03  0.13782535599E+04  0.15129151445E+04  0.46999998093E+01 0.  1.
</event>
<event>
 5   0  0.5329891E-06  0.2851588E+04  0.7818609E-02  0.8287429E-01
        1   -1    0    0  501    0  0.00000000000E+00  0.00000000000E+00  0.11682103650E+04  0.11682103650E+04  0.50400001928E-02 0. -1.
       -1   -1    0    0    0  501  0.00000000000E+00  0.00000000000E+00 -0.17401736702E+04  0.17401736702E+04  0.50400001928E-02 0.  1.
    10030    2    1    2    0    0  0.00000000000E+00  0.00000000000E+00 -0.57196330520E+03  0.29083840353E+04  0.28515882722E+04 0.  0.
        4    1    3    3  502    0  0.28748545539E+03 -0.27924571134E+03  0.11095772023E+04  0.11797411729E+04  0.12699999809E+01 0. -1.
       -4    1    3    3    0  502 -0.28748545539E+03  0.27924571134E+03 -0.16815405075E+04  0.17286428624E+04  0.12699999809E+01 0.  1.
</event>
<event>
 5   0  0.5730920E-06  0.1903281E+04  0.7818609E-02  0.8653225E-01
       -1   -1    0    0    0  501  0.00000000000E+00  0.00000000000E+00  0.14083662977E+04  0.14083662977E+04  0.50400001928E-02 0.  1.
        1   -1    0    0  501    0  0.00000000000E+00  0.00000000000E+00 -0.64302853303E+03  0.64302853305E+03  0.50400001928E-02 0. -1.
    10030    2    1    2    0    0  0.00000000000E+00  0.00000000000E+00  0.76533776471E+03  0.20513948308E+04  0.19032810769E+04 0.  0.
        1    1    3    3  502    0  0.55697771911E+03 -0.59480642294E+03 -0.14711111850E+03  0.82804621946E+03  0.50400001928E-02 0. -1.
       -1    1    3    3    0  502 -0.55697771911E+03  0.59480642294E+03  0.91244888321E+03  0.12233486113E+04  0.50400001928E-02 0.  1.
</event>
<event>
 5   0  0.5522695E-06  0.2991784E+04  0.7818609E-02  0.8246081E-01
        1   -1    0    0  501    0  0.00000000000E+00  0.00000000000E+00  0.13181479940E+04  0.13181479940E+04  0.50400001928E-02 0.  1.
       -1   -1    0    0    0  501  0.00000000000E+00  0.00000000000E+00 -0.16976033602E+04  0.16976033603E+04  0.50400001928E-02 0. -1.
    10030    2    1    2    0    0  0.00000000000E+00  0.00000000000E+00 -0.37945536627E+03  0.30157513542E+04  0.29917837247E+04 0.  0.
        3    1    3    3  502    0 -0.32922937059E+03 -0.53331581101E+03  0.11794152094E+04  0.13356039754E+04  0.10100000352E+00 0.  1.
       -3    1    3    3    0  502  0.32922937059E+03  0.53331581101E+03 -0.15588705757E+04  0.16801473788E+04  0.10100000352E+00 0. -1.
</event>
<event>
 5   0  0.1423692E-05  0.2766105E+04  0.7818609E-02  0.8313869E-01
       -2   -1    0    0    0  501  0.00000000000E+00  0.00000000000E+00  0.83618630511E+03  0.83618630512E+03  0.25500000920E-02 0.  1.
        2   -1    0    0  501    0  0.00000000000E+00  0.00000000000E+00 -0.22875699720E+04  0.22875699720E+04  0.25500000920E-02 0. -1.
    10030    2    1    2    0    0  0.00000000000E+00  0.00000000000E+00 -0.14513836668E+04  0.31237562771E+04  0.27661053361E+04 0.  0.
        3    1    3    3  502    0  0.12919522235E+04 -0.27651537268E+03 -0.11875088193E+04  0.17764510984E+04  0.10100000352E+00 0. -1.
       -3    1    3    3    0  502 -0.12919522235E+04  0.27651537268E+03 -0.26387484755E+03  0.13473051786E+04  0.10100000352E+00 0.  1.
</event>
<event>
 5   0  0.1345931E-05  0.3130828E+04  0.7818609E-02  0.8207328E-01
       -2   -1    0    0    0  501  0.00000000000E+00  0.00000000000E+00  0.85268447427E+03  0.85268447428E+03  0.25500000920E-02 0. -1.
        2   -1    0    0  501    0  0.00000000000E+00  0.00000000000E+00 -0.28738893830E+04  0.28738893830E+04  0.25500000920E-02 0.  1.
    10030    2    1    2    0    0  0.00000000000E+00  0.00000000000E+00 -0.20212049087E+04  0.37265738572E+04  0.31308279146E+04 0.  0.
        2    1    3    3  502    0 -0.79698497538E+03  0.28653873838E+03  0.55643293497E+03  0.10133642537E+04  0.25500000920E-02 0. -1.
       -2    1    3    3    0  502  0.79698497538E+03 -0.28653873838E+03 -0.25776378437E+04  0.27132096035E+04  0.25500000920E-02 0.  1.
</event>
<event>
 5   0  0.5392262E-06  0.2988258E+04  0.7818609E-02  0.8247092E-01
        1   -1    0    0  501    0  0.00000000000E+00  0.00000000000E+00  0.23979999078E+04  0.23979999078E+04  0.50400001928E-02 0.  1.
       -1   -1    0    0    0  501  0.00000000000E+00  0.00000000000E+00 -0.93095168357E+03  0.93095168358E+03  0.50400001928E-02 0. -1.
    10030    2    1    2    0    0  0.00000000000E+00  0.00000000000E+00  0.14670482242E+04  0.33289515914E+04  0.29882583900E+04 0.  0.
        2    1    3    3  502    0 -0.28768985515E+03  0.67876640517E+03 -0.71423235269E+03  0.10264585424E+04  0.25500000920E-02 0. -1.
       -2    1    3    3    0  502  0.28768985515E+03 -0.67876640517E+03  0.21812805769E+04  0.23024930490E+04  0.25500000920E-02 0.  1.
</event>
<event>
 5   0  0.5392262E-06  0.2985326E+04  0.7818609E-02  0.8247934E-01
       -1   -1    0    0    0  501  0.00000000000E+00  0.00000000000E+00  0.16060427366E+04  0.16060427366E+04  0.50400001928E-02 0. -1.
        1   -1    0    0  501    0  0.00000000000E+00  0.00000000000E+00 -0.13872874367E+04  0.13872874367E+04  0.50400001928E-02 0.  1.
    10030    2    1    2    0    0  0.00000000000E+00  0.00000000000E+00  0.21875529995E+03  0.29933301733E+04  0.29853260534E+04 0.  0.
        2    1    3    3  502    0 -0.94962442372E+03  0.98404762552E+03  0.70923464504E+03  0.15405031831E+04  0.25500000920E-02 0. -1.
       -2    1    3    3    0  502  0.94962442372E+03 -0.98404762552E+03 -0.49047934509E+03  0.14528269902E+04  0.25500000920E-02 0.  1.
</event>
<event>
 5   0  0.1388724E-05  0.3023142E+04  0.7818609E-02  0.8237153E-01
       -2   -1    0    0    0  501  0.00000000000E+00  0.00000000000E+00  0.11686829948E+04  0.11686829948E+04  0.25500000920E-02 0. -1.
        2   -1    0    0  501    0  0.00000000000E+00  0.00000000000E+00 -0.19550611398E+04  0.19550611398E+04  0.25500000920E-02 0.  1.
    10030    2    1    2    0    0  0.00000000000E+00  0.00000000000E+00 -0.78637814500E+03  0.31237441346E+04  0.30231418808E+04 0.  0.
        4    1    3    3  502    0 -0.14398823473E+04  0.44923304717E+03 -0.29103775158E+03  0.15361562715E+04  0.12699999809E+01 0. -1.
       -4    1    3    3    0  502  0.14398823473E+04 -0.44923304717E+03 -0.49534039341E+03  0.15875878631E+04  0.12699999809E+01 0.  1.
</event>
<event>
 5   0  0.5522695E-06  0.3271548E+04  0.7818609E-02  0.8170173E-01
       -1   -1    0    0    0  501  0.00000000000E+00  0.00000000000E+00  0.18054312890E+04  0.18054312890E+04  0.50400001928E-02 0.  1.
        1   -1    0    0  501    0  0.00000000000E+00  0.00000000000E+00 -0.14820598398E+04  0.14820598398E+04  0.50400001928E-02 0. -1.
    10030    2    1    2    0    0  0.00000000000E+00  0.00000000000E+00  0.32337144924E+03  0.32874911288E+04  0.32715483839E+04 0.  0.
        3    1    3    3  502    0 -0.34339628063E+03 -0.53518953512E+03 -0.13527779161E+04  0.14947765534E+04  0.10100000352E+00 0. -1.
       -3    1    3    3    0  502  0.34339628063E+03  0.53518953512E+03  0.16761493653E+04  0.17927145755E+04  0.10100000352E+00 0.  1.
</event>
<event>
 5   0  0.1480547E-05  0.3078387E+04  0.7818609E-02  0.8221694E-01
        2   -1    0    0  501    0  0.00000000000E+00  0.00000000000E+00  0.16904161141E+04  0.16904161141E+04  0.25500000920E-02 0.  1.
       -2   -1    0    0    0  501  0.00000000000E+00  0.00000000000E+00 -0.14014992846E+04  0.14014992846E+04  0.25500000920E-02 0. -1.
    10030    2    1    2    0    0  0.00000000000E+00  0.00000000000E+00  0.28891682946E+03  0.30919153987E+04  0.30783872236E+04 0.  0.
        1    1    3    3  502    0  0.13167123790E+04  0.76480219700E+03 -0.81168680821E+02  0.15248745012E+04  0.50400001928E-02 0. -1.
       -1    1    3    3    0  502 -0.13167123790E+04 -0.76480219700E+03  0.37008551028E+03  0.15670408975E+04  0.50400001928E-02 0.  1.
</event>
<event>
 5   0  0.5392262E-06  0.3007253E+04  0.7818609E-02  0.8241663E-01
        1   -1    0    0  501    0  0.00000000000E+00  0.00000000000E+00  0.26332658659E+04  0.26332658659E+04  0.50400001928E-02 0.  1.
       -1   -1    0    0    0  501  0.00000000000E+00  0.00000000000E+00 -0.85858857038E+03  0.85858857040E+03  0.50400001928E-02 0. -1.
    10030    2    1    2    0    0  0.00000000000E+00  0.00000000000E+00  0.17746772955E+04  0.34918544363E+04  0.30072525503E+04 0.  0.
        2    1    3    3  502    0  0.40961009704E+03 -0.13363005886E+04  0.15311325157E+04  0.20731248094E+04  0.25500000920E-02 0.  1.
       -2    1    3    3    0  502 -0.40961009704E+03  0.13363005886E+04  0.24354477980E+03  0.14187296269E+04  0.25500000920E-02 0. -1.
</event>
<event>
 5   0  0.5329891E-06  0.2319700E+04  0.7818609E-02  0.8470194E-01
        1   -1    0    0  501    0  0.00000000000E+00  0.00000000000E+00  0.22577625767E+04  0.22577625767E+04  0.50400001928E-02 0. -1.
       -1   -1    0    0    0  501  0.00000000000E+00  0.00000000000E+00 -0.59583406707E+03  0.59583406709E+03  0.50400001928E-02 0.  1.
    10030    2    1    2    0    0  0.00000000000E+00  0.00000000000E+00  0.16619285096E+04  0.28535966438E+04  0.23196998587E+04 0.  0.
        4    1    3    3  502    0 -0.40612549563E+03 -0.53257953295E+03 -0.33390569210E+03  0.74838058582E+03  0.12699999809E+01 0.  1.
       -4    1    3    3    0  502  0.40612549563E+03  0.53257953295E+03  0.19958342017E+04  0.21052160580E+04  0.12699999809E+01 0. -1.
</event>
<event>
 5   0  0.1388724E-05  0.2755325E+04  0.7818609E-02  0.8317274E-01
       -2   -1    0    0    0  501  0.00000000000E+00  0.00000000000E+00  0.10026621318E+04  0.10026621318E+04  0.25500000920E-02 0. -1.
        2   -1    0    0  501    0  0.00000000000E+00  0.00000000000E+00 -0.18929150503E+04  0.18929150503E+04  0.25500000920E-02 0.  1.
    10030    2    1    2    0    0  0.00000000000E+00  0.00000000000E+00 -0.89025291849E+03  0.28955771821E+04  0.27553252002E+04 0.  0.
        4    1    3    3  502    0  0.47419166117E+03  0.12583604855E+04 -0.13051544756E+03  0.13510605974E+04  0.12699999809E+01 0.  1.
       -4    1    3    3    0  502 -0.47419166117E+03 -0.12583604855E+04 -0.75973747093E+03  0.15445165847E+04  0.12699999809E+01 0. -1.
</event>
<event>
 5   0  0.1345931E-05  0.2957169E+04  0.7818609E-02  0.8256068E-01
        2   -1    0    0  501    0  0.00000000000E+00  0.00000000000E+00  0.19862899838E+04  0.19862899838E+04  0.25500000920E-02 0. -1.
       -2   -1    0    0    0  501  0.00000000000E+00  0.00000000000E+00 -0.11006509230E+04  0.11006509230E+04  0.25500000920E-02 0.  1.
    10030    2    1    2    0    0  0.00000000000E+00  0.00000000000E+00  0.88563906081E+03  0.30869409068E+04  0.29571688515E+04 0.  0.
        2    1    3    3  502    0 -0.31451258378E+03 -0.36400979870E+03  0.19023135320E+04  0.19621972564E+04  0.25500000920E-02 0. -1.
       -2    1    3    3    0  502  0.31451258378E+03  0.36400979870E+03 -0.10166744712E+04  0.11247436505E+04  0.25500000920E-02 0.  1.
</event>
<event>
 5   0  0.7032692E-06  0.1518972E+04  0.7818609E-02  0.8871934E-01
       -1   -1    0    0    0  501  0.00000000000E+00  0.00000000000E+00  0.51051406744E+03  0.51051406747E+03  0.50400001928E-02 0.  1.
        1   -1    0    0  501    0  0.00000000000E+00  0.00000000000E+00 -0.11298784598E+04  0.11298784598E+04  0.50400001928E-02 0. -1.
    10030    2    1    2    0    0  0.00000000000E+00  0.00000000000E+00 -0.61936439236E+03  0.16403925273E+04  0.15189718210E+04 0.  0.
        5    1    3    3  502    0 -0.44894517871E+03  0.94696803097E+02 -0.96326886574E+03  0.10669715346E+04  0.46999998093E+01 0. -1.
       -5    1    3    3    0  502  0.44894517871E+03 -0.94696803097E+02  0.34390447338E+03  0.57342099265E+03  0.46999998093E+01 0.  1.
</event>
<event>
 5   0  0.1523029E-05  0.3067378E+04  0.7818609E-02  0.8224748E-01
       -2   -1    0    0    0  501  0.00000000000E+00  0.00000000000E+00  0.15135541467E+04  0.15135541467E+04  0.25500000920E-02 0.  1.
        2   -1    0    0  501    0  0.00000000000E+00  0.00000000000E+00 -0.15540921687E+04  0.15540921687E+04  0.25500000920E-02 0. -1.
    10030    2    1    2    0    0  0.00000000000E+00  0.00000000000E+00 -0.40538022057E+02  0.30676463154E+04  0.30673784548E+04 0.  0.
        5    1    3    3  502    0  0.48099783016E+03  0.10952498802E+04  0.93963215458E+03  0.15211383529E+04  0.46999998093E+01 0.  1.
       -5    1    3    3    0  502 -0.48099783016E+03 -0.10952498802E+04 -0.98017017664E+03  0.15465079625E+04  0.46999998093E+01 0. -1.
</event>
<event>
 5   0  0.1345931E-05  0.2976691E+04  0.7818609E-02  0.8250418E-01
        2   -1    0    0  501    0  0.00000000000E+00  0.00000000000E+00  0.19879108561E+04  0.19879108561E+04  0.25500000920E-02 0.  1.
       -2   -1    0    0    0  501  0.00000000000E+00  0.00000000000E+00 -0.11143221239E+04  0.11143221239E+04  0.25500000920E-02 0. -1.
    10030    2    1    2    0    0  0.00000000000E+00  0.00000000000E+00  0.87358873214E+03  0.31022329800E+04  0.29766914837E+04 0.  0.
        2    1    3    3  502    0 -0.10039965152E+04 -0.91737908255E+02  0.15778440888E+04  0.18724360643E+04  0.25500000920E-02 0.  1.
       -2    1    3    3    0  502  0.10039965152E+04  0.91737908255E+02 -0.70425535667E+03  0.12297969157E+04  0.25500000920E-02 0. -1.
</event>
<event>
 5   0  0.1523029E-05  0.3056987E+04  0.7818609E-02  0.8227643E-01
       -2   -1    0    0    0  501  0.00000000000E+00  0.00000000000E+00  0.14608929364E+04  0.14608929364E+04  0.25500000920E-02 0.  1.
        2   -1    0    0  501    0  0.00000000000E+00  0.00000000000E+00 -0.15992218225E+04  0.15992218225E+04  0.25500000920E-02 0. -1.
    10030    2    1    2    0    0  0.00000000000E+00  0.00000000000E+00 -0.13832888602E+03  0.30601147589E+04  0.30569866629E+04 0.  0.
        5    1    3    3  502    0 -0.86508754452E+03  0.12533311414E+04 -0.19989043326E+03  0.15359666940E+04  0.46999998093E+01 0. -1.
       -5    1    3    3    0  502  0.86508754452E+03 -0.12533311414E+04  0.61561547234E+02  0.15241480649E+04  0.46999998093E+01 0.  1.
</event>
<event>
 5   0  0.5522695E-06  0.2351892E+04  0.7818609E-02  0.8457737E-01
        1   -1    0    0  501    0  0.00000000000E+00  0.00000000000E+00  0.11347357811E+04  0.11347357811E+04  0.50400001928E-02 0. -1.
       -1   -1    0    0    0  501  0.00000000000E+00  0.00000000000E+00 -0.12186528375E+04  0.12186528375E+04  0.50400001928E-02 0.  1.
    10030    2    1    2    0    0  0.00000000000E+00  0.00000000000E+00 -0.83917056425E+02  0.23533886186E+04  0.23518919868E+04 0.  0.
        3    1    3    3  502    0  0.49523787676E+03  0.62125120077E+03 -0.90947929123E+03  0.12076283370E+04  0.10100000352E+00 0.  1.
       -3    1    3    3    0  502 -0.49523787676E+03 -0.62125120077E+03  0.82556223481E+03  0.11457602816E+04  0.10100000352E+00 0. -1.
</event>
<event>
 5   0  0.1480547E-05  0.3032326E+04  0.7818609E-02  0.8234560E-01
        2   -1    0    0  501    0  0.00000000000E+00  0.00000000000E+00  0.18383637533E+04  0.18383637533E+04  0.25500000920E-02 0.  1.
       -2   -1    0    0    0  501  0.00000000000E+00  0.00000000000E+00 -0.12504330788E+04  0.12504330788E+04  0.25500000920E-02 0. -1.
    10030    2    1    2    0    0  0.00000000000E+00  0.00000000000E+00  0.58793067450E+03  0.30887968321E+04  0.30323263993E+04 0.  0.
        1    1    3    3  502    0  0.17211030093E+03  0.38261996686E+03 -0.11901267940E+04  0.12619119544E+04  0.50400001928E-02 0. -1.
       -1    1    3    3    0  502 -0.17211030093E+03 -0.38261996686E+03  0.17780574685E+04  0.18268848777E+04  0.50400001928E-02 0.  1.
</event>
<event>
 5   0  0.5522695E-06  0.2789584E+04  0.7818609E-02  0.8306509E-01
        1   -1    0    0  501    0  0.00000000000E+00  0.00000000000E+00  0.18529466030E+04  0.18529466031E+04  0.50400001928E-02 0.  1.
       -1   -1    0    0    0  501  0.00000000000E+00  0.00000000000E+00 -0.10499198414E+04  0.10499198414E+04  0.50400001928E-02 0. -1.
    10030    2    1    2    0    0  0.00000000000E+00  0.00000000000E+00  0.80302676164E+03  0.29028664445E+04  0.27895844878E+04 0.  0.
        3    1    3    3  502    0 -0.58424663964E+03  0.12002355335E+04 -0.19304434245E+02  0.13350214018E+04  0.10100000352E+00 0.  1.
       -3    1    3    3    0  502  0.58424663964E+03 -0.12002355335E+04  0.82233119589E+03  0.15678450427E+04  0.10100000352E+00 0. -1.
</event>
<event>
 5   0  0.1345931E-05  0.2907901E+04  0.7818609E-02  0.8270531E-01
        2   -1    0    0  501    0  0.00000000000E+00  0.00000000000E+00  0.22161481543E+04  0.22161481543E+04  0.25500000920E-02 0.  1.
       -2   -1    0    0    0  501  0.00000000000E+00  0.00000000000E+00 -0.95389468859E+03  0.95389468859E+03  0.25500000920E-02 0. -1.
    10030    2    1    2    0    0  0.00000000000E+00  0.00000000000E+00  0.12622534658E+04  0.31700428429E+04  0.29079009292E+04 0.  0.
        2    1    3    3  502    0  0.12580963802E+04 -0.18747104700E+03  0.13989038159E+04  0.18907363067E+04  0.25500000920E-02 0.  1.
       -2    1    3    3    0  502 -0.12580963802E+04  0.18747104700E+03 -0.13665035012E+03  0.12793065362E+04  0.25500000920E-02 0. -1.
</event>
<event>
 5   0  0.1423692E-05  0.2971567E+04  0.7818609E-02  0.8251897E-01
       -2   -1    0    0    0  501  0.00000000000E+00  0.00000000000E+00  0.99325937141E+03  0.99325937142E+03  0.25500000920E-02 0. -1.
        2   -1    0    0  501    0  0.00000000000E+00  0.00000000000E+00 -0.22225342139E+04  0.22225342139E+04  0.25500000920E-02 0.  1.
    10030    2    1    2    0    0  0.00000000000E+00  0.00000000000E+00 -0.12292748425E+04  0.32157935853E+04  0.29715672204E+04 0.  0.
        3    1    3    3  502    0  0.67854375607E+03 -0.10115568608E+03  0.81159356017E+03  0.10627032600E+04  0.10100000352E+00 0. -1.
       -3    1    3    3    0  502 -0.67854375607E+03  0.10115568608E+03 -0.20408684027E+04  0.21530903253E+04  0.10100000352E+00 0.  1.
</event>
<event>
 5   0  0.1480547E-05  0.3029122E+04  0.7818609E-02  0.8235463E-01
        2   -1    0    0  501    0  0.00000000000E+00  0.00000000000E+00  0.16156765784E+04  0.16156765784E+04  0.25500000920E-02 0.  1.
       -2   -1    0    0    0  501  0.00000000000E+00  0.00000000000E+00 -0.14197738057E+04  0.14197738057E+04  0.25500000920E-02 0. -1.
    10030    2    1    2    0    0  0.00000000000E+00  0.00000000000E+00  0.19590277275E+03  0.30354503841E+04  0.30291221728E+04 0.  0.
        1    1    3    3  502    0  0.28377082998E+03  0.14877349434E+04  0.94183386899E+02  0.15174820118E+04  0.50400001928E-02 0. -1.
       -1    1    3    3    0  502 -0.28377082998E+03 -0.14877349434E+04  0.10171938585E+03  0.15179683723E+04  0.50400001928E-02 0.  1.
</event>
<event>
 5   0  0.1523029E-05  0.3002407E+04  0.7818609E-02  0.8243044E-01
        2   -1    0    0  501    0  0.00000000000E+00  0.00000000000E+00  0.23856518867E+04  0.23856518867E+04  0.25500000920E-02 0. -1.
       -2   -1    0    0    0  501  0.00000000000E+00  0.00000000000E+00 -0.94465272462E+03  0.94465272462E+03  0.25500000920E-02 0.  1.
    10030    2    1    2    0    0  0.00000000000E+00  0.00000000000E+00  0.14409991621E+04  0.33303046114E+04  0.30024074039E+04 0.  0.
        5    1    3    3  502    0 -0.36842041445E+03  0.98737734135E+03  0.19063409411E+04  0.21782574434E+04  0.46999998093E+01 0. -1.
       -5    1    3    3    0  502  0.36842041445E+03 -0.98737734135E+03 -0.46534177896E+03  0.11520471680E+04  0.46999998093E+01 0.  1.
</event>
<event>
 5   0  0.5329891E-06  0.2424059E+04  0.7818609E-02  0.8430551E-01
        1   -1    0    0  501    0  0.00000000000E+00  0.00000000000E+00  0.12165086765E+04  0.12165086765E+04  0.50400001928E-02 0.  1.
       -1   -1    0    0    0  501  0.00000000000E+00  0.00000000000E+00 -0.12075672579E+04  0.12075672579E+04  0.50400001928E-02 0. -1.
    10030    2    1    2    0    0  0.00000000000E+00  0.00000000000E+00  0.89414185583E+01  0.24240759344E+04  0.24240594438E+04 0.  0.
        4    1    3    3  502    0  0.58336193818E+03  0.88979804851E+03  0.58495955540E+03  0.12141791517E+04  0.12699999809E+01 0.  1.
       -4    1    3    3    0  502 -0.58336193818E+03 -0.88979804851E+03 -0.57601813684E+03  0.12098967828E+04  0.12699999809E+01 0. -1.
</event>
<event>
 5   0  0.7032692E-06  0.2956312E+04  0.7818609E-02  0.8256317E-01
        1   -1    0    0  501    0  0.00000000000E+00  0.00000000000E+00  0.21317042281E+04  0.21317042281E+04  0.50400001928E-02 0. -1.
       -1   -1    0    0    0  501  0.00000000000E+00  0.00000000000E+00 -0.10249758156E+04  0.10249758156E+04  0.50400001928E-02 0.  1.
    10030    2    1    2    0    0  0.00000000000E+00  0.00000000000E+00  0.11067284125E+04  0.31566800437E+04  0.29563120808E+04 0.  0.
        5    1    3    3  502    0 -0.10734514013E+04  0.70881308683E+03 -0.22414215641E+03  0.13057471805E+04  0.46999998093E+01 0.  1.
       -5    1    3    3    0  502  0.10734514013E+04 -0.70881308683E+03  0.13308705689E+04  0.18509328632E+04  0.46999998093E+01 0. -1.
</event>
<event>
 5   0  0.1388724E-05  0.2706510E+04  0.7818609E-02  0.8332896E-01
       -2   -1    0    0    0  501  0.00000000000E+00  0.00000000000E+00  0.11232632783E+04  0.11232632783E+04  0.25500000920E-02 0.  1.
        2   -1    0    0  501    0  0.00000000000E+00  0.00000000000E+00 -0.16303379768E+04  0.16303379768E+04  0.25500000920E-02 0. -1.
    10030    2    1    2    0    0  0.00000000000E+00  0.00000000000E+00 -0.50707469853E+03  0.27536012551E+04  0.27065097676E+04 0.  0.
        4    1    3    3  502    0  0.48176590709E+03  0.57233985288E+03  0.89374715987E+03  0.11655285904E+04  0.12699999809E+01 0.  1.
       -4    1    3    3    0  502 -0.48176590709E+03 -0.57233985288E+03 -0.14008218584E+04  0.15880726647E+04  0.12699999809E+01 0. -1.
</event>
<event>
 5   0  0.5329891E-06  0.3045431E+04  0.7818609E-02  0.8230876E-01
        1   -1    0    0  501    0  0.00000000000E+00  0.00000000000E+00  0.11397248827E+04  0.11397248827E+04  0.50400001928E-02 0. -1.
       -1   -1    0    0    0  501  0.00000000000E+00  0.00000000000E+00 -0.20344048322E+04  0.20344048322E+04  0.50400001928E-02 0.  1.
    10030    2    1    2    0    0  0.00000000000E+00  0.00000000000E+00 -0.89467994953E+03  0.31741297149E+04  0.30454305501E+04 0.  0.
        4    1    3    3  502    0  0.12950903305E+04 -0.68722352399E+03 -0.87596739693E+03  0.17078804494E+04  0.12699999809E+01 0.  1.
       -4    1    3    3    0  502 -0.12950903305E+04  0.68722352399E+03 -0.18712552601E+02  0.14662492655E+04  0.12699999809E+01 0. -1.
</event>
<event>
 5   0  0.5730920E-06  0.2883155E+04  0.7818609E-02  0.8277907E-01
       -1   -1    0    0    0  501  0.00000000000E+00  0.00000000000E+00  0.17763824157E+04  0.17763824157E+04  0.50400001928E-02 0.  1.
        1   -1    0    0  501    0  0.00000000000E+00  0.00000000000E+00 -0.11698754061E+04  0.11698754061E+04  0.50400001928E-02 0. -1.
    10030    2    1    2    0    0  0.00000000000E+00  0.00000000000E+00  0.60650700956E+03  0.29462578218E+04  0.28831552854E+04 0.  0.
        1    1    3    3  502    0  0.13360113364E+03 -0.89993267503E+03 -0.83944149243E+03  0.12378974520E+04  0.50400001928E-02 0. -1.
       -1    1    3    3    0  502 -0.13360113364E+03  0.89993267503E+03  0.14459485020E+04  0.17083603698E+04  0.50400001928E-02 0.  1.
</event>
<event>
 5   0  0.1480547E-05  0.2970196E+04  0.7818609E-02  0.8252293E-01
        2   -1    0    0  501    0  0.00000000000E+00  0.00000000000E+00  0.23901539674E+04  0.23901539674E+04  0.25500000920E-02 0.  1.
       -2   -1    0    0    0  501  0.00000000000E+00  0.00000000000E+00 -0.92275081305E+03  0.92275081306E+03  0.25500000920E-02 0. -1.
    10030    2    1    2    0    0  0.00000000000E+00  0.00000000000E+00  0.14674031544E+04  0.33129047805E+04  0.29701963011E+04 0.  0.
        1    1    3    3  502    0  0.12365966505E+04  0.79336201827E+03  0.97530986087E+03  0.17634692776E+04  0.50400001928E-02 0. -1.
       -1    1    3    3    0  502 -0.12365966505E+04 -0.79336201827E+03  0.49209329349E+03  0.15494355029E+04  0.50400001928E-02 0.  1.
</event>
<event>
 5   0  0.7032692E-06  0.2949757E+04  0.7818609E-02  0.8258225E-01
       -1   -1    0    0    0  501  0.00000000000E+00  0.00000000000E+00  0.13100724647E+04  0.13100724647E+04  0.50400001928E-02 0.  1.
        1   -1    0    0  501    0  0.00000000000E+00  0.00000000000E+00 -0.16604172539E+04  0.16604172539E+04  0.50400001928E-02 0. -1.
    10030    2    1    2    0    0  0.00000000000E+00  0.00000000000E+00 -0.35034478914E+03  0.29704897186E+04  0.29497572268E+04 0.  0.
        5    1    3    3  502    0 -0.14171115568E+04  0.31599785642E+03 -0.43619493942E+03  0.15160303180E+04  0.46999998093E+01 0. -1.
       -5    1    3    3    0  502  0.14171115568E+04 -0.31599785642E+03  0.85850150286E+02  0.14544594006E+04  0.46999998093E+01 0.  1.
</event>
<event>
 5   0  0.1388724E-05  0.2996903E+04  0.7818609E-02  0.8244616E-01
       -2   -1    0    0    0  501  0.00000000000E+00  0.00000000000E+00  0.13958268157E+04  0.13958268157E+04  0.25500000920E-02 0.  1.
        2   -1    0    0  501    0  0.00000000000E+00  0.00000000000E+00 -0.16086214359E+04  0.16086214359E+04  0.25500000920E-02 0. -1.
    10030    2    1    2    0    0  0.00000000000E+00  0.00000000000E+00 -0.21279462019E+03  0.30044482517E+04  0.29969030259E+04 0.  0.
        4    1    3    3  502    0 -0.37389470743E+03  0.85213285649E+03  0.10710500600E+04  0.14188296238E+04  0.12699999809E+01 0.  1.
       -4    1    3    3    0  502  0.37389470743E+03 -0.85213285649E+03 -0.12838446802E+04  0.15856186279E+04  0.12699999809E+01 0. -1.
</event>
<event>
 5   0  0.1480547E-05  0.3001579E+04  0.7818609E-02  0.8243280E-01
        2   -1    0    0  501    0  0.00000000000E+00  0.00000000000E+00  0.14310584063E+04  0.14310584063E+04  0.25500000920E-02 0.  1.
       -2   -1    0    0    0  501  0.00000000000E+00  0.00000000000E+00 -0.15739180722E+04  0.15739180722E+04  0.25500000920E-02 0. -1.
    10030    2    1    2    0    0  0.00000000000E+00  0.00000000000E+00 -0.14285966585E+03  0.30049764785E+04  0.30015787100E+04 0.  0.
        1    1    3    3  502    0 -0.66028670242E+03  0.39287604930E+03 -0.13620899481E+04  0.15638475457E+04  0.50400001928E-02 0. -1.
       -1    1    3    3    0  502  0.66028670242E+03 -0.39287604930E+03  0.12192302823E+04  0.14411289327E+04  0.50400001928E-02 0.  1.
</event>
<event>
 5   0  0.1423692E-05  0.2913277E+04  0.7818609E-02  0.8268938E-01
        2   -1    0    0  501    0  0.00000000000E+00  0.00000000000E+00  0.23629558820E+04  0.23629558820E+04  0.25500000920E-02 0. -1.
       -2   -1    0    0    0  501  0.00000000000E+00  0.00000000000E+00 -0.89794126708E+03  0.89794126709E+03  0.25500000920E-02 0.  1.
    10030    2    1    2    0    0  0.00000000000E+00  0.00000000000E+00  0.14650146149E+04  0.32608971491E+04  0.29132769170E+04 0.  0.
        3    1    3    3  502    0  0.28642501526E+03  0.13762446276E+04  0.11597705948E+04  0.18224040186E+04  0.10100000352E+00 0. -1.
       -3    1    3    3    0  502 -0.28642501526E+03 -0.13762446276E+04  0.30524402016E+03  0.14384931305E+04  0.10100000352E+00 0.  1.
</event>
<event>
 5   0  0.1345931E-05  0.2992945E+04  0.7818609E-02  0.8245748E-01
       -2   -1    0    0    0  501  0.00000000000E+00  0.00000000000E+00  0.16690617322E+04  0.16690617322E+04  0.25500000920E-02 0. -1.
        2   -1    0    0  501    0  0.00000000000E+00  0.00000000000E+00 -0.13417298767E+04  0.13417298767E+04  0.25500000920E-02 0.  1.
    10030    2    1    2    0    0  0.00000000000E+00  0.00000000000E+00  0.32733185546E+03  0.30107916089E+04  0.29929450327E+04 0.  0.
        2    1    3    3  502    0 -0.42563733622E+03  0.12276612242E+03 -0.12742598673E+04  0.13490651846E+04  0.25500000920E-02 0.  1.
       -2    1    3    3    0  502  0.42563733622E+03 -0.12276612242E+03  0.16015917228E+04  0.16617264243E+04  0.25500000920E-02 0. -1.
</event>
<event>
 5   0  0.1480547E-05  0.2134145E+04  0.7818609E-02  0.8546350E-01
        2   -1    0    0  501    0  0.00000000000E+00  0.00000000000E+00  0.11861088310E+04  0.11861088310E+04  0.25500000920E-02 0. -1.
       -2   -1    0    0    0  501  0.00000000000E+00  0.00000000000E+00 -0.95998235848E+03  0.95998235848E+03  0.25500000920E-02 0.  1.
    10030    2    1    2    0    0  0.00000000000E+00  0.00000000000E+00  0.22612647256E+03  0.21460911895E+04  0.21341448433E+04 0.  0.
        1    1    3    3  502    0 -0.96784875873E+03 -0.21165755413E+02  0.56442355684E+03  0.11206039267E+04  0.50400001928E-02 0. -1.
       -1    1    3    3    0  502  0.96784875873E+03  0.21165755413E+02 -0.33829708428E+03  0.10254872628E+04  0.50400001928E-02 0.  1.
</event>
<event>
 5   0  0.1423692E-05  0.2302248E+04  0.7818609E-02  0.8477035E-01
       -2   -1    0    0    0  501  0.00000000000E+00  0.00000000000E+00  0.84020428288E+03  0.84020428288E+03  0.25500000920E-02 0. -1.
        2   -1    0    0  501    0  0.00000000000E+00  0.00000000000E+00 -0.15770999180E+04  0.15770999180E+04  0.25500000920E-02 0.  1.
    10030    2    1    2    0    0  0.00000000000E+00  0.00000000000E+00 -0.73689563509E+03  0.24173042009E+04  0.23022476892E+04 0.  0.
        3    1    3    3  502    0 -0.11159432534E+04  0.13792042432E+03 -0.10968746644E+03  0.11297711002E+04  0.10100000352E+00 0. -1.
       -3    1    3    3    0  502  0.11159432534E+04 -0.13792042432E+03 -0.62720816865E+03  0.12875331007E+04  0.10100000352E+00 0.  1.
</event>
<event>
 5   0  0.1345931E-05  0.2129442E+04  0.7818609E-02  0.8548384E-01
        2   -1    0    0  501    0  0.00000000000E+00  0.00000000000E+00  0.16254417184E+04  0.16254417184E+04  0.25500000920E-02 0.  1.
       -2   -1    0    0    0  501  0.00000000000E+00  0.00000000000E+00 -0.69742959395E+03  0.69742959396E+03  0.25500000920E-02 0. -1.
    10030    2    1    2    0    0  0.00000000000E+00  0.00000000000E+00  0.92801212445E+03  0.23228713124E+04  0.21294423286E+04 0.  0.
        2    1    3    3  502    0 -0.67050882728E+03 -0.31261488098E+03 -0.37126415233E+03  0.82773620319E+03  0.25500000920E-02 0. -1.
       -2    1    3    3    0  502  0.67050882728E+03  0.31261488098E+03  0.12992762768E+04  0.14951351092E+04  0.25500000920E-02 0.  1.
</event>
<event>
 5   0  0.5522695E-06  0.2976299E+04  0.7818609E-02  0.8250531E-01
        1   -1    0    0  501    0  0.00000000000E+00  0.00000000000E+00  0.20330663481E+04  0.20330663481E+04  0.50400001928E-02 0. -1.
       -1   -1    0    0    0  501  0.00000000000E+00  0.00000000000E+00 -0.10892851448E+04  0.10892851448E+04  0.50400001928E-02 0.  1.
    10030    2    1    2    0    0  0.00000000000E+00  0.00000000000E+00  0.94378120326E+03  0.31223514929E+04  0.29762990249E+04 0.  0.
        3    1    3    3  502    0 -0.14684866010E+04 -0.12577822244E+03  0.68769338140E+03  0.16264056245E+04  0.10100000352E+00 0.  1.
       -3    1    3    3    0  502  0.14684866010E+04  0.12577822244E+03  0.25608782186E+03  0.14959458684E+04  0.10100000352E+00 0. -1.
</event>
<event>
 5   0  0.5730920E-06  0.2960519E+04  0.7818609E-02  0.8255096E-01
       -1   -1    0    0    0  501  0.00000000000E+00  0.00000000000E+00  0.13436989657E+04  0.13436989657E+04  0.50400001928E-02 0.  1.
        1   -1    0    0  501    0  0.00000000000E+00  0.00000000000E+00 -0.16306988341E+04  0.16306988341E+04  0.50400001928E-02 0. -1.
    10030    2    1    2    0    0  0.00000000000E+00  0.00000000000E+00 -0.28699986838E+03  0.29743977998E+04  0.29605191009E+04 0.  0.
        1    1    3    3  502    0 -0.67066800370E+03 -0.49272465891E+03  0.10864101118E+04  0.13685247866E+04  0.50400001928E-02 0.  1.
       -1    1    3    3    0  502  0.67066800370E+03  0.49272465891E+03 -0.13734099802E+04  0.16058730131E+04  0.50400001928E-02 0. -1.
</event>
<event>
 5   0  0.1345931E-05  0.3011946E+04  0.7818609E-02  0.8240328E-01
       -2   -1    0    0    0  501  0.00000000000E+00  0.00000000000E+00  0.98335418836E+03  0.98335418836E+03  0.25500000920E-02 0. -1.
        2   -1    0    0  501    0  0.00000000000E+00  0.00000000000E+00 -0.23063462945E+04  0.23063462945E+04  0.25500000920E-02 0.  1.
    10030    2    1    2    0    0  0.00000000000E+00  0.00000000000E+00 -0.13229921061E+04  0.32897004828E+04  0.30119464062E+04 0.  0.
        2    1    3    3  502    0  0.39783741124E+03  0.15176216849E+03 -0.22392301519E+04  0.22793547409E+04  0.25500000920E-02 0.  1.
       -2    1    3    3    0  502 -0.39783741124E+03 -0.15176216849E+03  0.91623804583E+03  0.10103457419E+04  0.25500000920E-02 0. -1.
</event>
<event>
 5   0  0.1523029E-05  0.2818101E+04  0.7818609E-02  0.8297671E-01
       -2   -1    0    0    0  501  0.00000000000E+00  0.00000000000E+00  0.11812889020E+04  0.11812889020E+04  0.25500000920E-02 0.  1.
        2   -1    0    0  501    0  0.00000000000E+00  0.00000000000E+00 -0.16807261807E+04  0.16807261807E+04  0.25500000920E-02 0. -1.
    10030    2    1    2    0    0  0.00000000000E+00  0.00000000000E+00 -0.49943727870E+03  0.28620150828E+04  0.28181009100E+04 0.  0.
        5    1    3    3  502    0 -0.78746778300E+03  0.78930017542E+03  0.62527591008E+03  0.12783162089E+04  0.46999998093E+01 0.  1.
       -5    1    3    3    0  502  0.78746778300E+03 -0.78930017542E+03 -0.11247131888E+04  0.15836988739E+04  0.46999998093E+01 0. -1.
</event>
<event>
 5   0  0.1523029E-05  0.3111999E+04  0.7818609E-02  0.8212453E-01
        2   -1    0    0  501    0  0.00000000000E+00  0.00000000000E+00  0.11012533858E+04  0.11012533858E+04  0.25500000920E-02 0.  1.
       -2   -1    0    0    0  501  0.00000000000E+00  0.00000000000E+00 -0.21985258161E+04  0.21985258161E+04  0.25500000920E-02 0. -1.
    10030    2    1    2    0    0  0.00000000000E+00  0.00000000000E+00 -0.10972724303E+04  0.32997792019E+04  0.31119987138E+04 0.  0.
        5    1    3    3  502    0 -0.11740467231E+04 -0.51233927943E+03 -0.14852447101E+04  0.19613391303E+04  0.46999998093E+01 0. -1.
       -5    1    3    3    0  502  0.11740467231E+04  0.51233927943E+03  0.38797227978E+03  0.13384400715E+04  0.46999998093E+01 0.  1.
</event>
<event>
 5   0  0.5329891E-06  0.3055386E+04  0.7818609E-02  0.8228090E-01
        1   -1    0    0  501    0  0.00000000000E+00  0.00000000000E+00  0.14445220144E+04  0.14445220144E+04  0.50400001928E-02 0. -1.
       -1   -1    0    0    0  501  0.00000000000E+00  0.00000000000E+00 -0.16156525377E+04  0.16156525377E+04  0.50400001928E-02 0.  1.
    10030    2    1    2    0    0  0.00000000000E+00  0.00000000000E+00 -0.17113052329E+03  0.30601745520E+04  0.30553858403E+04 0.  0.
        4    1    3    3  502    0 -0.72492891759E+02  0.88958650158E+03  0.11562266083E+04  0.14606440175E+04  0.12699999809E+01 0. -1.
       -4    1    3    3    0  502  0.72492891759E+02 -0.88958650158E+03 -0.13273571316E+04  0.15995305345E+04  0.12699999809E+01 0.  1.
</event>
<event>
 5   0  0.4806125E-06  0.2928411E+04  0.7818609E-02  0.8264474E-01
       -3   -1    0    0    0  501  0.00000000000E+00  0.00000000000E+00  0.11608529943E+04  0.11608529987E+04  0.10100000352E+00 0.  1.
        3   -1    0    0  501    0  0.00000000000E+00  0.00000000000E+00 -0.18468291561E+04  0.18468291589E+04  0.10100000352E+00 0. -1.
    10030    2    1    2    0    0  0.00000000000E+00  0.00000000000E+00 -0.68597616177E+03  0.30076821576E+04  0.29284106042E+04 0.  0.
        2    1    3    3  502    0  0.86881000306E+03  0.24962972559E+03 -0.15260153000E+04  0.17736596396E+04  0.25500000920E-02 0. -1.
       -2    1    3    3    0  502 -0.86881000306E+03 -0.24962972559E+03  0.84003913819E+03  0.12340225180E+04  0.25500000920E-02 0.  1.
</event>
<event>
 5   0  0.1480547E-05  0.3045198E+04  0.7818609E-02  0.8230941E-01
        2   -1    0    0  501    0  0.00000000000E+00  0.00000000000E+00  0.20104247528E+04  0.20104247528E+04  0.25500000920E-02 0.  1.
       -2   -1    0    0    0  501  0.00000000000E+00  0.00000000000E+00 -0.11531433209E+04  0.11531433209E+04  0.25500000920E-02 0. -1.
    10030    2    1    2    0    0  0.00000000000E+00  0.00000000000E+00  0.85728143190E+03  0.31635680738E+04  0.30451981059E+04 0.  0.
        1    1    3    3  502    0 -0.10078997506E+04 -0.98625268303E+03 -0.16792061363E+03  0.14201244997E+04  0.50400001928E-02 0.  1.
       -1    1    3    3    0  502  0.10078997506E+04  0.98625268303E+03  0.10252020455E+04  0.17434435741E+04  0.50400001928E-02 0. -1.
</event>
<event>
 5   0  0.1388724E-05  0.2996297E+04  0.7818609E-02  0.8244789E-01
        2   -1    0    0  501    0  0.00000000000E+00  0.00000000000E+00  0.13267205876E+04  0.13267205876E+04  0.25500000920E-02 0. -1.
       -2   -1    0    0    0  501  0.00000000000E+00  0.00000000000E+00 -0.16917268026E+04  0.16917268026E+04  0.25500000920E-02 0.  1.
    10030    2    1    2    0    0  0.00000000000E+00  0.00000000000E+00 -0.36500621505E+03  0.30184473902E+04  0.29962968996E+04 0.  0.
        4    1    3    3  502    0 -0.67826976778E+03  0.14809465405E+03  0.11548899012E+04  0.13474992398E+04  0.12699999809E+01 0. -1.
       -4    1    3    3    0  502  0.67826976778E+03 -0.14809465405E+03 -0.15198961162E+04  0.16709481504E+04  0.12699999809E+01 0.  1.
</event>
<event>
 5   0  0.1345931E-05  0.2972080E+04  0.7818609E-02  0.8251749E-01
        2   -1    0    0  501    0  0.00000000000E+00  0.00000000000E+00  0.13544054460E+04  0.13544054460E+04  0.25500000920E-02 0. -1.
       -2   -1    0    0    0  501  0.00000000000E+00  0.00000000000E+00 -0.16304677348E+04  0.16304677348E+04  0.25500000920E-02 0.  1.
    10030    2    1    2    0    0  0.00000000000E+00  0.00000000000E+00 -0.27606228882E+03  0.29848731808E+04  0.29720796621E+04 0.  0.
        2    1    3    3  502    0 -0.69845857502E+03 -0.13091257101E+04 -0.21999048139E+03  0.15000167725E+04  0.25500000920E-02 0. -1.
       -2    1    3    3    0  502  0.69845857502E+03  0.13091257101E+04 -0.56071807428E+02  0.14848564083E+04  0.25500000920E-02 0.  1.
</event>
<event>
 5   0  0.1345931E-05  0.2395050E+04  0.7818609E-02  0.8441359E-01
       -2   -1    0    0    0  501  0.00000000000E+00  0.00000000000E+00  0.80102000218E+03  0.80102000219E+03  0.25500000920E-02 0. -1.
        2   -1    0    0  501    0  0.00000000000E+00  0.00000000000E+00 -0.17902996508E+04  0.17902996508E+04  0.25500000920E-02 0.  1.
    10030    2    1    2    0    0  0.00000000000E+00  0.00000000000E+00 -0.98927964861E+03  0.25913196530E+04  0.23950497533E+04 0.  0.
        2    1    3    3  502    0 -0.74532009254E+03  0.92558848751E+03 -0.33470994770E+03  0.12346039193E+04  0.25500000920E-02 0. -1.
       -2    1    3    3    0  502  0.74532009254E+03 -0.92558848751E+03 -0.65456970091E+03  0.13567157336E+04  0.25500000920E-02 0.  1.
</event>
<event>
 5   0  0.5392262E-06  0.1944641E+04  0.7818609E-02  0.8632949E-01
       -1   -1    0    0    0  501  0.00000000000E+00  0.00000000000E+00  0.76657803945E+03  0.76657803947E+03  0.50400001928E-02 0. -1.
        1   -1    0    0  501    0  0.00000000000E+00  0.00000000000E+00 -0.12332827518E+04  0.12332827519E+04  0.50400001928E-02 0.  1.
    10030    2    1    2    0    0  0.00000000000E+00  0.00000000000E+00 -0.46670471240E+03  0.19998607913E+04  0.19446413284E+04 0.  0.
        2    1    3    3  502    0 -0.35144937717E+03  0.24556465353E+03 -0.11308235786E+04  0.12093719981E+04  0.25500000920E-02 0.  1.
       -2    1    3    3    0  502  0.35144937717E+03 -0.24556465353E+03  0.66411886622E+03  0.79048879325E+03  0.25500000920E-02 0. -1.
</event>
<event>
 5   0  0.5522695E-06  0.2908381E+04  0.7818609E-02  0.8270388E-01
       -1   -1    0    0    0  501  0.00000000000E+00  0.00000000000E+00  0.10015508184E+04  0.10015508184E+04  0.50400001928E-02 0.  1.
        1   -1    0    0  501    0  0.00000000000E+00  0.00000000000E+00 -0.21113960587E+04  0.21113960587E+04  0.50400001928E-02 0. -1.
    10030    2    1    2    0    0  0.00000000000E+00  0.00000000000E+00 -0.11098452403E+04  0.31129468771E+04  0.29083813027E+04 0.  0.
        3    1    3    3  502    0 -0.12101059283E+04 -0.32513205730E+03 -0.13448014442E+04  0.18380854570E+04  0.10100000352E+00 0. -1.
       -3    1    3    3    0  502  0.12101059283E+04  0.32513205730E+03  0.23495620390E+03  0.12748614201E+04  0.10100000352E+00 0.  1.
</event>
<event>
 5   0  0.1523029E-05  0.2932871E+04  0.7818609E-02  0.8263164E-01
       -2   -1    0    0    0  501  0.00000000000E+00  0.00000000000E+00  0.11427867916E+04  0.11427867916E+04  0.25500000920E-02 0. -1.
        2   -1    0    0  501    0  0.00000000000E+00  0.00000000000E+00 -0.18817449035E+04  0.18817449035E+04  0.25500000920E-02 0.  1.
    10030    2    1    2    0    0  0.00000000000E+00  0.00000000000E+00 -0.73895811185E+03  0.30245316951E+04  0.29328710990E+04 0.  0.
        5    1    3    3  502    0  0.47464926722E+03  0.33592582766E+02  0.10609510862E+04  0.11627810137E+04  0.46999998093E+01 0. -1.
       -5    1    3    3    0  502 -0.47464926722E+03 -0.33592582766E+02 -0.17999091980E+04  0.18617506814E+04  0.46999998093E+01 0.  1.
</event>
<event>
 5   0  0.1480547E-05  0.2965618E+04  0.7818609E-02  0.8253618E-01
        2   -1    0    0  501    0  0.00000000000E+00  0.00000000000E+00  0.25445296934E+04  0.25445296934E+04  0.25500000920E-02 0. -1.
       -2   -1    0    0    0  501  0.00000000000E+00  0.00000000000E+00 -0.86409775025E+03  0.86409775026E+03  0.25500000920E-02 0.  1.
    10030    2    1    2    0    0  0.00000000000E+00  0.00000000000E+00  0.16804319431E+04  0.34086274436E+04  0.29656179009E+04 0.  0.
        1    1    3    3  502    0 -0.57241200855E+03 -0.13379024797E+04  0.11675050180E+04  0.18656651682E+04  0.50400001928E-02 0.  1.
       -1    1    3    3    0  502  0.57241200855E+03  0.13379024797E+04  0.51292692508E+03  0.15429622754E+04  0.50400001928E-02 0. -1.
</event>
<event>
 5   0  0.5329891E-06  0.2766333E+04  0.7818609E-02  0.8313797E-01
       -1   -1    0    0    0  501  0.00000000000E+00  0.00000000000E+00  0.84819065038E+03  0.84819065040E+03  0.50400001928E-02 0. -1.
        1   -1    0    0  501    0  0.00000000000E+00  0.00000000000E+00 -0.22555660018E+04  0.22555660018E+04  0.50400001928E-02 0.  1.
    10030    2    1    2    0    0  0.00000000000E+00  0.00000000000E+00 -0.14073753514E+04  0.31037566522E+04  0.27663333089E+04 0.  0.
        4    1    3    3  502    0 -0.11055225627E+04  0.46955681728E+03 -0.14732714135E+04  0.19008403437E+04  0.12699999809E+01 0.  1.
       -4    1    3    3    0  502  0.11055225627E+04 -0.46955681728E+03  0.65896062170E+02  0.12029163085E+04  0.12699999809E+01 0. -1.
</event>
<event>
 5   0  0.5522695E-06  0.1985629E+04  0.7818609E-02  0.8613369E-01
       -1   -1    0    0    0  501  0.00000000000E+00  0.00000000000E+00  0.48497102222E+03  0.48497102224E+03  0.50400001928E-02 0.  1.
        1   -1    0    0  501    0  0.00000000000E+00  0.00000000000E+00 -0.20324519262E+04  0.20324519262E+04  0.50400001928E-02 0. -1.
    10030    2    1    2    0    0  0.00000000000E+00  0.00000000000E+00 -0.15474809040E+04  0.25174229485E+04  0.19856286544E+04 0.  0.
        3    1    3    3  502    0 -0.13954982253E+03 -0.44576299655E+02  0.47119265257E+03  0.49344070110E+03  0.10100000352E+00 0.  1.
       -3    1    3    3    0  502  0.13954982253E+03  0.44576299655E+02 -0.20186735566E+04  0.20239822474E+04  0.10100000352E+00 0. -1.
</event>
<event>
 5   0  0.1523029E-05  0.3001923E+04  0.7818609E-02  0.8243182E-01
        2   -1    0    0  501    0  0.00000000000E+00  0.00000000000E+00  0.20831797113E+04  0.20831797113E+04  0.25500000920E-02 0. -1.
       -2   -1    0    0    0  501  0.00000000000E+00  0.00000000000E+00 -0.10814647795E+04  0.10814647795E+04  0.25500000920E-02 0.  1.
    10030    2    1    2    0    0  0.00000000000E+00  0.00000000000E+00  0.10017149318E+04  0.31646444907E+04  0.30019230417E+04 0.  0.
        5    1    3    3  502    0  0.13010762385E+04  0.20729870949E+01 -0.28807993513E+03  0.13325973941E+04  0.46999998093E+01 0.  1.
       -5    1    3    3    0  502 -0.13010762385E+04 -0.20729870949E+01  0.12897948669E+04  0.18320470967E+04  0.46999998093E+01 0. -1.
</event>
<event>
 5   0  0.1523029E-05  0.2832916E+04  0.7818609E-02  0.8293122E-01
       -2   -1    0    0    0  501  0.00000000000E+00  0.00000000000E+00  0.11443488091E+04  0.11443488091E+04  0.25500000920E-02 0. -1.
        2   -1    0    0  501    0  0.00000000000E+00  0.00000000000E+00 -0.17532706790E+04  0.17532706790E+04  0.25500000920E-02 0.  1.
    10030    2    1    2    0    0  0.00000000000E+00  0.00000000000E+00 -0.60892186984E+03  0.28976194881E+04  0.28329159632E+04 0.  0.
        5    1    3    3  502    0  0.81475499529E+03  0.80569367734E+03  0.54724177878E+03  0.12698282004E+04  0.46999998093E+01 0. -1.
       -5    1    3    3    0  502 -0.81475499529E+03 -0.80569367734E+03 -0.11561636486E+04  0.16277912877E+04  0.46999998093E+01 0.  1.
</event>
<event>
 5   0  0.1345931E-05  0.3095414E+04  0.7818609E-02  0.8216998E-01
        2   -1    0    0  501    0  0.00000000000E+00  0.00000000000E+00  0.14636241209E+04  0.14636241209E+04  0.25500000920E-02 0. -1.
       -2   -1    0    0    0  501  0.00000000000E+00  0.00000000000E+00 -0.16366197903E+04  0.16366197903E+04  0.25500000920E-02 0.  1.
    10030    2    1    2    0    0  0.00000000000E+00  0.00000000000E+00 -0.17299566934E+03  0.31002439112E+04  0.30954135115E+04 0.  0.
        2    1    3    3  502    0  0.10340835476E+04  0.25167815765E+03  0.10389663230E+04  0.14873203081E+04  0.25500000920E-02 0. -1.
       -2    1    3    3    0  502 -0.10340835476E+04 -0.25167815765E+03 -0.12119619923E+04  0.16129236031E+04  0.25500000920E-02 0.  1.
</event>
<event>
 5   0  0.1388724E-05  0.2495116E+04  0.7818609E-02  0.8404727E-01
       -2   -1    0    0    0  501  0.00000000000E+00  0.00000000000E+00  0.16776430377E+04  0.16776430377E+04  0.25500000920E-02 0. -1.
        2   -1    0    0  501    0  0.00000000000E+00  0.00000000000E+00 -0.92773102062E+03  0.92773102062E+03  0.25500000920E-02 0.  1.
    10030    2    1    2    0    0  0.00000000000E+00  0.00000000000E+00  0.74991201710E+03  0.26053740583E+04  0.24951164202E+04 0.  0.
        4    1    3    3  502    0 -0.55968411691E+03 -0.63190222310E+03  0.13341638199E+04  0.15787784650E+04  0.12699999809E+01 0. -1.
       -4    1    3    3    0  502  0.55968411691E+03  0.63190222310E+03 -0.58425180281E+03  0.10265955933E+04  0.12699999809E+01 0.  1.
</event>
<event>
 5   0  0.5730920E-06  0.2970309E+04  0.7818609E-02  0.8252260E-01
       -1   -1    0    0    0  501  0.00000000000E+00  0.00000000000E+00  0.13236379233E+04  0.13236379234E+04  0.50400001928E-02 0.  1.
        1   -1    0    0  501    0  0.00000000000E+00  0.00000000000E+00 -0.16663804118E+04  0.16663804118E+04  0.50400001928E-02 0. -1.
    10030    2    1    2    0    0  0.00000000000E+00  0.00000000000E+00 -0.34274248848E+03  0.29900183352E+04  0.29703092821E+04 0.  0.
        1    1    3    3  502    0  0.19028210986E+03  0.10403960147E+04  0.87816531272E+03  0.13747019551E+04  0.50400001928E-02 0.  1.
       -1    1    3    3    0  502 -0.19028210986E+03 -0.10403960147E+04 -0.12209078012E+04  0.16153163801E+04  0.50400001928E-02 0. -1.
</event>
<event>
 5   0  0.5730920E-06  0.3019640E+04  0.7818609E-02  0.8238145E-01
        1   -1    0    0  501    0  0.00000000000E+00  0.00000000000E+00  0.20670002992E+04  0.20670002992E+04  0.50400001928E-02 0. -1.
       -1   -1    0    0    0  501  0.00000000000E+00  0.00000000000E+00 -0.11028333996E+04  0.11028333996E+04  0.50400001928E-02 0.  1.
    10030    2    1    2    0    0  0.00000000000E+00  0.00000000000E+00  0.96416689959E+03  0.31698336988E+04  0.30196403540E+04 0.  0.
        1    1    3    3  502    0  0.53794554631E+03  0.71713969332E+03 -0.79320112704E+03  0.11970141096E+04  0.50400001928E-02 0.  1.
       -1    1    3    3    0  502 -0.53794554631E+03 -0.71713969332E+03  0.17573680266E+04  0.19728195892E+04  0.50400001928E-02 0. -1.
</event>
<event>
 5   0  0.5522695E-06  0.3009923E+04  0.7818609E-02  0.8240903E-01
        1   -1    0    0  501    0  0.00000000000E+00  0.00000000000E+00  0.95346429028E+03  0.95346429030E+03  0.50400001928E-02 0. -1.
       -1   -1    0    0    0  501  0.00000000000E+00  0.00000000000E+00 -0.23754519605E+04  0.23754519605E+04  0.50400001928E-02 0.  1.
    10030    2    1    2    0    0  0.00000000000E+00  0.00000000000E+00 -0.14219876702E+04  0.33289162508E+04  0.30099226685E+04 0.  0.
        3    1    3    3  502    0  0.11109920834E+04  0.16701599312E+03 -0.18184725549E+04  0.21375313318E+04  0.10100000352E+00 0.  1.
       -3    1    3    3    0  502 -0.11109920834E+04 -0.16701599312E+03  0.39648488468E+03  0.11913849190E+04  0.10100000352E+00 0. -1.
</event>
<event>
 5   0  0.1480547E-05  0.2058024E+04  0.7818609E-02  0.8579963E-01
        2   -1    0    0  501    0  0.00000000000E+00  0.00000000000E+00  0.12630262079E+04  0.12630262079E+04  0.25500000920E-02 0. -1.
       -2   -1    0    0    0  501  0.00000000000E+00  0.00000000000E+00 -0.83835604557E+03  0.83835604557E+03  0.25500000920E-02 0.  1.
    10030    2    1    2    0    0  0.00000000000E+00  0.00000000000E+00  0.42467016238E+03  0.21013822535E+04  0.20580239621E+04 0.  0.
        1    1    3    3  502    0  0.50079850996E+03  0.46084672447E+03  0.10004029553E+04  0.12099524470E+04  0.50400001928E-02 0. -1.
       -1    1    3    3    0  502 -0.50079850996E+03 -0.46084672447E+03 -0.57573279293E+03  0.89142980650E+03  0.50400001928E-02 0.  1.
</event>
<event>
 5   0  0.1345931E-05  0.2866985E+04  0.7818609E-02  0.8282769E-01
        2   -1    0    0  501    0  0.00000000000E+00  0.00000000000E+00  0.11110708663E+04  0.11110708663E+04  0.25500000920E-02 0. -1.
       -2   -1    0    0    0  501  0.00000000000E+00  0.00000000000E+00 -0.18494777593E+04  0.18494777593E+04  0.25500000920E-02 0.  1.
    10030    2    1    2    0    0  0.00000000000E+00  0.00000000000E+00 -0.73840689303E+03  0.29605486255E+04  0.28669850757E+04 0.  0.
        2    1    3    3  502    0  0.30350846246E+03 -0.41408034247E+03  0.10128774612E+04  0.11355618294E+04  0.25500000920E-02 0. -1.
       -2    1    3    3    0  502 -0.30350846246E+03  0.41408034247E+03 -0.17512843543E+04  0.18249867962E+04  0.25500000920E-02 0.  1.
</event>
<event>
 5   0  0.5329891E-06  0.1491269E+04  0.7818609E-02  0.8890280E-01
       -1   -1    0    0    0  501  0.00000000000E+00  0.00000000000E+00  0.46022486540E+03  0.46022486543E+03  0.50400001928E-02 0.  1.
        1   -1    0    0  501    0  0.00000000000E+00  0.00000000000E+00 -0.12080410791E+04  0.12080410791E+04  0.50400001928E-02 0. -1.
    10030    2    1    2    0    0  0.00000000000E+00  0.00000000000E+00 -0.74781621371E+03  0.16682659446E+04  0.14912686452E+04 0.  0.
        4    1    3    3  502    0 -0.16632678973E+03  0.11379277276E+03  0.42917939957E+03  0.47414129332E+03  0.12699999809E+01 0.  1.
       -4    1    3    3    0  502  0.16632678973E+03 -0.11379277276E+03 -0.11769956133E+04  0.11941246512E+04  0.12699999809E+01 0. -1.
</event>
<event>
 5   0  0.7032692E-06  0.2550147E+04  0.7818609E-02  0.8385335E-01
       -1   -1    0    0    0  501  0.00000000000E+00  0.00000000000E+00  0.11143768446E+04  0.11143768446E+04  0.50400001928E-02 0.  1.
        1   -1    0    0  501    0  0.00000000000E+00  0.00000000000E+00 -0.14589426612E+04  0.14589426612E+04  0.50400001928E-02 0. -1.
    10030    2    1    2    0    0  0.00000000000E+00  0.00000000000E+00 -0.34456581662E+03  0.25733195058E+04  0.25501465991E+04 0.  0.
        5    1    3    3  502    0  0.78789771461E+03  0.27347367743E+03  0.80095990835E+03  0.11563431695E+04  0.46999998093E+01 0.  1.
       -5    1    3    3    0  502 -0.78789771461E+03 -0.27347367743E+03 -0.11455257250E+04  0.14169763363E+04  0.46999998093E+01 0. -1.
</event>
<event>
 5   0  0.1480547E-05  0.2510720E+04  0.7818609E-02  0.8399176E-01
        2   -1    0    0  501    0  0.00000000000E+00  0.00000000000E+00  0.10983344915E+04  0.10983344915E+04  0.25500000920E-02 0.  1.
       -2   -1    0    0    0  501  0.00000000000E+00  0.00000000000E+00 -0.14348351012E+04  0.14348351013E+04  0.25500000920E-02 0. -1.
    10030    2    1    2    0    0  0.00000000000E+00  0.00000000000E+00 -0.33650060970E+03  0.25331695928E+04  0.25107201209E+04 0.  0.
        1    1    3    3  502    0 -0.12373908263E+04  0.18546714001E+03 -0.65383965057E+02  0.12529202608E+04  0.50400001928E-02 0.  1.
       -1    1    3    3    0  502  0.12373908263E+04 -0.18546714001E+03 -0.27111664464E+03  0.12802493320E+04  0.50400001928E-02 0. -1.
</event>
<event>
 5   0  0.5522695E-06  0.3051923E+04  0.7818609E-02  0.8229058E-01
        1   -1    0    0  501    0  0.00000000000E+00  0.00000000000E+00  0.19891057896E+04  0.19891057896E+04  0.50400001928E-02 0. -1.
       -1   -1    0    0    0  501  0.00000000000E+00  0.00000000000E+00 -0.11706557375E+04  0.11706557375E+04  0.50400001928E-02 0.  1.
    10030    2    1    2    0    0  0.00000000000E+00  0.00000000000E+00  0.81845005210E+03  0.31597615271E+04  0.30519227415E+04 0.  0.
        3    1    3    3  502    0  0.95040358091E+03 -0.47600979074E+03  0.15427656164E+04  0.18734935401E+04  0.10100000352E+00 0. -1.
       -3    1    3    3    0  502 -0.95040358091E+03  0.47600979074E+03 -0.72431556428E+03  0.12862679870E+04  0.10100000352E+00 0.  1.
</event>
<event>
 5   0  0.1345931E-05  0.3015111E+04  0.7818609E-02  0.8239429E-01
        2   -1    0    0  501    0  0.00000000000E+00  0.00000000000E+00  0.93471586768E+03  0.93471586768E+03  0.25500000920E-02 0. -1.
       -2   -1    0    0    0  501  0.00000000000E+00  0.00000000000E+00 -0.24314595229E+04  0.24314595229E+04  0.25500000920E-02 0.  1.
    10030    2    1    2    0    0  0.00000000000E+00  0.00000000000E+00 -0.14967436552E+04  0.33661753906E+04  0.30151111407E+04 0.  0.
        2    1    3    3  502    0  0.13662157172E+04  0.30124261210E+03 -0.13753982016E+04  0.19618900861E+04  0.25500000920E-02 0. -1.
       -2    1    3    3    0  502 -0.13662157172E+04 -0.30124261210E+03 -0.12134545365E+03  0.14042853045E+04  0.25500000920E-02 0.  1.
</event>
<event>
 5   0  0.1345931E-05  0.2965078E+04  0.7818609E-02  0.8253774E-01
       -2   -1    0    0    0  501  0.00000000000E+00  0.00000000000E+00  0.13837202450E+04  0.13837202450E+04  0.25500000920E-02 0.  1.
        2   -1    0    0  501    0  0.00000000000E+00  0.00000000000E+00 -0.15884149423E+04  0.15884149423E+04  0.25500000920E-02 0. -1.
    10030    2    1    2    0    0  0.00000000000E+00  0.00000000000E+00 -0.20469469727E+03  0.29721351872E+04  0.29650780179E+04 0.  0.
        2    1    3    3  502    0  0.25892822882E+03  0.84458788560E+03  0.10910952455E+04  0.14038736976E+04  0.25500000920E-02 0.  1.
       -2    1    3    3    0  502 -0.25892822882E+03 -0.84458788560E+03 -0.12957899427E+04  0.15682614896E+04  0.25500000920E-02 0. -1.
</event>
<event>
 5   0  0.1345931E-05  0.2773388E+04  0.7818609E-02  0.8311578E-01
       -2   -1    0    0    0  501  0.00000000000E+00  0.00000000000E+00  0.12839197520E+04  0.12839197520E+04  0.25500000920E-02 0.  1.
        2   -1    0    0  501    0  0.00000000000E+00  0.00000000000E+00 -0.14976954820E+04  0.14976954820E+04  0.25500000920E-02 0. -1.
    10030    2    1    2    0    0  0.00000000000E+00  0.00000000000E+00 -0.21377573001E+03  0.27816152340E+04  0.27733884054E+04 0.  0.
        2    1    3    3  502    0 -0.11873613778E+04 -0.58821602851E+03  0.30309807567E+03  0.13592989300E+04  0.25500000920E-02 0. -1.
       -2    1    3    3    0  502  0.11873613778E+04  0.58821602851E+03 -0.51687380568E+03  0.14223163040E+04  0.25500000920E-02 0.  1.
</event>
<event>
 5   0  0.1423692E-05  0.3005769E+04  0.7818609E-02  0.8242085E-01
        2   -1    0    0  501    0  0.00000000000E+00  0.00000000000E+00  0.11936496268E+04  0.11936496268E+04  0.25500000920E-02 0. -1.
       -2   -1    0    0    0  501  0.00000000000E+00  0.00000000000E+00 -0.18922316036E+04  0.18922316036E+04  0.25500000920E-02 0.  1.
    10030    2    1    2    0    0  0.00000000000E+00  0.00000000000E+00 -0.69858197683E+03  0.30858812304E+04  0.30057688184E+04 0.  0.
        3    1    3    3  502    0 -0.88917932947E+03  0.88368426643E+03  0.50173166311E+03  0.13502860566E+04  0.10100000352E+00 0. -1.
       -3    1    3    3    0  502  0.88917932947E+03 -0.88368426643E+03 -0.12003136399E+04  0.17355951737E+04  0.10100000352E+00 0.  1.
</event>
<event>
 5   0  0.1480547E-05  0.1725405E+04  0.7818609E-02  0.8747006E-01
        2   -1    0    0  501    0  0.00000000000E+00  0.00000000000E+00  0.10734229212E+04  0.10734229212E+04  0.25500000920E-02 0.  1.
       -2   -1    0    0    0  501  0.00000000000E+00  0.00000000000E+00 -0.69334800317E+03  0.69334800317E+03  0.25500000920E-02 0. -1.
    10030    2    1    2    0    0  0.00000000000E+00  0.00000000000E+00  0.38007491799E+03  0.17667709243E+04  0.17254050411E+04 0.  0.
        1    1    3    3  502    0 -0.61788425528E+03 -0.55629217865E+03 -0.45729656800E+02  0.83266628519E+03  0.50400001928E-02 0. -1.
       -1    1    3    3    0  502  0.61788425528E+03  0.55629217865E+03  0.42580457479E+03  0.93410463915E+03  0.50400001928E-02 0.  1.
</event>
<event>
 5   0  0.1523029E-05  0.2872612E+04  0.7818609E-02  0.8281073E-01
        2   -1    0    0  501    0  0.00000000000E+00  0.00000000000E+00  0.31586669338E+04  0.31586669338E+04  0.25500000920E-02 0.  1.
       -2   -1    0    0    0  501  0.00000000000E+00  0.00000000000E+00 -0.65311580711E+03  0.65311580711E+03  0.25500000920E-02 0. -1.
    10030    2    1    2    0    0  0.00000000000E+00  0.00000000000E+00  0.25055511267E+04  0.38117827409E+04  0.28726122633E+04 0.  0.
        5    1    3    3  502    0 -0.42107885992E+03 -0.18888911029E+03  0.30575922017E+04  0.30922287535E+04  0.46999998093E+01 0.  1.
       -5    1    3    3    0  502  0.42107885992E+03  0.18888911029E+03 -0.55204107501E+03  0.71955398738E+03  0.46999998093E+01 0. -1.
</event>
<event>
 5   0  0.5329891E-06  0.3008373E+04  0.7818609E-02  0.8241344E-01
       -1   -1    0    0    0  501  0.00000000000E+00  0.00000000000E+00  0.32357269632E+04  0.32357269632E+04  0.50400001928E-02 0. -1.
        1   -1    0    0  501    0  0.00000000000E+00  0.00000000000E+00 -0.69924863889E+03  0.69924863891E+03  0.50400001928E-02 0.  1.
    10030    2    1    2    0    0  0.00000000000E+00  0.00000000000E+00  0.25364783243E+04  0.39349756021E+04  0.30083734309E+04 0.  0.
        4    1    3    3  502    0 -0.87944093431E+03  0.69796927191E+03 -0.41074974534E+02  0.11235062207E+04  0.12699999809E+01 0.  1.
       -4    1    3    3    0  502  0.87944093431E+03 -0.69796927191E+03  0.25775532988E+04  0.28114693814E+04  0.12699999809E+01 0. -1.
</event>
<event>
 5   0  0.7032692E-06  0.3495752E+04  0.7818609E-02  0.8114797E-01
        1   -1    0    0  501    0  0.00000000000E+00  0.00000000000E+00  0.11012319529E+04  0.11012319529E+04  0.50400001928E-02 0.  1.
       -1   -1    0    0    0  501  0.00000000000E+00  0.00000000000E+00 -0.27742305353E+04  0.27742305353E+04  0.50400001928E-02 0. -1.
    10030    2    1    2    0    0  0.00000000000E+00  0.00000000000E+00 -0.16729985824E+04  0.38754624883E+04  0.34957524571E+04 0.  0.
        5    1    3    3  502    0  0.14691633294E+04  0.77769927431E+03 -0.14353515381E+04  0.21962497985E+04  0.46999998093E+01 0. -1.
       -5    1    3    3    0  502 -0.14691633294E+04 -0.77769927431E+03 -0.23764704432E+03  0.16792126897E+04  0.46999998093E+01 0.  1.
</event>
<event>
 5   0  0.1388724E-05  0.2971040E+04  0.7818609E-02  0.8252049E-01
        2   -1    0    0  501    0  0.00000000000E+00  0.00000000000E+00  0.13477625158E+04  0.13477625158E+04  0.25500000920E-02 0.  1.
       -2   -1    0    0    0  501  0.00000000000E+00  0.00000000000E+00 -0.16373575939E+04  0.16373575939E+04  0.25500000920E-02 0. -1.
    10030    2    1    2    0    0  0.00000000000E+00  0.00000000000E+00 -0.28959507807E+03  0.29851201097E+04  0.29710396766E+04 0.  0.
        4    1    3    3  502    0 -0.24866098779E+03  0.25761484765E+03  0.13037597422E+04  0.13520313513E+04  0.12699999809E+01 0.  1.
       -4    1    3    3    0  502  0.24866098779E+03 -0.25761484765E+03 -0.15933548203E+04  0.16330887584E+04  0.12699999809E+01 0. -1.
</event>
<event>
 5   0  0.1345931E-05  0.2968264E+04  0.7818609E-02  0.8252852E-01
        2   -1    0    0  501    0  0.00000000000E+00  0.00000000000E+00  0.23226562844E+04  0.23226562844E+04  0.25500000920E-02 0.  1.
       -2   -1    0    0    0  501  0.00000000000E+00  0.00000000000E+00 -0.94833104220E+03  0.94833104221E+03  0.25500000920E-02 0. -1.
    10030    2    1    2    0    0  0.00000000000E+00  0.00000000000E+00  0.13743252422E+04  0.32709873266E+04  0.29682635024E+04 0.  0.
        2    1    3    3  502    0  0.59921480892E+03  0.10688044634E+04  0.16099709612E+04  0.20232172063E+04  0.25500000920E-02 0.  1.
       -2    1    3    3    0  502 -0.59921480892E+03 -0.10688044634E+04 -0.23564571895E+03  0.12477701203E+04  0.25500000920E-02 0. -1.
</event>
<event>
 5   0  0.7032692E-06  0.2288964E+04  0.7818609E-02  0.8482285E-01
        1   -1    0    0  501    0  0.00000000000E+00  0.00000000000E+00  0.11920913342E+04  0.11920913343E+04  0.50400001928E-02 0.  1.
       -1   -1    0    0    0  501  0.00000000000E+00  0.00000000000E+00 -0.10987745405E+04  0.10987745405E+04  0.50400001928E-02 0. -1.
    10030    2    1    2    0    0  0.00000000000E+00  0.00000000000E+00  0.93316793728E+02  0.22908658748E+04  0.22889644891E+04 0.  0.
        5    1    3    3  502    0  0.69089737447E+03  0.84723605918E+03  0.38556838666E+03  0.11592381950E+04  0.46999998093E+01 0.  1.
       -5    1    3    3    0  502 -0.69089737447E+03 -0.84723605918E+03 -0.29225159293E+03  0.11316276798E+04  0.46999998093E+01 0. -1.
</event>
<event>
 5   0  0.5392262E-06  0.2794186E+04  0.7818609E-02  0.8305076E-01
        1   -1    0    0  501    0  0.00000000000E+00  0.00000000000E+00  0.11952780728E+04  0.11952780728E+04  0.50400001928E-02 0.  1.
       -1   -1    0    0    0  501  0.00000000000E+00  0.00000000000E+00 -0.16329825982E+04  0.16329825982E+04  0.50400001928E-02 0. -1.
    10030    2    1    2    0    0  0.00000000000E+00  0.00000000000E+00 -0.43770452543E+03  0.28282606710E+04  0.27941856007E+04 0.  0.
        2    1    3    3  502    0  0.90387735743E+03  0.96686905259E+03  0.23385838392E+03  0.13440683710E+04  0.25500000920E-02 0.  1.
       -2    1    3    3    0  502 -0.90387735743E+03 -0.96686905259E+03 -0.67156290935E+03  0.14841923000E+04  0.25500000920E-02 0. -1.
</event>
<event>
 5   0  0.1523029E-05  0.3040261E+04  0.7818609E-02  0.8232327E-01
        2   -1    0    0  501    0  0.00000000000E+00  0.00000000000E+00  0.25370902047E+04  0.25370902047E+04  0.25500000920E-02 0. -1.
       -2   -1    0    0    0  501  0.00000000000E+00  0.00000000000E+00 -0.91080596877E+03  0.91080596878E+03  0.25500000920E-02 0.  1.
    10030    2    1    2    0    0  0.00000000000E+00  0.00000000000E+00  0.16262842359E+04  0.34478961735E+04  0.30402611084E+04 0.  0.
        5    1    3    3  502    0  0.77991056137E+03 -0.45058352442E+03  0.22018628237E+04  0.23789720429E+04  0.46999998093E+01 0. -1.
       -5    1    3    3    0  502 -0.77991056137E+03  0.45058352442E+03 -0.57557858783E+03  0.10689241306E+04  0.46999998093E+01 0.  1.
</event>
<event>
 5   0  0.5392262E-06  0.3023476E+04  0.7818609E-02  0.8237059E-01
        1   -1    0    0  501    0  0.00000000000E+00  0.00000000000E+00  0.16204678073E+04  0.16204678073E+04  0.50400001928E-02 0. -1.
       -1   -1    0    0    0  501  0.00000000000E+00  0.00000000000E+00 -0.14103035330E+04  0.14103035330E+04  0.50400001928E-02 0.  1.
    10030    2    1    2    0    0  0.00000000000E+00  0.00000000000E+00  0.21016427438E+03  0.30307713403E+04  0.30234757970E+04 0.  0.
        2    1    3    3  502    0  0.41194549525E+01  0.63441470556E+03 -0.12703995838E+04  0.14200049616E+04  0.25500000920E-02 0.  1.
       -2    1    3    3    0  502 -0.41194549525E+01 -0.63441470556E+03  0.14805638582E+04  0.16107663787E+04  0.25500000920E-02 0. -1.
</event>
<event>
 5   0  0.5522695E-06  0.2998762E+04  0.7818609E-02  0.8244084E-01
        1   -1    0    0  501    0  0.00000000000E+00  0.00000000000E+00  0.18563378378E+04  0.18563378378E+04  0.50400001928E-02 0. -1.
       -1   -1    0    0    0  501  0.00000000000E+00  0.00000000000E+00 -0.12110637304E+04  0.12110637304E+04  0.50400001928E-02 0.  1.
    10030    2    1    2    0    0  0.00000000000E+00  0.00000000000E+00  0.64527410734E+03  0.30674015682E+04  0.29987620291E+04 0.  0.
        3    1    3    3  502    0  0.14035127667E+03 -0.11865243720E+04 -0.60397014962E+03  0.13387750065E+04  0.10100000352E+00 0.  1.
       -3    1    3    3    0  502 -0.14035127667E+03  0.11865243720E+04  0.12492442570E+04  0.17286265617E+04  0.10100000352E+00 0. -1.
</event>
<event>
 5   0  0.5730920E-06  0.2930855E+04  0.7818609E-02  0.8263756E-01
       -1   -1    0    0    0  501  0.00000000000E+00  0.00000000000E+00  0.90421738815E+03  0.90421738817E+03  0.50400001928E-02 0.  1.
        1   -1    0    0  501    0  0.00000000000E+00  0.00000000000E+00 -0.23749568136E+04  0.23749568136E+04  0.50400001928E-02 0. -1.
    10030    2    1    2    0    0  0.00000000000E+00  0.00000000000E+00 -0.14707394254E+04  0.32791742017E+04  0.29308546514E+04 0.  0.
        1    1    3    3  502    0 -0.36213842576E+03 -0.21532296493E+03  0.83499275365E+03  0.93526526574E+03  0.50400001928E-02 0.  1.
       -1    1    3    3    0  502  0.36213842576E+03  0.21532296493E+03 -0.23057321791E+04  0.23439089360E+04  0.50400001928E-02 0. -1.
</event>
<event>
 5   0  0.1480547E-05  0.2883119E+04  0.7818609E-02  0.8277918E-01
        2   -1    0    0  501    0  0.00000000000E+00  0.00000000000E+00  0.14382958923E+04  0.14382958923E+04  0.25500000920E-02 0. -1.
       -2   -1    0    0    0  501  0.00000000000E+00  0.00000000000E+00 -0.14448301178E+04  0.14448301178E+04  0.25500000920E-02 0.  1.
    10030    2    1    2    0    0  0.00000000000E+00  0.00000000000E+00 -0.65342254502E+01  0.28831260101E+04  0.28831186056E+04 0.  0.
        1    1    3    3  502    0 -0.13304597744E+04 -0.12605801426E+03  0.53717797195E+03  0.14403381574E+04  0.50400001928E-02 0. -1.
       -1    1    3    3    0  502  0.13304597744E+04  0.12605801426E+03 -0.54371219741E+03  0.14427878527E+04  0.50400001928E-02 0.  1.
</event>
<event>
 5   0  0.1423692E-05  0.2971352E+04  0.7818609E-02  0.8251959E-01
       -2   -1    0    0    0  501  0.00000000000E+00  0.00000000000E+00  0.20409047712E+04  0.20409047712E+04  0.25500000920E-02 0. -1.
        2   -1    0    0  501    0  0.00000000000E+00  0.00000000000E+00 -0.10814971745E+04  0.10814971745E+04  0.25500000920E-02 0.  1.
    10030    2    1    2    0    0  0.00000000000E+00  0.00000000000E+00  0.95940759677E+03  0.31224019457E+04  0.29713517082E+04 0.  0.
        3    1    3    3  502    0  0.10306009003E+03  0.58571746054E+03  0.19103639478E+04  0.20007940296E+04  0.10100000352E+00 0. -1.
       -3    1    3    3    0  502 -0.10306009003E+03 -0.58571746054E+03 -0.95095635099E+03  0.11216079161E+04  0.10100000352E+00 0.  1.
</event>
<event>
 5   0  0.1523029E-05  0.2750109E+04  0.7818609E-02  0.8318927E-01
        2   -1    0    0  501    0  0.00000000000E+00  0.00000000000E+00  0.18306022649E+04  0.18306022649E+04  0.25500000920E-02 0. -1.
       -2   -1    0    0    0  501  0.00000000000E+00  0.00000000000E+00 -0.10328707206E+04  0.10328707206E+04  0.25500000920E-02 0.  1.
    10030    2    1    2    0    0  0.00000000000E+00  0.00000000000E+00  0.79773154429E+03  0.28634729855E+04  0.27501094382E+04 0.  0.
        5    1    3    3  502    0 -0.67163425392E+03  0.57708343590E+03 -0.69646532585E+03  0.11265895007E+04  0.46999998093E+01 0.  1.
       -5    1    3    3    0  502  0.67163425392E+03 -0.57708343590E+03  0.14941968701E+04  0.17368834848E+04  0.46999998093E+01 0. -1.
</event>
<event>
 5   0  0.1388724E-05  0.3034703E+04  0.7818609E-02  0.8233890E-01
       -2   -1    0    0    0  501  0.00000000000E+00  0.00000000000E+00  0.15716309417E+04  0.15716309417E+04  0.25500000920E-02 0. -1.
        2   -1    0    0  501    0  0.00000000000E+00  0.00000000000E+00 -0.14649469494E+04  0.14649469494E+04  0.25500000920E-02 0.  1.
    10030    2    1    2    0    0  0.00000000000E+00  0.00000000000E+00  0.10668399233E+03  0.30365778910E+04  0.30347032498E+04 0.  0.
        4    1    3    3  502    0 -0.10830402582E+04  0.79234029471E+02  0.11137608250E+04  0.15555446058E+04  0.12699999809E+01 0. -1.
       -4    1    3    3    0  502  0.10830402582E+04 -0.79234029471E+02 -0.10070768327E+04  0.14810332853E+04  0.12699999809E+01 0.  1.
</event>
<event>
 5   0  0.1480547E-05  0.2924315E+04  0.7818609E-02  0.8265680E-01
        2   -1    0    0  501    0  0.00000000000E+00  0.00000000000E+00  0.15991288564E+04  0.15991288564E+04  0.25500000920E-02 0. -1.
       -2   -1    0    0    0  501  0.00000000000E+00  0.00000000000E+00 -0.13369178746E+04  0.13369178746E+04  0.25500000920E-02 0.  1.
    10030    2    1    2    0    0  0.00000000000E+00  0.00000000000E+00  0.26221098183E+03  0.29360467310E+04  0.29243145876E+04 0.  0.
        1    1    3    3  502    0 -0.13425548622E+03  0.12680187738E+04  0.84952342279E+03  0.15321834721E+04  0.50400001928E-02 0. -1.
       -1    1    3    3    0  502  0.13425548622E+03 -0.12680187738E+04 -0.58731244095E+03  0.14038632589E+04  0.50400001928E-02 0.  1.
</event>
<event>
 5   0  0.5392262E-06  0.3291649E+04  0.7818609E-02  0.8165024E-01
       -1   -1    0    0    0  501  0.00000000000E+00  0.00000000000E+00  0.19959771375E+04  0.19959771375E+04  0.50400001928E-02 0.  1.
        1   -1    0    0  501    0  0.00000000000E+00  0.00000000000E+00 -0.13570986069E+04  0.13570986069E+04  0.50400001928E-02 0. -1.
    10030    2    1    2    0    0  0.00000000000E+00  0.00000000000E+00  0.63887853057E+03  0.33530757443E+04  0.32916487010E+04 0.  0.
        2    1    3    3  502    0 -0.15469449263E+04 -0.48656316744E+03  0.60567312145E+03  0.17310754608E+04  0.25500000920E-02 0.  1.
       -2    1    3    3    0  502  0.15469449263E+04  0.48656316744E+03  0.33205409120E+02  0.16220002836E+04  0.25500000920E-02 0. -1.
</event>
<event>
 5   0  0.5522695E-06  0.2119830E+04  0.7818609E-02  0.8552558E-01
       -1   -1    0    0    0  501  0.00000000000E+00  0.00000000000E+00  0.17940374698E+04  0.17940374698E+04  0.50400001928E-02 0.  1.
        1   -1    0    0  501    0  0.00000000000E+00  0.00000000000E+00 -0.62619634625E+03  0.62619634627E+03  0.50400001928E-02 0. -1.
    10030    2    1    2    0    0  0.00000000000E+00  0.00000000000E+00  0.11678411236E+04  0.24202338161E+04  0.21198299070E+04 0.  0.
        3    1    3    3  502    0 -0.82939198420E+03 -0.54059140900E+03  0.10160994915E+04  0.14186572249E+04  0.10100000352E+00 0.  1.
       -3    1    3    3    0  502  0.82939198420E+03  0.54059140900E+03  0.15174163208E+03  0.10015765912E+04  0.10100000352E+00 0. -1.
</event>
<event>
 5   0  0.1423692E-05  0.1523634E+04  0.7818609E-02  0.8868887E-01
        2   -1    0    0  501    0  0.00000000000E+00  0.00000000000E+00  0.58630061440E+03  0.58630061441E+03  0.25500000920E-02 0.  1.
       -2   -1    0    0    0  501  0.00000000000E+00  0.00000000000E+00 -0.98987641132E+03  0.98987641132E+03  0.25500000920E-02 0. -1.
    10030    2    1    2    0    0  0.00000000000E+00  0.00000000000E+00 -0.40357579692E+03  0.15761770257E+04  0.15236340087E+04 0.  0.
        3    1    3    3  502    0 -0.62597814782E+02  0.72001508898E+03 -0.45097847915E+03  0.85189307641E+03  0.10100000352E+00 0.  1.
       -3    1    3    3    0  502  0.62597814782E+02 -0.72001508898E+03  0.47402682236E+02  0.72428394933E+03  0.10100000352E+00 0. -1.
</event>
<event>
 5   0  0.1423692E-05  0.2156459E+04  0.7818609E-02  0.8536773E-01
       -2   -1    0    0    0  501  0.00000000000E+00  0.00000000000E+00  0.99243688817E+03  0.99243688818E+03  0.25500000920E-02 0. -1.
        2   -1    0    0  501    0  0.00000000000E+00  0.00000000000E+00 -0.11714382589E+04  0.11714382589E+04  0.25500000920E-02 0.  1.
    10030    2    1    2    0    0  0.00000000000E+00  0.00000000000E+00 -0.17900137074E+03  0.21638751471E+04  0.21564587085E+04 0.  0.
        3    1    3    3  502    0 -0.36914519002E+02  0.75854705535E+03 -0.85752323216E+03  0.11454703928E+04  0.10100000352E+00 0.  1.
       -3    1    3    3    0  502  0.36914519002E+02 -0.75854705535E+03  0.67852186143E+03  0.10184047543E+04  0.10100000352E+00 0. -1.
</event>
<event>
 5   0  0.5392262E-06  0.1782362E+04  0.7818609E-02  0.8715736E-01
       -1   -1    0    0    0  501  0.00000000000E+00  0.00000000000E+00  0.61163355967E+03  0.61163355969E+03  0.50400001928E-02 0. -1.
        1   -1    0    0  501    0  0.00000000000E+00  0.00000000000E+00 -0.12984954473E+04  0.12984954473E+04  0.50400001928E-02 0.  1.
    10030    2    1    2    0    0  0.00000000000E+00  0.00000000000E+00 -0.68686188764E+03  0.19101290070E+04  0.17823617957E+04 0.  0.
        2    1    3    3  502    0 -0.67501404822E+03 -0.44497646368E+03  0.58351136346E+02  0.81058798019E+03  0.25500000920E-02 0. -1.
       -2    1    3    3    0  502  0.67501404822E+03  0.44497646368E+03 -0.74521302398E+03  0.10995410268E+04  0.25500000920E-02 0.  1.
</event>
<event>
 5   0  0.5730920E-06  0.3057687E+04  0.7818609E-02  0.8227447E-01
       -1   -1    0    0    0  501  0.00000000000E+00  0.00000000000E+00  0.15926094190E+04  0.15926094190E+04  0.50400001928E-02 0. -1.
        1   -1    0    0  501    0  0.00000000000E+00  0.00000000000E+00 -0.14676302730E+04  0.14676302730E+04  0.50400001928E-02 0.  1.
    10030    2    1    2    0    0  0.00000000000E+00  0.00000000000E+00  0.12497914597E+03  0.30602396920E+04  0.30576865741E+04 0.  0.
        1    1    3    3  502    0  0.82429689559E+03 -0.12773102812E+04 -0.10004944760E+03  0.15234818078E+04  0.50400001928E-02 0. -1.
       -1    1    3    3    0  502 -0.82429689559E+03  0.12773102812E+04  0.22502859357E+03  0.15367578842E+04  0.50400001928E-02 0.  1.
</event>
<event>
 5   0  0.1523029E-05  0.2995818E+04  0.7818609E-02  0.8244926E-01
       -2   -1    0    0    0  501  0.00000000000E+00  0.00000000000E+00  0.90027582535E+03  0.90027582535E+03  0.25500000920E-02 0. -1.
        2   -1    0    0  501    0  0.00000000000E+00  0.00000000000E+00 -0.24922715475E+04  0.24922715475E+04  0.25500000920E-02 0.  1.
    10030    2    1    2    0    0  0.00000000000E+00  0.00000000000E+00 -0.15919957221E+04  0.33925473728E+04  0.29958183018E+04 0.  0.
        5    1    3    3  502    0  0.57129199869E+02  0.93397884659E+03  0.52856951841E+03  0.10747037067E+04  0.46999998093E+01 0. -1.
       -5    1    3    3    0  502 -0.57129199869E+02 -0.93397884659E+03 -0.21205652405E+04  0.23178436662E+04  0.46999998093E+01 0.  1.
</event>
<event>
 5   0  0.5329891E-06  0.3025790E+04  0.7818609E-02  0.8236405E-01
        1   -1    0    0  501    0  0.00000000000E+00  0.00000000000E+00  0.16334347568E+04  0.16334347568E+04  0.50400001928E-02 0. -1.
       -1   -1    0    0    0  501  0.00000000000E+00  0.00000000000E+00 -0.14012505441E+04  0.14012505442E+04  0.50400001928E-02 0.  1.
    10030    2    1    2    0    0  0.00000000000E+00  0.00000000000E+00  0.23218421261E+03  0.30346853009E+04  0.30257900401E+04 0.  0.
        4    1    3    3  502    0 -0.73494757561E+03  0.35142714692E+03 -0.11624892845E+04  0.14195182028E+04  0.12699999809E+01 0.  1.
       -4    1    3    3    0  502  0.73494757561E+03 -0.35142714692E+03  0.13946734971E+04  0.16151670982E+04  0.12699999809E+01 0. -1.
</event>
<event>
 5   0  0.5730920E-06  0.3041578E+04  0.7818609E-02  0.8231957E-01
       -1   -1    0    0    0  501  0.00000000000E+00  0.00000000000E+00  0.13528997244E+04  0.13528997244E+04  0.50400001928E-02 0.  1.
        1   -1    0    0  501    0  0.00000000000E+00  0.00000000000E+00 -0.17095124985E+04  0.17095124985E+04  0.50400001928E-02 0. -1.
    10030    2    1    2    0    0  0.00000000000E+00  0.00000000000E+00 -0.35661277410E+03  0.30624122230E+04  0.30415778722E+04 0.  0.
        1    1    3    3  502    0 -0.73906032829E+03  0.81630445033E+03  0.87779985167E+03  0.14082243089E+04  0.50400001928E-02 0.  1.
       -1    1    3    3    0  502  0.73906032829E+03 -0.81630445033E+03 -0.12344126258E+04  0.16541879141E+04  0.50400001928E-02 0. -1.
</event>
<event>
 5   0  0.1388724E-05  0.3036659E+04  0.7818609E-02  0.8233340E-01
       -2   -1    0    0    0  501  0.00000000000E+00  0.00000000000E+00  0.13327123936E+04  0.13327123936E+04  0.25500000920E-02 0.  1.
        2   -1    0    0  501    0  0.00000000000E+00  0.00000000000E+00 -0.17297988252E+04  0.17297988252E+04  0.25500000920E-02 0. -1.
    10030    2    1    2    0    0  0.00000000000E+00  0.00000000000E+00 -0.39708643162E+03  0.30625112189E+04  0.30366589093E+04 0.  0.
        4    1    3    3  502    0 -0.37137391126E+03  0.13463333729E+04  0.40217073789E+03  0.14533667975E+04  0.12699999809E+01 0.  1.
       -4    1    3    3    0  502  0.37137391126E+03 -0.13463333729E+04 -0.79925716951E+03  0.16091444213E+04  0.12699999809E+01 0. -1.
</event>
<event>
 5   0  0.5730920E-06  0.2739989E+04  0.7818609E-02  0.8322145E-01
        1   -1    0    0  501    0  0.00000000000E+00  0.00000000000E+00  0.13874763632E+04  0.13874763632E+04  0.50400001928E-02 0. -1.
       -1   -1    0    0    0  501  0.00000000000E+00  0.00000000000E+00 -0.13527331294E+04  0.13527331294E+04  0.50400001928E-02 0.  1.
    10030    2    1    2    0    0  0.00000000000E+00  0.00000000000E+00  0.34743233814E+02  0.27402094926E+04  0.27399892283E+04 0.  0.
        1    1    3    3  502    0  0.53750365941E+02 -0.12836937662E+04 -0.45819416515E+03  0.13640750273E+04  0.50400001928E-02 0. -1.
       -1    1    3    3    0  502 -0.53750365941E+02  0.12836937662E+04  0.49293739897E+03  0.13761344653E+04  0.50400001928E-02 0.  1.
</event>
<event>
 5   0  0.5730920E-06  0.2392403E+04  0.7818609E-02  0.8442353E-01
        1   -1    0    0  501    0  0.00000000000E+00  0.00000000000E+00  0.13994291313E+04  0.13994291314E+04  0.50400001928E-02 0. -1.
       -1   -1    0    0    0  501  0.00000000000E+00  0.00000000000E+00 -0.10224869078E+04  0.10224869078E+04  0.50400001928E-02 0.  1.
    10030    2    1    2    0    0  0.00000000000E+00  0.00000000000E+00  0.37694222354E+03  0.24219160392E+04  0.23924029470E+04 0.  0.
        1    1    3    3  502    0 -0.69153221073E+03 -0.51504408667E+03 -0.65085921645E+03  0.10803263069E+04  0.50400001928E-02 0.  1.
       -1    1    3    3    0  502  0.69153221073E+03  0.51504408667E+03  0.10278014400E+04  0.13415897323E+04  0.50400001928E-02 0. -1.
</event>
<event>
 5   0  0.5730920E-06  0.2783537E+04  0.7818609E-02  0.8308398E-01
        1   -1    0    0  501    0  0.00000000000E+00  0.00000000000E+00  0.17562699725E+04  0.17562699725E+04  0.50400001928E-02 0. -1.
       -1   -1    0    0    0  501  0.00000000000E+00  0.00000000000E+00 -0.11029165763E+04  0.11029165763E+04  0.50400001928E-02 0.  1.
    10030    2    1    2    0    0  0.00000000000E+00  0.00000000000E+00  0.65335339618E+03  0.28591865488E+04  0.27835367898E+04 0.  0.
        1    1    3    3  502    0  0.24362725775E+03 -0.56152907667E+03 -0.95723367859E+03  0.11362066098E+04  0.50400001928E-02 0.  1.
       -1    1    3    3    0  502 -0.24362725775E+03  0.56152907667E+03  0.16105870748E+04  0.17229799390E+04  0.50400001928E-02 0. -1.
</event>
<event>
 5   0  0.7032692E-06  0.3048720E+04  0.7818609E-02  0.8229954E-01
        1   -1    0    0  501    0  0.00000000000E+00  0.00000000000E+00  0.13161201022E+04  0.13161201022E+04  0.50400001928E-02 0.  1.
       -1   -1    0    0    0  501  0.00000000000E+00  0.00000000000E+00 -0.17655475935E+04  0.17655475935E+04  0.50400001928E-02 0. -1.
    10030    2    1    2    0    0  0.00000000000E+00  0.00000000000E+00 -0.44942749136E+03  0.30816676957E+04  0.30487195209E+04 0.  0.
        5    1    3    3  502    0 -0.13379622109E+04 -0.71101238784E+03 -0.39376077636E+03  0.15654875063E+04  0.46999998093E+01 0. -1.
       -5    1    3    3    0  502  0.13379622109E+04  0.71101238784E+03 -0.55666715008E+02  0.15161801894E+04  0.46999998093E+01 0.  1.
</event>
<event>
 5   0  0.7032692E-06  0.3066539E+04  0.7818609E-02  0.8224981E-01
        1   -1    0    0  501    0  0.00000000000E+00  0.00000000000E+00  0.12592739660E+04  0.12592739660E+04  0.50400001928E-02 0. -1.
       -1   -1    0    0    0  501  0.00000000000E+00  0.00000000000E+00 -0.18668819570E+04  0.18668819570E+04  0.50400001928E-02 0.  1.
    10030    2    1    2    0    0  0.00000000000E+00  0.00000000000E+00 -0.60760799097E+03  0.31261559230E+04  0.30665393172E+04 0.  0.
        5    1    3    3  502    0 -0.10282404513E+04  0.10792781316E+04 -0.66963142614E+03  0.16341811552E+04  0.46999998093E+01 0.  1.
       -5    1    3    3    0  502  0.10282404513E+04 -0.10792781316E+04  0.62023435175E+02  0.14919747678E+04  0.46999998093E+01 0. -1.
</event>
<event>
 5   0  0.5392262E-06  0.2923160E+04  0.7818609E-02  0.8266020E-01
        1   -1    0    0  501    0  0.00000000000E+00  0.00000000000E+00  0.26032161374E+04  0.26032161374E+04  0.50400001928E-02 0.  1.
       -1   -1    0    0    0  501  0.00000000000E+00  0.00000000000E+00 -0.82060624290E+03  0.82060624292E+03  0.50400001928E-02 0. -1.
    10030    2    1    2    0    0  0.00000000000E+00  0.00000000000E+00  0.17826098945E+04  0.34238223803E+04  0.29231595331E+04 0.  0.
        2    1    3    3  502    0  0.13346870426E+04  0.26446004901E+03  0.26613964174E+03  0.13864194632E+04  0.25500000920E-02 0. -1.
       -2    1    3    3    0  502 -0.13346870426E+04 -0.26446004901E+03  0.15164702527E+04  0.20374029171E+04  0.25500000920E-02 0.  1.
</event>
<event>
 5   0  0.5392262E-06  0.2969988E+04  0.7818609E-02  0.8252353E-01
        1   -1    0    0  501    0  0.00000000000E+00  0.00000000000E+00  0.16293171680E+04  0.16293171680E+04  0.50400001928E-02 0. -1.
       -1   -1    0    0    0  501  0.00000000000E+00  0.00000000000E+00 -0.13534547613E+04  0.13534547613E+04  0.50400001928E-02 0.  1.
    10030    2    1    2    0    0  0.00000000000E+00  0.00000000000E+00  0.27586240667E+03  0.29827719294E+04  0.29699879318E+04 0.  0.
        2    1    3    3  502    0  0.10500280861E+04  0.96488934565E+03 -0.27814260179E+03  0.14529052749E+04  0.25500000920E-02 0.  1.
       -2    1    3    3    0  502 -0.10500280861E+04 -0.96488934565E+03  0.55400500845E+03  0.15298666544E+04  0.25500000920E-02 0. -1.
</event>
<event>
 5   0  0.5392262E-06  0.3079386E+04  0.7818609E-02  0.8221418E-01
       -1   -1    0    0    0  501  0.00000000000E+00  0.00000000000E+00  0.22874208666E+04  0.22874208666E+04  0.50400001928E-02 0.  1.
        1   -1    0    0  501    0  0.00000000000E+00  0.00000000000E+00 -0.10363873945E+04  0.10363873945E+04  0.50400001928E-02 0. -1.
    10030    2    1    2    0    0  0.00000000000E+00  0.00000000000E+00  0.12510334721E+04  0.33238082611E+04  0.30793857518E+04 0.  0.
        2    1    3    3  502    0  0.31496172891E+03 -0.46832430099E+03  0.21717458172E+04  0.22438824470E+04  0.25500000920E-02 0.  1.
       -2    1    3    3    0  502 -0.31496172891E+03  0.46832430099E+03 -0.92071234508E+03  0.10799258141E+04  0.25500000920E-02 0. -1.
</event>
<event>
 5   0  0.1423692E-05  0.2977029E+04  0.7818609E-02  0.8250321E-01
       -2   -1    0    0    0  501  0.00000000000E+00  0.00000000000E+00  0.13436489196E+04  0.13436489196E+04  0.25500000920E-02 0.  1.
        2   -1    0    0  501    0  0.00000000000E+00  0.00000000000E+00 -0.16489988395E+04  0.16489988395E+04  0.25500000920E-02 0. -1.
    10030    2    1    2    0    0  0.00000000000E+00  0.00000000000E+00 -0.30534991991E+03  0.29926477591E+04  0.29770290621E+04 0.  0.
        3    1    3    3  502    0  0.92722246234E+03  0.57864292790E+02  0.10164338372E+04  0.13770357754E+04  0.10100000352E+00 0.  1.
       -3    1    3    3    0  502 -0.92722246234E+03 -0.57864292790E+02 -0.13217837572E+04  0.16156119837E+04  0.10100000352E+00 0. -1.
</event>
<event>
 5   0  0.5730920E-06  0.2946029E+04  0.7818609E-02  0.8259313E-01
       -1   -1    0    0    0  501  0.00000000000E+00  0.00000000000E+00  0.92189186263E+03  0.92189186264E+03  0.50400001928E-02 0.  1.
        1   -1    0    0  501    0  0.00000000000E+00  0.00000000000E+00 -0.23536075977E+04  0.23536075977E+04  0.50400001928E-02 0. -1.
    10030    2    1    2    0    0  0.00000000000E+00  0.00000000000E+00 -0.14317157351E+04  0.32754994603E+04  0.29460289830E+04 0.  0.
        1    1    3    3  502    0 -0.27472133975E+02  0.10915712202E+04  0.38339222533E+03  0.11572692191E+04  0.50400001928E-02 0.  1.
       -1    1    3    3    0  502  0.27472133975E+02 -0.10915712202E+04 -0.18151079604E+04  0.21182302412E+04  0.50400001928E-02 0. -1.
</event>
<event>
 5   0  0.1423692E-05  0.3052405E+04  0.7818609E-02  0.8228923E-01
        2   -1    0    0  501    0  0.00000000000E+00  0.00000000000E+00  0.21400270582E+04  0.21400270582E+04  0.25500000920E-02 0. -1.
       -2   -1    0    0    0  501  0.00000000000E+00  0.00000000000E+00 -0.10884413020E+04  0.10884413020E+04  0.25500000920E-02 0.  1.
    10030    2    1    2    0    0  0.00000000000E+00  0.00000000000E+00  0.10515857561E+04  0.32284683602E+04  0.30524048470E+04 0.  0.
        3    1    3    3  502    0 -0.60235978344E+02  0.14597665309E+04  0.99254890314E+03  0.17662672598E+04  0.10100000352E+00 0. -1.
       -3    1    3    3    0  502  0.60235978344E+02 -0.14597665309E+04  0.59036852995E+02  0.14622011004E+04  0.10100000352E+00 0.  1.
</event>
<event>
 5   0  0.5329891E-06  0.2974910E+04  0.7818609E-02  0.8250932E-01
       -1   -1    0    0    0  501  0.00000000000E+00  0.00000000000E+00  0.12162330150E+04  0.12162330150E+04  0.50400001928E-02 0.  1.
        1   -1    0    0  501    0  0.00000000000E+00  0.00000000000E+00 -0.18191599874E+04  0.18191599874E+04  0.50400001928E-02 0. -1.
    10030    2    1    2    0    0  0.00000000000E+00  0.00000000000E+00 -0.60292697236E+03  0.30353930024E+04  0.29749100398E+04 0.  0.
        4    1    3    3  502    0 -0.80242923566E+03 -0.12476851878E+04 -0.41281436261E+03  0.15398143775E+04  0.12699999809E+01 0.  1.
       -4    1    3    3    0  502  0.80242923566E+03  0.12476851878E+04 -0.19011260975E+03  0.14955786250E+04  0.12699999809E+01 0. -1.
</event>
<event>
 5   0  0.1388724E-05  0.1894942E+04  0.7818609E-02  0.8657378E-01
       -2   -1    0    0    0  501  0.00000000000E+00  0.00000000000E+00  0.69150517536E+03  0.69150517537E+03  0.25500000920E-02 0. -1.
        2   -1    0    0  501    0  0.00000000000E+00  0.00000000000E+00 -0.12981840286E+04  0.12981840286E+04  0.25500000920E-02 0.  1.
    10030    2    1    2    0    0  0.00000000000E+00  0.00000000000E+00 -0.60667885326E+03  0.19896892040E+04  0.18949416607E+04 0.  0.
        4    1    3    3  502    0 -0.89866184609E+02  0.77080942690E+03  0.26741684786E+03  0.82081452665E+03  0.12699999809E+01 0. -1.
       -4    1    3    3    0  502  0.89866184609E+02 -0.77080942690E+03 -0.87409570112E+03  0.11688746774E+04  0.12699999809E+01 0.  1.
</event>
<event>
 5   0  0.1480547E-05  0.2837384E+04  0.7818609E-02  0.8291755E-01
        2   -1    0    0  501    0  0.00000000000E+00  0.00000000000E+00  0.22424858574E+04  0.22424858574E+04  0.25500000920E-02 0.  1.
       -2   -1    0    0    0  501  0.00000000000E+00  0.00000000000E+00 -0.89752484433E+03  0.89752484433E+03  0.25500000920E-02 0. -1.
    10030    2    1    2    0    0  0.00000000000E+00  0.00000000000E+00  0.13449610131E+04  0.31400107017E+04  0.28373838444E+04 0.  0.
        1    1    3    3  502    0 -0.11768124224E+03  0.13005810714E+04  0.12859786232E+04  0.18327850439E+04  0.50400001928E-02 0.  1.
       -1    1    3    3    0  502  0.11768124224E+03 -0.13005810714E+04  0.58982389894E+02  0.13072256578E+04  0.50400001928E-02 0. -1.
</event>
<event>
 5   0  0.5522695E-06  0.2972565E+04  0.7818609E-02  0.8251609E-01
       -1   -1    0    0    0  501  0.00000000000E+00  0.00000000000E+00  0.96587280012E+03  0.96587280014E+03  0.50400001928E-02 0.  1.
        1   -1    0    0  501    0  0.00000000000E+00  0.00000000000E+00 -0.22870876018E+04  0.22870876018E+04  0.50400001928E-02 0. -1.
    10030    2    1    2    0    0  0.00000000000E+00  0.00000000000E+00 -0.13212148017E+04  0.32529604019E+04  0.29725650244E+04 0.  0.
        3    1    3    3  502    0  0.60524701824E+03 -0.52901850137E+03 -0.20286707998E+04  0.21821296369E+04  0.10100000352E+00 0. -1.
       -3    1    3    3    0  502 -0.60524701824E+03  0.52901850137E+03  0.70745599815E+03  0.10708307651E+04  0.10100000352E+00 0.  1.
</event>
<event>
 5   0  0.1423692E-05  0.2976566E+04  0.7818609E-02  0.8250454E-01
        2   -1    0    0  501    0  0.00000000000E+00  0.00000000000E+00  0.17906223990E+04  0.17906223990E+04  0.25500000920E-02 0. -1.
       -2   -1    0    0    0  501  0.00000000000E+00  0.00000000000E+00 -0.12369923649E+04  0.12369923649E+04  0.25500000920E-02 0.  1.
    10030    2    1    2    0    0  0.00000000000E+00  0.00000000000E+00  0.55363003405E+03  0.30276147639E+04  0.29765659650E+04 0.  0.
        3    1    3    3  502    0 -0.10207883205E+04 -0.98008502779E+03 -0.19196961741E+03  0.14280853620E+04  0.10100000352E+00 0.  1.
       -3    1    3    3    0  502  0.10207883205E+04  0.98008502779E+03  0.74559965146E+03  0.15995294019E+04  0.10100000352E+00 0. -1.
</event>
<event>
 5   0  0.5329891E-06  0.2960283E+04  0.7818609E-02  0.8255164E-01
        1   -1    0    0  501    0  0.00000000000E+00  0.00000000000E+00  0.20237331507E+04  0.20237331507E+04  0.50400001928E-02 0. -1.
       -1   -1    0    0    0  501  0.00000000000E+00  0.00000000000E+00 -0.10825633149E+04  0.10825633149E+04  0.50400001928E-02 0.  1.
    10030    2    1    2    0    0  0.00000000000E+00  0.00000000000E+00  0.94116983577E+03  0.31062964656E+04  0.29602832757E+04 0.  0.
        4    1    3    3  502    0  0.27077653834E+03 -0.49595009792E+03 -0.96493151786E+03  0.11182043107E+04  0.12699999809E+01 0.  1.
       -4    1    3    3    0  502 -0.27077653834E+03  0.49595009792E+03  0.19061013536E+04  0.19880921549E+04  0.12699999809E+01 0. -1.
</event>
<event>
 5   0  0.1345931E-05  0.2808180E+04  0.7818609E-02  0.8300733E-01
        2   -1    0    0  501    0  0.00000000000E+00  0.00000000000E+00  0.25800518194E+04  0.25800518194E+04  0.25500000920E-02 0.  1.
       -2   -1    0    0    0  501  0.00000000000E+00  0.00000000000E+00 -0.76411989907E+03  0.76411989908E+03  0.25500000920E-02 0. -1.
    10030    2    1    2    0    0  0.00000000000E+00  0.00000000000E+00  0.18159319203E+04  0.33441717185E+04  0.28081801480E+04 0.  0.
        2    1    3    3  502    0  0.70877151466E+02 -0.85878874315E+03 -0.41219441686E+03  0.95522034802E+03  0.25500000920E-02 0. -1.
       -2    1    3    3    0  502 -0.70877151466E+02  0.85878874315E+03  0.22281263372E+04  0.23889513705E+04  0.25500000920E-02 0.  1.
</event>
<event>
 5   0  0.5329891E-06  0.2912418E+04  0.7818609E-02  0.8269192E-01
        1   -1    0    0  501    0  0.00000000000E+00  0.00000000000E+00  0.12940577581E+04  0.12940577581E+04  0.50400001928E-02 0.  1.
       -1   -1    0    0    0  501  0.00000000000E+00  0.00000000000E+00 -0.16386790027E+04  0.16386790027E+04  0.50400001928E-02 0. -1.
    10030    2    1    2    0    0  0.00000000000E+00  0.00000000000E+00 -0.34462124463E+03  0.29327367608E+04  0.29124184291E+04 0.  0.
        4    1    3    3  502    0  0.35065131915E+03 -0.11818369259E+03  0.12459255048E+04  0.12997137028E+04  0.12699999809E+01 0.  1.
       -4    1    3    3    0  502 -0.35065131915E+03  0.11818369259E+03 -0.15905467495E+04  0.16330230580E+04  0.12699999809E+01 0. -1.
</event>
<event>
 5   0  0.5329891E-06  0.3197858E+04  0.7818609E-02  0.8189383E-01
        1   -1    0    0  501    0  0.00000000000E+00  0.00000000000E+00  0.13295027785E+04  0.13295027786E+04  0.50400001928E-02 0. -1.
       -1   -1    0    0    0  501  0.00000000000E+00  0.00000000000E+00 -0.19229552525E+04  0.19229552525E+04  0.50400001928E-02 0.  1.
    10030    2    1    2    0    0  0.00000000000E+00  0.00000000000E+00 -0.59345247396E+03  0.32524580311E+04  0.31978582528E+04 0.  0.
        4    1    3    3  502    0 -0.87692434845E+03 -0.79448453648E+03  0.79698088483E+03  0.14266681938E+04  0.12699999809E+01 0. -1.
       -4    1    3    3    0  502  0.87692434845E+03  0.79448453648E+03 -0.13904333588E+04  0.18257898372E+04  0.12699999809E+01 0.  1.
</event>
<event>
 5   0  0.5392262E-06  0.2635076E+04  0.7818609E-02  0.8356383E-01
       -1   -1    0    0    0  501  0.00000000000E+00  0.00000000000E+00  0.10055889696E+04  0.10055889697E+04  0.50400001928E-02 0.  1.
        1   -1    0    0  501    0  0.00000000000E+00  0.00000000000E+00 -0.17262589716E+04  0.17262589716E+04  0.50400001928E-02 0. -1.
    10030    2    1    2    0    0  0.00000000000E+00  0.00000000000E+00 -0.72067000199E+03  0.27318479413E+04  0.26350764548E+04 0.  0.
        2    1    3    3  502    0 -0.64487944685E+03  0.27642676063E+03  0.79579893812E+03  0.10609322339E+04  0.25500000920E-02 0.  1.
       -2    1    3    3    0  502  0.64487944685E+03 -0.27642676063E+03 -0.15164689401E+04  0.16709157074E+04  0.25500000920E-02 0. -1.
</event>
<event>
 5   0  0.1345931E-05  0.2821688E+04  0.7818609E-02  0.8296567E-01
       -2   -1    0    0    0  501  0.00000000000E+00  0.00000000000E+00  0.97538540670E+03  0.97538540670E+03  0.25500000920E-02 0.  1.
        2   -1    0    0  501    0  0.00000000000E+00  0.00000000000E+00 -0.20407120498E+04  0.20407120498E+04  0.25500000920E-02 0. -1.
    10030    2    1    2    0    0  0.00000000000E+00  0.00000000000E+00 -0.10653266431E+04  0.30160974565E+04  0.28216879719E+04 0.  0.
        2    1    3    3  502    0 -0.11220340876E+03 -0.10365117099E+04 -0.15486985894E+04  0.18669262038E+04  0.25500000920E-02 0. -1.
       -2    1    3    3    0  502  0.11220340876E+03  0.10365117099E+04  0.48337194626E+03  0.11491712527E+04  0.25500000920E-02 0.  1.
</event>
<event>
 5   0  0.1480547E-05  0.1518330E+04  0.7818609E-02  0.8872355E-01
        2   -1    0    0  501    0  0.00000000000E+00  0.00000000000E+00  0.71863447292E+03  0.71863447293E+03  0.25500000920E-02 0. -1.
       -2   -1    0    0    0  501  0.00000000000E+00  0.00000000000E+00 -0.80198114062E+03  0.80198114063E+03  0.25500000920E-02 0.  1.
    10030    2    1    2    0    0  0.00000000000E+00  0.00000000000E+00 -0.83346667698E+02  0.15206156136E+04  0.15183297327E+04 0.  0.
        1    1    3    3  502    0  0.35522637974E+03  0.52765534498E+03  0.37334812656E+03  0.73756000948E+03  0.50400001928E-02 0. -1.
       -1    1    3    3    0  502 -0.35522637974E+03 -0.52765534498E+03 -0.45669479426E+03  0.78305560408E+03  0.50400001928E-02 0.  1.
</event>
<event>
 5   0  0.1523029E-05  0.3022854E+04  0.7818609E-02  0.8237235E-01
        2   -1    0    0  501    0  0.00000000000E+00  0.00000000000E+00  0.23493560394E+04  0.23493560394E+04  0.25500000920E-02 0. -1.
       -2   -1    0    0    0  501  0.00000000000E+00  0.00000000000E+00 -0.97235633679E+03  0.97235633679E+03  0.25500000920E-02 0.  1.
    10030    2    1    2    0    0  0.00000000000E+00  0.00000000000E+00  0.13769997026E+04  0.33217123762E+04  0.30228537724E+04 0.  0.
        5    1    3    3  502    0 -0.31288142996E+03  0.11177024111E+04 -0.37532294086E+03  0.12198536260E+04  0.46999998093E+01 0.  1.
       -5    1    3    3    0  502  0.31288142996E+03 -0.11177024111E+04  0.17523226434E+04  0.21018587502E+04  0.46999998093E+01 0. -1.
</event>
<event>
 5   0  0.1480547E-05  0.3023626E+04  0.7818609E-02  0.8237016E-01
       -2   -1    0    0    0  501  0.00000000000E+00  0.00000000000E+00  0.16414005459E+04  0.16414005459E+04  0.25500000920E-02 0. -1.
        2   -1    0    0  501    0  0.00000000000E+00  0.00000000000E+00 -0.13924561436E+04  0.13924561436E+04  0.25500000920E-02 0.  1.
    10030    2    1    2    0    0  0.00000000000E+00  0.00000000000E+00  0.24894440224E+03  0.30338566895E+04  0.30236258196E+04 0.  0.
        1    1    3    3  502    0 -0.50127674670E+03 -0.15361279729E+03 -0.12983183767E+04  0.14001806582E+04  0.50400001928E-02 0.  1.
       -1    1    3    3    0  502  0.50127674670E+03  0.15361279729E+03  0.15472627789E+04  0.16336760313E+04  0.50400001928E-02 0. -1.
</event>
<event>
 5   0  0.5730920E-06  0.3085410E+04  0.7818609E-02  0.8219753E-01
        1   -1    0    0  501    0  0.00000000000E+00  0.00000000000E+00  0.11174426228E+04  0.11174426228E+04  0.50400001928E-02 0. -1.
       -1   -1    0    0    0  501  0.00000000000E+00  0.00000000000E+00 -0.21298088436E+04  0.21298088436E+04  0.50400001928E-02 0.  1.
    10030    2    1    2    0    0  0.00000000000E+00  0.00000000000E+00 -0.10123662208E+04  0.32472514664E+04  0.30854103003E+04 0.  0.
        1    1    3    3  502    0 -0.15045180002E+04  0.33974143868E+02 -0.14895216407E+03  0.15122550720E+04  0.50400001928E-02 0. -1.
       -1    1    3    3    0  502  0.15045180002E+04 -0.33974143868E+02 -0.86341405669E+03  0.17349963945E+04  0.50400001928E-02 0.  1.
</event>
<event>
 5   0  0.1523029E-05  0.3005434E+04  0.7818609E-02  0.8242181E-01
        2   -1    0    0  501    0  0.00000000000E+00  0.00000000000E+00  0.12131448402E+04  0.12131448402E+04  0.25500000920E-02 0.  1.
       -2   -1    0    0    0  501  0.00000000000E+00  0.00000000000E+00 -0.18614084379E+04  0.18614084379E+04  0.25500000920E-02 0. -1.
    10030    2    1    2    0    0  0.00000000000E+00  0.00000000000E+00 -0.64826359778E+03  0.30745532781E+04  0.30054337736E+04 0.  0.
        5    1    3    3  502    0 -0.13532846310E+04  0.65207655324E+03 -0.36444400444E+03  0.15457763894E+04  0.46999998093E+01 0. -1.
       -5    1    3    3    0  502  0.13532846310E+04 -0.65207655324E+03 -0.28381959334E+03  0.15287768887E+04  0.46999998093E+01 0.  1.
</event>
<event>
 5   0  0.1388724E-05  0.2857849E+04  0.7818609E-02  0.8285530E-01
       -2   -1    0    0    0  501  0.00000000000E+00  0.00000000000E+00  0.10761975240E+04  0.10761975240E+04  0.25500000920E-02 0. -1.
        2   -1    0    0  501    0  0.00000000000E+00  0.00000000000E+00 -0.18972581622E+04  0.18972581622E+04  0.25500000920E-02 0.  1.
    10030    2    1    2    0    0  0.00000000000E+00  0.00000000000E+00 -0.82106063824E+03  0.29734556862E+04  0.28578485170E+04 0.  0.
        4    1    3    3  502    0 -0.89195569409E+03 -0.99790451206E+03 -0.93119811316E+03  0.16304998970E+04  0.12699999809E+01 0.  1.
       -4    1    3    3    0  502  0.89195569409E+03  0.99790451206E+03  0.11013747492E+03  0.13429557892E+04  0.12699999809E+01 0. -1.
</event>
<event>
 5   0  0.1388724E-05  0.3037820E+04  0.7818609E-02  0.8233013E-01
       -2   -1    0    0    0  501  0.00000000000E+00  0.00000000000E+00  0.13564830087E+04  0.13564830087E+04  0.25500000920E-02 0.  1.
        2   -1    0    0  501    0  0.00000000000E+00  0.00000000000E+00 -0.17007861907E+04  0.17007861907E+04  0.25500000920E-02 0. -1.
    10030    2    1    2    0    0  0.00000000000E+00  0.00000000000E+00 -0.34430318201E+03  0.30572691994E+04  0.30378199875E+04 0.  0.
        4    1    3    3  502    0 -0.77544156919E+03 -0.13047659854E+04 -0.11379715481E+03  0.15220628467E+04  0.12699999809E+01 0.  1.
       -4    1    3    3    0  502  0.77544156919E+03  0.13047659854E+04 -0.23050602720E+03  0.15352063527E+04  0.12699999809E+01 0. -1.
</event>
<event>
 5   0  0.5392262E-06  0.1589167E+04  0.7818609E-02  0.8827231E-01
        1   -1    0    0  501    0  0.00000000000E+00  0.00000000000E+00  0.11272566224E+04  0.11272566224E+04  0.50400001928E-02 0. -1.
       -1   -1    0    0    0  501  0.00000000000E+00  0.00000000000E+00 -0.56008809426E+03  0.56008809428E+03  0.50400001928E-02 0.  1.
    10030    2    1    2    0    0  0.00000000000E+00  0.00000000000E+00  0.56716852816E+03  0.16873447167E+04  0.15891670943E+04 0.  0.
        2    1    3    3  502    0 -0.50531693057E+02  0.69716949308E+03  0.68476863009E+03  0.97852277993E+03  0.25500000920E-02 0. -1.
       -2    1    3    3    0  502  0.50531693057E+02 -0.69716949308E+03 -0.11760010193E+03  0.70882193678E+03  0.25500000920E-02 0.  1.
</event>
<event>
 5   0  0.5730920E-06  0.2105824E+04  0.7818609E-02  0.8558682E-01
       -1   -1    0    0    0  501  0.00000000000E+00  0.00000000000E+00  0.66193343068E+03  0.66193343070E+03  0.50400001928E-02 0. -1.
        1   -1    0    0  501    0  0.00000000000E+00  0.00000000000E+00 -0.16748266349E+04  0.16748266349E+04  0.50400001928E-02 0.  1.
    10030    2    1    2    0    0  0.00000000000E+00  0.00000000000E+00 -0.10128932042E+04  0.23367600656E+04  0.21058240575E+04 0.  0.
        1    1    3    3  502    0  0.57155817427E+03  0.70781677928E+03 -0.10946115487E+04  0.14233263091E+04  0.50400001928E-02 0.  1.
       -1    1    3    3    0  502 -0.57155817427E+03 -0.70781677928E+03  0.81718344516E+02  0.91343375647E+03  0.50400001928E-02 0. -1.
</event>
<event>
 5   0  0.7032692E-06  0.2911569E+04  0.7818609E-02  0.8269444E-01
        1   -1    0    0  501    0  0.00000000000E+00  0.00000000000E+00  0.10855805319E+04  0.10855805319E+04  0.50400001928E-02 0.  1.
       -1   -1    0    0    0  501  0.00000000000E+00  0.00000000000E+00 -0.19522353839E+04  0.19522353839E+04  0.50400001928E-02 0. -1.
    10030    2    1    2    0    0  0.00000000000E+00  0.00000000000E+00 -0.86665485195E+03  0.30378159158E+04  0.29115691484E+04 0.  0.
        5    1    3    3  502    0  0.48485587757E+03 -0.38327317239E+03 -0.18085473012E+04  0.19112427834E+04  0.46999998093E+01 0. -1.
       -5    1    3    3    0  502 -0.48485587757E+03  0.38327317239E+03  0.94189244920E+03  0.11265731323E+04  0.46999998093E+01 0.  1.
</event>
<event>
 5   0  0.1388724E-05  0.2798976E+04  0.7818609E-02  0.8303586E-01
        2   -1    0    0  501    0  0.00000000000E+00  0.00000000000E+00  0.18706645874E+04  0.18706645874E+04  0.25500000920E-02 0. -1.
       -2   -1    0    0    0  501  0.00000000000E+00  0.00000000000E+00 -0.10469897961E+04  0.10469897961E+04  0.25500000920E-02 0.  1.
    10030    2    1    2    0    0  0.00000000000E+00  0.00000000000E+00  0.82367479130E+03  0.29176543834E+04  0.27989760519E+04 0.  0.
        4    1    3    3  502    0  0.11283739078E+04 -0.77543860280E+03  0.10966269769E+03  0.13735211038E+04  0.12699999809E+01 0.  1.
       -4    1    3    3    0  502 -0.11283739078E+04  0.77543860280E+03  0.71401209361E+03  0.15441332796E+04  0.12699999809E+01 0. -1.
</event>
<event>
 5   0  0.1523029E-05  0.2316348E+04  0.7818609E-02  0.8471503E-01
        2   -1    0    0  501    0  0.00000000000E+00  0.00000000000E+00  0.10631788779E+04  0.10631788779E+04  0.25500000920E-02 0. -1.
       -2   -1    0    0    0  501  0.00000000000E+00  0.00000000000E+00 -0.12616569116E+04  0.12616569116E+04  0.25500000920E-02 0.  1.
    10030    2    1    2    0    0  0.00000000000E+00  0.00000000000E+00 -0.19847803370E+03  0.23248357895E+04  0.23163479701E+04 0.  0.
        5    1    3    3  502    0  0.92088156427E+03 -0.10161935393E+03 -0.79676444160E+03  0.12219676812E+04  0.46999998093E+01 0.  1.
       -5    1    3    3    0  502 -0.92088156427E+03  0.10161935393E+03  0.59828640790E+03  0.11028681083E+04  0.46999998093E+01 0. -1.
</event>
<event>
 5   0  0.1480547E-05  0.2888051E+04  0.7818609E-02  0.8276442E-01
        2   -1    0    0  501    0  0.00000000000E+00  0.00000000000E+00  0.18161171498E+04  0.18161171498E+04  0.25500000920E-02 0. -1.
       -2   -1    0    0    0  501  0.00000000000E+00  0.00000000000E+00 -0.11481690241E+04  0.11481690242E+04  0.25500000920E-02 0.  1.
    10030    2    1    2    0    0  0.00000000000E+00  0.00000000000E+00  0.66794812568E+03  0.29642861740E+04  0.28880508691E+04 0.  0.
        1    1    3    3  502    0 -0.85229254516E+03 -0.20854394909E+03 -0.84317209664E+03  0.12168945500E+04  0.50400001928E-02 0.  1.
       -1    1    3    3    0  502  0.85229254516E+03  0.20854394909E+03  0.15111202223E+04  0.17473916240E+04  0.50400001928E-02 0. -1.
</event>
<event>
 5   0  0.1480547E-05  0.2352559E+04  0.7818609E-02  0.8457481E-01
       -2   -1    0    0    0  501  0.00000000000E+00  0.00000000000E+00  0.13728429641E+04  0.13728429641E+04  0.25500000920E-02 0. -1.
        2   -1    0    0  501    0  0.00000000000E+00  0.00000000000E+00 -0.10078599148E+04  0.10078599149E+04  0.25500000920E-02 0.  1.
    10030    2    1    2    0    0  0.00000000000E+00  0.00000000000E+00  0.36498304930E+03  0.23807028790E+04  0.23525589412E+04 0.  0.
        1    1    3    3  502    0  0.15358742541E+03  0.97965753897E+03  0.82276547663E+03  0.12885111643E+04  0.50400001928E-02 0. -1.
       -1    1    3    3    0  502 -0.15358742541E+03 -0.97965753897E+03 -0.45778242733E+03  0.10921917147E+04  0.50400001928E-02 0.  1.
</event>
<event>
 5   0  0.4806125E-06  0.3002751E+04  0.7818609E-02  0.8242946E-01
        3   -1    0    0  501    0  0.00000000000E+00  0.00000000000E+00  0.26130452399E+04  0.26130452418E+04  0.10100000352E+00 0. -1.
       -3   -1    0    0    0  501  0.00000000000E+00  0.00000000000E+00 -0.86264433666E+03  0.86264434257E+03  0.10100000352E+00 0.  1.
    10030    2    1    2    0    0  0.00000000000E+00  0.00000000000E+00  0.17504009032E+04  0.34756895844E+04  0.30027511993E+04 0.  0.
        3    1    3    3  502    0  0.11685282333E+04 -0.97482766464E+02 -0.21011868487E+03  0.11912644516E+04  0.10100000352E+00 0.  1.
       -3    1    3    3    0  502 -0.11685282333E+04  0.97482766464E+02  0.19605195881E+04  0.22844251328E+04  0.10100000352E+00 0. -1.
</event>
<event>
 5   0  0.4806125E-06  0.2750280E+04  0.7818609E-02  0.8318873E-01
       -3   -1    0    0    0  501  0.00000000000E+00  0.00000000000E+00  0.65365782948E+03  0.65365783728E+03  0.10100000352E+00 0. -1.
        3   -1    0    0  501    0  0.00000000000E+00  0.00000000000E+00 -0.28929655810E+04  0.28929655828E+04  0.10100000352E+00 0.  1.
    10030    2    1    2    0    0  0.00000000000E+00  0.00000000000E+00 -0.22393077516E+04  0.35466234201E+04  0.27502797090E+04 0.  0.
        5    1    3    3  502    0 -0.58536783986E+03  0.10967650672E+04 -0.36173360047E+03  0.12947673182E+04  0.46999998093E+01 0. -1.
       -5    1    3    3    0  502  0.58536783986E+03 -0.10967650672E+04 -0.18775741511E+04  0.22518561019E+04  0.46999998093E+01 0.  1.
</event>
<event>
 5   0  0.1388724E-05  0.2909910E+04  0.7818609E-02  0.8269935E-01
        2   -1    0    0  501    0  0.00000000000E+00  0.00000000000E+00  0.15055120665E+04  0.15055120665E+04  0.25500000920E-02 0. -1.
       -2   -1    0    0    0  501  0.00000000000E+00  0.00000000000E+00 -0.14060958381E+04  0.14060958381E+04  0.25500000920E-02 0.  1.
    10030    2    1    2    0    0  0.00000000000E+00  0.00000000000E+00  0.99416228438E+02  0.29116079046E+04  0.29099101367E+04 0.  0.
        4    1    3    3  502    0 -0.69744947982E+03  0.30928947655E+03 -0.11898838902E+04  0.14134783487E+04  0.12699999809E+01 0.  1.
       -4    1    3    3    0  502  0.69744947982E+03 -0.30928947655E+03  0.12893001187E+04  0.14981295558E+04  0.12699999809E+01 0. -1.
</event>
<event>
 5   0  0.5329891E-06  0.2913317E+04  0.7818609E-02  0.8268926E-01
       -1   -1    0    0    0  501  0.00000000000E+00  0.00000000000E+00  0.17167115461E+04  0.17167115462E+04  0.50400001928E-02 0. -1.
        1   -1    0    0  501    0  0.00000000000E+00  0.00000000000E+00 -0.12359987753E+04  0.12359987753E+04  0.50400001928E-02 0.  1.
    10030    2    1    2    0    0  0.00000000000E+00  0.00000000000E+00  0.48071277087E+03  0.29527103214E+04  0.29133165764E+04 0.  0.
        4    1    3    3  502    0  0.49921412655E+03 -0.13337906737E+04 -0.69787047803E+02  0.14258625987E+04  0.12699999809E+01 0. -1.
       -4    1    3    3    0  502 -0.49921412655E+03  0.13337906737E+04  0.55049981868E+03  0.15268477228E+04  0.12699999809E+01 0.  1.
</event>
<event>
 5   0  0.1388724E-05  0.3103878E+04  0.7818609E-02  0.8214674E-01
       -2   -1    0    0    0  501  0.00000000000E+00  0.00000000000E+00  0.11477736097E+04  0.11477736098E+04  0.25500000920E-02 0.  1.
        2   -1    0    0  501    0  0.00000000000E+00  0.00000000000E+00 -0.20984232666E+04  0.20984232666E+04  0.25500000920E-02 0. -1.
    10030    2    1    2    0    0  0.00000000000E+00  0.00000000000E+00 -0.95064965684E+03  0.32461968763E+04  0.31038781210E+04 0.  0.
        4    1    3    3  502    0 -0.81475459484E+03  0.11109773668E+04  0.27186846198E+03  0.14042826756E+04  0.12699999809E+01 0.  1.
       -4    1    3    3    0  502  0.81475459484E+03 -0.11109773668E+04 -0.12225181188E+04  0.18419142008E+04  0.12699999809E+01 0. -1.
</event>
<event>
 5   0  0.5522695E-06  0.2677437E+04  0.7818609E-02  0.8342363E-01
        1   -1    0    0  501    0  0.00000000000E+00  0.00000000000E+00  0.15370020688E+04  0.15370020688E+04  0.50400001928E-02 0. -1.
       -1   -1    0    0    0  501  0.00000000000E+00  0.00000000000E+00 -0.11660145686E+04  0.11660145686E+04  0.50400001928E-02 0.  1.
    10030    2    1    2    0    0  0.00000000000E+00  0.00000000000E+00  0.37098750026E+03  0.27030166374E+04  0.26774366877E+04 0.  0.
        3    1    3    3  502    0  0.83579997122E+03  0.16328519949E+03 -0.85730414932E+03  0.12083848985E+04  0.10100000352E+00 0.  1.
       -3    1    3    3    0  502 -0.83579997122E+03 -0.16328519949E+03  0.12282916496E+04  0.14946317389E+04  0.10100000352E+00 0. -1.
</event>
<event>
 5   0  0.5329891E-06  0.2007228E+04  0.7818609E-02  0.8603249E-01
       -1   -1    0    0    0  501  0.00000000000E+00  0.00000000000E+00  0.12557913804E+04  0.12557913804E+04  0.50400001928E-02 0.  1.
        1   -1    0    0  501    0  0.00000000000E+00  0.00000000000E+00 -0.80207683480E+03  0.80207683482E+03  0.50400001928E-02 0. -1.
    10030    2    1    2    0    0  0.00000000000E+00  0.00000000000E+00  0.45371454561E+03  0.20578682152E+04  0.20072281142E+04 0.  0.
        4    1    3    3  502    0 -0.42770791885E+03  0.88811956681E+03  0.33555721156E+02  0.98631537965E+03  0.12699999809E+01 0.  1.
       -4    1    3    3    0  502  0.42770791885E+03 -0.88811956681E+03  0.42015882446E+03  0.10715528356E+04  0.12699999809E+01 0. -1.
</event>
<event>
 5   0  0.5392262E-06  0.3017464E+04  0.7818609E-02  0.8238761E-01
        1   -1    0    0  501    0  0.00000000000E+00  0.00000000000E+00  0.19189155320E+04  0.19189155320E+04  0.50400001928E-02 0.  1.
       -1   -1    0    0    0  501  0.00000000000E+00  0.00000000000E+00 -0.11862286479E+04  0.11862286479E+04  0.50400001928E-02 0. -1.
    10030    2    1    2    0    0  0.00000000000E+00  0.00000000000E+00  0.73268688414E+03  0.31051441799E+04  0.30174642181E+04 0.  0.
        2    1    3    3  502    0  0.14446646095E+04  0.34089538016E+03  0.88293928982E+02  0.14869637898E+04  0.25500000920E-02 0. -1.
       -2    1    3    3    0  502 -0.14446646095E+04 -0.34089538016E+03  0.64439295516E+03  0.16181803901E+04  0.25500000920E-02 0.  1.
</event>
<event>
 5   0  0.1480547E-05  0.2977338E+04  0.7818609E-02  0.8250232E-01
        2   -1    0    0  501    0  0.00000000000E+00  0.00000000000E+00  0.18684255685E+04  0.18684255685E+04  0.25500000920E-02 0.  1.
       -2   -1    0    0    0  501  0.00000000000E+00  0.00000000000E+00 -0.11860980033E+04  0.11860980033E+04  0.25500000920E-02 0. -1.
    10030    2    1    2    0    0  0.00000000000E+00  0.00000000000E+00  0.68232756517E+03  0.30545235718E+04  0.29773382986E+04 0.  0.
        1    1    3    3  502    0 -0.86504955380E+03 -0.11362308507E+04 -0.90218224840E+02  0.14308985306E+04  0.50400001928E-02 0. -1.
       -1    1    3    3    0  502  0.86504955380E+03  0.11362308507E+04  0.77254579001E+03  0.16236250412E+04  0.50400001928E-02 0.  1.
</event>
<event>
 5   0  0.5730920E-06  0.2753502E+04  0.7818609E-02  0.8317851E-01
       -1   -1    0    0    0  501  0.00000000000E+00  0.00000000000E+00  0.11299326049E+04  0.11299326049E+04  0.50400001928E-02 0. -1.
        1   -1    0    0  501    0  0.00000000000E+00  0.00000000000E+00 -0.16774839247E+04  0.16774839247E+04  0.50400001928E-02 0.  1.
    10030    2    1    2    0    0  0.00000000000E+00  0.00000000000E+00 -0.54755131972E+03  0.28074165296E+04  0.27535023376E+04 0.  0.
        1    1    3    3  502    0  0.85256617915E+03 -0.45491316851E+03 -0.12736032373E+04  0.15987120712E+04  0.50400001928E-02 0.  1.
       -1    1    3    3    0  502 -0.85256617915E+03  0.45491316851E+03  0.72605191754E+03  0.12087044584E+04  0.50400001928E-02 0. -1.
</event>
<event>
 5   0  0.1480547E-05  0.1710149E+04  0.7818609E-02  0.8755597E-01
       -2   -1    0    0    0  501  0.00000000000E+00  0.00000000000E+00  0.63875775565E+03  0.63875775565E+03  0.25500000920E-02 0. -1.
        2   -1    0    0  501    0  0.00000000000E+00  0.00000000000E+00 -0.11446480194E+04  0.11446480194E+04  0.25500000920E-02 0.  1.
    10030    2    1    2    0    0  0.00000000000E+00  0.00000000000E+00 -0.50589026372E+03  0.17834057750E+04  0.17101494670E+04 0.  0.
        1    1    3    3  502    0  0.78069410991E+03  0.13025225328E+03  0.84495549697E+02  0.79598268868E+03  0.50400001928E-02 0. -1.
       -1    1    3    3    0  502 -0.78069410991E+03 -0.13025225328E+03 -0.59038581341E+03  0.98742308634E+03  0.50400001928E-02 0.  1.
</event>
<event>
 5   0  0.1345931E-05  0.3192357E+04  0.7818609E-02  0.8190839E-01
        2   -1    0    0  501    0  0.00000000000E+00  0.00000000000E+00  0.17975979155E+04  0.17975979155E+04  0.25500000920E-02 0.  1.
       -2   -1    0    0    0  501  0.00000000000E+00  0.00000000000E+00 -0.14173280854E+04  0.14173280854E+04  0.25500000920E-02 0. -1.
    10030    2    1    2    0    0  0.00000000000E+00  0.00000000000E+00  0.38026983011E+03  0.32149260009E+04  0.31923571304E+04 0.  0.
        2    1    3    3  502    0 -0.29184975601E+03 -0.15690222097E+04  0.16202634978E+03  0.16041382461E+04  0.25500000920E-02 0.  1.
       -2    1    3    3    0  502  0.29184975601E+03  0.15690222097E+04  0.21824348034E+03  0.16107877549E+04  0.25500000920E-02 0. -1.
</event>
<event>
 5   0  0.1388724E-05  0.2882611E+04  0.7818609E-02  0.8278070E-01
        2   -1    0    0  501    0  0.00000000000E+00  0.00000000000E+00  0.22003000051E+04  0.22003000051E+04  0.25500000920E-02 0. -1.
       -2   -1    0    0    0  501  0.00000000000E+00  0.00000000000E+00 -0.94412619121E+03  0.94412619122E+03  0.25500000920E-02 0.  1.
    10030    2    1    2    0    0  0.00000000000E+00  0.00000000000E+00  0.12561738139E+04  0.31444261963E+04  0.28826105275E+04 0.  0.
        4    1    3    3  502    0  0.12394785435E+03  0.10659941700E+04  0.16775796798E+04  0.19914772999E+04  0.12699999809E+01 0. -1.
       -4    1    3    3    0  502 -0.12394785435E+03 -0.10659941700E+04 -0.42140586589E+03  0.11529488964E+04  0.12699999809E+01 0.  1.
</event>
<event>
 5   0  0.5329891E-06  0.3018246E+04  0.7818609E-02  0.8238540E-01
       -1   -1    0    0    0  501  0.00000000000E+00  0.00000000000E+00  0.11339774178E+04  0.11339774178E+04  0.50400001928E-02 0.  1.
        1   -1    0    0  501    0  0.00000000000E+00  0.00000000000E+00 -0.20083756790E+04  0.20083756790E+04  0.50400001928E-02 0. -1.
    10030    2    1    2    0    0  0.00000000000E+00  0.00000000000E+00 -0.87439826124E+03  0.31423530968E+04  0.30182462898E+04 0.  0.
        4    1    3    3  502    0 -0.29367779331E+03 -0.10366801423E+04  0.66289391005E+03  0.12650621773E+04  0.12699999809E+01 0.  1.
       -4    1    3    3    0  502  0.29367779331E+03  0.10366801423E+04 -0.15372921713E+04  0.18772909195E+04  0.12699999809E+01 0. -1.
</event>
<event>
 5   0  0.5730920E-06  0.2969652E+04  0.7818609E-02  0.8252450E-01
        1   -1    0    0  501    0  0.00000000000E+00  0.00000000000E+00  0.33413715515E+04  0.33413715515E+04  0.50400001928E-02 0. -1.
       -1   -1    0    0    0  501  0.00000000000E+00  0.00000000000E+00 -0.65982147438E+03  0.65982147440E+03  0.50400001928E-02 0.  1.
    10030    2    1    2    0    0  0.00000000000E+00  0.00000000000E+00  0.26815500771E+04  0.40011930259E+04  0.29696523053E+04 0.  0.
        1    1    3    3  502    0  0.11448807578E+04 -0.11356414463E+03  0.26054724410E+04  0.28481810696E+04  0.50400001928E-02 0. -1.
       -1    1    3    3    0  502 -0.11448807578E+04  0.11356414463E+03  0.76077636115E+02  0.11530119563E+04  0.50400001928E-02 0.  1.
</event>
<event>
 5   0  0.1388724E-05  0.2998443E+04  0.7818609E-02  0.8244176E-01
       -2   -1    0    0    0  501  0.00000000000E+00  0.00000000000E+00  0.78339373574E+03  0.78339373574E+03  0.25500000920E-02 0. -1.
        2   -1    0    0  501    0  0.00000000000E+00  0.00000000000E+00 -0.28691377632E+04  0.28691377632E+04  0.25500000920E-02 0.  1.
    10030    2    1    2    0    0  0.00000000000E+00  0.00000000000E+00 -0.20857440275E+04  0.36525314990E+04  0.29984426296E+04 0.  0.
        4    1    3    3  502    0 -0.42292600874E+03  0.10635246039E+03 -0.27901686351E+04  0.28240431796E+04  0.12699999809E+01 0.  1.
       -4    1    3    3    0  502  0.42292600874E+03 -0.10635246039E+03  0.70442460762E+03  0.82848831943E+03  0.12699999809E+01 0. -1.
</event>
<event>
 5   0  0.1423692E-05  0.2278281E+04  0.7818609E-02  0.8486534E-01
       -2   -1    0    0    0  501  0.00000000000E+00  0.00000000000E+00  0.63863328021E+03  0.63863328021E+03  0.25500000920E-02 0.  1.
        2   -1    0    0  501    0  0.00000000000E+00  0.00000000000E+00 -0.20319029724E+04  0.20319029724E+04  0.25500000920E-02 0. -1.
    10030    2    1    2    0    0  0.00000000000E+00  0.00000000000E+00 -0.13932696922E+04  0.26705362526E+04  0.22782808083E+04 0.  0.
        3    1    3    3  502    0  0.64560917090E+03 -0.20709635434E+03 -0.17696302985E+04  0.18950703167E+04  0.10100000352E+00 0. -1.
       -3    1    3    3    0  502 -0.64560917090E+03  0.20709635434E+03  0.37636060635E+03  0.77546593591E+03  0.10100000352E+00 0.  1.
</event>
<event>
 5   0  0.5392262E-06  0.1840641E+04  0.7818609E-02  0.8684981E-01
       -1   -1    0    0    0  501  0.00000000000E+00  0.00000000000E+00  0.46940539673E+03  0.46940539676E+03  0.50400001928E-02 0. -1.
        1   -1    0    0  501    0  0.00000000000E+00  0.00000000000E+00 -0.18043881713E+04  0.18043881713E+04  0.50400001928E-02 0.  1.
    10030    2    1    2    0    0  0.00000000000E+00  0.00000000000E+00 -0.13349827746E+04  0.22737935681E+04  0.18406406987E+04 0.  0.
        2    1    3    3  502    0 -0.91368220140E+03 -0.17310966479E+02 -0.53287636337E+03  0.10578620200E+04  0.25500000920E-02 0.  1.
       -2    1    3    3    0  502  0.91368220140E+03  0.17310966479E+02 -0.80210641123E+03  0.12159315481E+04  0.25500000920E-02 0. -1.
</event>
<event>
 5   0  0.5522695E-06  0.3026788E+04  0.7818609E-02  0.8236122E-01
       -1   -1    0    0    0  501  0.00000000000E+00  0.00000000000E+00  0.87705302003E+03  0.87705302005E+03  0.50400001928E-02 0. -1.
        1   -1    0    0  501    0  0.00000000000E+00  0.00000000000E+00 -0.26114294307E+04  0.26114294307E+04  0.50400001928E-02 0.  1.
    10030    2    1    2    0    0  0.00000000000E+00  0.00000000000E+00 -0.17343764107E+04  0.34884824508E+04  0.30267884424E+04 0.  0.
        3    1    3    3  502    0  0.10541933747E+04  0.10434363965E+04 -0.52089215186E+03  0.15720724630E+04  0.10100000352E+00 0. -1.
       -3    1    3    3    0  502 -0.10541933747E+04 -0.10434363965E+04 -0.12134842588E+04  0.19164099878E+04  0.10100000352E+00 0.  1.
</event>
<event>
 5   0  0.1345931E-05  0.1738391E+04  0.7818609E-02  0.8739766E-01
        2   -1    0    0  501    0  0.00000000000E+00  0.00000000000E+00  0.16081215294E+04  0.16081215294E+04  0.25500000920E-02 0. -1.
       -2   -1    0    0    0  501  0.00000000000E+00  0.00000000000E+00 -0.46980345744E+03  0.46980345744E+03  0.25500000920E-02 0.  1.
    10030    2    1    2    0    0  0.00000000000E+00  0.00000000000E+00  0.11383180720E+04  0.20779249869E+04  0.17383912730E+04 0.  0.
        2    1    3    3  502    0 -0.32484111878E+03  0.16267471758E+03 -0.37469799767E+03  0.52190363636E+03  0.25500000920E-02 0.  1.
       -2    1    3    3    0  502  0.32484111878E+03 -0.16267471758E+03  0.15130160696E+04  0.15560213505E+04  0.25500000920E-02 0. -1.
</event>
<event>
 5   0  0.1388724E-05  0.3041025E+04  0.7818609E-02  0.8232112E-01
       -2   -1    0    0    0  501  0.00000000000E+00  0.00000000000E+00  0.11997881595E+04  0.11997881595E+04  0.25500000920E-02 0.  1.
        2   -1    0    0  501    0  0.00000000000E+00  0.00000000000E+00 -0.19269725681E+04  0.19269725681E+04  0.25500000920E-02 0. -1.
    10030    2    1    2    0    0  0.00000000000E+00  0.00000000000E+00 -0.72718440853E+03  0.31267607276E+04  0.30410254000E+04 0.  0.
        4    1    3    3  502    0 -0.82927768197E+03  0.11641534938E+04 -0.89686901628E+03  0.16874034717E+04  0.12699999809E+01 0. -1.
       -4    1    3    3    0  502  0.82927768197E+03 -0.11641534938E+04  0.16968460774E+03  0.14393572559E+04  0.12699999809E+01 0.  1.
</event>
<event>
 5   0  0.5730920E-06  0.2724682E+04  0.7818609E-02  0.8327041E-01
        1   -1    0    0  501    0  0.00000000000E+00  0.00000000000E+00  0.15033452630E+04  0.15033452630E+04  0.50400001928E-02 0. -1.
       -1   -1    0    0    0  501  0.00000000000E+00  0.00000000000E+00 -0.12345624258E+04  0.12345624258E+04  0.50400001928E-02 0.  1.
    10030    2    1    2    0    0  0.00000000000E+00  0.00000000000E+00  0.26878283726E+03  0.27379076888E+04  0.27246824216E+04 0.  0.
        1    1    3    3  502    0  0.43559367035E+03  0.46369784778E+03 -0.10761201540E+04  0.12501168448E+04  0.50400001928E-02 0.  1.
       -1    1    3    3    0  502 -0.43559367035E+03 -0.46369784778E+03  0.13449029913E+04  0.14877908440E+04  0.50400001928E-02 0. -1.
</event>
<event>
 5   0  0.5730920E-06  0.2881480E+04  0.7818609E-02  0.8278409E-01
        1   -1    0    0  501    0  0.00000000000E+00  0.00000000000E+00  0.11044523724E+04  0.11044523724E+04  0.50400001928E-02 0. -1.
       -1   -1    0    0    0  501  0.00000000000E+00  0.00000000000E+00 -0.18794223103E+04  0.18794223103E+04  0.50400001928E-02 0.  1.
    10030    2    1    2    0    0  0.00000000000E+00  0.00000000000E+00 -0.77496993788E+03  0.29838746827E+04  0.28814804732E+04 0.  0.
        1    1    3    3  502    0 -0.11095178454E+04  0.22244628502E+03 -0.13109248118E+04  0.17317725200E+04  0.50400001928E-02 0.  1.
       -1    1    3    3    0  502  0.11095178454E+04 -0.22244628502E+03  0.53595487390E+03  0.12521021627E+04  0.50400001928E-02 0. -1.
</event>
<event>
 5   0  0.1423692E-05  0.2963196E+04  0.7818609E-02  0.8254319E-01
       -2   -1    0    0    0  501  0.00000000000E+00  0.00000000000E+00  0.13277970045E+04  0.13277970045E+04  0.25500000920E-02 0. -1.
        2   -1    0    0  501    0  0.00000000000E+00  0.00000000000E+00 -0.16532139069E+04  0.16532139069E+04  0.25500000920E-02 0.  1.
    10030    2    1    2    0    0  0.00000000000E+00  0.00000000000E+00 -0.32541690240E+03  0.29810109115E+04  0.29631958919E+04 0.  0.
        3    1    3    3  502    0 -0.17892173872E+03 -0.94403319990E+03  0.97186661778E+03  0.13666515299E+04  0.10100000352E+00 0. -1.
       -3    1    3    3    0  502  0.17892173872E+03  0.94403319990E+03 -0.12972835202E+04  0.16143593816E+04  0.10100000352E+00 0.  1.
</event>
<event>
 5   0  0.5329891E-06  0.1550651E+04  0.7818609E-02  0.8851452E-01
       -1   -1    0    0    0  501  0.00000000000E+00  0.00000000000E+00  0.47425913262E+03  0.47425913265E+03  0.50400001928E-02 0.  1.
        1   -1    0    0  501    0  0.00000000000E+00  0.00000000000E+00 -0.12675123879E+04  0.12675123879E+04  0.50400001928E-02 0. -1.
    10030    2    1    2    0    0  0.00000000000E+00  0.00000000000E+00 -0.79325325529E+03  0.17417715206E+04  0.15506506063E+04 0.  0.
        4    1    3    3  502    0  0.76532055804E+03 -0.10931439741E+03 -0.33053091337E+03  0.84078385547E+03  0.12699999809E+01 0. -1.
       -4    1    3    3    0  502 -0.76532055804E+03  0.10931439741E+03 -0.46272234192E+03  0.90098766509E+03  0.12699999809E+01 0.  1.
</event>
<event>
 5   0  0.5730920E-06  0.1578006E+04  0.7818609E-02  0.8834175E-01
        1   -1    0    0  501    0  0.00000000000E+00  0.00000000000E+00  0.69016468119E+03  0.69016468121E+03  0.50400001928E-02 0.  1.
       -1   -1    0    0    0  501  0.00000000000E+00  0.00000000000E+00 -0.90199541115E+03  0.90199541116E+03  0.50400001928E-02 0. -1.
    10030    2    1    2    0    0  0.00000000000E+00  0.00000000000E+00 -0.21183072996E+03  0.15921600924E+04  0.15780055455E+04 0.  0.
        1    1    3    3  502    0  0.77281240863E+03 -0.15245823204E+03 -0.60312114204E+02  0.79001271040E+03  0.50400001928E-02 0.  1.
       -1    1    3    3    0  502 -0.77281240863E+03  0.15245823204E+03 -0.15151861576E+03  0.80214738197E+03  0.50400001928E-02 0. -1.
</event>
<event>
 5   0  0.5730920E-06  0.3008098E+04  0.7818609E-02  0.8241422E-01
       -1   -1    0    0    0  501  0.00000000000E+00  0.00000000000E+00  0.92551467741E+03  0.92551467743E+03  0.50400001928E-02 0.  1.
        1   -1    0    0  501    0  0.00000000000E+00  0.00000000000E+00 -0.24442219611E+04  0.24442219611E+04  0.50400001928E-02 0. -1.
    10030    2    1    2    0    0  0.00000000000E+00  0.00000000000E+00 -0.15187072837E+04  0.33697366386E+04  0.30080979372E+04 0.  0.
        1    1    3    3  502    0  0.14943077222E+04 -0.34109158480E+02 -0.57175648032E+03  0.16003201168E+04  0.50400001928E-02 0. -1.
       -1    1    3    3    0  502 -0.14943077222E+04  0.34109158480E+02 -0.94695080340E+03  0.17694165218E+04  0.50400001928E-02 0.  1.
</event>
<event>
 5   0  0.5522695E-06  0.2912213E+04  0.7818609E-02  0.8269253E-01
        1   -1    0    0  501    0  0.00000000000E+00  0.00000000000E+00  0.19696717839E+04  0.19696717840E+04  0.50400001928E-02 0. -1.
       -1   -1    0    0    0  501  0.00000000000E+00  0.00000000000E+00 -0.10764467725E+04  0.10764467725E+04  0.50400001928E-02 0.  1.
    10030    2    1    2    0    0  0.00000000000E+00  0.00000000000E+00  0.89322501145E+03  0.30461185565E+04  0.29122134776E+04 0.  0.
        3    1    3    3  502    0 -0.81380730588E+03  0.82160438771E+03 -0.47890633222E+03  0.12516658445E+04  0.10100000352E+00 0.  1.
       -3    1    3    3    0  502  0.81380730588E+03 -0.82160438771E+03  0.13721313437E+04  0.17944527120E+04  0.10100000352E+00 0. -1.
</event>
<event>
 5   0  0.1523029E-05  0.4049859E+04  0.7818609E-02  0.7994563E-01
        2   -1    0    0  501    0  0.00000000000E+00  0.00000000000E+00  0.19978376376E+04  0.19978376376E+04  0.25500000920E-02 0.  1.
       -2   -1    0    0    0  501  0.00000000000E+00  0.00000000000E+00 -0.20523884010E+04  0.20523884010E+04  0.25500000920E-02 0. -1.
    10030    2    1    2    0    0  0.00000000000E+00  0.00000000000E+00 -0.54550763408E+02  0.40502260386E+04  0.40498586615E+04 0.  0.
        5    1    3    3  502    0 -0.13042116365E+04  0.11373590834E+04 -0.10789234462E+04  0.20392772176E+04  0.46999998093E+01 0.  1.
       -5    1    3    3    0  502  0.13042116365E+04 -0.11373590834E+04  0.10243726828E+04  0.20109488210E+04  0.46999998093E+01 0. -1.
</event>
<event>
 5   0  0.5329891E-06  0.1768080E+04  0.7818609E-02  0.8723461E-01
       -1   -1    0    0    0  501  0.00000000000E+00  0.00000000000E+00  0.57180558711E+03  0.57180558713E+03  0.50400001928E-02 0. -1.
        1   -1    0    0  501    0  0.00000000000E+00  0.00000000000E+00 -0.13667701212E+04  0.13667701212E+04  0.50400001928E-02 0.  1.
    10030    2    1    2    0    0  0.00000000000E+00  0.00000000000E+00 -0.79496453404E+03  0.19385757083E+04  0.17680800792E+04 0.  0.
        4    1    3    3  502    0 -0.18470481544E+03  0.24576524609E+03  0.51130445019E+03  0.59661568762E+03  0.12699999809E+01 0. -1.
       -4    1    3    3    0  502  0.18470481544E+03 -0.24576524609E+03 -0.13062689842E+04  0.13419600207E+04  0.12699999809E+01 0.  1.
</event>
<event>
 5   0  0.5730920E-06  0.1679700E+04  0.7818609E-02  0.8773027E-01
       -1   -1    0    0    0  501  0.00000000000E+00  0.00000000000E+00  0.62031045152E+03  0.62031045154E+03  0.50400001928E-02 0. -1.
        1   -1    0    0  501    0  0.00000000000E+00  0.00000000000E+00 -0.11370891261E+04  0.11370891261E+04  0.50400001928E-02 0.  1.
    10030    2    1    2    0    0  0.00000000000E+00  0.00000000000E+00 -0.51677867456E+03  0.17573995776E+04  0.16797002938E+04 0.  0.
        1    1    3    3  502    0 -0.23814543604E+03 -0.75920298492E+03 -0.53960866562E+03  0.96139478523E+03  0.50400001928E-02 0.  1.
       -1    1    3    3    0  502  0.23814543604E+03  0.75920298492E+03  0.22829991065E+02  0.79600479241E+03  0.50400001928E-02 0. -1.
</event>
<event>
 5   0  0.5730920E-06  0.2858857E+04  0.7818609E-02  0.8285225E-01
        1   -1    0    0  501    0  0.00000000000E+00  0.00000000000E+00  0.12082061345E+04  0.12082061345E+04  0.50400001928E-02 0. -1.
       -1   -1    0    0    0  501  0.00000000000E+00  0.00000000000E+00 -0.16911562912E+04  0.16911562912E+04  0.50400001928E-02 0.  1.
    10030    2    1    2    0    0  0.00000000000E+00  0.00000000000E+00 -0.48295015670E+03  0.28993624257E+04  0.28588566984E+04 0.  0.
        1    1    3    3  502    0  0.10762137026E+04 -0.74440958721E+03 -0.82485019026E+03  0.15468546808E+04  0.50400001928E-02 0.  1.
       -1    1    3    3    0  502 -0.10762137026E+04  0.74440958721E+03  0.34190003356E+03  0.13525077449E+04  0.50400001928E-02 0. -1.
</event>
<event>
 5   0  0.1523029E-05  0.3014777E+04  0.7818609E-02  0.8239524E-01
       -2   -1    0    0    0  501  0.00000000000E+00  0.00000000000E+00  0.11273100230E+04  0.11273100230E+04  0.25500000920E-02 0.  1.
        2   -1    0    0  501    0  0.00000000000E+00  0.00000000000E+00 -0.20156123254E+04  0.20156123254E+04  0.25500000920E-02 0. -1.
    10030    2    1    2    0    0  0.00000000000E+00  0.00000000000E+00 -0.88830230233E+03  0.31429223484E+04  0.30147769250E+04 0.  0.
        5    1    3    3  502    0  0.13144207689E+04 -0.37738152873E+03  0.21689871861E+03  0.13846248301E+04  0.46999998093E+01 0.  1.
       -5    1    3    3    0  502 -0.13144207689E+04  0.37738152873E+03 -0.11052010209E+04  0.17582975183E+04  0.46999998093E+01 0. -1.
</event>
<event>
 5   0  0.1388724E-05  0.3329781E+04  0.7818609E-02  0.8155359E-01
        2   -1    0    0  501    0  0.00000000000E+00  0.00000000000E+00  0.22968974062E+04  0.22968974062E+04  0.25500000920E-02 0. -1.
       -2   -1    0    0    0  501  0.00000000000E+00  0.00000000000E+00 -0.12067843592E+04  0.12067843592E+04  0.25500000920E-02 0.  1.
    10030    2    1    2    0    0  0.00000000000E+00  0.00000000000E+00  0.10901130470E+04  0.35036817655E+04  0.33297806922E+04 0.  0.
        4    1    3    3  502    0  0.87919898566E+03  0.63028105933E+03 -0.78658656526E+03  0.13375220027E+04  0.12699999809E+01 0.  1.
       -4    1    3    3    0  502 -0.87919898566E+03 -0.63028105933E+03  0.18766996123E+04  0.21661597628E+04  0.12699999809E+01 0. -1.
</event>
<event>
 5   0  0.7032692E-06  0.2950771E+04  0.7818609E-02  0.8257930E-01
        1   -1    0    0  501    0  0.00000000000E+00  0.00000000000E+00  0.22846234623E+04  0.22846234624E+04  0.50400001928E-02 0.  1.
       -1   -1    0    0    0  501  0.00000000000E+00  0.00000000000E+00 -0.95278795717E+03  0.95278795718E+03  0.50400001928E-02 0. -1.
    10030    2    1    2    0    0  0.00000000000E+00  0.00000000000E+00  0.13318355052E+04  0.32374114195E+04  0.29507705581E+04 0.  0.
        5    1    3    3  502    0  0.36598237267E+03  0.13804340444E+04  0.25953342549E+03  0.14515236605E+04  0.46999998093E+01 0. -1.
       -5    1    3    3    0  502 -0.36598237267E+03 -0.13804340444E+04  0.10723020797E+04  0.17858877591E+04  0.46999998093E+01 0.  1.
</event>
<event>
 5   0  0.1388724E-05  0.1569402E+04  0.7818609E-02  0.8839569E-01
        2   -1    0    0  501    0  0.00000000000E+00  0.00000000000E+00  0.82607008160E+03  0.82607008160E+03  0.25500000920E-02 0. -1.
       -2   -1    0    0    0  501  0.00000000000E+00  0.00000000000E+00 -0.74540373398E+03  0.74540373399E+03  0.25500000920E-02 0.  1.
    10030    2    1    2    0    0  0.00000000000E+00  0.00000000000E+00  0.80666347615E+02  0.15714738156E+04  0.15694020815E+04 0.  0.
        4    1    3    3  502    0 -0.16347827224E+03 -0.28013798987E+03 -0.67513904644E+03  0.74901053650E+03  0.12699999809E+01 0.  1.
       -4    1    3    3    0  502  0.16347827224E+03  0.28013798987E+03  0.75580539405E+03  0.82246327909E+03  0.12699999809E+01 0. -1.
</event>
<event>
 5   0  0.5522695E-06  0.1764059E+04  0.7818609E-02  0.8725650E-01
       -1   -1    0    0    0  501  0.00000000000E+00  0.00000000000E+00  0.16719137596E+04  0.16719137596E+04  0.50400001928E-02 0.  1.
        1   -1    0    0  501    0  0.00000000000E+00  0.00000000000E+00 -0.46532059777E+03  0.46532059780E+03  0.50400001928E-02 0. -1.
    10030    2    1    2    0    0  0.00000000000E+00  0.00000000000E+00  0.12065931618E+04  0.21372343574E+04  0.17640588540E+04 0.  0.
        3    1    3    3  502    0 -0.54990991312E+03  0.20323552197E+03  0.14016940400E+04  0.15193590036E+04  0.10100000352E+00 0.  1.
       -3    1    3    3    0  502  0.54990991312E+03 -0.20323552197E+03 -0.19510087817E+03  0.61787535377E+03  0.10100000352E+00 0. -1.
</event>
<event>
 5   0  0.1345931E-05  0.3027365E+04  0.7818609E-02  0.8235959E-01
        2   -1    0    0  501    0  0.00000000000E+00  0.00000000000E+00  0.16078343416E+04  0.16078343416E+04  0.25500000920E-02 0. -1.
       -2   -1    0    0    0  501  0.00000000000E+00  0.00000000000E+00 -0.14250443311E+04  0.14250443311E+04  0.25500000920E-02 0.  1.
    10030    2    1    2    0    0  0.00000000000E+00  0.00000000000E+00  0.18279001052E+03  0.30328786728E+04  0.30273653324E+04 0.  0.
        2    1    3    3  502    0 -0.76352508936E+03  0.32445674824E+03  0.13597941631E+04  0.15928850899E+04  0.25500000920E-02 0. -1.
       -2    1    3    3    0  502  0.76352508936E+03 -0.32445674824E+03 -0.11770041526E+04  0.14399935829E+04  0.25500000920E-02 0.  1.
</event>
<event>
 5   0  0.1480547E-05  0.2986196E+04  0.7818609E-02  0.8247684E-01
       -2   -1    0    0    0  501  0.00000000000E+00  0.00000000000E+00  0.10097729325E+04  0.10097729325E+04  0.25500000920E-02 0. -1.
        2   -1    0    0  501    0  0.00000000000E+00  0.00000000000E+00 -0.22077646660E+04  0.22077646660E+04  0.25500000920E-02 0.  1.
    10030    2    1    2    0    0  0.00000000000E+00  0.00000000000E+00 -0.11979917335E+04  0.32175375985E+04  0.29861955737E+04 0.  0.
        1    1    3    3  502    0  0.50100690903E+03 -0.55461408520E+03  0.79370978099E+03  0.10902201259E+04  0.50400001928E-02 0. -1.
       -1    1    3    3    0  502 -0.50100690903E+03  0.55461408520E+03 -0.19917015145E+04  0.21273174726E+04  0.50400001928E-02 0.  1.
</event>
<event>
 5   0  0.5329891E-06  0.2885012E+04  0.7818609E-02  0.8277351E-01
        1   -1    0    0  501    0  0.00000000000E+00  0.00000000000E+00  0.13717718145E+04  0.13717718145E+04  0.50400001928E-02 0. -1.
       -1   -1    0    0    0  501  0.00000000000E+00  0.00000000000E+00 -0.15168876318E+04  0.15168876318E+04  0.50400001928E-02 0.  1.
    10030    2    1    2    0    0  0.00000000000E+00  0.00000000000E+00 -0.14511581732E+03  0.28886594464E+04  0.28850120965E+04 0.  0.
        4    1    3    3  502    0 -0.13555264383E+04 -0.32753404252E+03  0.29681444423E+03  0.14257737903E+04  0.12699999809E+01 0.  1.
       -4    1    3    3    0  502  0.13555264383E+04  0.32753404252E+03 -0.44193026155E+03  0.14628856561E+04  0.12699999809E+01 0. -1.
</event>
<event>
 5   0  0.1480547E-05  0.2988760E+04  0.7818609E-02  0.8246948E-01
       -2   -1    0    0    0  501  0.00000000000E+00  0.00000000000E+00  0.20760844234E+04  0.20760844234E+04  0.25500000920E-02 0.  1.
        2   -1    0    0  501    0  0.00000000000E+00  0.00000000000E+00 -0.10756653354E+04  0.10756653354E+04  0.25500000920E-02 0. -1.
    10030    2    1    2    0    0  0.00000000000E+00  0.00000000000E+00  0.10004190881E+04  0.31517497588E+04  0.29887603099E+04 0.  0.
        1    1    3    3  502    0  0.66953259532E+03 -0.47795819098E+03  0.18158245020E+04  0.19934734888E+04  0.50400001928E-02 0.  1.
       -1    1    3    3    0  502 -0.66953259532E+03  0.47795819098E+03 -0.81540541391E+03  0.11582762700E+04  0.50400001928E-02 0. -1.
</event>
<event>
 5   0  0.5392262E-06  0.2178989E+04  0.7818609E-02  0.8527225E-01
       -1   -1    0    0    0  501  0.00000000000E+00  0.00000000000E+00  0.12209623120E+04  0.12209623120E+04  0.50400001928E-02 0. -1.
        1   -1    0    0  501    0  0.00000000000E+00  0.00000000000E+00 -0.97218237652E+03  0.97218237653E+03  0.50400001928E-02 0.  1.
    10030    2    1    2    0    0  0.00000000000E+00  0.00000000000E+00  0.24877993548E+03  0.21931446885E+04  0.21789887950E+04 0.  0.
        2    1    3    3  502    0 -0.32267864872E+03  0.38277466123E+03 -0.84955346806E+03  0.98609281851E+03  0.25500000920E-02 0.  1.
       -2    1    3    3    0  502  0.32267864872E+03 -0.38277466123E+03  0.10983334035E+04  0.12070518700E+04  0.25500000920E-02 0. -1.
</event>
<event>
 5   0  0.1388724E-05  0.3064928E+04  0.7818609E-02  0.8225429E-01
        2   -1    0    0  501    0  0.00000000000E+00  0.00000000000E+00  0.14842123176E+04  0.14842123176E+04  0.25500000920E-02 0.  1.
       -2   -1    0    0    0  501  0.00000000000E+00  0.00000000000E+00 -0.15822848556E+04  0.15822848556E+04  0.25500000920E-02 0. -1.
    10030    2    1    2    0    0  0.00000000000E+00  0.00000000000E+00 -0.98072537935E+02  0.30664971732E+04  0.30649284968E+04 0.  0.
        4    1    3    3  502    0  0.79408693178E+03 -0.72677660924E+03 -0.11403129777E+04  0.15681497361E+04  0.12699999809E+01 0. -1.
       -4    1    3    3    0  502 -0.79408693178E+03  0.72677660924E+03  0.10422404397E+04  0.14983474370E+04  0.12699999809E+01 0.  1.
</event>
<event>
 5   0  0.1423692E-05  0.3335651E+04  0.7818609E-02  0.8153883E-01
       -2   -1    0    0    0  501  0.00000000000E+00  0.00000000000E+00  0.16979683100E+04  0.16979683100E+04  0.25500000920E-02 0.  1.
        2   -1    0    0  501    0  0.00000000000E+00  0.00000000000E+00 -0.16382173593E+04  0.16382173593E+04  0.25500000920E-02 0. -1.
    10030    2    1    2    0    0  0.00000000000E+00  0.00000000000E+00  0.59750950681E+02  0.33361856693E+04  0.33356505578E+04 0.  0.
        3    1    3    3  502    0 -0.61265570881E+03  0.12664119226E+04 -0.86608907283E+03  0.16520461457E+04  0.10100000352E+00 0. -1.
       -3    1    3    3    0  502  0.61265570881E+03 -0.12664119226E+04  0.92584002351E+03  0.16841395235E+04  0.10100000352E+00 0.  1.
</event>
<event>
 5   0  0.5392262E-06  0.2996246E+04  0.7818609E-02  0.8244804E-01
       -1   -1    0    0    0  501  0.00000000000E+00  0.00000000000E+00  0.16958330087E+04  0.16958330087E+04  0.50400001928E-02 0. -1.
        1   -1    0    0  501    0  0.00000000000E+00  0.00000000000E+00 -0.13234632515E+04  0.13234632515E+04  0.50400001928E-02 0.  1.
    10030    2    1    2    0    0  0.00000000000E+00  0.00000000000E+00  0.37236975718E+03  0.30192962602E+04  0.29962460965E+04 0.  0.
        2    1    3    3  502    0  0.49793869643E+03  0.18373826074E+03 -0.12255459121E+04  0.13355393953E+04  0.25500000920E-02 0.  1.
       -2    1    3    3    0  502 -0.49793869643E+03 -0.18373826074E+03  0.15979156693E+04  0.16837568649E+04  0.25500000920E-02 0. -1.
</event>
<event>
 5   0  0.5329891E-06  0.2951563E+04  0.7818609E-02  0.8257699E-01
       -1   -1    0    0    0  501  0.00000000000E+00  0.00000000000E+00  0.10768940197E+04  0.10768940197E+04  0.50400001928E-02 0.  1.
        1   -1    0    0  501    0  0.00000000000E+00  0.00000000000E+00 -0.20224185226E+04  0.20224185226E+04  0.50400001928E-02 0. -1.
    10030    2    1    2    0    0  0.00000000000E+00  0.00000000000E+00 -0.94552450287E+03  0.30993125423E+04  0.29515625776E+04 0.  0.
        4    1    3    3  502    0  0.11969511516E+04  0.30186215363E+03 -0.13220224249E+04  0.18087447924E+04  0.12699999809E+01 0. -1.
       -4    1    3    3    0  502 -0.11969511516E+04 -0.30186215363E+03  0.37649792203E+03  0.12905677500E+04  0.12699999809E+01 0.  1.
</event>
<event>
 5   0  0.5522695E-06  0.2960236E+04  0.7818609E-02  0.8255178E-01
       -1   -1    0    0    0  501  0.00000000000E+00  0.00000000000E+00  0.19260720508E+04  0.19260720508E+04  0.50400001928E-02 0. -1.
        1   -1    0    0  501    0  0.00000000000E+00  0.00000000000E+00 -0.11374182813E+04  0.11374182813E+04  0.50400001928E-02 0.  1.
    10030    2    1    2    0    0  0.00000000000E+00  0.00000000000E+00  0.78865376945E+03  0.30634903321E+04  0.29602361810E+04 0.  0.
        3    1    3    3  502    0 -0.28744777097E+03 -0.13925877657E+04 -0.30885105338E+02  0.14222801434E+04  0.10100000352E+00 0.  1.
       -3    1    3    3    0  502  0.28744777097E+03  0.13925877657E+04  0.81953887479E+03  0.16412101888E+04  0.10100000352E+00 0. -1.
</event>
<event>
 5   0  0.5522695E-06  0.2937021E+04  0.7818609E-02  0.8261947E-01
       -1   -1    0    0    0  501  0.00000000000E+00  0.00000000000E+00  0.13651132310E+04  0.13651132311E+04  0.50400001928E-02 0. -1.
        1   -1    0    0  501    0  0.00000000000E+00  0.00000000000E+00 -0.15797390394E+04  0.15797390394E+04  0.50400001928E-02 0.  1.
    10030    2    1    2    0    0  0.00000000000E+00  0.00000000000E+00 -0.21462580833E+03  0.29448522704E+04  0.29370207110E+04 0.  0.
        3    1    3    3  502    0  0.93684281764E+03 -0.46558209110E+03 -0.11406343127E+04  0.15477363451E+04  0.10100000352E+00 0.  1.
       -3    1    3    3    0  502 -0.93684281764E+03  0.46558209110E+03  0.92600850435E+03  0.13971159253E+04  0.10100000352E+00 0. -1.
</event>
<event>
 5   0  0.1480547E-05  0.3069210E+04  0.7818609E-02  0.8224239E-01
       -2   -1    0    0    0  501  0.00000000000E+00  0.00000000000E+00  0.14279645461E+04  0.14279645461E+04  0.25500000920E-02 0. -1.
        2   -1    0    0  501    0  0.00000000000E+00  0.00000000000E+00 -0.16492088667E+04  0.16492088667E+04  0.25500000920E-02 0.  1.
    10030    2    1    2    0    0  0.00000000000E+00  0.00000000000E+00 -0.22124432059E+03  0.30771734128E+04  0.30692095339E+04 0.  0.
        1    1    3    3  502    0 -0.10093426284E+04 -0.29805104372E+03  0.10091486506E+04  0.14580768036E+04  0.50400001928E-02 0. -1.
       -1    1    3    3    0  502  0.10093426284E+04  0.29805104372E+03 -0.12303929712E+04  0.16190966091E+04  0.50400001928E-02 0.  1.
</event>
<event>
 5   0  0.1423692E-05  0.2906554E+04  0.7818609E-02  0.8270930E-01
        2   -1    0    0  501    0  0.00000000000E+00  0.00000000000E+00  0.12663552816E+04  0.12663552816E+04  0.25500000920E-02 0. -1.
       -2   -1    0    0    0  501  0.00000000000E+00  0.00000000000E+00 -0.16677895905E+04  0.16677895905E+04  0.25500000920E-02 0.  1.
    10030    2    1    2    0    0  0.00000000000E+00  0.00000000000E+00 -0.40143430890E+03  0.29341448721E+04  0.29065540811E+04 0.  0.
        3    1    3    3  502    0 -0.12829526336E+04  0.67947467806E+03 -0.26738073439E+03  0.14761929974E+04  0.10100000352E+00 0.  1.
       -3    1    3    3    0  502  0.12829526336E+04 -0.67947467806E+03 -0.13405357450E+03  0.14579518748E+04  0.10100000352E+00 0. -1.
</event>
<event>
 5   0  0.1345931E-05  0.2452071E+04  0.7818609E-02  0.8420262E-01
        2   -1    0    0  501    0  0.00000000000E+00  0.00000000000E+00  0.21650010109E+04  0.21650010109E+04  0.25500000920E-02 0. -1.
       -2   -1    0    0    0  501  0.00000000000E+00  0.00000000000E+00 -0.69430147906E+03  0.69430147907E+03  0.25500000920E-02 0.  1.
    10030    2    1    2    0    0  0.00000000000E+00  0.00000000000E+00  0.14706995319E+04  0.28593024900E+04  0.24520712910E+04 0.  0.
        2    1    3    3  502    0 -0.74554748039E+02  0.10671132810E+04  0.14339008198E+04  0.17889552051E+04  0.25500000920E-02 0. -1.
       -2    1    3    3    0  502  0.74554748039E+02 -0.10671132810E+04  0.36798712077E+02  0.10703472849E+04  0.25500000920E-02 0.  1.
</event>
<event>
 5   0  0.5730920E-06  0.2812311E+04  0.7818609E-02  0.8299457E-01
       -1   -1    0    0    0  501  0.00000000000E+00  0.00000000000E+00  0.11180775169E+04  0.11180775169E+04  0.50400001928E-02 0.  1.
        1   -1    0    0  501    0  0.00000000000E+00  0.00000000000E+00 -0.17684576834E+04  0.17684576834E+04  0.50400001928E-02 0. -1.
    10030    2    1    2    0    0  0.00000000000E+00  0.00000000000E+00 -0.65038016646E+03  0.28865352003E+04  0.28123106339E+04 0.  0.
        1    1    3    3  502    0 -0.79420015640E+03 -0.11602547529E+04 -0.30660711892E+03  0.14390805764E+04  0.50400001928E-02 0.  1.
       -1    1    3    3    0  502  0.79420015640E+03  0.11602547529E+04 -0.34377304754E+03  0.14474546239E+04  0.50400001928E-02 0. -1.
</event>
<event>
 5   0  0.1345931E-05  0.2426693E+04  0.7818609E-02  0.8429577E-01
        2   -1    0    0  501    0  0.00000000000E+00  0.00000000000E+00  0.84334904601E+03  0.84334904601E+03  0.25500000920E-02 0.  1.
       -2   -1    0    0    0  501  0.00000000000E+00  0.00000000000E+00 -0.17456700680E+04  0.17456700680E+04  0.25500000920E-02 0. -1.
    10030    2    1    2    0    0  0.00000000000E+00  0.00000000000E+00 -0.90232102196E+03  0.25890191140E+04  0.24266925528E+04 0.  0.
        2    1    3    3  502    0 -0.83821964909E+03  0.94772345619E+02 -0.13816318535E+04  0.16187960206E+04  0.25500000920E-02 0. -1.
       -2    1    3    3    0  502  0.83821964909E+03 -0.94772345619E+02  0.47931083159E+03  0.97022309337E+03  0.25500000920E-02 0.  1.
</event>
<event>
 5   0  0.5730920E-06  0.2108590E+04  0.7818609E-02  0.8557469E-01
       -1   -1    0    0    0  501  0.00000000000E+00  0.00000000000E+00  0.44229367026E+03  0.44229367029E+03  0.50400001928E-02 0. -1.
        1   -1    0    0  501    0  0.00000000000E+00  0.00000000000E+00 -0.25131213634E+04  0.25131213634E+04  0.50400001928E-02 0.  1.
    10030    2    1    2    0    0  0.00000000000E+00  0.00000000000E+00 -0.20708276931E+04  0.29554150336E+04  0.21085897388E+04 0.  0.
        1    1    3    3  502    0  0.57595349089E+03 -0.53866678667E+03 -0.54635767752E+02  0.79048681069E+03  0.50400001928E-02 0. -1.
       -1    1    3    3    0  502 -0.57595349089E+03  0.53866678667E+03 -0.20161919253E+04  0.21649282230E+04  0.50400001928E-02 0.  1.
</event>
<event>
 5   0  0.4806125E-06  0.1505657E+04  0.7818609E-02  0.8880700E-01
        3   -1    0    0  501    0  0.00000000000E+00  0.00000000000E+00  0.91683949558E+03  0.91683950115E+03  0.10100000352E+00 0. -1.
       -3   -1    0    0    0  501  0.00000000000E+00  0.00000000000E+00 -0.61815730014E+03  0.61815730839E+03  0.10100000352E+00 0.  1.
    10030    2    1    2    0    0  0.00000000000E+00  0.00000000000E+00  0.29868219544E+03  0.15349968095E+04  0.15056573818E+04 0.  0.
        2    1    3    3  502    0 -0.36529950551E+03 -0.39511703485E+03  0.68608852525E+03  0.87193959908E+03  0.25500000920E-02 0.  1.
       -2    1    3    3    0  502  0.36529950551E+03  0.39511703485E+03 -0.38740632981E+03  0.66305721046E+03  0.25500000920E-02 0. -1.
</event>
<event>
 5   0  0.1388724E-05  0.3009145E+04  0.7818609E-02  0.8241124E-01
       -2   -1    0    0    0  501  0.00000000000E+00  0.00000000000E+00  0.12734214821E+04  0.12734214821E+04  0.25500000920E-02 0. -1.
        2   -1    0    0  501    0  0.00000000000E+00  0.00000000000E+00 -0.17776823691E+04  0.17776823691E+04  0.25500000920E-02 0.  1.
    10030    2    1    2    0    0  0.00000000000E+00  0.00000000000E+00 -0.50426088702E+03  0.30511038511E+04  0.30091453385E+04 0.  0.
        4    1    3    3  502    0 -0.50221911634E+03 -0.30347372422E+03 -0.16568786622E+04  0.17577169443E+04  0.12699999809E+01 0.  1.
       -4    1    3    3    0  502  0.50221911634E+03  0.30347372422E+03  0.11526177752E+04  0.12933869068E+04  0.12699999809E+01 0. -1.
</event>
<event>
 5   0  0.5522695E-06  0.3031988E+04  0.7818609E-02  0.8234655E-01
        1   -1    0    0  501    0  0.00000000000E+00  0.00000000000E+00  0.16038429649E+04  0.16038429649E+04  0.50400001928E-02 0.  1.
       -1   -1    0    0    0  501  0.00000000000E+00  0.00000000000E+00 -0.14329567585E+04  0.14329567586E+04  0.50400001928E-02 0. -1.
    10030    2    1    2    0    0  0.00000000000E+00  0.00000000000E+00  0.17088620637E+03  0.30367997235E+04  0.30319878735E+04 0.  0.
        3    1    3    3  502    0  0.19683773952E+03 -0.14830053639E+04 -0.16027785906E+03  0.15045726993E+04  0.10100000352E+00 0. -1.
       -3    1    3    3    0  502 -0.19683773952E+03  0.14830053639E+04  0.33116406543E+03  0.15322270242E+04  0.10100000352E+00 0.  1.
</event>
<event>
 5   0  0.5730920E-06  0.1703190E+04  0.7818609E-02  0.8759547E-01
        1   -1    0    0  501    0  0.00000000000E+00  0.00000000000E+00  0.18194269172E+04  0.18194269172E+04  0.50400001928E-02 0. -1.
       -1   -1    0    0    0  501  0.00000000000E+00  0.00000000000E+00 -0.39859453185E+03  0.39859453188E+03  0.50400001928E-02 0.  1.
    10030    2    1    2    0    0  0.00000000000E+00  0.00000000000E+00  0.14208323853E+04  0.22180214490E+04  0.17031895025E+04 0.  0.
        1    1    3    3  502    0  0.89524343075E+02  0.84057548879E+03  0.84469497465E+03  0.11950277656E+04  0.50400001928E-02 0. -1.
       -1    1    3    3    0  502 -0.89524343075E+02 -0.84057548879E+03  0.57613741066E+03  0.10229936834E+04  0.50400001928E-02 0.  1.
</event>
<event>
 5   0  0.5392262E-06  0.2981383E+04  0.7818609E-02  0.8249067E-01
       -1   -1    0    0    0  501  0.00000000000E+00  0.00000000000E+00  0.31510247845E+04  0.31510247845E+04  0.50400001928E-02 0. -1.
        1   -1    0    0  501    0  0.00000000000E+00  0.00000000000E+00 -0.70521873180E+03  0.70521873182E+03  0.50400001928E-02 0.  1.
    10030    2    1    2    0    0  0.00000000000E+00  0.00000000000E+00  0.24458060527E+04  0.38562435163E+04  0.29813833718E+04 0.  0.
        2    1    3    3  502    0 -0.78593630727E+03 -0.10101383534E+04  0.23438373893E+03  0.13011576035E+04  0.25500000920E-02 0. -1.
       -2    1    3    3    0  502  0.78593630727E+03  0.10101383534E+04  0.22114223138E+04  0.25550859129E+04  0.25500000920E-02 0.  1.
</event>
<event>
 5   0  0.5329891E-06  0.2118237E+04  0.7818609E-02  0.8553252E-01
        1   -1    0    0  501    0  0.00000000000E+00  0.00000000000E+00  0.81898949674E+03  0.81898949676E+03  0.50400001928E-02 0. -1.
       -1   -1    0    0    0  501  0.00000000000E+00  0.00000000000E+00 -0.13696534668E+04  0.13696534668E+04  0.50400001928E-02 0.  1.
    10030    2    1    2    0    0  0.00000000000E+00  0.00000000000E+00 -0.55066397004E+03  0.21886429636E+04  0.21182368173E+04 0.  0.
        4    1    3    3  502    0 -0.75519843519E+02 -0.90140854787E+03  0.29387771944E+03  0.95110795592E+03  0.12699999809E+01 0. -1.
       -4    1    3    3    0  502  0.75519843519E+02  0.90140854787E+03 -0.84454168948E+03  0.12375350076E+04  0.12699999809E+01 0.  1.
</event>
<event>
 5   0  0.4806125E-06  0.2950485E+04  0.7818609E-02  0.8258013E-01
        3   -1    0    0  501    0  0.00000000000E+00  0.00000000000E+00  0.15069680760E+04  0.15069680794E+04  0.10100000352E+00 0.  1.
       -3   -1    0    0    0  501  0.00000000000E+00  0.00000000000E+00 -0.14441849229E+04  0.14441849264E+04  0.10100000352E+00 0. -1.
    10030    2    1    2    0    0  0.00000000000E+00  0.00000000000E+00  0.62783153094E+02  0.29511530058E+04  0.29504851024E+04 0.  0.
        1    1    3    3  502    0  0.30621215533E+03 -0.11576546600E+03  0.14701792482E+04  0.15061854298E+04  0.50400001928E-02 0.  1.
       -1    1    3    3    0  502 -0.30621215533E+03  0.11576546600E+03 -0.14073960951E+04  0.14449675760E+04  0.50400001928E-02 0. -1.
</event>
<event>
 5   0  0.1480547E-05  0.1796877E+04  0.7818609E-02  0.8707962E-01
       -2   -1    0    0    0  501  0.00000000000E+00  0.00000000000E+00  0.81008755974E+03  0.81008755974E+03  0.25500000920E-02 0. -1.
        2   -1    0    0  501    0  0.00000000000E+00  0.00000000000E+00 -0.99642554471E+03  0.99642554471E+03  0.25500000920E-02 0.  1.
    10030    2    1    2    0    0  0.00000000000E+00  0.00000000000E+00 -0.18633798497E+03  0.18065131045E+04  0.17968772223E+04 0.  0.
        1    1    3    3  502    0  0.43593976942E+02 -0.15994534792E+03 -0.98091552224E+03  0.99482571888E+03  0.50400001928E-02 0.  1.
       -1    1    3    3    0  502 -0.43593976942E+02  0.15994534792E+03  0.79457753727E+03  0.81168738558E+03  0.50400001928E-02 0. -1.
</event>
<event>
 5   0  0.5392262E-06  0.2967647E+04  0.7818609E-02  0.8253030E-01
       -1   -1    0    0    0  501  0.00000000000E+00  0.00000000000E+00  0.10074491914E+04  0.10074491914E+04  0.50400001928E-02 0.  1.
        1   -1    0    0  501    0  0.00000000000E+00  0.00000000000E+00 -0.21854521117E+04  0.21854521117E+04  0.50400001928E-02 0. -1.
    10030    2    1    2    0    0  0.00000000000E+00  0.00000000000E+00 -0.11780029203E+04  0.31929013031E+04  0.29676468542E+04 0.  0.
        2    1    3    3  502    0  0.12451965525E+04 -0.27249283336E+03  0.22823563423E+03  0.12949356367E+04  0.25500000920E-02 0.  1.
       -2    1    3    3    0  502 -0.12451965525E+04  0.27249283336E+03 -0.14062385545E+04  0.18979656664E+04  0.25500000920E-02 0. -1.
</event>
<event>
 5   0  0.1423692E-05  0.2746523E+04  0.7818609E-02  0.8320066E-01
        2   -1    0    0  501    0  0.00000000000E+00  0.00000000000E+00  0.12702637730E+04  0.12702637730E+04  0.25500000920E-02 0.  1.
       -2   -1    0    0    0  501  0.00000000000E+00  0.00000000000E+00 -0.14846109287E+04  0.14846109287E+04  0.25500000920E-02 0. -1.
    10030    2    1    2    0    0  0.00000000000E+00  0.00000000000E+00 -0.21434715576E+03  0.27548747017E+04  0.27465232420E+04 0.  0.
        3    1    3    3  502    0  0.81186572952E+03 -0.50426753484E+03 -0.10962936907E+04  0.14543973239E+04  0.10100000352E+00 0. -1.
       -3    1    3    3    0  502 -0.81186572952E+03  0.50426753484E+03  0.88194653493E+03  0.13004773778E+04  0.10100000352E+00 0.  1.
</event>
<event>
 5   0  0.5329891E-06  0.2970606E+04  0.7818609E-02  0.8252175E-01
       -1   -1    0    0    0  501  0.00000000000E+00  0.00000000000E+00  0.11901747625E+04  0.11901747625E+04  0.50400001928E-02 0. -1.
        1   -1    0    0  501    0  0.00000000000E+00  0.00000000000E+00 -0.18536142190E+04  0.18536142190E+04  0.50400001928E-02 0.  1.
    10030    2    1    2    0    0  0.00000000000E+00  0.00000000000E+00 -0.66343945646E+03  0.30437889815E+04  0.29706059064E+04 0.  0.
        4    1    3    3  502    0  0.85065000798E+03 -0.31640918900E+03 -0.15364417254E+04  0.17844817173E+04  0.12699999809E+01 0.  1.
       -4    1    3    3    0  502 -0.85065000798E+03  0.31640918900E+03  0.87300226898E+03  0.12593072641E+04  0.12699999809E+01 0. -1.
</event>
<event>
 5   0  0.1480547E-05  0.2797187E+04  0.7818609E-02  0.8304142E-01
        2   -1    0    0  501    0  0.00000000000E+00  0.00000000000E+00  0.22445187279E+04  0.22445187279E+04  0.25500000920E-02 0. -1.
       -2   -1    0    0    0  501  0.00000000000E+00  0.00000000000E+00 -0.87148482192E+03  0.87148482192E+03  0.25500000920E-02 0.  1.
    10030    2    1    2    0    0  0.00000000000E+00  0.00000000000E+00  0.13730339060E+04  0.31160035499E+04  0.27971871614E+04 0.  0.
        1    1    3    3  502    0  0.12414005983E+04  0.62347697076E+03  0.50598032328E+03  0.14784502244E+04  0.50400001928E-02 0.  1.
       -1    1    3    3    0  502 -0.12414005983E+04 -0.62347697076E+03  0.86705358274E+03  0.16375533255E+04  0.50400001928E-02 0. -1.
</event>
<event>
 5   0  0.5522695E-06  0.3026971E+04  0.7818609E-02  0.8236071E-01
        1   -1    0    0  501    0  0.00000000000E+00  0.00000000000E+00  0.97117521781E+03  0.97117521782E+03  0.50400001928E-02 0.  1.
       -1   -1    0    0    0  501  0.00000000000E+00  0.00000000000E+00 -0.23586248494E+04  0.23586248494E+04  0.50400001928E-02 0. -1.
    10030    2    1    2    0    0  0.00000000000E+00  0.00000000000E+00 -0.13874496316E+04  0.33298000672E+04  0.30269707642E+04 0.  0.
        3    1    3    3  502    0  0.12859900407E+04 -0.78150320717E+03 -0.51593807072E+03  0.15908204646E+04  0.10100000352E+00 0.  1.
       -3    1    3    3    0  502 -0.12859900407E+04  0.78150320717E+03 -0.87151156085E+03  0.17389796026E+04  0.10100000352E+00 0. -1.
</event>
<event>
 5   0  0.1388724E-05  0.2839414E+04  0.7818609E-02  0.8291135E-01
        2   -1    0    0  501    0  0.00000000000E+00  0.00000000000E+00  0.19597436591E+04  0.19597436591E+04  0.25500000920E-02 0. -1.
       -2   -1    0    0    0  501  0.00000000000E+00  0.00000000000E+00 -0.10284858765E+04  0.10284858765E+04  0.25500000920E-02 0.  1.
    10030    2    1    2    0    0  0.00000000000E+00  0.00000000000E+00  0.93125778266E+03  0.29882295356E+04  0.28394144995E+04 0.  0.
        4    1    3    3  502    0  0.10114201736E+04 -0.27421939661E+03  0.14736381709E+04  0.18082527801E+04  0.12699999809E+01 0. -1.
       -4    1    3    3    0  502 -0.10114201736E+04  0.27421939661E+03 -0.54238038823E+03  0.11799767555E+04  0.12699999809E+01 0.  1.
</event>
<event>
 5   0  0.1345931E-05  0.3012318E+04  0.7818609E-02  0.8240222E-01
       -2   -1    0    0    0  501  0.00000000000E+00  0.00000000000E+00  0.20534970111E+04  0.20534970111E+04  0.25500000920E-02 0.  1.
        2   -1    0    0  501    0  0.00000000000E+00  0.00000000000E+00 -0.11047078864E+04  0.11047078864E+04  0.25500000920E-02 0. -1.
    10030    2    1    2    0    0  0.00000000000E+00  0.00000000000E+00  0.94878912465E+03  0.31582048975E+04  0.30123176080E+04 0.  0.
        2    1    3    3  502    0  0.12989063417E+04 -0.51247971361E+03 -0.11750091183E+03  0.14012849837E+04  0.25500000920E-02 0. -1.
       -2    1    3    3    0  502 -0.12989063417E+04  0.51247971361E+03  0.10662900365E+04  0.17569199137E+04  0.25500000920E-02 0.  1.
</event>
<event>
 5   0  0.1523029E-05  0.2929211E+04  0.7818609E-02  0.8264239E-01
        2   -1    0    0  501    0  0.00000000000E+00  0.00000000000E+00  0.18124784486E+04  0.18124784486E+04  0.25500000920E-02 0.  1.
       -2   -1    0    0    0  501  0.00000000000E+00  0.00000000000E+00 -0.11835008485E+04  0.11835008485E+04  0.25500000920E-02 0. -1.
    10030    2    1    2    0    0  0.00000000000E+00  0.00000000000E+00  0.62897760010E+03  0.29959792971E+04  0.29292113490E+04 0.  0.
        5    1    3    3  502    0  0.11161739736E+04  0.55244202258E+03  0.11027776860E+04  0.16634834663E+04  0.46999998093E+01 0.  1.
       -5    1    3    3    0  502 -0.11161739736E+04 -0.55244202258E+03 -0.47380008595E+03  0.13324958308E+04  0.46999998093E+01 0. -1.
</event>
<event>
 5   0  0.1345931E-05  0.3006280E+04  0.7818609E-02  0.8241940E-01
       -2   -1    0    0    0  501  0.00000000000E+00  0.00000000000E+00  0.11536144877E+04  0.11536144877E+04  0.25500000920E-02 0.  1.
        2   -1    0    0  501    0  0.00000000000E+00  0.00000000000E+00 -0.19585657324E+04  0.19585657324E+04  0.25500000920E-02 0. -1.
    10030    2    1    2    0    0  0.00000000000E+00  0.00000000000E+00 -0.80495124464E+03  0.31121802201E+04  0.30062799630E+04 0.  0.
        2    1    3    3  502    0 -0.51972837721E+03 -0.11679382441E+04  0.41609486006E+03  0.13443705816E+04  0.25500000920E-02 0.  1.
       -2    1    3    3    0  502  0.51972837721E+03  0.11679382441E+04 -0.12210461047E+04  0.17678096385E+04  0.25500000920E-02 0. -1.
</event>
<event>
 5   0  0.1423692E-05  0.2969557E+04  0.7818609E-02  0.8252478E-01
       -2   -1    0    0    0  501  0.00000000000E+00  0.00000000000E+00  0.18601868801E+04  0.18601868801E+04  0.25500000920E-02 0. -1.
        2   -1    0    0  501    0  0.00000000000E+00  0.00000000000E+00 -0.11851320945E+04  0.11851320945E+04  0.25500000920E-02 0.  1.
    10030    2    1    2    0    0  0.00000000000E+00  0.00000000000E+00  0.67505478565E+03  0.30453189746E+04  0.29695569860E+04 0.  0.
        3    1    3    3  502    0  0.12866814908E+04  0.18273482719E+03  0.10739184085E+04  0.16858950246E+04  0.10100000352E+00 0. -1.
       -3    1    3    3    0  502 -0.12866814908E+04 -0.18273482719E+03 -0.39886362285E+03  0.13594239499E+04  0.10100000352E+00 0.  1.
</event>
<event>
 5   0  0.1423692E-05  0.2957340E+04  0.7818609E-02  0.8256019E-01
       -2   -1    0    0    0  501  0.00000000000E+00  0.00000000000E+00  0.12856503752E+04  0.12856503752E+04  0.25500000920E-02 0.  1.
        2   -1    0    0  501    0  0.00000000000E+00  0.00000000000E+00 -0.17006681121E+04  0.17006681121E+04  0.25500000920E-02 0. -1.
    10030    2    1    2    0    0  0.00000000000E+00  0.00000000000E+00 -0.41501773691E+03  0.29863184873E+04  0.29573397481E+04 0.  0.
        3    1    3    3  502    0  0.13367659014E+04  0.51188500833E+03  0.16692812468E+03  0.14411225992E+04  0.10100000352E+00 0.  1.
       -3    1    3    3    0  502 -0.13367659014E+04 -0.51188500833E+03 -0.58194586159E+03  0.15451958882E+04  0.10100000352E+00 0. -1.
</event>
<event>
 5   0  0.1345931E-05  0.2820665E+04  0.7818609E-02  0.8296881E-01
       -2   -1    0    0    0  501  0.00000000000E+00  0.00000000000E+00  0.11130683750E+04  0.11130683750E+04  0.25500000920E-02 0.  1.
        2   -1    0    0  501    0  0.00000000000E+00  0.00000000000E+00 -0.17869864687E+04  0.17869864687E+04  0.25500000920E-02 0. -1.
    10030    2    1    2    0    0  0.00000000000E+00  0.00000000000E+00 -0.67391809366E+03  0.29000548436E+04  0.28206652583E+04 0.  0.
        2    1    3    3  502    0  0.75912537958E+03  0.13081314691E+03 -0.15515880675E+04  0.17322843164E+04  0.25500000920E-02 0. -1.
       -2    1    3    3    0  502 -0.75912537958E+03 -0.13081314691E+03  0.87766997389E+03  0.11677705273E+04  0.25500000920E-02 0.  1.
</event>
<event>
 5   0  0.1523029E-05  0.2381976E+04  0.7818609E-02  0.8446283E-01
        2   -1    0    0  501    0  0.00000000000E+00  0.00000000000E+00  0.26583926578E+04  0.26583926578E+04  0.25500000920E-02 0.  1.
       -2   -1    0    0    0  501  0.00000000000E+00  0.00000000000E+00 -0.53357499503E+03  0.53357499504E+03  0.25500000920E-02 0. -1.
    10030    2    1    2    0    0  0.00000000000E+00  0.00000000000E+00  0.21248176628E+04  0.31919676529E+04  0.23819755240E+04 0.  0.
        5    1    3    3  502    0 -0.81472251338E+03 -0.45639410437E+03  0.71893517473E+02  0.93662111879E+03  0.46999998093E+01 0. -1.
       -5    1    3    3    0  502  0.81472251338E+03  0.45639410437E+03  0.20529241453E+04  0.22553465341E+04  0.46999998093E+01 0.  1.
</event>
<event>
 5   0  0.1423692E-05  0.2896850E+04  0.7818609E-02  0.8273815E-01
        2   -1    0    0  501    0  0.00000000000E+00  0.00000000000E+00  0.17508348850E+04  0.17508348850E+04  0.25500000920E-02 0. -1.
       -2   -1    0    0    0  501  0.00000000000E+00  0.00000000000E+00 -0.11982481234E+04  0.11982481234E+04  0.25500000920E-02 0.  1.
    10030    2    1    2    0    0  0.00000000000E+00  0.00000000000E+00  0.55258676158E+03  0.29490830084E+04  0.28968497478E+04 0.  0.
        3    1    3    3  502    0 -0.67254371891E+03 -0.36883893148E+03  0.15270958175E+04  0.17089116002E+04  0.10100000352E+00 0. -1.
       -3    1    3    3    0  502  0.67254371891E+03  0.36883893148E+03 -0.97450905596E+03  0.12401714081E+04  0.10100000352E+00 0.  1.
</event>
<event>
 5   0  0.5329891E-06  0.3095447E+04  0.7818609E-02  0.8216988E-01
       -1   -1    0    0    0  501  0.00000000000E+00  0.00000000000E+00  0.22517798540E+04  0.22517798540E+04  0.50400001928E-02 0. -1.
        1   -1    0    0  501    0  0.00000000000E+00  0.00000000000E+00 -0.10638023114E+04  0.10638023114E+04  0.50400001928E-02 0.  1.
    10030    2    1    2    0    0  0.00000000000E+00  0.00000000000E+00  0.11879775426E+04  0.33155821654E+04  0.30954473754E+04 0.  0.
        4    1    3    3  502    0 -0.50296892930E+03  0.76952596724E+03  0.19276456496E+04  0.21356421333E+04  0.12699999809E+01 0. -1.
       -4    1    3    3    0  502  0.50296892930E+03 -0.76952596724E+03 -0.73966810694E+03  0.11799400321E+04  0.12699999809E+01 0.  1.
</event>
<event>
 5   0  0.1480547E-05  0.2992803E+04  0.7818609E-02  0.8245789E-01
       -2   -1    0    0    0  501  0.00000000000E+00  0.00000000000E+00  0.10408133532E+04  0.10408133532E+04  0.25500000920E-02 0.  1.
        2   -1    0    0  501    0  0.00000000000E+00  0.00000000000E+00 -0.21514110153E+04  0.21514110153E+04  0.25500000920E-02 0. -1.
    10030    2    1    2    0    0  0.00000000000E+00  0.00000000000E+00 -0.11105976621E+04  0.31922243685E+04  0.29928029089E+04 0.  0.
        1    1    3    3  502    0  0.38144000137E+03 -0.82614374455E+03  0.71180063040E+03  0.11552792298E+04  0.50400001928E-02 0.  1.
       -1    1    3    3    0  502 -0.38144000137E+03  0.82614374455E+03 -0.18223982925E+04  0.20369451387E+04  0.50400001928E-02 0. -1.
</event>
<event>
 5   0  0.1345931E-05  0.2387680E+04  0.7818609E-02  0.8444130E-01
        2   -1    0    0  501    0  0.00000000000E+00  0.00000000000E+00  0.18131325401E+04  0.18131325401E+04  0.25500000920E-02 0. -1.
       -2   -1    0    0    0  501  0.00000000000E+00  0.00000000000E+00 -0.78607272967E+03  0.78607272967E+03  0.25500000920E-02 0.  1.
    10030    2    1    2    0    0  0.00000000000E+00  0.00000000000E+00  0.10270598105E+04  0.25992052698E+04  0.23876800833E+04 0.  0.
        2    1    3    3  502    0 -0.50449202569E+03  0.58332527795E+03  0.15055656512E+04  0.16915993953E+04  0.25500000920E-02 0. -1.
       -2    1    3    3    0  502  0.50449202569E+03 -0.58332527795E+03 -0.47850584076E+03  0.90760587456E+03  0.25500000920E-02 0.  1.
</event>
<event>
 5   0  0.5392262E-06  0.3105537E+04  0.7818609E-02  0.8214220E-01
       -1   -1    0    0    0  501  0.00000000000E+00  0.00000000000E+00  0.19241766356E+04  0.19241766356E+04  0.50400001928E-02 0. -1.
        1   -1    0    0  501    0  0.00000000000E+00  0.00000000000E+00 -0.12530501445E+04  0.12530501446E+04  0.50400001928E-02 0.  1.
    10030    2    1    2    0    0  0.00000000000E+00  0.00000000000E+00  0.67112649108E+03  0.31772267802E+04  0.31055368692E+04 0.  0.
        2    1    3    3  502    0 -0.13637116264E+04  0.19659246838E+03 -0.39701945201E+03  0.14338697444E+04  0.25500000920E-02 0.  1.
       -2    1    3    3    0  502  0.13637116264E+04 -0.19659246838E+03  0.10681459431E+04  0.17433570358E+04  0.25500000920E-02 0. -1.
</event>
<event>
 5   0  0.1523029E-05  0.3040416E+04  0.7818609E-02  0.8232283E-01
        2   -1    0    0  501    0  0.00000000000E+00  0.00000000000E+00  0.16475707675E+04  0.16475707675E+04  0.25500000920E-02 0.  1.
       -2   -1    0    0    0  501  0.00000000000E+00  0.00000000000E+00 -0.14026912347E+04  0.14026912347E+04  0.25500000920E-02 0. -1.
    10030    2    1    2    0    0  0.00000000000E+00  0.00000000000E+00  0.24487953284E+03  0.30502620022E+04  0.30404164676E+04 0.  0.
        5    1    3    3  502    0  0.14946491546E+04 -0.18797112763E+02  0.40025082600E+03  0.15474340828E+04  0.46999998093E+01 0.  1.
       -5    1    3    3    0  502 -0.14946491546E+04  0.18797112763E+02 -0.15537129316E+03  0.15028279195E+04  0.46999998093E+01 0. -1.
</event>
<event>
 5   0  0.5522695E-06  0.2501778E+04  0.7818609E-02  0.8402352E-01
        1   -1    0    0  501    0  0.00000000000E+00  0.00000000000E+00  0.13144227820E+04  0.13144227820E+04  0.50400001928E-02 0. -1.
       -1   -1    0    0    0  501  0.00000000000E+00  0.00000000000E+00 -0.11904258915E+04  0.11904258915E+04  0.50400001928E-02 0.  1.
    10030    2    1    2    0    0  0.00000000000E+00  0.00000000000E+00  0.12399689052E+03  0.25048486736E+04  0.25017776977E+04 0.  0.
        3    1    3    3  502    0  0.70139793188E+03  0.51806828824E+02  0.10977149082E+04  0.13036951470E+04  0.10100000352E+00 0. -1.
       -3    1    3    3    0  502 -0.70139793188E+03 -0.51806828824E+02 -0.97371801766E+03  0.12011535266E+04  0.10100000352E+00 0.  1.
</event>
<event>
 5   0  0.5522695E-06  0.3028307E+04  0.7818609E-02  0.8235693E-01
        1   -1    0    0  501    0  0.00000000000E+00  0.00000000000E+00  0.14080634968E+04  0.14080634968E+04  0.50400001928E-02 0. -1.
       -1   -1    0    0    0  501  0.00000000000E+00  0.00000000000E+00 -0.16282371434E+04  0.16282371434E+04  0.50400001928E-02 0.  1.
    10030    2    1    2    0    0  0.00000000000E+00  0.00000000000E+00 -0.22017364658E+03  0.30363006401E+04  0.30283073065E+04 0.  0.
        3    1    3    3  502    0  0.66701790421E+02 -0.15108983343E+04 -0.36419284888E+02  0.15128084082E+04  0.10100000352E+00 0. -1.
       -3    1    3    3    0  502 -0.66701790421E+02  0.15108983343E+04 -0.18375436169E+03  0.15234922320E+04  0.10100000352E+00 0.  1.
</event>
<event>
 5   0  0.5329891E-06  0.2922773E+04  0.7818609E-02  0.8266134E-01
       -1   -1    0    0    0  501  0.00000000000E+00  0.00000000000E+00  0.98101621565E+03  0.98101621567E+03  0.50400001928E-02 0.  1.
        1   -1    0    0  501    0  0.00000000000E+00  0.00000000000E+00 -0.21769783298E+04  0.21769783298E+04  0.50400001928E-02 0. -1.
    10030    2    1    2    0    0  0.00000000000E+00  0.00000000000E+00 -0.11959621141E+04  0.31579945454E+04  0.29227733697E+04 0.  0.
        4    1    3    3  502    0  0.13276803816E+04  0.58881216106E+03 -0.42304199208E+03  0.15127462102E+04  0.12699999809E+01 0.  1.
       -4    1    3    3    0  502 -0.13276803816E+04 -0.58881216106E+03 -0.77292012203E+03  0.16452483352E+04  0.12699999809E+01 0. -1.
</event>
<event>
 5   0  0.1388724E-05  0.2698800E+04  0.7818609E-02  0.8335395E-01
       -2   -1    0    0    0  501  0.00000000000E+00  0.00000000000E+00  0.78899224848E+03  0.78899224848E+03  0.25500000920E-02 0.  1.
        2   -1    0    0  501    0  0.00000000000E+00  0.00000000000E+00 -0.23078552922E+04  0.23078552922E+04  0.25500000920E-02 0. -1.
    10030    2    1    2    0    0  0.00000000000E+00  0.00000000000E+00 -0.15188630438E+04  0.30968475407E+04  0.26987996859E+04 0.  0.
        4    1    3    3  502    0 -0.53187865608E+03 -0.34607876660E+02 -0.21819431713E+04  0.22461011165E+04  0.12699999809E+01 0. -1.
       -4    1    3    3    0  502  0.53187865608E+03  0.34607876660E+02  0.66308012752E+03  0.85074642423E+03  0.12699999809E+01 0.  1.
</event>
<event>
 5   0  0.1345931E-05  0.3150305E+04  0.7818609E-02  0.8202066E-01
       -2   -1    0    0    0  501  0.00000000000E+00  0.00000000000E+00  0.13105764915E+04  0.13105764915E+04  0.25500000920E-02 0. -1.
        2   -1    0    0  501    0  0.00000000000E+00  0.00000000000E+00 -0.18931402003E+04  0.18931402003E+04  0.25500000920E-02 0.  1.
    10030    2    1    2    0    0  0.00000000000E+00  0.00000000000E+00 -0.58256370882E+03  0.32037166919E+04  0.31503047737E+04 0.  0.
        2    1    3    3  502    0  0.12647961038E+04 -0.14053620630E+03  0.65270474175E+03  0.14302038629E+04  0.25500000920E-02 0. -1.
       -2    1    3    3    0  502 -0.12647961038E+04  0.14053620630E+03 -0.12352684506E+04  0.17735128290E+04  0.25500000920E-02 0.  1.
</event>
<event>
 5   0  0.1388724E-05  0.2851476E+04  0.7818609E-02  0.8287463E-01
        2   -1    0    0  501    0  0.00000000000E+00  0.00000000000E+00  0.14530916436E+04  0.14530916436E+04  0.25500000920E-02 0.  1.
       -2   -1    0    0    0  501  0.00000000000E+00  0.00000000000E+00 -0.13988993996E+04  0.13988993996E+04  0.25500000920E-02 0. -1.
    10030    2    1    2    0    0  0.00000000000E+00  0.00000000000E+00  0.54192244044E+02  0.28519910432E+04  0.28514761284E+04 0.  0.
        4    1    3    3  502    0 -0.34001303003E+03 -0.50668369010E+03  0.13158900961E+04  0.14504846019E+04  0.12699999809E+01 0.  1.
       -4    1    3    3    0  502  0.34001303003E+03  0.50668369010E+03 -0.12616978520E+04  0.14015064413E+04  0.12699999809E+01 0. -1.
</event>
<event>
 5   0  0.1480547E-05  0.2971635E+04  0.7818609E-02  0.8251877E-01
        2   -1    0    0  501    0  0.00000000000E+00  0.00000000000E+00  0.21170881579E+04  0.21170881579E+04  0.25500000920E-02 0. -1.
       -2   -1    0    0    0  501  0.00000000000E+00  0.00000000000E+00 -0.10427780585E+04  0.10427780585E+04  0.25500000920E-02 0.  1.
    10030    2    1    2    0    0  0.00000000000E+00  0.00000000000E+00  0.10743100995E+04  0.31598662164E+04  0.29716346202E+04 0.  0.
        1    1    3    3  502    0 -0.74789198321E+03 -0.11073224102E+04 -0.15372956373E+03  0.13450420505E+04  0.50400001928E-02 0. -1.
       -1    1    3    3    0  502  0.74789198321E+03  0.11073224102E+04  0.12280396632E+04  0.18148241659E+04  0.50400001928E-02 0.  1.
</event>
<event>
 5   0  0.1423692E-05  0.3011554E+04  0.7818609E-02  0.8240439E-01
       -2   -1    0    0    0  501  0.00000000000E+00  0.00000000000E+00  0.11655851445E+04  0.11655851445E+04  0.25500000920E-02 0.  1.
        2   -1    0    0  501    0  0.00000000000E+00  0.00000000000E+00 -0.19452583815E+04  0.19452583815E+04  0.25500000920E-02 0. -1.
    10030    2    1    2    0    0  0.00000000000E+00  0.00000000000E+00 -0.77967323702E+03  0.31108435260E+04  0.30115539322E+04 0.  0.
        3    1    3    3  502    0 -0.50985950127E+03 -0.14325383558E+03 -0.18458788931E+04  0.19203508197E+04  0.10100000352E+00 0. -1.
       -3    1    3    3    0  502  0.50985950127E+03  0.14325383558E+03  0.10662056561E+04  0.11904927063E+04  0.10100000352E+00 0.  1.
</event>
<event>
 5   0  0.5730920E-06  0.2801537E+04  0.7818609E-02  0.8302791E-01
       -1   -1    0    0    0  501  0.00000000000E+00  0.00000000000E+00  0.90375295270E+03  0.90375295272E+03  0.50400001928E-02 0.  1.
        1   -1    0    0  501    0  0.00000000000E+00  0.00000000000E+00 -0.21711154194E+04  0.21711154194E+04  0.50400001928E-02 0. -1.
    10030    2    1    2    0    0  0.00000000000E+00  0.00000000000E+00 -0.12673624667E+04  0.30748683721E+04  0.28015367004E+04 0.  0.
        1    1    3    3  502    0 -0.74582296974E+03 -0.76661341211E+03 -0.16264794717E+04  0.19466338889E+04  0.50400001928E-02 0. -1.
       -1    1    3    3    0  502  0.74582296974E+03  0.76661341211E+03  0.35911700495E+03  0.11282344832E+04  0.50400001928E-02 0.  1.
</event>
<event>
 5   0  0.1345931E-05  0.3072941E+04  0.7818609E-02  0.8223203E-01
       -2   -1    0    0    0  501  0.00000000000E+00  0.00000000000E+00  0.13459808442E+04  0.13459808442E+04  0.25500000920E-02 0. -1.
        2   -1    0    0  501    0  0.00000000000E+00  0.00000000000E+00 -0.17539191246E+04  0.17539191246E+04  0.25500000920E-02 0.  1.
    10030    2    1    2    0    0  0.00000000000E+00  0.00000000000E+00 -0.40793828035E+03  0.30998999689E+04  0.30729409653E+04 0.  0.
        2    1    3    3  502    0  0.47148710724E+03  0.73585952503E+03  0.10708231338E+04  0.13821908395E+04  0.25500000920E-02 0. -1.
       -2    1    3    3    0  502 -0.47148710724E+03 -0.73585952503E+03 -0.14787614142E+04  0.17177091293E+04  0.25500000920E-02 0.  1.
</event>
<event>
 5   0  0.5392262E-06  0.3005176E+04  0.7818609E-02  0.8242254E-01
       -1   -1    0    0    0  501  0.00000000000E+00  0.00000000000E+00  0.12900850345E+04  0.12900850345E+04  0.50400001928E-02 0. -1.
        1   -1    0    0  501    0  0.00000000000E+00  0.00000000000E+00 -0.17500945704E+04  0.17500945704E+04  0.50400001928E-02 0.  1.
    10030    2    1    2    0    0  0.00000000000E+00  0.00000000000E+00 -0.46000953591E+03  0.30401796050E+04  0.30051760776E+04 0.  0.
        2    1    3    3  502    0  0.12345894059E+04 -0.57218723630E+03  0.41472650745E+03  0.14225355217E+04  0.25500000920E-02 0. -1.
       -2    1    3    3    0  502 -0.12345894059E+04  0.57218723630E+03 -0.87473604336E+03  0.16176440833E+04  0.25500000920E-02 0.  1.
</event>
<event>
 5   0  0.1345931E-05  0.2518768E+04  0.7818609E-02  0.8396330E-01
       -2   -1    0    0    0  501  0.00000000000E+00  0.00000000000E+00  0.11750052583E+04  0.11750052583E+04  0.25500000920E-02 0.  1.
        2   -1    0    0  501    0  0.00000000000E+00  0.00000000000E+00 -0.13498223518E+04  0.13498223518E+04  0.25500000920E-02 0. -1.
    10030    2    1    2    0    0  0.00000000000E+00  0.00000000000E+00 -0.17481709345E+03  0.25248276101E+04  0.25187682396E+04 0.  0.
        2    1    3    3  502    0 -0.22134985475E+03  0.79300404791E+03 -0.10426949525E+04  0.13285570903E+04  0.25500000920E-02 0. -1.
       -2    1    3    3    0  502  0.22134985475E+03 -0.79300404791E+03  0.86787785909E+03  0.11962705198E+04  0.25500000920E-02 0.  1.
</event>
<event>
 5   0  0.1388724E-05  0.3022444E+04  0.7818609E-02  0.8237351E-01
        2   -1    0    0  501    0  0.00000000000E+00  0.00000000000E+00  0.16525646143E+04  0.16525646143E+04  0.25500000920E-02 0. -1.
       -2   -1    0    0    0  501  0.00000000000E+00  0.00000000000E+00 -0.13819680383E+04  0.13819680383E+04  0.25500000920E-02 0.  1.
    10030    2    1    2    0    0  0.00000000000E+00  0.00000000000E+00  0.27059657602E+03  0.30345326526E+04  0.30224436989E+04 0.  0.
        4    1    3    3  502    0  0.13482720571E+04  0.29962154926E+03 -0.48048941920E+03  0.14623550552E+04  0.12699999809E+01 0.  1.
       -4    1    3    3    0  502 -0.13482720571E+04 -0.29962154926E+03  0.75108599523E+03  0.15721775974E+04  0.12699999809E+01 0. -1.
</event>
<event>
 5   0  0.5730920E-06  0.3036580E+04  0.7818609E-02  0.8233362E-01
        1   -1    0    0  501    0  0.00000000000E+00  0.00000000000E+00  0.22334714193E+04  0.22334714193E+04  0.50400001928E-02 0.  1.
       -1   -1    0    0    0  501  0.00000000000E+00  0.00000000000E+00 -0.10321171574E+04  0.10321171574E+04  0.50400001928E-02 0. -1.
    10030    2    1    2    0    0  0.00000000000E+00  0.00000000000E+00  0.12013542619E+04  0.32655885768E+04  0.30365797684E+04 0.  0.
        1    1    3    3  502    0  0.13295459277E+04  0.62990546498E+03  0.19724404491E+03  0.14843781466E+04  0.50400001928E-02 0. -1.
       -1    1    3    3    0  502 -0.13295459277E+04 -0.62990546498E+03  0.10041102170E+04  0.17812104302E+04  0.50400001928E-02 0.  1.
</event>
<event>
 5   0  0.5522695E-06  0.2997832E+04  0.7818609E-02  0.8244350E-01
        1   -1    0    0  501    0  0.00000000000E+00  0.00000000000E+00  0.15254390313E+04  0.15254390313E+04  0.50400001928E-02 0. -1.
       -1   -1    0    0    0  501  0.00000000000E+00  0.00000000000E+00 -0.14728536885E+04  0.14728536885E+04  0.50400001928E-02 0.  1.
    10030    2    1    2    0    0  0.00000000000E+00  0.00000000000E+00  0.52585342820E+02  0.29982927198E+04  0.29978315522E+04 0.  0.
        3    1    3    3  502    0  0.55771138875E+03  0.11839776597E+04 -0.70450667123E+03  0.14863292878E+04  0.10100000352E+00 0.  1.
       -3    1    3    3    0  502 -0.55771138875E+03 -0.11839776597E+04  0.75709201405E+03  0.15119634320E+04  0.10100000352E+00 0. -1.
</event>
<event>
 5   0  0.1423692E-05  0.3337938E+04  0.7818609E-02  0.8153309E-01
       -2   -1    0    0    0  501  0.00000000000E+00  0.00000000000E+00  0.11184644602E+04  0.11184644603E+04  0.25500000920E-02 0.  1.
        2   -1    0    0  501    0  0.00000000000E+00  0.00000000000E+00 -0.24904300767E+04  0.24904300767E+04  0.25500000920E-02 0. -1.
    10030    2    1    2    0    0  0.00000000000E+00  0.00000000000E+00 -0.13719656165E+04  0.36088945370E+04  0.33379380051E+04 0.  0.
        3    1    3    3  502    0 -0.73492679896E+03  0.47144744975E+02 -0.23052627481E+04  0.24200364408E+04  0.10100000352E+00 0. -1.
       -3    1    3    3    0  502  0.73492679896E+03 -0.47144744975E+02  0.93329713161E+03  0.11888580962E+04  0.10100000352E+00 0.  1.
</event>
<event>
 5   0  0.7032692E-06  0.2140365E+04  0.7818609E-02  0.8543668E-01
       -1   -1    0    0    0  501  0.00000000000E+00  0.00000000000E+00  0.13543410127E+04  0.13543410127E+04  0.50400001928E-02 0. -1.
        1   -1    0    0  501    0  0.00000000000E+00  0.00000000000E+00 -0.84564448941E+03  0.84564448943E+03  0.50400001928E-02 0.  1.
    10030    2    1    2    0    0  0.00000000000E+00  0.00000000000E+00  0.50869652330E+03  0.21999855021E+04  0.21403654026E+04 0.  0.
        5    1    3    3  502    0 -0.37017258256E+03 -0.87081115762E+03 -0.25950642133E+03  0.98117556321E+03  0.46999998093E+01 0.  1.
       -5    1    3    3    0  502  0.37017258256E+03  0.87081115762E+03  0.76820294463E+03  0.12188099389E+04  0.46999998093E+01 0. -1.
</event>
<event>
 5   0  0.5329891E-06  0.1870932E+04  0.7818609E-02  0.8669462E-01
       -1   -1    0    0    0  501  0.00000000000E+00  0.00000000000E+00  0.71688857765E+03  0.71688857767E+03  0.50400001928E-02 0. -1.
        1   -1    0    0  501    0  0.00000000000E+00  0.00000000000E+00 -0.12206874809E+04  0.12206874810E+04  0.50400001928E-02 0.  1.
    10030    2    1    2    0    0  0.00000000000E+00  0.00000000000E+00 -0.50379890329E+03  0.19375760586E+04  0.18709322938E+04 0.  0.
        4    1    3    3  502    0  0.82729646826E+03 -0.39615429340E+03 -0.44212023429E+03  0.10182482924E+04  0.12699999809E+01 0.  1.
       -4    1    3    3    0  502 -0.82729646826E+03  0.39615429340E+03 -0.61678669002E+02  0.91932776619E+03  0.12699999809E+01 0. -1.
</event>
<event>
 5   0  0.1388724E-05  0.2147048E+04  0.7818609E-02  0.8540797E-01
        2   -1    0    0  501    0  0.00000000000E+00  0.00000000000E+00  0.83770283236E+03  0.83770283236E+03  0.25500000920E-02 0.  1.
       -2   -1    0    0    0  501  0.00000000000E+00  0.00000000000E+00 -0.13757311221E+04  0.13757311221E+04  0.25500000920E-02 0. -1.
    10030    2    1    2    0    0  0.00000000000E+00  0.00000000000E+00 -0.53802828972E+03  0.22134339544E+04  0.21470480735E+04 0.  0.
        4    1    3    3  502    0 -0.25257581598E+03 -0.23302479473E+03 -0.13174939236E+04  0.13615751721E+04  0.12699999809E+01 0. -1.
       -4    1    3    3    0  502  0.25257581598E+03  0.23302479473E+03  0.77946563385E+03  0.85185878233E+03  0.12699999809E+01 0.  1.
</event>
<event>
 5   0  0.1480547E-05  0.2674244E+04  0.7818609E-02  0.8343410E-01
       -2   -1    0    0    0  501  0.00000000000E+00  0.00000000000E+00  0.10162153411E+04  0.10162153411E+04  0.25500000920E-02 0.  1.
        2   -1    0    0  501    0  0.00000000000E+00  0.00000000000E+00 -0.17593670740E+04  0.17593670740E+04  0.25500000920E-02 0. -1.
    10030    2    1    2    0    0  0.00000000000E+00  0.00000000000E+00 -0.74315173291E+03  0.27755824151E+04  0.26742444250E+04 0.  0.
        1    1    3    3  502    0 -0.34010133528E+03  0.12644973797E+04 -0.90627951119E+02  0.13125684619E+04  0.50400001928E-02 0.  1.
       -1    1    3    3    0  502  0.34010133528E+03 -0.12644973797E+04 -0.65252378179E+03  0.14630139532E+04  0.50400001928E-02 0. -1.
</event>
<event>
 5   0  0.5392262E-06  0.3000649E+04  0.7818609E-02  0.8243546E-01
       -1   -1    0    0    0  501  0.00000000000E+00  0.00000000000E+00  0.15364375659E+04  0.15364375659E+04  0.50400001928E-02 0.  1.
        1   -1    0    0  501    0  0.00000000000E+00  0.00000000000E+00 -0.14650597714E+04  0.14650597714E+04  0.50400001928E-02 0. -1.
    10030    2    1    2    0    0  0.00000000000E+00  0.00000000000E+00  0.71377794506E+02  0.30014973373E+04  0.30006485092E+04 0.  0.
        2    1    3    3  502    0 -0.12384407903E+04 -0.54910244605E+03  0.68063774495E+03  0.15160860223E+04  0.25500000920E-02 0.  1.
       -2    1    3    3    0  502  0.12384407903E+04  0.54910244605E+03 -0.60925995044E+03  0.14854113149E+04  0.25500000920E-02 0. -1.
</event>
<event>
 5   0  0.1345931E-05  0.3147835E+04  0.7818609E-02  0.8202731E-01
       -2   -1    0    0    0  501  0.00000000000E+00  0.00000000000E+00  0.15886909925E+04  0.15886909925E+04  0.25500000920E-02 0. -1.
        2   -1    0    0  501    0  0.00000000000E+00  0.00000000000E+00 -0.15592815658E+04  0.15592815658E+04  0.25500000920E-02 0.  1.
    10030    2    1    2    0    0  0.00000000000E+00  0.00000000000E+00  0.29409426703E+02  0.31479725584E+04  0.31478351789E+04 0.  0.
        2    1    3    3  502    0  0.43516340915E+03  0.52687803754E+03  0.14325990634E+04  0.15872327288E+04  0.25500000920E-02 0. -1.
       -2    1    3    3    0  502 -0.43516340915E+03 -0.52687803754E+03 -0.14031896367E+04  0.15607398295E+04  0.25500000920E-02 0.  1.
</event>
<event>
 5   0  0.1480547E-05  0.2934309E+04  0.7818609E-02  0.8262742E-01
        2   -1    0    0  501    0  0.00000000000E+00  0.00000000000E+00  0.19371910059E+04  0.19371910059E+04  0.25500000920E-02 0.  1.
       -2   -1    0    0    0  501  0.00000000000E+00  0.00000000000E+00 -0.11111668719E+04  0.11111668719E+04  0.25500000920E-02 0. -1.
    10030    2    1    2    0    0  0.00000000000E+00  0.00000000000E+00  0.82602413401E+03  0.30483578778E+04  0.29343090978E+04 0.  0.
        1    1    3    3  502    0  0.75205680524E+03  0.56345158114E+03  0.15835142489E+04  0.18413539853E+04  0.50400001928E-02 0.  1.
       -1    1    3    3    0  502 -0.75205680524E+03 -0.56345158114E+03 -0.75749011486E+03  0.12070038926E+04  0.50400001928E-02 0. -1.
</event>
<event>
 5   0  0.1423692E-05  0.2984674E+04  0.7818609E-02  0.8248121E-01
       -2   -1    0    0    0  501  0.00000000000E+00  0.00000000000E+00  0.10171155134E+04  0.10171155134E+04  0.25500000920E-02 0.  1.
        2   -1    0    0  501    0  0.00000000000E+00  0.00000000000E+00 -0.21895939484E+04  0.21895939484E+04  0.25500000920E-02 0. -1.
    10030    2    1    2    0    0  0.00000000000E+00  0.00000000000E+00 -0.11724784350E+04  0.32067094618E+04  0.29846741685E+04 0.  0.
        3    1    3    3  502    0  0.37921649627E+03 -0.35646085766E+02 -0.21364917186E+04  0.21701780269E+04  0.10100000352E+00 0. -1.
       -3    1    3    3    0  502 -0.37921649627E+03  0.35646085766E+02  0.96401328360E+03  0.10365314349E+04  0.10100000352E+00 0.  1.
</event>
<event>
 5   0  0.1345931E-05  0.2999584E+04  0.7818609E-02  0.8243850E-01
       -2   -1    0    0    0  501  0.00000000000E+00  0.00000000000E+00  0.10047110094E+04  0.10047110094E+04  0.25500000920E-02 0.  1.
        2   -1    0    0  501    0  0.00000000000E+00  0.00000000000E+00 -0.22388290741E+04  0.22388290741E+04  0.25500000920E-02 0. -1.
    10030    2    1    2    0    0  0.00000000000E+00  0.00000000000E+00 -0.12341180647E+04  0.32435400835E+04  0.29995841171E+04 0.  0.
        2    1    3    3  502    0  0.26009696130E+03 -0.35250074248E+03 -0.21681057388E+04  0.22119199121E+04  0.25500000920E-02 0. -1.
       -2    1    3    3    0  502 -0.26009696130E+03  0.35250074248E+03  0.93398767411E+03  0.10316201714E+04  0.25500000920E-02 0.  1.
</event>
<event>
 5   0  0.7032692E-06  0.1918020E+04  0.7818609E-02  0.8645939E-01
        1   -1    0    0  501    0  0.00000000000E+00  0.00000000000E+00  0.99941618196E+03  0.99941618198E+03  0.50400001928E-02 0.  1.
       -1   -1    0    0    0  501  0.00000000000E+00  0.00000000000E+00 -0.92023704739E+03  0.92023704741E+03  0.50400001928E-02 0. -1.
    10030    2    1    2    0    0  0.00000000000E+00  0.00000000000E+00  0.79179134569E+02  0.19196532294E+04  0.19180195999E+04 0.  0.
        5    1    3    3  502    0 -0.46270254192E+03 -0.32456354701E+03  0.81500267612E+03  0.99180975516E+03  0.46999998093E+01 0.  1.
       -5    1    3    3    0  502  0.46270254192E+03  0.32456354701E+03 -0.73582354155E+03  0.92784347422E+03  0.46999998093E+01 0. -1.
</event>
<event>
 5   0  0.1388724E-05  0.2926037E+04  0.7818609E-02  0.8265172E-01
       -2   -1    0    0    0  501  0.00000000000E+00  0.00000000000E+00  0.22441594530E+04  0.22441594530E+04  0.25500000920E-02 0. -1.
        2   -1    0    0  501    0  0.00000000000E+00  0.00000000000E+00 -0.95377528237E+03  0.95377528238E+03  0.25500000920E-02 0.  1.
    10030    2    1    2    0    0  0.00000000000E+00  0.00000000000E+00  0.12903841706E+04  0.31979347353E+04  0.29260374679E+04 0.  0.
        4    1    3    3  502    0 -0.16218444374E+03 -0.31161759213E+02  0.22339385767E+04  0.22400352734E+04  0.12699999809E+01 0. -1.
       -4    1    3    3    0  502  0.16218444374E+03  0.31161759213E+02 -0.94355440607E+03  0.95789946191E+03  0.12699999809E+01 0.  1.
</event>
<event>
 5   0  0.5522695E-06  0.2946867E+04  0.7818609E-02  0.8259068E-01
        1   -1    0    0  501    0  0.00000000000E+00  0.00000000000E+00  0.20538615498E+04  0.20538615498E+04  0.50400001928E-02 0. -1.
       -1   -1    0    0    0  501  0.00000000000E+00  0.00000000000E+00 -0.10570366199E+04  0.10570366199E+04  0.50400001928E-02 0.  1.
    10030    2    1    2    0    0  0.00000000000E+00  0.00000000000E+00  0.99682492993E+03  0.31108981697E+04  0.29468674014E+04 0.  0.
        3    1    3    3  502    0 -0.47221921446E+03 -0.40111117053E+03 -0.91283362376E+03  0.11032435780E+04  0.10100000352E+00 0.  1.
       -3    1    3    3    0  502  0.47221921446E+03  0.40111117053E+03  0.19096585537E+04  0.20076545917E+04  0.10100000352E+00 0. -1.
</event>
<event>
 5   0  0.5730920E-06  0.3034514E+04  0.7818609E-02  0.8233943E-01
        1   -1    0    0  501    0  0.00000000000E+00  0.00000000000E+00  0.28849257557E+04  0.28849257557E+04  0.50400001928E-02 0.  1.
       -1   -1    0    0    0  501  0.00000000000E+00  0.00000000000E+00 -0.79796490292E+03  0.79796490293E+03  0.50400001928E-02 0. -1.
    10030    2    1    2    0    0  0.00000000000E+00  0.00000000000E+00  0.20869608528E+04  0.36828906587E+04  0.30345144591E+04 0.  0.
        1    1    3    3  502    0 -0.76527818829E+03 -0.31783649214E+03  0.25860312664E+04  0.27155530656E+04  0.50400001928E-02 0.  1.
       -1    1    3    3    0  502  0.76527818829E+03  0.31783649214E+03 -0.49907041360E+03  0.96733759307E+03  0.50400001928E-02 0. -1.
</event>
<event>
 5   0  0.1423692E-05  0.2540633E+04  0.7818609E-02  0.8388651E-01
        2   -1    0    0  501    0  0.00000000000E+00  0.00000000000E+00  0.24176560825E+04  0.24176560825E+04  0.25500000920E-02 0.  1.
       -2   -1    0    0    0  501  0.00000000000E+00  0.00000000000E+00 -0.66746653157E+03  0.66746653157E+03  0.25500000920E-02 0. -1.
    10030    2    1    2    0    0  0.00000000000E+00  0.00000000000E+00  0.17501895510E+04  0.30851226141E+04  0.25406334013E+04 0.  0.
        3    1    3    3  502    0  0.10740890901E+04 -0.67460794731E+03  0.78973583765E+03  0.14941371957E+04  0.10100000352E+00 0. -1.
       -3    1    3    3    0  502 -0.10740890901E+04  0.67460794731E+03  0.96045371332E+03  0.15909854184E+04  0.10100000352E+00 0.  1.
</event>
<event>
 5   0  0.5522695E-06  0.2710184E+04  0.7818609E-02  0.8331708E-01
        1   -1    0    0  501    0  0.00000000000E+00  0.00000000000E+00  0.12614657184E+04  0.12614657184E+04  0.50400001928E-02 0.  1.
       -1   -1    0    0    0  501  0.00000000000E+00  0.00000000000E+00 -0.14556675026E+04  0.14556675026E+04  0.50400001928E-02 0. -1.
    10030    2    1    2    0    0  0.00000000000E+00  0.00000000000E+00 -0.19420178419E+03  0.27171332210E+04  0.27101842387E+04 0.  0.
        3    1    3    3  502    0 -0.10337201848E+04  0.28858832667E+03  0.73231348493E+03  0.12992858397E+04  0.10100000352E+00 0.  1.
       -3    1    3    3    0  502  0.10337201848E+04 -0.28858832667E+03 -0.92651526912E+03  0.14178473814E+04  0.10100000352E+00 0. -1.
</event>
<event>
 5   0  0.5329891E-06  0.2796579E+04  0.7818609E-02  0.8304331E-01
        1   -1    0    0  501    0  0.00000000000E+00  0.00000000000E+00  0.15612440360E+04  0.15612440360E+04  0.50400001928E-02 0. -1.
       -1   -1    0    0    0  501  0.00000000000E+00  0.00000000000E+00 -0.12523430192E+04  0.12523430192E+04  0.50400001928E-02 0.  1.
    10030    2    1    2    0    0  0.00000000000E+00  0.00000000000E+00  0.30890101677E+03  0.28135870552E+04  0.27965786738E+04 0.  0.
        4    1    3    3  502    0 -0.49917576984E+02  0.64612268200E+03 -0.10921353215E+04  0.12699320683E+04  0.12699999809E+01 0.  1.
       -4    1    3    3    0  502  0.49917576984E+02 -0.64612268200E+03  0.14010363383E+04  0.15436549869E+04  0.12699999809E+01 0. -1.
</event>
<event>
 5   0  0.7032692E-06  0.3026175E+04  0.7818609E-02  0.8236296E-01
       -1   -1    0    0    0  501  0.00000000000E+00  0.00000000000E+00  0.11272981491E+04  0.11272981491E+04  0.50400001928E-02 0.  1.
        1   -1    0    0  501    0  0.00000000000E+00  0.00000000000E+00 -0.20309030702E+04  0.20309030702E+04  0.50400001928E-02 0. -1.
    10030    2    1    2    0    0  0.00000000000E+00  0.00000000000E+00 -0.90360492108E+03  0.31582012193E+04  0.30261746625E+04 0.  0.
        5    1    3    3  502    0  0.10104677591E+04  0.85742436675E+03  0.31025306905E+03  0.13610660137E+04  0.46999998093E+01 0. -1.
       -5    1    3    3    0  502 -0.10104677591E+04 -0.85742436675E+03 -0.12138579901E+04  0.17971352056E+04  0.46999998093E+01 0.  1.
</event>
<event>
 5   0  0.5329891E-06  0.2991413E+04  0.7818609E-02  0.8246187E-01
       -1   -1    0    0    0  501  0.00000000000E+00  0.00000000000E+00  0.17334874022E+04  0.17334874022E+04  0.50400001928E-02 0. -1.
        1   -1    0    0  501    0  0.00000000000E+00  0.00000000000E+00 -0.12905420479E+04  0.12905420479E+04  0.50400001928E-02 0.  1.
    10030    2    1    2    0    0  0.00000000000E+00  0.00000000000E+00  0.44294535426E+03  0.30240294501E+04  0.29914132995E+04 0.  0.
        4    1    3    3  502    0 -0.13313745692E+04  0.55550150428E+03  0.62074312658E+03  0.15704979487E+04  0.12699999809E+01 0. -1.
       -4    1    3    3    0  502  0.13313745692E+04 -0.55550150428E+03 -0.17779777232E+03  0.14535315014E+04  0.12699999809E+01 0.  1.
</event>
<event>
 5   0  0.1480547E-05  0.2947712E+04  0.7818609E-02  0.8258822E-01
       -2   -1    0    0    0  501  0.00000000000E+00  0.00000000000E+00  0.12021960800E+04  0.12021960800E+04  0.25500000920E-02 0.  1.
        2   -1    0    0  501    0  0.00000000000E+00  0.00000000000E+00 -0.18069025690E+04  0.18069025690E+04  0.25500000920E-02 0. -1.
    10030    2    1    2    0    0  0.00000000000E+00  0.00000000000E+00 -0.60470648898E+03  0.30090986491E+04  0.29477117807E+04 0.  0.
        1    1    3    3  502    0 -0.14072866596E+04  0.38839189545E+03 -0.95785074988E+02  0.14630375208E+04  0.50400001928E-02 0.  1.
       -1    1    3    3    0  502  0.14072866596E+04 -0.38839189545E+03 -0.50892141399E+03  0.15460611283E+04  0.50400001928E-02 0. -1.
</event>
<event>
 5   0  0.5329891E-06  0.2951068E+04  0.7818609E-02  0.8257843E-01
        1   -1    0    0  501    0  0.00000000000E+00  0.00000000000E+00  0.14588122343E+04  0.14588122343E+04  0.50400001928E-02 0.  1.
       -1   -1    0    0    0  501  0.00000000000E+00  0.00000000000E+00 -0.14924471180E+04  0.14924471180E+04  0.50400001928E-02 0. -1.
    10030    2    1    2    0    0  0.00000000000E+00  0.00000000000E+00 -0.33634883770E+02  0.29512593523E+04  0.29510676812E+04 0.  0.
        4    1    3    3  502    0  0.29285294754E+03 -0.21228484208E+03 -0.14474245263E+04  0.14919340050E+04  0.12699999809E+01 0. -1.
       -4    1    3    3    0  502 -0.29285294754E+03  0.21228484208E+03  0.14137896425E+04  0.14593253473E+04  0.12699999809E+01 0.  1.
</event>
<event>
 5   0  0.1423692E-05  0.2583332E+04  0.7818609E-02  0.8373885E-01
        2   -1    0    0  501    0  0.00000000000E+00  0.00000000000E+00  0.11603509944E+04  0.11603509944E+04  0.25500000920E-02 0. -1.
       -2   -1    0    0    0  501  0.00000000000E+00  0.00000000000E+00 -0.14378414657E+04  0.14378414657E+04  0.25500000920E-02 0.  1.
    10030    2    1    2    0    0  0.00000000000E+00  0.00000000000E+00 -0.27749047129E+03  0.25981924601E+04  0.25833317825E+04 0.  0.
        3    1    3    3  502    0  0.65022811475E+03  0.11089904111E+03 -0.12556765751E+04  0.14183860089E+04  0.10100000352E+00 0.  1.
       -3    1    3    3    0  502 -0.65022811475E+03 -0.11089904111E+03  0.97818610386E+03  0.11798064513E+04  0.10100000352E+00 0. -1.
</event>
<event>
 5   0  0.1388724E-05  0.3024340E+04  0.7818609E-02  0.8236814E-01
        2   -1    0    0  501    0  0.00000000000E+00  0.00000000000E+00  0.20482422170E+04  0.20482422170E+04  0.25500000920E-02 0. -1.
       -2   -1    0    0    0  501  0.00000000000E+00  0.00000000000E+00 -0.11164001278E+04  0.11164001278E+04  0.25500000920E-02 0.  1.
    10030    2    1    2    0    0  0.00000000000E+00  0.00000000000E+00  0.93184208926E+03  0.31646423448E+04  0.30243398439E+04 0.  0.
        4    1    3    3  502    0  0.17510480462E+03  0.67563889440E+03 -0.93776755270E+03  0.11689992318E+04  0.12699999809E+01 0.  1.
       -4    1    3    3    0  502 -0.17510480462E+03 -0.67563889440E+03  0.18696096420E+04  0.19956431130E+04  0.12699999809E+01 0. -1.
</event>
<event>
 5   0  0.5329891E-06  0.2101438E+04  0.7818609E-02  0.8560610E-01
        1   -1    0    0  501    0  0.00000000000E+00  0.00000000000E+00  0.13907672034E+04  0.13907672034E+04  0.50400001928E-02 0. -1.
       -1   -1    0    0    0  501  0.00000000000E+00  0.00000000000E+00 -0.79381414821E+03  0.79381414823E+03  0.50400001928E-02 0.  1.
    10030    2    1    2    0    0  0.00000000000E+00  0.00000000000E+00  0.59695305523E+03  0.21845813517E+04  0.21014382532E+04 0.  0.
        4    1    3    3  502    0  0.17233000196E+02 -0.41996148912E+03  0.12995642267E+04  0.13658453137E+04  0.12699999809E+01 0. -1.
       -4    1    3    3    0  502 -0.17233000196E+02  0.41996148912E+03 -0.70261117151E+03  0.81873603797E+03  0.12699999809E+01 0.  1.
</event>
<event>
 5   0  0.5730920E-06  0.3124331E+04  0.7818609E-02  0.8209092E-01
       -1   -1    0    0    0  501  0.00000000000E+00  0.00000000000E+00  0.24210555308E+04  0.24210555308E+04  0.50400001928E-02 0. -1.
        1   -1    0    0  501    0  0.00000000000E+00  0.00000000000E+00 -0.10079743010E+04  0.10079743010E+04  0.50400001928E-02 0.  1.
    10030    2    1    2    0    0  0.00000000000E+00  0.00000000000E+00  0.14130812298E+04  0.34290298318E+04  0.31243314526E+04 0.  0.
        1    1    3    3  502    0 -0.82429204558E+03  0.72505531412E+03 -0.51324261546E+03  0.12118500597E+04  0.50400001928E-02 0.  1.
       -1    1    3    3    0  502  0.82429204558E+03 -0.72505531412E+03  0.19263238452E+04  0.22171797721E+04  0.50400001928E-02 0. -1.
</event>
<event>
 5   0  0.1345931E-05  0.3186883E+04  0.7818609E-02  0.8192290E-01
        2   -1    0    0  501    0  0.00000000000E+00  0.00000000000E+00  0.14365719226E+04  0.14365719226E+04  0.25500000920E-02 0.  1.
       -2   -1    0    0    0  501  0.00000000000E+00  0.00000000000E+00 -0.17674405522E+04  0.17674405522E+04  0.25500000920E-02 0. -1.
    10030    2    1    2    0    0  0.00000000000E+00  0.00000000000E+00 -0.33086862966E+03  0.32040124748E+04  0.31868827855E+04 0.  0.
        2    1    3    3  502    0  0.44024922880E+03  0.61529841625E+02 -0.17038389071E+04  0.17608726037E+04  0.25500000920E-02 0. -1.
       -2    1    3    3    0  502 -0.44024922880E+03 -0.61529841625E+02  0.13729702775E+04  0.14431398711E+04  0.25500000920E-02 0.  1.
</event>
<event>
 5   0  0.1423692E-05  0.2927662E+04  0.7818609E-02  0.8264695E-01
        2   -1    0    0  501    0  0.00000000000E+00  0.00000000000E+00  0.91910674850E+03  0.91910674850E+03  0.25500000920E-02 0. -1.
       -2   -1    0    0    0  501  0.00000000000E+00  0.00000000000E+00 -0.23313950030E+04  0.23313950030E+04  0.25500000920E-02 0.  1.
    10030    2    1    2    0    0  0.00000000000E+00  0.00000000000E+00 -0.14122882545E+04  0.32505017515E+04  0.29276617842E+04 0.  0.
        3    1    3    3  502    0  0.14223265700E+04  0.14552983238E+03 -0.10547927267E+04  0.17767328191E+04  0.10100000352E+00 0.  1.
       -3    1    3    3    0  502 -0.14223265700E+04 -0.14552983238E+03 -0.35749552776E+03  0.14737689325E+04  0.10100000352E+00 0. -1.
</event>
<event>
 5   0  0.5329891E-06  0.3011283E+04  0.7818609E-02  0.8240516E-01
       -1   -1    0    0    0  501  0.00000000000E+00  0.00000000000E+00  0.73308243974E+03  0.73308243976E+03  0.50400001928E-02 0.  1.
        1   -1    0    0  501    0  0.00000000000E+00  0.00000000000E+00 -0.30923611021E+04  0.30923611021E+04  0.50400001928E-02 0. -1.
    10030    2    1    2    0    0  0.00000000000E+00  0.00000000000E+00 -0.23592786623E+04  0.38254435418E+04  0.30112825316E+04 0.  0.
        4    1    3    3  502    0  0.77587805910E+03 -0.77548144474E+03 -0.24897820079E+04  0.27207304706E+04  0.12699999809E+01 0. -1.
       -4    1    3    3    0  502 -0.77587805910E+03  0.77548144474E+03  0.13050334557E+03  0.11047130713E+04  0.12699999809E+01 0.  1.
</event>
<event>
 5   0  0.5392262E-06  0.3068578E+04  0.7818609E-02  0.8224415E-01
       -1   -1    0    0    0  501  0.00000000000E+00  0.00000000000E+00  0.14793801722E+04  0.14793801722E+04  0.50400001928E-02 0. -1.
        1   -1    0    0  501    0  0.00000000000E+00  0.00000000000E+00 -0.15912358287E+04  0.15912358287E+04  0.50400001928E-02 0.  1.
    10030    2    1    2    0    0  0.00000000000E+00  0.00000000000E+00 -0.11185565656E+03  0.30706160009E+04  0.30685779992E+04 0.  0.
        2    1    3    3  502    0 -0.58460617774E+03  0.11741777036E+04 -0.85243705265E+03  0.15643230457E+04  0.25500000920E-02 0.  1.
       -2    1    3    3    0  502  0.58460617774E+03 -0.11741777036E+04  0.74058139609E+03  0.15062929552E+04  0.25500000920E-02 0. -1.
</event>
<event>
 5   0  0.5730920E-06  0.3017561E+04  0.7818609E-02  0.8238734E-01
        1   -1    0    0  501    0  0.00000000000E+00  0.00000000000E+00  0.19643642828E+04  0.19643642828E+04  0.50400001928E-02 0. -1.
       -1   -1    0    0    0  501  0.00000000000E+00  0.00000000000E+00 -0.11588575906E+04  0.11588575906E+04  0.50400001928E-02 0.  1.
    10030    2    1    2    0    0  0.00000000000E+00  0.00000000000E+00  0.80550669225E+03  0.31232218734E+04  0.30175609089E+04 0.  0.
        1    1    3    3  502    0 -0.84332656792E+03  0.10962430998E+04 -0.22124145876E+03  0.14006771281E+04  0.50400001928E-02 0.  1.
       -1    1    3    3    0  502  0.84332656792E+03 -0.10962430998E+04  0.10267481510E+04  0.17225447453E+04  0.50400001928E-02 0. -1.
</event>
<event>
 5   0  0.1345931E-05  0.2787137E+04  0.7818609E-02  0.8307273E-01
        2   -1    0    0  501    0  0.00000000000E+00  0.00000000000E+00  0.16062294377E+04  0.16062294377E+04  0.25500000920E-02 0.  1.
       -2   -1    0    0    0  501  0.00000000000E+00  0.00000000000E+00 -0.12090630614E+04  0.12090630614E+04  0.25500000920E-02 0. -1.
    10030    2    1    2    0    0  0.00000000000E+00  0.00000000000E+00  0.39716637637E+03  0.28152924991E+04  0.27871366534E+04 0.  0.
        2    1    3    3  502    0  0.10399233033E+04 -0.35287755412E+02 -0.73779122468E+03  0.12755475662E+04  0.25500000920E-02 0. -1.
       -2    1    3    3    0  502 -0.10399233033E+04  0.35287755412E+02  0.11349576010E+04  0.15397449329E+04  0.25500000920E-02 0.  1.
</event>
<event>
 5   0  0.7032692E-06  0.2501127E+04  0.7818609E-02  0.8402584E-01
       -1   -1    0    0    0  501  0.00000000000E+00  0.00000000000E+00  0.15146809396E+04  0.15146809396E+04  0.50400001928E-02 0.  1.
        1   -1    0    0  501    0  0.00000000000E+00  0.00000000000E+00 -0.10325003769E+04  0.10325003769E+04  0.50400001928E-02 0. -1.
    10030    2    1    2    0    0  0.00000000000E+00  0.00000000000E+00  0.48218056271E+03  0.25471813165E+04  0.25011266590E+04 0.  0.
        5    1    3    3  502    0  0.84066696159E+03 -0.77979182099E+03  0.74936979577E+03  0.13698077986E+04  0.46999998093E+01 0.  1.
       -5    1    3    3    0  502 -0.84066696159E+03  0.77979182099E+03 -0.26718923305E+03  0.11773735179E+04  0.46999998093E+01 0. -1.
</event>
<event>
 5   0  0.5522695E-06  0.3063148E+04  0.7818609E-02  0.8225925E-01
        1   -1    0    0  501    0  0.00000000000E+00  0.00000000000E+00  0.23077720732E+04  0.23077720732E+04  0.50400001928E-02 0.  1.
       -1   -1    0    0    0  501  0.00000000000E+00  0.00000000000E+00 -0.10164431664E+04  0.10164431665E+04  0.50400001928E-02 0. -1.
    10030    2    1    2    0    0  0.00000000000E+00  0.00000000000E+00  0.12913289068E+04  0.33242152397E+04  0.30631481541E+04 0.  0.
        3    1    3    3  502    0  0.35989362150E+03  0.59883804527E+03  0.21247589328E+04  0.22366785544E+04  0.10100000352E+00 0.  1.
       -3    1    3    3    0  502 -0.35989362150E+03 -0.59883804527E+03 -0.83343002602E+03  0.10875366852E+04  0.10100000352E+00 0. -1.
</event>
<event>
 5   0  0.1423692E-05  0.2935538E+04  0.7818609E-02  0.8262382E-01
       -2   -1    0    0    0  501  0.00000000000E+00  0.00000000000E+00  0.11211998095E+04  0.11211998095E+04  0.25500000920E-02 0.  1.
        2   -1    0    0  501    0  0.00000000000E+00  0.00000000000E+00 -0.19214647974E+04  0.19214647974E+04  0.25500000920E-02 0. -1.
    10030    2    1    2    0    0  0.00000000000E+00  0.00000000000E+00 -0.80026498796E+03  0.30426646069E+04  0.29355380868E+04 0.  0.
        3    1    3    3  502    0 -0.11547170851E+04 -0.22356154120E+03 -0.13102386336E+04  0.17607034379E+04  0.10100000352E+00 0. -1.
       -3    1    3    3    0  502  0.11547170851E+04  0.22356154120E+03  0.50997364560E+03  0.12819611690E+04  0.10100000352E+00 0.  1.
</event>
<event>
 5   0  0.1423692E-05  0.1900397E+04  0.7818609E-02  0.8654659E-01
        2   -1    0    0  501    0  0.00000000000E+00  0.00000000000E+00  0.11524998629E+04  0.11524998629E+04  0.25500000920E-02 0.  1.
       -2   -1    0    0    0  501  0.00000000000E+00  0.00000000000E+00 -0.78340734157E+03  0.78340734158E+03  0.25500000920E-02 0. -1.
    10030    2    1    2    0    0  0.00000000000E+00  0.00000000000E+00  0.36909252135E+03  0.19359072045E+04  0.19003966468E+04 0.  0.
        3    1    3    3  502    0 -0.71621730361E+03 -0.46964931999E+03  0.60374401517E+03  0.10478762121E+04  0.10100000352E+00 0.  1.
       -3    1    3    3    0  502  0.71621730361E+03  0.46964931999E+03 -0.23465149382E+03  0.88803099243E+03  0.10100000352E+00 0. -1.
</event>
<event>
 5   0  0.5730920E-06  0.1941126E+04  0.7818609E-02  0.8634652E-01
        1   -1    0    0  501    0  0.00000000000E+00  0.00000000000E+00  0.13784039945E+04  0.13784039946E+04  0.50400001928E-02 0. -1.
       -1   -1    0    0    0  501  0.00000000000E+00  0.00000000000E+00 -0.68339335128E+03  0.68339335130E+03  0.50400001928E-02 0.  1.
    10030    2    1    2    0    0  0.00000000000E+00  0.00000000000E+00  0.69501064327E+03  0.20617973459E+04  0.19411255758E+04 0.  0.
        1    1    3    3  502    0  0.61530435507E+02  0.22299753702E+03 -0.65368291834E+03  0.69340843215E+03  0.50400001928E-02 0.  1.
       -1    1    3    3    0  502 -0.61530435507E+02 -0.22299753702E+03  0.13486935616E+04  0.13683889137E+04  0.50400001928E-02 0. -1.
</event>
<event>
 5   0  0.1480547E-05  0.2991031E+04  0.7818609E-02  0.8246297E-01
        2   -1    0    0  501    0  0.00000000000E+00  0.00000000000E+00  0.23813390024E+04  0.23813390024E+04  0.25500000920E-02 0. -1.
       -2   -1    0    0    0  501  0.00000000000E+00  0.00000000000E+00 -0.93920575215E+03  0.93920575215E+03  0.25500000920E-02 0.  1.
    10030    2    1    2    0    0  0.00000000000E+00  0.00000000000E+00  0.14421332502E+04  0.33205447545E+04  0.29910314534E+04 0.  0.
        1    1    3    3  502    0  0.11116639529E+04  0.44306048173E+03  0.17167992397E+04  0.20927252481E+04  0.50400001928E-02 0. -1.
       -1    1    3    3    0  502 -0.11116639529E+04 -0.44306048173E+03 -0.27466598946E+03  0.12278195064E+04  0.50400001928E-02 0.  1.
</event>
<event>
 5   0  0.5392262E-06  0.2984078E+04  0.7818609E-02  0.8248292E-01
       -1   -1    0    0    0  501  0.00000000000E+00  0.00000000000E+00  0.10854179149E+04  0.10854179149E+04  0.50400001928E-02 0. -1.
        1   -1    0    0  501    0  0.00000000000E+00  0.00000000000E+00 -0.20509886614E+04  0.20509886614E+04  0.50400001928E-02 0.  1.
    10030    2    1    2    0    0  0.00000000000E+00  0.00000000000E+00 -0.96557074652E+03  0.31364065764E+04  0.29840776374E+04 0.  0.
        2    1    3    3  502    0 -0.78461269930E+03 -0.78391006591E+03 -0.15317535639E+04  0.18911375042E+04  0.25500000920E-02 0.  1.
       -2    1    3    3    0  502  0.78461269930E+03  0.78391006591E+03  0.56618281740E+03  0.12452690722E+04  0.25500000920E-02 0. -1.
</event>
<event>
 5   0  0.5730920E-06  0.2981232E+04  0.7818609E-02  0.8249111E-01
        1   -1    0    0  501    0  0.00000000000E+00  0.00000000000E+00  0.15334205716E+04  0.15334205716E+04  0.50400001928E-02 0. -1.
       -1   -1    0    0    0  501  0.00000000000E+00  0.00000000000E+00 -0.14490059801E+04  0.14490059801E+04  0.50400001928E-02 0.  1.
    10030    2    1    2    0    0  0.00000000000E+00  0.00000000000E+00  0.84414591471E+02  0.29824265517E+04  0.29812316772E+04 0.  0.
        1    1    3    3  502    0 -0.14568782935E+04  0.20588862549E+03 -0.19674213665E+03  0.14844500519E+04  0.50400001928E-02 0.  1.
       -1    1    3    3    0  502  0.14568782935E+04 -0.20588862549E+03  0.28115672812E+03  0.14979764998E+04  0.50400001928E-02 0. -1.
</event>
<event>
 5   0  0.4806125E-06  0.1760890E+04  0.7818609E-02  0.8727379E-01
       -4   -1    0    0    0  501  0.00000000000E+00  0.00000000000E+00  0.89987081105E+03  0.89987170724E+03  0.12699999809E+01 0.  1.
        4   -1    0    0  501    0  0.00000000000E+00  0.00000000000E+00 -0.86143631906E+03  0.86143725523E+03  0.12699999809E+01 0. -1.
    10030    2    1    2    0    0  0.00000000000E+00  0.00000000000E+00  0.38434491991E+02  0.17613089625E+04  0.17608895624E+04 0.  0.
        1    1    3    3  502    0 -0.62492706733E+02  0.36000582543E+03 -0.78201878520E+03  0.86317026893E+03  0.50400001928E-02 0. -1.
       -1    1    3    3    0  502  0.62492706733E+02 -0.36000582543E+03  0.82045327719E+03  0.89813869353E+03  0.50400001928E-02 0.  1.
</event>
<event>
 5   0  0.1480547E-05  0.1947872E+04  0.7818609E-02  0.8631388E-01
        2   -1    0    0  501    0  0.00000000000E+00  0.00000000000E+00  0.10900643290E+04  0.10900643290E+04  0.25500000920E-02 0. -1.
       -2   -1    0    0    0  501  0.00000000000E+00  0.00000000000E+00 -0.87017933562E+03  0.87017933562E+03  0.25500000920E-02 0.  1.
    10030    2    1    2    0    0  0.00000000000E+00  0.00000000000E+00  0.21988499342E+03  0.19602436647E+04  0.19478721248E+04 0.  0.
        1    1    3    3  502    0  0.73360857528E+03 -0.48482190087E+03 -0.31142634626E+03  0.93285593017E+03  0.50400001928E-02 0.  1.
       -1    1    3    3    0  502 -0.73360857528E+03  0.48482190087E+03  0.53131133967E+03  0.10273877345E+04  0.50400001928E-02 0. -1.
</event>
<event>
 5   0  0.5392262E-06  0.3095842E+04  0.7818609E-02  0.8216880E-01
        1   -1    0    0  501    0  0.00000000000E+00  0.00000000000E+00  0.15506749123E+04  0.15506749123E+04  0.50400001928E-02 0. -1.
       -1   -1    0    0    0  501  0.00000000000E+00  0.00000000000E+00 -0.15451720546E+04  0.15451720546E+04  0.50400001928E-02 0.  1.
    10030    2    1    2    0    0  0.00000000000E+00  0.00000000000E+00  0.55028577071E+01  0.30958469669E+04  0.30958420763E+04 0.  0.
        2    1    3    3  502    0 -0.14570179605E+04 -0.52153353723E+03  0.36824530401E+02  0.15479840483E+04  0.25500000920E-02 0.  1.
       -2    1    3    3    0  502  0.14570179605E+04  0.52153353723E+03 -0.31321672694E+02  0.15478629186E+04  0.25500000920E-02 0. -1.
</event>
<event>
 5   0  0.5392262E-06  0.2964810E+04  0.7818609E-02  0.8253852E-01
       -1   -1    0    0    0  501  0.00000000000E+00  0.00000000000E+00  0.11290398245E+04  0.11290398245E+04  0.50400001928E-02 0. -1.
        1   -1    0    0  501    0  0.00000000000E+00  0.00000000000E+00 -0.19463654296E+04  0.19463654296E+04  0.50400001928E-02 0.  1.
    10030    2    1    2    0    0  0.00000000000E+00  0.00000000000E+00 -0.81732560507E+03  0.30754052541E+04  0.29648096621E+04 0.  0.
        2    1    3    3  502    0  0.14559012484E+03 -0.67947120091E+02  0.11199818063E+04  0.11314471008E+04  0.25500000920E-02 0. -1.
       -2    1    3    3    0  502 -0.14559012484E+03  0.67947120091E+02 -0.19373074114E+04  0.19439581533E+04  0.25500000920E-02 0.  1.
</event>
<event>
 5   0  0.1345931E-05  0.2999289E+04  0.7818609E-02  0.8243934E-01
       -2   -1    0    0    0  501  0.00000000000E+00  0.00000000000E+00  0.77257268236E+03  0.77257268236E+03  0.25500000920E-02 0. -1.
        2   -1    0    0  501    0  0.00000000000E+00  0.00000000000E+00 -0.29109676491E+04  0.29109676491E+04  0.25500000920E-02 0.  1.
    10030    2    1    2    0    0  0.00000000000E+00  0.00000000000E+00 -0.21383949667E+04  0.36835403314E+04  0.29992893058E+04 0.  0.
        2    1    3    3  502    0 -0.88400057806E+03 -0.11690791772E+04 -0.14589855277E+04  0.20680526866E+04  0.25500000920E-02 0.  1.
       -2    1    3    3    0  502  0.88400057806E+03  0.11690791772E+04 -0.67940943898E+03  0.16154876448E+04  0.25500000920E-02 0. -1.
</event>
<event>
 5   0  0.5522695E-06  0.3061557E+04  0.7818609E-02  0.8226368E-01
       -1   -1    0    0    0  501  0.00000000000E+00  0.00000000000E+00  0.90646013543E+03  0.90646013544E+03  0.50400001928E-02 0. -1.
        1   -1    0    0  501    0  0.00000000000E+00  0.00000000000E+00 -0.25850911685E+04  0.25850911685E+04  0.50400001928E-02 0.  1.
    10030    2    1    2    0    0  0.00000000000E+00  0.00000000000E+00 -0.16786310331E+04  0.34915513039E+04  0.30615565262E+04 0.  0.
        3    1    3    3  502    0  0.10530960350E+04 -0.96045504158E+03 -0.20250230317E+03  0.14396153441E+04  0.10100000352E+00 0. -1.
       -3    1    3    3    0  502 -0.10530960350E+04  0.96045504158E+03 -0.14761287299E+04  0.20519359598E+04  0.10100000352E+00 0.  1.
</event>
<event>
 5   0  0.1523029E-05  0.2959291E+04  0.7818609E-02  0.8255452E-01
       -2   -1    0    0    0  501  0.00000000000E+00  0.00000000000E+00  0.94169730144E+03  0.94169730145E+03  0.25500000920E-02 0. -1.
        2   -1    0    0  501    0  0.00000000000E+00  0.00000000000E+00 -0.23248986962E+04  0.23248986962E+04  0.25500000920E-02 0.  1.
    10030    2    1    2    0    0  0.00000000000E+00  0.00000000000E+00 -0.13832013948E+04  0.32665959977E+04  0.29592910153E+04 0.  0.
        5    1    3    3  502    0 -0.11548719367E+04  0.89502932394E+03 -0.43385354956E+03  0.15241580211E+04  0.46999998093E+01 0. -1.
       -5    1    3    3    0  502  0.11548719367E+04 -0.89502932394E+03 -0.94934784520E+03  0.17424379765E+04  0.46999998093E+01 0.  1.
</event>
<event>
 5   0  0.5522695E-06  0.2096418E+04  0.7818609E-02  0.8562823E-01
        1   -1    0    0  501    0  0.00000000000E+00  0.00000000000E+00  0.86764193074E+03  0.86764193075E+03  0.50400001928E-02 0. -1.
       -1   -1    0    0    0  501  0.00000000000E+00  0.00000000000E+00 -0.12663549196E+04  0.12663549196E+04  0.50400001928E-02 0.  1.
    10030    2    1    2    0    0  0.00000000000E+00  0.00000000000E+00 -0.39871298884E+03  0.21339968503E+04  0.20964184959E+04 0.  0.
        3    1    3    3  502    0  0.49967417906E+03 -0.48754221229E+03  0.59656123953E+03  0.91829026821E+03  0.10100000352E+00 0. -1.
       -3    1    3    3    0  502 -0.49967417906E+03  0.48754221229E+03 -0.99527422837E+03  0.12157065821E+04  0.10100000352E+00 0.  1.
</event>
<event>
 5   0  0.1345931E-05  0.2961732E+04  0.7818609E-02  0.8254744E-01
        2   -1    0    0  501    0  0.00000000000E+00  0.00000000000E+00  0.11261926933E+04  0.11261926933E+04  0.25500000920E-02 0. -1.
       -2   -1    0    0    0  501  0.00000000000E+00  0.00000000000E+00 -0.19472375758E+04  0.19472375758E+04  0.25500000920E-02 0.  1.
    10030    2    1    2    0    0  0.00000000000E+00  0.00000000000E+00 -0.82104488255E+03  0.30734302691E+04  0.29617324187E+04 0.  0.
        2    1    3    3  502    0  0.48770546769E+03 -0.16698284892E+01  0.10404615592E+04  0.11490951517E+04  0.25500000920E-02 0. -1.
       -2    1    3    3    0  502 -0.48770546769E+03  0.16698284892E+01 -0.18615064417E+04  0.19243351174E+04  0.25500000920E-02 0.  1.
</event>
<event>
 5   0  0.1345931E-05  0.3032412E+04  0.7818609E-02  0.8234535E-01
       -2   -1    0    0    0  501  0.00000000000E+00  0.00000000000E+00  0.11410753057E+04  0.11410753057E+04  0.25500000920E-02 0. -1.
        2   -1    0    0  501    0  0.00000000000E+00  0.00000000000E+00 -0.20146620138E+04  0.20146620138E+04  0.25500000920E-02 0.  1.
    10030    2    1    2    0    0  0.00000000000E+00  0.00000000000E+00 -0.87358670811E+03  0.31557373194E+04  0.30324122893E+04 0.  0.
        2    1    3    3  502    0  0.37691554447E+03  0.27380686823E+03  0.10647464538E+04  0.11622050334E+04  0.25500000920E-02 0. -1.
       -2    1    3    3    0  502 -0.37691554447E+03 -0.27380686823E+03 -0.19383331619E+04  0.19935322860E+04  0.25500000920E-02 0.  1.
</event>
<event>
 5   0  0.5730920E-06  0.2049898E+04  0.7818609E-02  0.8583641E-01
        1   -1    0    0  501    0  0.00000000000E+00  0.00000000000E+00  0.81196762155E+03  0.81196762157E+03  0.50400001928E-02 0. -1.
       -1   -1    0    0    0  501  0.00000000000E+00  0.00000000000E+00 -0.12937953856E+04  0.12937953856E+04  0.50400001928E-02 0.  1.
    10030    2    1    2    0    0  0.00000000000E+00  0.00000000000E+00 -0.48182776401E+03  0.21057630071E+04  0.20498975214E+04 0.  0.
        1    1    3    3  502    0  0.18644415629E+03  0.46921242206E+03  0.67535776697E+03  0.84322584985E+03  0.50400001928E-02 0. -1.
       -1    1    3    3    0  502 -0.18644415629E+03 -0.46921242206E+03 -0.11571855310E+04  0.12625371573E+04  0.50400001928E-02 0.  1.
</event>
<event>
 5   0  0.1423692E-05  0.2983651E+04  0.7818609E-02  0.8248415E-01
        2   -1    0    0  501    0  0.00000000000E+00  0.00000000000E+00  0.21134773757E+04  0.21134773757E+04  0.25500000920E-02 0. -1.
       -2   -1    0    0    0  501  0.00000000000E+00  0.00000000000E+00 -0.10530245134E+04  0.10530245134E+04  0.25500000920E-02 0.  1.
    10030    2    1    2    0    0  0.00000000000E+00  0.00000000000E+00  0.10604528623E+04  0.31665018891E+04  0.29836511090E+04 0.  0.
        3    1    3    3  502    0  0.63842653219E+03  0.63692314022E+03  0.17914518808E+04  0.20056319141E+04  0.10100000352E+00 0. -1.
       -3    1    3    3    0  502 -0.63842653219E+03 -0.63692314022E+03 -0.73099901848E+03  0.11608699750E+04  0.10100000352E+00 0.  1.
</event>
<event>
 5   0  0.1345931E-05  0.3017127E+04  0.7818609E-02  0.8238857E-01
        2   -1    0    0  501    0  0.00000000000E+00  0.00000000000E+00  0.81929675102E+03  0.81929675102E+03  0.25500000920E-02 0.  1.
       -2   -1    0    0    0  501  0.00000000000E+00  0.00000000000E+00 -0.27777031247E+04  0.27777031247E+04  0.25500000920E-02 0. -1.
    10030    2    1    2    0    0  0.00000000000E+00  0.00000000000E+00 -0.19584063737E+04  0.35969998757E+04  0.30171265438E+04 0.  0.
        2    1    3    3  502    0 -0.13199387576E+04 -0.63896227642E+03 -0.55727427511E+03  0.15687784203E+04  0.25500000920E-02 0.  1.
       -2    1    3    3    0  502  0.13199387576E+04  0.63896227642E+03 -0.14011320986E+04  0.20282214554E+04  0.25500000920E-02 0. -1.
</event>
<event>
 5   0  0.5522695E-06  0.2995724E+04  0.7818609E-02  0.8244953E-01
        1   -1    0    0  501    0  0.00000000000E+00  0.00000000000E+00  0.20110610827E+04  0.20110610827E+04  0.50400001928E-02 0.  1.
       -1   -1    0    0    0  501  0.00000000000E+00  0.00000000000E+00 -0.11156254207E+04  0.11156254207E+04  0.50400001928E-02 0. -1.
    10030    2    1    2    0    0  0.00000000000E+00  0.00000000000E+00  0.89543566199E+03  0.31266865034E+04  0.29957241972E+04 0.  0.
        3    1    3    3  502    0  0.20343811292E+03  0.72926736326E+03  0.17966472606E+04  0.19496562113E+04  0.10100000352E+00 0.  1.
       -3    1    3    3    0  502 -0.20343811292E+03 -0.72926736326E+03 -0.90121159863E+03  0.11770302921E+04  0.10100000352E+00 0. -1.
</event>
<event>
 5   0  0.5522695E-06  0.1732556E+04  0.7818609E-02  0.8743012E-01
        1   -1    0    0  501    0  0.00000000000E+00  0.00000000000E+00  0.85367970747E+03  0.85367970749E+03  0.50400001928E-02 0. -1.
       -1   -1    0    0    0  501  0.00000000000E+00  0.00000000000E+00 -0.87906176583E+03  0.87906176584E+03  0.50400001928E-02 0.  1.
    10030    2    1    2    0    0  0.00000000000E+00  0.00000000000E+00 -0.25382058354E+02  0.17327414733E+04  0.17325555588E+04 0.  0.
        3    1    3    3  502    0  0.81262483970E+03 -0.29971854862E+03 -0.28403935230E+02  0.86660090712E+03  0.10100000352E+00 0.  1.
       -3    1    3    3    0  502 -0.81262483970E+03  0.29971854862E+03  0.30218768761E+01  0.86614056621E+03  0.10100000352E+00 0. -1.
</event>
<event>
 5   0  0.5329891E-06  0.2854320E+04  0.7818609E-02  0.8286600E-01
       -1   -1    0    0    0  501  0.00000000000E+00  0.00000000000E+00  0.19245395276E+04  0.19245395276E+04  0.50400001928E-02 0. -1.
        1   -1    0    0  501    0  0.00000000000E+00  0.00000000000E+00 -0.10583239947E+04  0.10583239947E+04  0.50400001928E-02 0.  1.
    10030    2    1    2    0    0  0.00000000000E+00  0.00000000000E+00  0.86621553283E+03  0.29828635223E+04  0.28543204872E+04 0.  0.
        4    1    3    3  502    0  0.44965235219E+03  0.13579683725E+03 -0.97523157243E+03  0.10824538104E+04  0.12699999809E+01 0.  1.
       -4    1    3    3    0  502 -0.44965235219E+03 -0.13579683725E+03  0.18414471053E+04  0.19004097119E+04  0.12699999809E+01 0. -1.
</event>
<event>
 5   0  0.1423692E-05  0.3069222E+04  0.7818609E-02  0.8224236E-01
        2   -1    0    0  501    0  0.00000000000E+00  0.00000000000E+00  0.19632718183E+04  0.19632718183E+04  0.25500000920E-02 0.  1.
       -2   -1    0    0    0  501  0.00000000000E+00  0.00000000000E+00 -0.11995436867E+04  0.11995436867E+04  0.25500000920E-02 0. -1.
    10030    2    1    2    0    0  0.00000000000E+00  0.00000000000E+00  0.76372813157E+03  0.31628155050E+04  0.30692216049E+04 0.  0.
        3    1    3    3  502    0  0.20209104508E+03  0.12995519467E+04 -0.43304409336E+03  0.13846310879E+04  0.10100000352E+00 0. -1.
       -3    1    3    3    0  502 -0.20209104508E+03 -0.12995519467E+04  0.11967722249E+04  0.17781844171E+04  0.10100000352E+00 0.  1.
</event>
<event>
 5   0  0.1345931E-05  0.2884447E+04  0.7818609E-02  0.8277520E-01
        2   -1    0    0  501    0  0.00000000000E+00  0.00000000000E+00  0.19093736453E+04  0.19093736453E+04  0.25500000920E-02 0.  1.
       -2   -1    0    0    0  501  0.00000000000E+00  0.00000000000E+00 -0.10893667637E+04  0.10893667637E+04  0.25500000920E-02 0. -1.
    10030    2    1    2    0    0  0.00000000000E+00  0.00000000000E+00  0.82000688158E+03  0.29987404090E+04  0.28844466982E+04 0.  0.
        2    1    3    3  502    0  0.55759068961E+03  0.86013582733E+03 -0.64472441053E+03  0.12109544104E+04  0.25500000920E-02 0. -1.
       -2    1    3    3    0  502 -0.55759068961E+03 -0.86013582733E+03  0.14647312921E+04  0.17877859986E+04  0.25500000920E-02 0.  1.
</event>
<event>
 5   0  0.1388724E-05  0.1583476E+04  0.7818609E-02  0.8830764E-01
        2   -1    0    0  501    0  0.00000000000E+00  0.00000000000E+00  0.10820239860E+04  0.10820239860E+04  0.25500000920E-02 0.  1.
       -2   -1    0    0    0  501  0.00000000000E+00  0.00000000000E+00 -0.57933007319E+03  0.57933007319E+03  0.25500000920E-02 0. -1.
    10030    2    1    2    0    0  0.00000000000E+00  0.00000000000E+00  0.50269391285E+03  0.16613540592E+04  0.15834759676E+04 0.  0.
        4    1    3    3  502    0  0.39929032419E+03 -0.66638858711E+03  0.41163813179E+03  0.87917806869E+03  0.12699999809E+01 0.  1.
       -4    1    3    3    0  502 -0.39929032419E+03  0.66638858711E+03  0.91055781056E+02  0.78217599054E+03  0.12699999809E+01 0. -1.
</event>
<event>
 5   0  0.5392262E-06  0.2315803E+04  0.7818609E-02  0.8471716E-01
       -1   -1    0    0    0  501  0.00000000000E+00  0.00000000000E+00  0.92473807956E+03  0.92473807957E+03  0.50400001928E-02 0. -1.
        1   -1    0    0  501    0  0.00000000000E+00  0.00000000000E+00 -0.14498545168E+04  0.14498545168E+04  0.50400001928E-02 0.  1.
    10030    2    1    2    0    0  0.00000000000E+00  0.00000000000E+00 -0.52511643723E+03  0.23745925964E+04  0.23158028254E+04 0.  0.
        2    1    3    3  502    0 -0.71351391848E+03 -0.52807002856E+02 -0.11960794255E+04  0.13937347967E+04  0.25500000920E-02 0.  1.
       -2    1    3    3    0  502  0.71351391848E+03  0.52807002856E+02  0.67096298831E+03  0.98085779963E+03  0.25500000920E-02 0. -1.
</event>
<event>
 5   0  0.1480547E-05  0.3026763E+04  0.7818609E-02  0.8236129E-01
        2   -1    0    0  501    0  0.00000000000E+00  0.00000000000E+00  0.10309593961E+04  0.10309593961E+04  0.25500000920E-02 0.  1.
       -2   -1    0    0    0  501  0.00000000000E+00  0.00000000000E+00 -0.22215464670E+04  0.22215464670E+04  0.25500000920E-02 0. -1.
    10030    2    1    2    0    0  0.00000000000E+00  0.00000000000E+00 -0.11905870708E+04  0.32525058631E+04  0.30267634226E+04 0.  0.
        1    1    3    3  502    0 -0.11326445148E+04 -0.14599045566E+03  0.47180892871E+03  0.12356376797E+04  0.50400001928E-02 0.  1.
       -1    1    3    3    0  502  0.11326445148E+04  0.14599045566E+03 -0.16623959996E+04  0.20168681835E+04  0.50400001928E-02 0. -1.
</event>
<event>
 5   0  0.1345931E-05  0.3017537E+04  0.7818609E-02  0.8238741E-01
        2   -1    0    0  501    0  0.00000000000E+00  0.00000000000E+00  0.27625420519E+04  0.27625420519E+04  0.25500000920E-02 0.  1.
       -2   -1    0    0    0  501  0.00000000000E+00  0.00000000000E+00 -0.82401729001E+03  0.82401729001E+03  0.25500000920E-02 0. -1.
    10030    2    1    2    0    0  0.00000000000E+00  0.00000000000E+00  0.19385247619E+04  0.35865593419E+04  0.30175370189E+04 0.  0.
        2    1    3    3  502    0 -0.71223462544E+03 -0.63551985336E+03  0.23580202713E+04  0.25438992208E+04  0.25500000920E-02 0.  1.
       -2    1    3    3    0  502  0.71223462544E+03  0.63551985336E+03 -0.41949550943E+03  0.10426601211E+04  0.25500000920E-02 0. -1.
</event>
<event>
 5   0  0.5730920E-06  0.2997668E+04  0.7818609E-02  0.8244397E-01
        1   -1    0    0  501    0  0.00000000000E+00  0.00000000000E+00  0.30615915489E+04  0.30615915489E+04  0.50400001928E-02 0.  1.
       -1   -1    0    0    0  501  0.00000000000E+00  0.00000000000E+00 -0.73376960775E+03  0.73376960776E+03  0.50400001928E-02 0. -1.
    10030    2    1    2    0    0  0.00000000000E+00  0.00000000000E+00  0.23278219412E+04  0.37953611567E+04  0.29976676467E+04 0.  0.
        1    1    3    3  502    0 -0.12481519858E+04  0.77507739287E+03  0.78859156041E+03  0.16674846307E+04  0.50400001928E-02 0. -1.
       -1    1    3    3    0  502  0.12481519858E+04 -0.77507739287E+03  0.15392303808E+04  0.21278765260E+04  0.50400001928E-02 0.  1.
</event>
<event>
 5   0  0.5522695E-06  0.3019476E+04  0.7818609E-02  0.8238191E-01
       -1   -1    0    0    0  501  0.00000000000E+00  0.00000000000E+00  0.12750928181E+04  0.12750928181E+04  0.50400001928E-02 0.  1.
        1   -1    0    0  501    0  0.00000000000E+00  0.00000000000E+00 -0.17875634567E+04  0.17875634567E+04  0.50400001928E-02 0. -1.
    10030    2    1    2    0    0  0.00000000000E+00  0.00000000000E+00 -0.51247063861E+03  0.30626562748E+04  0.30194763291E+04 0.  0.
        3    1    3    3  502    0 -0.51041767454E+03 -0.69257954529E+03  0.10021174295E+04  0.13207694658E+04  0.10100000352E+00 0.  1.
       -3    1    3    3    0  502  0.51041767454E+03  0.69257954529E+03 -0.15145880681E+04  0.17418868090E+04  0.10100000352E+00 0. -1.
</event>
<event>
 5   0  0.5329891E-06  0.3083215E+04  0.7818609E-02  0.8220360E-01
        1   -1    0    0  501    0  0.00000000000E+00  0.00000000000E+00  0.23957139486E+04  0.23957139487E+04  0.50400001928E-02 0.  1.
       -1   -1    0    0    0  501  0.00000000000E+00  0.00000000000E+00 -0.99200233403E+03  0.99200233404E+03  0.50400001928E-02 0. -1.
    10030    2    1    2    0    0  0.00000000000E+00  0.00000000000E+00  0.14037116146E+04  0.33877162827E+04  0.30832150939E+04 0.  0.
        4    1    3    3  502    0 -0.81127576024E+03 -0.52043169076E+02  0.21410545331E+04  0.22901949649E+04  0.12699999809E+01 0.  1.
       -4    1    3    3    0  502  0.81127576024E+03  0.52043169076E+02 -0.73734291851E+03  0.10975213178E+04  0.12699999809E+01 0. -1.
</event>
<event>
 5   0  0.5730920E-06  0.2699337E+04  0.7818609E-02  0.8335220E-01
        1   -1    0    0  501    0  0.00000000000E+00  0.00000000000E+00  0.22123342129E+04  0.22123342129E+04  0.50400001928E-02 0.  1.
       -1   -1    0    0    0  501  0.00000000000E+00  0.00000000000E+00 -0.82338575093E+03  0.82338575095E+03  0.50400001928E-02 0. -1.
    10030    2    1    2    0    0  0.00000000000E+00  0.00000000000E+00  0.13889484619E+04  0.30357199638E+04  0.26993365609E+04 0.  0.
        1    1    3    3  502    0  0.73861360736E+03 -0.10000781772E+04  0.10375789427E+03  0.12475865189E+04  0.50400001928E-02 0. -1.
       -1    1    3    3    0  502 -0.73861360736E+03  0.10000781772E+04  0.12851905677E+04  0.17881334449E+04  0.50400001928E-02 0.  1.
</event>
<event>
 5   0  0.1423692E-05  0.2966183E+04  0.7818609E-02  0.8253454E-01
        2   -1    0    0  501    0  0.00000000000E+00  0.00000000000E+00  0.19673074195E+04  0.19673074195E+04  0.25500000920E-02 0. -1.
       -2   -1    0    0    0  501  0.00000000000E+00  0.00000000000E+00 -0.11180565750E+04  0.11180565750E+04  0.25500000920E-02 0.  1.
    10030    2    1    2    0    0  0.00000000000E+00  0.00000000000E+00  0.84925084450E+03  0.30853639944E+04  0.29661834032E+04 0.  0.
        3    1    3    3  502    0  0.88047147261E+03  0.10753834590E+04  0.96299396529E+03  0.16908687073E+04  0.10100000352E+00 0.  1.
       -3    1    3    3    0  502 -0.88047147261E+03 -0.10753834590E+04 -0.11374312079E+03  0.13944952871E+04  0.10100000352E+00 0. -1.
</event>
<event>
 5   0  0.5392262E-06  0.3063020E+04  0.7818609E-02  0.8225961E-01
        1   -1    0    0  501    0  0.00000000000E+00  0.00000000000E+00  0.27643999539E+04  0.27643999539E+04  0.50400001928E-02 0. -1.
       -1   -1    0    0    0  501  0.00000000000E+00  0.00000000000E+00 -0.84847457184E+03  0.84847457186E+03  0.50400001928E-02 0.  1.
    10030    2    1    2    0    0  0.00000000000E+00  0.00000000000E+00  0.19159253820E+04  0.36128745257E+04  0.30630201222E+04 0.  0.
        2    1    3    3  502    0 -0.90101364622E+03  0.34060169067E+03  0.23623708870E+04  0.25512019344E+04  0.25500000920E-02 0. -1.
       -2    1    3    3    0  502  0.90101364622E+03 -0.34060169067E+03 -0.44644550494E+03  0.10616725914E+04  0.25500000920E-02 0.  1.
</event>
<event>
 5   0  0.1480547E-05  0.3133789E+04  0.7818609E-02  0.8206526E-01
        2   -1    0    0  501    0  0.00000000000E+00  0.00000000000E+00  0.13567397681E+04  0.13567397681E+04  0.25500000920E-02 0. -1.
       -2   -1    0    0    0  501  0.00000000000E+00  0.00000000000E+00 -0.18096009837E+04  0.18096009837E+04  0.25500000920E-02 0.  1.
    10030    2    1    2    0    0  0.00000000000E+00  0.00000000000E+00 -0.45286121559E+03  0.31663407517E+04  0.31337885180E+04 0.  0.
        1    1    3    3  502    0 -0.13956116690E+04  0.36229896403E+02  0.49237548112E+03  0.14803641953E+04  0.50400001928E-02 0. -1.
       -1    1    3    3    0  502  0.13956116690E+04 -0.36229896403E+02 -0.94523669671E+03  0.16859765565E+04  0.50400001928E-02 0.  1.
</event>
<event>
 5   0  0.5392262E-06  0.2957197E+04  0.7818609E-02  0.8256060E-01
        1   -1    0    0  501    0  0.00000000000E+00  0.00000000000E+00  0.17585619280E+04  0.17585619280E+04  0.50400001928E-02 0. -1.
       -1   -1    0    0    0  501  0.00000000000E+00  0.00000000000E+00 -0.12432052628E+04  0.12432052628E+04  0.50400001928E-02 0.  1.
    10030    2    1    2    0    0  0.00000000000E+00  0.00000000000E+00  0.51535666527E+03  0.30017671908E+04  0.29571969457E+04 0.  0.
        2    1    3    3  502    0  0.14044546062E+04  0.45975832812E+03  0.30722987830E+03  0.15093908239E+04  0.25500000920E-02 0. -1.
       -2    1    3    3    0  502 -0.14044546062E+04 -0.45975832812E+03  0.20812678697E+03  0.14923763669E+04  0.25500000920E-02 0.  1.
</event>
<event>
 5   0  0.5522695E-06  0.3155757E+04  0.7818609E-02  0.8200600E-01
        1   -1    0    0  501    0  0.00000000000E+00  0.00000000000E+00  0.18909931923E+04  0.18909931924E+04  0.50400001928E-02 0. -1.
       -1   -1    0    0    0  501  0.00000000000E+00  0.00000000000E+00 -0.13166096719E+04  0.13166096719E+04  0.50400001928E-02 0.  1.
    10030    2    1    2    0    0  0.00000000000E+00  0.00000000000E+00  0.57438352049E+03  0.32076028642E+04  0.31557565980E+04 0.  0.
        3    1    3    3  502    0  0.15480837985E+04 -0.62058672995E+02 -0.16523635546E+02  0.15494152984E+04  0.10100000352E+00 0.  1.
       -3    1    3    3    0  502 -0.15480837985E+04  0.62058672995E+02  0.59090715604E+03  0.16581875658E+04  0.10100000352E+00 0. -1.
</event>
<event>
 5   0  0.1388724E-05  0.1992706E+04  0.7818609E-02  0.8610039E-01
       -2   -1    0    0    0  501  0.00000000000E+00  0.00000000000E+00  0.71575819026E+03  0.71575819027E+03  0.25500000920E-02 0.  1.
        2   -1    0    0  501    0  0.00000000000E+00  0.00000000000E+00 -0.13869475141E+04  0.13869475141E+04  0.25500000920E-02 0. -1.
    10030    2    1    2    0    0  0.00000000000E+00  0.00000000000E+00 -0.67118932387E+03  0.21027057044E+04  0.19927057412E+04 0.  0.
        4    1    3    3  502    0 -0.31980232361E+03  0.99986938090E+02 -0.13257123303E+04  0.13674010785E+04  0.12699999809E+01 0. -1.
       -4    1    3    3    0  502  0.31980232361E+03 -0.99986938090E+02  0.65452300643E+03  0.73530462586E+03  0.12699999809E+01 0.  1.
</event>
<event>
 5   0  0.5329891E-06  0.1792998E+04  0.7818609E-02  0.8710032E-01
        1   -1    0    0  501    0  0.00000000000E+00  0.00000000000E+00  0.91444534522E+03  0.91444534524E+03  0.50400001928E-02 0.  1.
       -1   -1    0    0    0  501  0.00000000000E+00  0.00000000000E+00 -0.87890488700E+03  0.87890488702E+03  0.50400001928E-02 0. -1.
    10030    2    1    2    0    0  0.00000000000E+00  0.00000000000E+00  0.35540458220E+02  0.17933502323E+04  0.17929980288E+04 0.  0.
        4    1    3    3  502    0 -0.36734734447E+03 -0.19795675951E+03  0.81138555374E+03  0.91240291529E+03  0.12699999809E+01 0.  1.
       -4    1    3    3    0  502  0.36734734447E+03  0.19795675951E+03 -0.77584509552E+03  0.88094731696E+03  0.12699999809E+01 0. -1.
</event>
<event>
 5   0  0.1345931E-05  0.2387009E+04  0.7818609E-02  0.8444383E-01
        2   -1    0    0  501    0  0.00000000000E+00  0.00000000000E+00  0.11819807809E+04  0.11819807809E+04  0.25500000920E-02 0. -1.
       -2   -1    0    0    0  501  0.00000000000E+00  0.00000000000E+00 -0.12051409807E+04  0.12051409807E+04  0.25500000920E-02 0.  1.
    10030    2    1    2    0    0  0.00000000000E+00  0.00000000000E+00 -0.23160199776E+02  0.23871217615E+04  0.23870094071E+04 0.  0.
        2    1    3    3  502    0 -0.11234483798E+04  0.18155545274E+03  0.34809615798E+03  0.11900712498E+04  0.25500000920E-02 0. -1.
       -2    1    3    3    0  502  0.11234483798E+04 -0.18155545274E+03 -0.37125635775E+03  0.11970505117E+04  0.25500000920E-02 0.  1.
</event>
<event>
 5   0  0.7032692E-06  0.2214277E+04  0.7818609E-02  0.8512509E-01
        1   -1    0    0  501    0  0.00000000000E+00  0.00000000000E+00  0.16010510782E+04  0.16010510782E+04  0.50400001928E-02 0.  1.
       -1   -1    0    0    0  501  0.00000000000E+00  0.00000000000E+00 -0.76559452171E+03  0.76559452172E+03  0.50400001928E-02 0. -1.
    10030    2    1    2    0    0  0.00000000000E+00  0.00000000000E+00  0.83545655652E+03  0.23666456000E+04  0.22142772496E+04 0.  0.
        5    1    3    3  502    0  0.85253712981E+03  0.55298128355E+03 -0.51972833527E+02  0.10175122226E+04  0.46999998093E+01 0. -1.
       -5    1    3    3    0  502 -0.85253712981E+03 -0.55298128355E+03  0.88742939004E+03  0.13491333774E+04  0.46999998093E+01 0.  1.
</event>
<event>
 5   0  0.1423692E-05  0.2882143E+04  0.7818609E-02  0.8278210E-01
        2   -1    0    0  501    0  0.00000000000E+00  0.00000000000E+00  0.13269900325E+04  0.13269900325E+04  0.25500000920E-02 0.  1.
       -2   -1    0    0    0  501  0.00000000000E+00  0.00000000000E+00 -0.15649608674E+04  0.15649608674E+04  0.25500000920E-02 0. -1.
    10030    2    1    2    0    0  0.00000000000E+00  0.00000000000E+00 -0.23797083491E+03  0.28919508999E+04  0.28821432805E+04 0.  0.
        3    1    3    3  502    0  0.69581521585E+03 -0.60281449784E+02 -0.13837885107E+04  0.15500526831E+04  0.10100000352E+00 0. -1.
       -3    1    3    3    0  502 -0.69581521585E+03  0.60281449784E+02  0.11458176758E+04  0.13418982168E+04  0.10100000352E+00 0.  1.
</event>
<event>
 5   0  0.5392262E-06  0.2585040E+04  0.7818609E-02  0.8373300E-01
       -1   -1    0    0    0  501  0.00000000000E+00  0.00000000000E+00  0.12260831706E+04  0.12260831706E+04  0.50400001928E-02 0. -1.
        1   -1    0    0  501    0  0.00000000000E+00  0.00000000000E+00 -0.13625571880E+04  0.13625571880E+04  0.50400001928E-02 0.  1.
    10030    2    1    2    0    0  0.00000000000E+00  0.00000000000E+00 -0.13647401740E+03  0.25886403587E+04  0.25850403767E+04 0.  0.
        2    1    3    3  502    0 -0.85222627910E+03  0.15506121725E+03  0.89240850270E+03  0.12436746148E+04  0.25500000920E-02 0. -1.
       -2    1    3    3    0  502  0.85222627910E+03 -0.15506121725E+03 -0.10288825201E+04  0.13449657438E+04  0.25500000920E-02 0.  1.
</event>
<event>
 5   0  0.1345931E-05  0.2958085E+04  0.7818609E-02  0.8255802E-01
        2   -1    0    0  501    0  0.00000000000E+00  0.00000000000E+00  0.25996779017E+04  0.25996779017E+04  0.25500000920E-02 0. -1.
       -2   -1    0    0    0  501  0.00000000000E+00  0.00000000000E+00 -0.84147599659E+03  0.84147599660E+03  0.25500000920E-02 0.  1.
    10030    2    1    2    0    0  0.00000000000E+00  0.00000000000E+00  0.17582019051E+04  0.34411538983E+04  0.29580848894E+04 0.  0.
        2    1    3    3  502    0  0.12293371397E+04  0.27528529917E+03  0.17805793087E+04  0.21811727289E+04  0.25500000920E-02 0. -1.
       -2    1    3    3    0  502 -0.12293371397E+04 -0.27528529917E+03 -0.22377403545E+02  0.12599811694E+04  0.25500000920E-02 0.  1.
</event>
<event>
 5   0  0.1480547E-05  0.2789856E+04  0.7818609E-02  0.8306425E-01
       -2   -1    0    0    0  501  0.00000000000E+00  0.00000000000E+00  0.14089158852E+04  0.14089158852E+04  0.25500000920E-02 0. -1.
        2   -1    0    0  501    0  0.00000000000E+00  0.00000000000E+00 -0.13810788578E+04  0.13810788578E+04  0.25500000920E-02 0.  1.
    10030    2    1    2    0    0  0.00000000000E+00  0.00000000000E+00  0.27837027388E+02  0.27899947430E+04  0.27898558683E+04 0.  0.
        1    1    3    3  502    0 -0.68444383851E+03  0.84785577240E+03 -0.85704456155E+03  0.13863073827E+04  0.50400001928E-02 0.  1.
       -1    1    3    3    0  502  0.68444383851E+03 -0.84785577240E+03  0.88488158894E+03  0.14036873603E+04  0.50400001928E-02 0. -1.
</event>
<event>
 5   0  0.5522695E-06  0.2920620E+04  0.7818609E-02  0.8266769E-01
       -1   -1    0    0    0  501  0.00000000000E+00  0.00000000000E+00  0.23444595373E+04  0.23444595373E+04  0.50400001928E-02 0. -1.
        1   -1    0    0  501    0  0.00000000000E+00  0.00000000000E+00 -0.90959371882E+03  0.90959371883E+03  0.50400001928E-02 0.  1.
    10030    2    1    2    0    0  0.00000000000E+00  0.00000000000E+00  0.14348658185E+04  0.32540532562E+04  0.29206202555E+04 0.  0.
        3    1    3    3  502    0 -0.58264969383E+03  0.59127150626E+03 -0.62115338507E+03  0.10367806894E+04  0.10100000352E+00 0.  1.
       -3    1    3    3    0  502  0.58264969383E+03 -0.59127150626E+03  0.20560192036E+04  0.22172725668E+04  0.10100000352E+00 0. -1.
</event>
<event>
 5   0  0.5329891E-06  0.2434673E+04  0.7818609E-02  0.8426635E-01
        1   -1    0    0  501    0  0.00000000000E+00  0.00000000000E+00  0.22080831501E+04  0.22080831502E+04  0.50400001928E-02 0.  1.
       -1   -1    0    0    0  501  0.00000000000E+00  0.00000000000E+00 -0.67112896677E+03  0.67112896678E+03  0.50400001928E-02 0. -1.
    10030    2    1    2    0    0  0.00000000000E+00  0.00000000000E+00  0.15369541834E+04  0.28792121169E+04  0.24346733359E+04 0.  0.
        4    1    3    3  502    0  0.30808258013E+03  0.96524366717E+03 -0.29481271510E+02  0.10136473605E+04  0.12699999809E+01 0.  1.
       -4    1    3    3    0  502 -0.30808258013E+03 -0.96524366717E+03  0.15664354549E+04  0.18655647564E+04  0.12699999809E+01 0. -1.
</event>
<event>
 5   0  0.1345931E-05  0.2886515E+04  0.7818609E-02  0.8276901E-01
       -2   -1    0    0    0  501  0.00000000000E+00  0.00000000000E+00  0.12032423661E+04  0.12032423661E+04  0.25500000920E-02 0.  1.
        2   -1    0    0  501    0  0.00000000000E+00  0.00000000000E+00 -0.17311492461E+04  0.17311492461E+04  0.25500000920E-02 0. -1.
    10030    2    1    2    0    0  0.00000000000E+00  0.00000000000E+00 -0.52790688004E+03  0.29343916122E+04  0.28865149332E+04 0.  0.
        2    1    3    3  502    0  0.10582905208E+04  0.61467224877E+02  0.73169676581E+03  0.12880749991E+04  0.25500000920E-02 0.  1.
       -2    1    3    3    0  502 -0.10582905208E+04 -0.61467224877E+02 -0.12596036458E+04  0.16463166131E+04  0.25500000920E-02 0. -1.
</event>
<event>
 5   0  0.1388724E-05  0.2991513E+04  0.7818609E-02  0.8246158E-01
        2   -1    0    0  501    0  0.00000000000E+00  0.00000000000E+00  0.19793052516E+04  0.19793052516E+04  0.25500000920E-02 0. -1.
       -2   -1    0    0    0  501  0.00000000000E+00  0.00000000000E+00 -0.11303400722E+04  0.11303400722E+04  0.25500000920E-02 0.  1.
    10030    2    1    2    0    0  0.00000000000E+00  0.00000000000E+00  0.84896517946E+03  0.31096453238E+04  0.29915133568E+04 0.  0.
        4    1    3    3  502    0 -0.67337437909E+03  0.12806963371E+04  0.81848906458E+03  0.16623904848E+04  0.12699999809E+01 0. -1.
       -4    1    3    3    0  502  0.67337437909E+03 -0.12806963371E+04  0.30476114874E+02  0.14472548389E+04  0.12699999809E+01 0.  1.
</event>
<event>
 5   0  0.1423692E-05  0.1675468E+04  0.7818609E-02  0.8775481E-01
        2   -1    0    0  501    0  0.00000000000E+00  0.00000000000E+00  0.83884501438E+03  0.83884501438E+03  0.25500000920E-02 0. -1.
       -2   -1    0    0    0  501  0.00000000000E+00  0.00000000000E+00 -0.83662478018E+03  0.83662478018E+03  0.25500000920E-02 0.  1.
    10030    2    1    2    0    0  0.00000000000E+00  0.00000000000E+00  0.22202341986E+01  0.16754697946E+04  0.16754683235E+04 0.  0.
        3    1    3    3  502    0  0.37685165900E+03 -0.46705916590E+03  0.58560791704E+03  0.83850943945E+03  0.10100000352E+00 0. -1.
       -3    1    3    3    0  502 -0.37685165900E+03  0.46705916590E+03 -0.58338768284E+03  0.83696035511E+03  0.10100000352E+00 0.  1.
</event>
<event>
 5   0  0.1523029E-05  0.3364536E+04  0.7818609E-02  0.8146666E-01
       -2   -1    0    0    0  501  0.00000000000E+00  0.00000000000E+00  0.13207500100E+04  0.13207500100E+04  0.25500000920E-02 0. -1.
        2   -1    0    0  501    0  0.00000000000E+00  0.00000000000E+00 -0.21427411293E+04  0.21427411293E+04  0.25500000920E-02 0.  1.
    10030    2    1    2    0    0  0.00000000000E+00  0.00000000000E+00 -0.82199111933E+03  0.34634911394E+04  0.33645358479E+04 0.  0.
        5    1    3    3  502    0  0.19884223707E+03 -0.11732489467E+03  0.13043569973E+04  0.13246405673E+04  0.46999998093E+01 0. -1.
       -5    1    3    3    0  502 -0.19884223707E+03  0.11732489467E+03 -0.21263481167E+04  0.21388505720E+04  0.46999998093E+01 0.  1.
</event>
<event>
 5   0  0.5329891E-06  0.3015067E+04  0.7818609E-02  0.8239441E-01
       -1   -1    0    0    0  501  0.00000000000E+00  0.00000000000E+00  0.11754985326E+04  0.11754985326E+04  0.50400001928E-02 0.  1.
        1   -1    0    0  501    0  0.00000000000E+00  0.00000000000E+00 -0.19333565990E+04  0.19333565990E+04  0.50400001928E-02 0. -1.
    10030    2    1    2    0    0  0.00000000000E+00  0.00000000000E+00 -0.75785806641E+03  0.31088551316E+04  0.30150673923E+04 0.  0.
        4    1    3    3  502    0  0.27498723124E+03 -0.12565621276E+04 -0.11895713588E+04  0.17520410921E+04  0.12699999809E+01 0. -1.
       -4    1    3    3    0  502 -0.27498723124E+03  0.12565621276E+04  0.43171329236E+03  0.13568140395E+04  0.12699999809E+01 0.  1.
</event>
<event>
 5   0  0.7032692E-06  0.3002274E+04  0.7818609E-02  0.8243082E-01
       -1   -1    0    0    0  501  0.00000000000E+00  0.00000000000E+00  0.12516021866E+04  0.12516021866E+04  0.50400001928E-02 0. -1.
        1   -1    0    0  501    0  0.00000000000E+00  0.00000000000E+00 -0.18004223596E+04  0.18004223597E+04  0.50400001928E-02 0.  1.
    10030    2    1    2    0    0  0.00000000000E+00  0.00000000000E+00 -0.54882017303E+03  0.30520245463E+04  0.30022741795E+04 0.  0.
        5    1    3    3  502    0  0.32238417072E+03  0.41146780889E+03  0.11560872801E+04  0.12687778373E+04  0.46999998093E+01 0. -1.
       -5    1    3    3    0  502 -0.32238417072E+03 -0.41146780889E+03 -0.17049074531E+04  0.17832467090E+04  0.46999998093E+01 0.  1.
</event>
<event>
 5   0  0.5730920E-06  0.3019877E+04  0.7818609E-02  0.8238078E-01
        1   -1    0    0  501    0  0.00000000000E+00  0.00000000000E+00  0.15794901895E+04  0.15794901896E+04  0.50400001928E-02 0. -1.
       -1   -1    0    0    0  501  0.00000000000E+00  0.00000000000E+00 -0.14434493716E+04  0.14434493716E+04  0.50400001928E-02 0.  1.
    10030    2    1    2    0    0  0.00000000000E+00  0.00000000000E+00  0.13604081797E+03  0.30229395611E+04  0.30198768992E+04 0.  0.
        1    1    3    3  502    0  0.11783938625E+03  0.14298157850E+04 -0.40325938040E+03  0.14902608590E+04  0.50400001928E-02 0.  1.
       -1    1    3    3    0  502 -0.11783938625E+03 -0.14298157850E+04  0.53930019838E+03  0.15326787021E+04  0.50400001928E-02 0. -1.
</event>
<event>
 5   0  0.1345931E-05  0.1769771E+04  0.7818609E-02  0.8722542E-01
        2   -1    0    0  501    0  0.00000000000E+00  0.00000000000E+00  0.11832353028E+04  0.11832353028E+04  0.25500000920E-02 0.  1.
       -2   -1    0    0    0  501  0.00000000000E+00  0.00000000000E+00 -0.66176399186E+03  0.66176399187E+03  0.25500000920E-02 0. -1.
    10030    2    1    2    0    0  0.00000000000E+00  0.00000000000E+00  0.52147131094E+03  0.18449992947E+04  0.17697711912E+04 0.  0.
        2    1    3    3  502    0  0.69813450936E+03 -0.14096348632E+03 -0.28671468965E+03  0.76776807103E+03  0.25500000920E-02 0. -1.
       -2    1    3    3    0  502 -0.69813450936E+03  0.14096348632E+03  0.80818600059E+03  0.10772312236E+04  0.25500000920E-02 0.  1.
</event>
<event>
 5   0  0.1388724E-05  0.3021379E+04  0.7818609E-02  0.8237652E-01
        2   -1    0    0  501    0  0.00000000000E+00  0.00000000000E+00  0.19571465347E+04  0.19571465347E+04  0.25500000920E-02 0. -1.
       -2   -1    0    0    0  501  0.00000000000E+00  0.00000000000E+00 -0.11660762203E+04  0.11660762203E+04  0.25500000920E-02 0.  1.
    10030    2    1    2    0    0  0.00000000000E+00  0.00000000000E+00  0.79107031437E+03  0.31232227551E+04  0.30213785158E+04 0.  0.
        4    1    3    3  502    0 -0.10090821104E+04  0.34116454217E+03  0.15028773011E+04  0.18420862481E+04  0.12699999809E+01 0. -1.
       -4    1    3    3    0  502  0.10090821104E+04 -0.34116454217E+03 -0.71180698668E+03  0.12811365070E+04  0.12699999809E+01 0.  1.
</event>
<event>
 5   0  0.4806125E-06  0.2088034E+04  0.7818609E-02  0.8566533E-01
       -3   -1    0    0    0  501  0.00000000000E+00  0.00000000000E+00  0.84675098763E+03  0.84675099366E+03  0.10100000352E+00 0. -1.
        3   -1    0    0  501    0  0.00000000000E+00  0.00000000000E+00 -0.12872397459E+04  0.12872397498E+04  0.10100000352E+00 0.  1.
    10030    2    1    2    0    0  0.00000000000E+00  0.00000000000E+00 -0.44048875822E+03  0.21339907435E+04  0.20880340388E+04 0.  0.
        5    1    3    3  502    0 -0.39300254410E+03 -0.87902512674E+03  0.19213777364E+03  0.98187330505E+03  0.46999998093E+01 0. -1.
       -5    1    3    3    0  502  0.39300254410E+03  0.87902512674E+03 -0.63262653186E+03  0.11521174384E+04  0.46999998093E+01 0.  1.
</event>
<event>
 5   0  0.1345931E-05  0.2947870E+04  0.7818609E-02  0.8258776E-01
        2   -1    0    0  501    0  0.00000000000E+00  0.00000000000E+00  0.18289722702E+04  0.18289722702E+04  0.25500000920E-02 0. -1.
       -2   -1    0    0    0  501  0.00000000000E+00  0.00000000000E+00 -0.11878169399E+04  0.11878169399E+04  0.25500000920E-02 0.  1.
    10030    2    1    2    0    0  0.00000000000E+00  0.00000000000E+00  0.64115533029E+03  0.30167892100E+04  0.29478699056E+04 0.  0.
        2    1    3    3  502    0 -0.29724971222E+03 -0.13007258689E+04 -0.32035451387E+03  0.13721779010E+04  0.25500000920E-02 0.  1.
       -2    1    3    3    0  502  0.29724971222E+03  0.13007258689E+04  0.96150984416E+03  0.16446113090E+04  0.25500000920E-02 0. -1.
</event>
<event>
 5   0  0.5392262E-06  0.2809528E+04  0.7818609E-02  0.8300316E-01
       -1   -1    0    0    0  501  0.00000000000E+00  0.00000000000E+00  0.15312663623E+04  0.15312663623E+04  0.50400001928E-02 0.  1.
        1   -1    0    0  501    0  0.00000000000E+00  0.00000000000E+00 -0.12887127269E+04  0.12887127269E+04  0.50400001928E-02 0. -1.
    10030    2    1    2    0    0  0.00000000000E+00  0.00000000000E+00  0.24255363532E+03  0.28199790892E+04  0.28095283941E+04 0.  0.
        2    1    3    3  502    0 -0.10742295813E+04  0.22182310826E+03  0.10021446891E+04  0.14857552498E+04  0.25500000920E-02 0.  1.
       -2    1    3    3    0  502  0.10742295813E+04 -0.22182310826E+03 -0.75959105374E+03  0.13342238394E+04  0.25500000920E-02 0. -1.
</event>
<event>
 5   0  0.5522695E-06  0.2777199E+04  0.7818609E-02  0.8310382E-01
        1   -1    0    0  501    0  0.00000000000E+00  0.00000000000E+00  0.20658795085E+04  0.20658795085E+04  0.50400001928E-02 0. -1.
       -1   -1    0    0    0  501  0.00000000000E+00  0.00000000000E+00 -0.93335982395E+03  0.93335982397E+03  0.50400001928E-02 0.  1.
    10030    2    1    2    0    0  0.00000000000E+00  0.00000000000E+00  0.11325196846E+04  0.29992393325E+04  0.27771992614E+04 0.  0.
        3    1    3    3  502    0  0.95197751823E+02  0.32309635912E+03 -0.88857297537E+03  0.95027144121E+03  0.10100000352E+00 0.  1.
       -3    1    3    3    0  502 -0.95197751823E+02 -0.32309635912E+03  0.20210926599E+04  0.20489678913E+04  0.10100000352E+00 0. -1.
</event>
<event>
 5   0  0.1423692E-05  0.3059232E+04  0.7818609E-02  0.8227016E-01
       -2   -1    0    0    0  501  0.00000000000E+00  0.00000000000E+00  0.13824278570E+04  0.13824278570E+04  0.25500000920E-02 0. -1.
        2   -1    0    0  501    0  0.00000000000E+00  0.00000000000E+00 -0.16924759079E+04  0.16924759079E+04  0.25500000920E-02 0.  1.
    10030    2    1    2    0    0  0.00000000000E+00  0.00000000000E+00 -0.31004805091E+03  0.30749037649E+04  0.30592324805E+04 0.  0.
        3    1    3    3  502    0  0.17535751642E+03 -0.12666953811E+04 -0.99864373584E+03  0.16225155680E+04  0.10100000352E+00 0.  1.
       -3    1    3    3    0  502 -0.17535751642E+03  0.12666953811E+04  0.68859568493E+03  0.14523881969E+04  0.10100000352E+00 0. -1.
</event>
<event>
 5   0  0.1480547E-05  0.1762017E+04  0.7818609E-02  0.8726763E-01
        2   -1    0    0  501    0  0.00000000000E+00  0.00000000000E+00  0.23536787336E+04  0.23536787336E+04  0.25500000920E-02 0.  1.
       -2   -1    0    0    0  501  0.00000000000E+00  0.00000000000E+00 -0.32977130316E+03  0.32977130317E+03  0.25500000920E-02 0. -1.
    10030    2    1    2    0    0  0.00000000000E+00  0.00000000000E+00  0.20239074305E+04  0.26834500368E+04  0.17620166892E+04 0.  0.
        1    1    3    3  502    0  0.11464646075E+03 -0.46200370592E+03 -0.11706390846E+03  0.49019913702E+03  0.50400001928E-02 0. -1.
       -1    1    3    3    0  502 -0.11464646075E+03  0.46200370592E+03  0.21409713389E+04  0.21932508998E+04  0.50400001928E-02 0.  1.
</event>
<event>
 5   0  0.5329891E-06  0.3036826E+04  0.7818609E-02  0.8233292E-01
       -1   -1    0    0    0  501  0.00000000000E+00  0.00000000000E+00  0.15222807124E+04  0.15222807124E+04  0.50400001928E-02 0. -1.
        1   -1    0    0  501    0  0.00000000000E+00  0.00000000000E+00 -0.15145555843E+04  0.15145555843E+04  0.50400001928E-02 0.  1.
    10030    2    1    2    0    0  0.00000000000E+00  0.00000000000E+00  0.77251281535E+01  0.30368362967E+04  0.30368264711E+04 0.  0.
        4    1    3    3  502    0  0.26825549500E+03  0.10873242961E+04 -0.10214904525E+04  0.15158098472E+04  0.12699999809E+01 0.  1.
       -4    1    3    3    0  502 -0.26825549500E+03 -0.10873242961E+04  0.10292155807E+04  0.15210264495E+04  0.12699999809E+01 0. -1.
</event>
<event>
 5   0  0.5329891E-06  0.2717881E+04  0.7818609E-02  0.8329226E-01
       -1   -1    0    0    0  501  0.00000000000E+00  0.00000000000E+00  0.14460270517E+04  0.14460270517E+04  0.50400001928E-02 0.  1.
        1   -1    0    0  501    0  0.00000000000E+00  0.00000000000E+00 -0.12770989444E+04  0.12770989444E+04  0.50400001928E-02 0. -1.
    10030    2    1    2    0    0  0.00000000000E+00  0.00000000000E+00  0.16892810728E+03  0.27231259961E+04  0.27178812493E+04 0.  0.
        4    1    3    3  502    0  0.95439932555E+03 -0.48486377747E+03 -0.75425768343E+03  0.13095332074E+04  0.12699999809E+01 0. -1.
       -4    1    3    3    0  502 -0.95439932555E+03  0.48486377747E+03  0.92318579070E+03  0.14135927887E+04  0.12699999809E+01 0.  1.
</event>
<event>
 5   0  0.7726928E-06  0.1527812E+04  0.7818609E-02  0.8866166E-01
       -1   -1    0    0    0  501  0.00000000000E+00  0.00000000000E+00  0.56916203364E+03  0.56916203366E+03  0.50400001928E-02 0. -1.
        1   -1    0    0  501    0  0.00000000000E+00  0.00000000000E+00 -0.10252839199E+04  0.10252839199E+04  0.50400001928E-02 0.  1.
    10030    2    1    2    0    0  0.00000000000E+00  0.00000000000E+00 -0.45612188625E+03  0.15944459536E+04  0.15278123981E+04 0.  0.
        5    1    3    3  502    0  0.41741115068E+03 -0.22061812871E+03  0.39865160250E+03  0.61793981713E+03  0.46999998093E+01 0. -1.
       -5    1    3    3    0  502 -0.41741115068E+03  0.22061812871E+03 -0.85477348874E+03  0.97650613643E+03  0.46999998093E+01 0.  1.
</event>
<event>
 5   0  0.1388724E-05  0.1747663E+04  0.7818609E-02  0.8734638E-01
        2   -1    0    0  501    0  0.00000000000E+00  0.00000000000E+00  0.95297087445E+03  0.95297087445E+03  0.25500000920E-02 0. -1.
       -2   -1    0    0    0  501  0.00000000000E+00  0.00000000000E+00 -0.80126432708E+03  0.80126432708E+03  0.25500000920E-02 0.  1.
    10030    2    1    2    0    0  0.00000000000E+00  0.00000000000E+00  0.15170654737E+03  0.17542352015E+04  0.17476630870E+04 0.  0.
        4    1    3    3  502    0 -0.13375279422E+03  0.71997474766E+03 -0.40272738916E+03  0.83572986671E+03  0.12699999809E+01 0.  1.
       -4    1    3    3    0  502  0.13375279422E+03 -0.71997474766E+03  0.55443393653E+03  0.91850533483E+03  0.12699999809E+01 0. -1.
</event>
<event>
 5   0  0.4806125E-06  0.2797776E+04  0.7818609E-02  0.8303959E-01
       -3   -1    0    0    0  501  0.00000000000E+00  0.00000000000E+00  0.18385633069E+04  0.18385633097E+04  0.10100000352E+00 0.  1.
        3   -1    0    0  501    0  0.00000000000E+00  0.00000000000E+00 -0.10643573195E+04  0.10643573243E+04  0.10100000352E+00 0. -1.
    10030    2    1    2    0    0  0.00000000000E+00  0.00000000000E+00  0.77420598741E+03  0.29029206340E+04  0.27977764915E+04 0.  0.
        2    1    3    3  502    0 -0.10283566818E+04  0.19027028511E+03 -0.57688101811E+03  0.11943667592E+04  0.25500000920E-02 0. -1.
       -2    1    3    3    0  502  0.10283566818E+04 -0.19027028511E+03  0.13510870055E+04  0.17085538748E+04  0.25500000920E-02 0.  1.
</event>
<event>
 5   0  0.1423692E-05  0.2951399E+04  0.7818609E-02  0.8257747E-01
        2   -1    0    0  501    0  0.00000000000E+00  0.00000000000E+00  0.19579998658E+04  0.19579998658E+04  0.25500000920E-02 0. -1.
       -2   -1    0    0    0  501  0.00000000000E+00  0.00000000000E+00 -0.11122009147E+04  0.11122009147E+04  0.25500000920E-02 0.  1.
    10030    2    1    2    0    0  0.00000000000E+00  0.00000000000E+00  0.84579895108E+03  0.30702007805E+04  0.29513991541E+04 0.  0.
        3    1    3    3  502    0  0.55985540147E+03 -0.82838934694E+03 -0.70615676646E+03  0.12240606070E+04  0.10100000352E+00 0.  1.
       -3    1    3    3    0  502 -0.55985540147E+03  0.82838934694E+03  0.15519557175E+04  0.18461401735E+04  0.10100000352E+00 0. -1.
</event>
<event>
 5   0  0.1423692E-05  0.3038216E+04  0.7818609E-02  0.8232901E-01
       -2   -1    0    0    0  501  0.00000000000E+00  0.00000000000E+00  0.12109346981E+04  0.12109346981E+04  0.25500000920E-02 0. -1.
        2   -1    0    0  501    0  0.00000000000E+00  0.00000000000E+00 -0.19057093582E+04  0.19057093582E+04  0.25500000920E-02 0.  1.
    10030    2    1    2    0    0  0.00000000000E+00  0.00000000000E+00 -0.69477466012E+03  0.31166440563E+04  0.30382163099E+04 0.  0.
        3    1    3    3  502    0 -0.73724327368E+03  0.81217368625E+03  0.73071111563E+03  0.13179880447E+04  0.10100000352E+00 0. -1.
       -3    1    3    3    0  502  0.73724327368E+03 -0.81217368625E+03 -0.14254857758E+04  0.17986560117E+04  0.10100000352E+00 0.  1.
</event>
<event>
 5   0  0.7032692E-06  0.3008072E+04  0.7818609E-02  0.8241430E-01
        1   -1    0    0  501    0  0.00000000000E+00  0.00000000000E+00  0.29268000055E+04  0.29268000055E+04  0.50400001928E-02 0. -1.
       -1   -1    0    0    0  501  0.00000000000E+00  0.00000000000E+00 -0.77289998652E+03  0.77289998654E+03  0.50400001928E-02 0.  1.
    10030    2    1    2    0    0  0.00000000000E+00  0.00000000000E+00  0.21539000190E+04  0.36996999921E+04  0.30080715981E+04 0.  0.
        5    1    3    3  502    0 -0.86086017403E+03 -0.21655495065E+03 -0.41634474933E+03  0.98048015083E+03  0.46999998093E+01 0.  1.
       -5    1    3    3    0  502  0.86086017403E+03  0.21655495065E+03  0.25702447683E+04  0.27192198413E+04  0.46999998093E+01 0. -1.
</event>
<event>
 5   0  0.1423692E-05  0.1518841E+04  0.7818609E-02  0.8872020E-01
        2   -1    0    0  501    0  0.00000000000E+00  0.00000000000E+00  0.72251654182E+03  0.72251654182E+03  0.25500000920E-02 0.  1.
       -2   -1    0    0    0  501  0.00000000000E+00  0.00000000000E+00 -0.79820958101E+03  0.79820958101E+03  0.25500000920E-02 0. -1.
    10030    2    1    2    0    0  0.00000000000E+00  0.00000000000E+00 -0.75693039188E+02  0.15207261228E+04  0.15188411716E+04 0.  0.
        3    1    3    3  502    0  0.20197362143E+03  0.11404821784E+02  0.69504291446E+03  0.72388402169E+03  0.10100000352E+00 0.  1.
       -3    1    3    3    0  502 -0.20197362143E+03 -0.11404821784E+02 -0.77073595365E+03  0.79684210114E+03  0.10100000352E+00 0. -1.
</event>
<event>
 5   0  0.1345931E-05  0.2992346E+04  0.7818609E-02  0.8245920E-01
       -2   -1    0    0    0  501  0.00000000000E+00  0.00000000000E+00  0.12170329795E+04  0.12170329795E+04  0.25500000920E-02 0.  1.
        2   -1    0    0  501    0  0.00000000000E+00  0.00000000000E+00 -0.18393366413E+04  0.18393366413E+04  0.25500000920E-02 0. -1.
    10030    2    1    2    0    0  0.00000000000E+00  0.00000000000E+00 -0.62230366176E+03  0.30563696208E+04  0.29923458042E+04 0.  0.
        2    1    3    3  502    0 -0.74370093998E+03 -0.71229862042E+03 -0.14197653853E+04  0.17539082536E+04  0.25500000920E-02 0. -1.
       -2    1    3    3    0  502  0.74370093998E+03  0.71229862042E+03  0.79746172350E+03  0.13024613673E+04  0.25500000920E-02 0.  1.
</event>
<event>
 5   0  0.1480547E-05  0.2980678E+04  0.7818609E-02  0.8249270E-01
        2   -1    0    0  501    0  0.00000000000E+00  0.00000000000E+00  0.19311382050E+04  0.19311382050E+04  0.25500000920E-02 0.  1.
       -2   -1    0    0    0  501  0.00000000000E+00  0.00000000000E+00 -0.11501561617E+04  0.11501561617E+04  0.25500000920E-02 0. -1.
    10030    2    1    2    0    0  0.00000000000E+00  0.00000000000E+00  0.78098204325E+03  0.30812943667E+04  0.29806781145E+04 0.  0.
        1    1    3    3  502    0 -0.10401829042E+04  0.47197294344E+03 -0.59909582722E+03  0.12898274085E+04  0.50400001928E-02 0. -1.
       -1    1    3    3    0  502  0.10401829042E+04 -0.47197294344E+03  0.13800778705E+04  0.17914669582E+04  0.50400001928E-02 0.  1.
</event>
<event>
 5   0  0.5730920E-06  0.1499801E+04  0.7818609E-02  0.8884585E-01
       -1   -1    0    0    0  501  0.00000000000E+00  0.00000000000E+00  0.24799922054E+03  0.24799922059E+03  0.50400001928E-02 0. -1.
        1   -1    0    0  501    0  0.00000000000E+00  0.00000000000E+00 -0.22675503745E+04  0.22675503745E+04  0.50400001928E-02 0.  1.
    10030    2    1    2    0    0  0.00000000000E+00  0.00000000000E+00 -0.20195511539E+04  0.25155495951E+04  0.14998009541E+04 0.  0.
        1    1    3    3  502    0 -0.65231942034E+03 -0.11231132164E+02 -0.38963548739E+03  0.75990958511E+03  0.50400001928E-02 0. -1.
       -1    1    3    3    0  502  0.65231942034E+03  0.11231132164E+02 -0.16299156665E+04  0.17556400100E+04  0.50400001928E-02 0.  1.
</event>
<event>
 5   0  0.1388724E-05  0.3074990E+04  0.7818609E-02  0.8222635E-01
       -2   -1    0    0    0  501  0.00000000000E+00  0.00000000000E+00  0.13836281775E+04  0.13836281775E+04  0.25500000920E-02 0.  1.
        2   -1    0    0  501    0  0.00000000000E+00  0.00000000000E+00 -0.17084724692E+04  0.17084724692E+04  0.25500000920E-02 0. -1.
    10030    2    1    2    0    0  0.00000000000E+00  0.00000000000E+00 -0.32484429168E+03  0.30921006467E+04  0.30749898529E+04 0.  0.
        4    1    3    3  502    0  0.44086132048E+03  0.14503647612E+04  0.95858015362E+02  0.15189163954E+04  0.12699999809E+01 0.  1.
       -4    1    3    3    0  502 -0.44086132048E+03 -0.14503647612E+04 -0.42070230704E+03  0.15731842512E+04  0.12699999809E+01 0. -1.
</event>
<event>
 5   0  0.1388724E-05  0.2897597E+04  0.7818609E-02  0.8273593E-01
       -2   -1    0    0    0  501  0.00000000000E+00  0.00000000000E+00  0.11999171329E+04  0.11999171329E+04  0.25500000920E-02 0. -1.
        2   -1    0    0  501    0  0.00000000000E+00  0.00000000000E+00 -0.17493016067E+04  0.17493016067E+04  0.25500000920E-02 0.  1.
    10030    2    1    2    0    0  0.00000000000E+00  0.00000000000E+00 -0.54938447381E+03  0.29492187395E+04  0.28975969136E+04 0.  0.
        4    1    3    3  502    0  0.76404615348E+03  0.12109990270E+04 -0.49937412034E+03  0.15164634163E+04  0.12699999809E+01 0.  1.
       -4    1    3    3    0  502 -0.76404615348E+03 -0.12109990270E+04 -0.50010353475E+02  0.14327553232E+04  0.12699999809E+01 0. -1.
</event>
<event>
 5   0  0.1423692E-05  0.2945374E+04  0.7818609E-02  0.8259504E-01
       -2   -1    0    0    0  501  0.00000000000E+00  0.00000000000E+00  0.11469872210E+04  0.11469872210E+04  0.25500000920E-02 0.  1.
        2   -1    0    0  501    0  0.00000000000E+00  0.00000000000E+00 -0.18908729213E+04  0.18908729213E+04  0.25500000920E-02 0. -1.
    10030    2    1    2    0    0  0.00000000000E+00  0.00000000000E+00 -0.74388570032E+03  0.30378601423E+04  0.29453740525E+04 0.  0.
        3    1    3    3  502    0  0.78380269507E+02 -0.11212899797E+04  0.60944559538E+03  0.12786159037E+04  0.10100000352E+00 0.  1.
       -3    1    3    3    0  502 -0.78380269507E+02  0.11212899797E+04 -0.13533312957E+04  0.17592442387E+04  0.10100000352E+00 0. -1.
</event>
<event>
 5   0  0.5329891E-06  0.2955587E+04  0.7818609E-02  0.8256528E-01
       -1   -1    0    0    0  501  0.00000000000E+00  0.00000000000E+00  0.11868915527E+04  0.11868915527E+04  0.50400001928E-02 0. -1.
        1   -1    0    0  501    0  0.00000000000E+00  0.00000000000E+00 -0.18399947147E+04  0.18399947147E+04  0.50400001928E-02 0.  1.
    10030    2    1    2    0    0  0.00000000000E+00  0.00000000000E+00 -0.65310316198E+03  0.30268862675E+04  0.29555873758E+04 0.  0.
        4    1    3    3  502    0 -0.54419006110E+02 -0.49158860225E+03 -0.17527153543E+04  0.18211626803E+04  0.12699999809E+01 0.  1.
       -4    1    3    3    0  502  0.54419006110E+02  0.49158860225E+03  0.10996121923E+04  0.12057235871E+04  0.12699999809E+01 0. -1.
</event>
<event>
 5   0  0.5392262E-06  0.1516214E+04  0.7818609E-02  0.8873742E-01
       -1   -1    0    0    0  501  0.00000000000E+00  0.00000000000E+00  0.61478155722E+03  0.61478155724E+03  0.50400001928E-02 0. -1.
        1   -1    0    0  501    0  0.00000000000E+00  0.00000000000E+00 -0.93484627646E+03  0.93484627647E+03  0.50400001928E-02 0.  1.
    10030    2    1    2    0    0  0.00000000000E+00  0.00000000000E+00 -0.32006471924E+03  0.15496278337E+04  0.15162140345E+04 0.  0.
        2    1    3    3  502    0  0.39026862627E+03 -0.22917858514E+03 -0.78162438882E+03  0.90319937430E+03  0.25500000920E-02 0.  1.
       -2    1    3    3    0  502 -0.39026862627E+03  0.22917858514E+03  0.46155966958E+03  0.64642845940E+03  0.25500000920E-02 0. -1.
</event>
<event>
 5   0  0.1423692E-05  0.2982178E+04  0.7818609E-02  0.8248839E-01
       -2   -1    0    0    0  501  0.00000000000E+00  0.00000000000E+00  0.10839055784E+04  0.10839055784E+04  0.25500000920E-02 0.  1.
        2   -1    0    0  501    0  0.00000000000E+00  0.00000000000E+00 -0.20512356854E+04  0.20512356854E+04  0.25500000920E-02 0. -1.
    10030    2    1    2    0    0  0.00000000000E+00  0.00000000000E+00 -0.96733010703E+03  0.31351412638E+04  0.29821775950E+04 0.  0.
        3    1    3    3  502    0 -0.62487840054E+03  0.57149839619E+03 -0.17739152172E+04  0.19656700233E+04  0.10100000352E+00 0. -1.
       -3    1    3    3    0  502  0.62487840054E+03 -0.57149839619E+03  0.80658511017E+03  0.11694712405E+04  0.10100000352E+00 0.  1.
</event>
<event>
 5   0  0.1388724E-05  0.2637366E+04  0.7818609E-02  0.8355618E-01
        2   -1    0    0  501    0  0.00000000000E+00  0.00000000000E+00  0.15225851597E+04  0.15225851597E+04  0.25500000920E-02 0.  1.
       -2   -1    0    0    0  501  0.00000000000E+00  0.00000000000E+00 -0.11420873228E+04  0.11420873228E+04  0.25500000920E-02 0. -1.
    10030    2    1    2    0    0  0.00000000000E+00  0.00000000000E+00  0.38049783688E+03  0.26646724825E+04  0.26373662687E+04 0.  0.
        4    1    3    3  502    0 -0.32142515617E+03  0.19688223624E+03  0.14669964377E+04  0.15146474531E+04  0.12699999809E+01 0.  1.
       -4    1    3    3    0  502  0.32142515617E+03 -0.19688223624E+03 -0.10864986008E+04  0.11500250295E+04  0.12699999809E+01 0. -1.
</event>
<event>
 5   0  0.1388724E-05  0.2998021E+04  0.7818609E-02  0.8244296E-01
       -2   -1    0    0    0  501  0.00000000000E+00  0.00000000000E+00  0.11217251258E+04  0.11217251258E+04  0.25500000920E-02 0.  1.
        2   -1    0    0  501    0  0.00000000000E+00  0.00000000000E+00 -0.20031931822E+04  0.20031931822E+04  0.25500000920E-02 0. -1.
    10030    2    1    2    0    0  0.00000000000E+00  0.00000000000E+00 -0.88146805641E+03  0.31249183080E+04  0.29980207633E+04 0.  0.
        4    1    3    3  502    0 -0.94969121496E+03 -0.28503356408E+02  0.76778330930E+03  0.12215640254E+04  0.12699999809E+01 0.  1.
       -4    1    3    3    0  502  0.94969121496E+03  0.28503356408E+02 -0.16492513657E+04  0.19033542826E+04  0.12699999809E+01 0. -1.
</event>
<event>
 5   0  0.5522695E-06  0.2961827E+04  0.7818609E-02  0.8254716E-01
       -1   -1    0    0    0  501  0.00000000000E+00  0.00000000000E+00  0.10736715174E+04  0.10736715174E+04  0.50400001928E-02 0.  1.
        1   -1    0    0  501    0  0.00000000000E+00  0.00000000000E+00 -0.20426213403E+04  0.20426213403E+04  0.50400001928E-02 0. -1.
    10030    2    1    2    0    0  0.00000000000E+00  0.00000000000E+00 -0.96894982297E+03  0.31162928577E+04  0.29618267025E+04 0.  0.
        3    1    3    3  502    0 -0.57257417729E+03  0.60246525199E+03  0.80513029167E+03  0.11571691169E+04  0.10100000352E+00 0.  1.
       -3    1    3    3    0  502  0.57257417729E+03 -0.60246525199E+03 -0.17740801146E+04  0.19591237408E+04  0.10100000352E+00 0. -1.
</event>
<event>
 5   0  0.5730920E-06  0.3008940E+04  0.7818609E-02  0.8241183E-01
       -1   -1    0    0    0  501  0.00000000000E+00  0.00000000000E+00  0.13844938041E+04  0.13844938041E+04  0.50400001928E-02 0. -1.
        1   -1    0    0  501    0  0.00000000000E+00  0.00000000000E+00 -0.16348427075E+04  0.16348427075E+04  0.50400001928E-02 0.  1.
    10030    2    1    2    0    0  0.00000000000E+00  0.00000000000E+00 -0.25034890346E+03  0.30193365116E+04  0.30089397463E+04 0.  0.
        1    1    3    3  502    0 -0.74292203536E+03  0.53338874468E+03  0.10735212088E+04  0.14102781603E+04  0.50400001928E-02 0. -1.
       -1    1    3    3    0  502  0.74292203536E+03 -0.53338874468E+03 -0.13238701123E+04  0.16090583513E+04  0.50400001928E-02 0.  1.
</event>
<event>
 5   0  0.5392262E-06  0.1551383E+04  0.7818609E-02  0.8850985E-01
       -1   -1    0    0    0  501  0.00000000000E+00  0.00000000000E+00  0.69539652374E+03  0.69539652376E+03  0.50400001928E-02 0. -1.
        1   -1    0    0  501    0  0.00000000000E+00  0.00000000000E+00 -0.86525759987E+03  0.86525759988E+03  0.50400001928E-02 0.  1.
    10030    2    1    2    0    0  0.00000000000E+00  0.00000000000E+00 -0.16986107613E+03  0.15606541236E+04  0.15513827730E+04 0.  0.
        2    1    3    3  502    0 -0.11761086518E+03  0.47758479639E+03 -0.68832975739E+03  0.84600083231E+03  0.25500000920E-02 0.  1.
       -2    1    3    3    0  502  0.11761086518E+03 -0.47758479639E+03  0.51846868126E+03  0.71465329133E+03  0.25500000920E-02 0. -1.
</event>
<event>
 5   0  0.1480547E-05  0.2974942E+04  0.7818609E-02  0.8250923E-01
        2   -1    0    0  501    0  0.00000000000E+00  0.00000000000E+00  0.21827325056E+04  0.21827325056E+04  0.25500000920E-02 0.  1.
       -2   -1    0    0    0  501  0.00000000000E+00  0.00000000000E+00 -0.10136696039E+04  0.10136696039E+04  0.25500000920E-02 0. -1.
    10030    2    1    2    0    0  0.00000000000E+00  0.00000000000E+00  0.11690629017E+04  0.31964021095E+04  0.29749417435E+04 0.  0.
        1    1    3    3  502    0 -0.73435023448E+03 -0.10109468187E+04  0.14516306134E+04  0.19153368306E+04  0.50400001928E-02 0.  1.
       -1    1    3    3    0  502  0.73435023448E+03  0.10109468187E+04 -0.28256771165E+03  0.12810652789E+04  0.50400001928E-02 0. -1.
</event>
<event>
 5   0  0.1388724E-05  0.3035950E+04  0.7818609E-02  0.8233539E-01
       -2   -1    0    0    0  501  0.00000000000E+00  0.00000000000E+00  0.16933168993E+04  0.16933168993E+04  0.25500000920E-02 0. -1.
        2   -1    0    0  501    0  0.00000000000E+00  0.00000000000E+00 -0.13607897021E+04  0.13607897021E+04  0.25500000920E-02 0.  1.
    10030    2    1    2    0    0  0.00000000000E+00  0.00000000000E+00  0.33252719713E+03  0.30541066014E+04  0.30359500648E+04 0.  0.
        4    1    3    3  502    0 -0.87034377738E+03 -0.65902453677E+03 -0.89476449010E+03  0.14115299276E+04  0.12699999809E+01 0.  1.
       -4    1    3    3    0  502  0.87034377738E+03  0.65902453677E+03  0.12272916872E+04  0.16425766738E+04  0.12699999809E+01 0. -1.
</event>
<event>
 5   0  0.7032692E-06  0.2922063E+04  0.7818609E-02  0.8266343E-01
        1   -1    0    0  501    0  0.00000000000E+00  0.00000000000E+00  0.18241223039E+04  0.18241223039E+04  0.50400001928E-02 0. -1.
       -1   -1    0    0    0  501  0.00000000000E+00  0.00000000000E+00 -0.11702135748E+04  0.11702135748E+04  0.50400001928E-02 0.  1.
    10030    2    1    2    0    0  0.00000000000E+00  0.00000000000E+00  0.65390872914E+03  0.29943358787E+04  0.29220627523E+04 0.  0.
        5    1    3    3  502    0 -0.49327870586E+03  0.74206170659E+03  0.15134397327E+04  0.17562748568E+04  0.46999998093E+01 0. -1.
       -5    1    3    3    0  502  0.49327870586E+03 -0.74206170659E+03 -0.85953100355E+03  0.12380610220E+04  0.46999998093E+01 0.  1.
</event>
<event>
 5   0  0.1388724E-05  0.2940272E+04  0.7818609E-02  0.8260995E-01
       -2   -1    0    0    0  501  0.00000000000E+00  0.00000000000E+00  0.12002606700E+04  0.12002606700E+04  0.25500000920E-02 0.  1.
        2   -1    0    0  501    0  0.00000000000E+00  0.00000000000E+00 -0.18006922068E+04  0.18006922068E+04  0.25500000920E-02 0. -1.
    10030    2    1    2    0    0  0.00000000000E+00  0.00000000000E+00 -0.60043153677E+03  0.30009528768E+04  0.29402721198E+04 0.  0.
        4    1    3    3  502    0 -0.11526300248E+04 -0.82709169606E+03 -0.69373984234E+03  0.15792128512E+04  0.12699999809E+01 0. -1.
       -4    1    3    3    0  502  0.11526300248E+04  0.82709169606E+03  0.93308305575E+02  0.14217400256E+04  0.12699999809E+01 0.  1.
</event>
<event>
 5   0  0.5522695E-06  0.3122733E+04  0.7818609E-02  0.8209527E-01
        1   -1    0    0  501    0  0.00000000000E+00  0.00000000000E+00  0.19465424751E+04  0.19465424752E+04  0.50400001928E-02 0. -1.
       -1   -1    0    0    0  501  0.00000000000E+00  0.00000000000E+00 -0.12524082600E+04  0.12524082600E+04  0.50400001928E-02 0.  1.
    10030    2    1    2    0    0  0.00000000000E+00  0.00000000000E+00  0.69413421513E+03  0.31989507352E+04  0.31227333376E+04 0.  0.
        3    1    3    3  502    0  0.42491660859E+02 -0.11085794006E+04 -0.77843533595E+03  0.13552547403E+04  0.10100000352E+00 0. -1.
       -3    1    3    3    0  502 -0.42491660859E+02  0.11085794006E+04  0.14725695511E+04  0.18436959949E+04  0.10100000352E+00 0.  1.
</event>
<event>
 5   0  0.4806125E-06  0.1972489E+04  0.7818609E-02  0.8619592E-01
       -3   -1    0    0    0  501  0.00000000000E+00  0.00000000000E+00  0.19898751237E+04  0.19898751262E+04  0.10100000352E+00 0. -1.
        3   -1    0    0  501    0  0.00000000000E+00  0.00000000000E+00 -0.48881385543E+03  0.48881386586E+03  0.10100000352E+00 0.  1.
    10030    2    1    2    0    0  0.00000000000E+00  0.00000000000E+00  0.15010612682E+04  0.24786889921E+04  0.19724893380E+04 0.  0.
        1    1    3    3  502    0  0.74076946648E+03 -0.54416750806E+03  0.11998014979E+04  0.15114169887E+04  0.50400001928E-02 0.  1.
       -1    1    3    3    0  502 -0.74076946648E+03  0.54416750806E+03  0.30125977031E+03  0.96727200339E+03  0.50400001928E-02 0. -1.
</event>
<event>
 5   0  0.7032692E-06  0.1992442E+04  0.7818609E-02  0.8610162E-01
        1   -1    0    0  501    0  0.00000000000E+00  0.00000000000E+00  0.16891851315E+04  0.16891851315E+04  0.50400001928E-02 0. -1.
       -1   -1    0    0    0  501  0.00000000000E+00  0.00000000000E+00 -0.58753564542E+03  0.58753564544E+03  0.50400001928E-02 0.  1.
    10030    2    1    2    0    0  0.00000000000E+00  0.00000000000E+00  0.11016494861E+04  0.22767207769E+04  0.19924421964E+04 0.  0.
        5    1    3    3  502    0  0.46849534979E+03 -0.23598720730E+03 -0.41692105891E+03  0.67009186992E+03  0.46999998093E+01 0.  1.
       -5    1    3    3    0  502 -0.46849534979E+03  0.23598720730E+03  0.15185705450E+04  0.16066289070E+04  0.46999998093E+01 0. -1.
</event>
<event>
 5   0  0.1523029E-05  0.1730077E+04  0.7818609E-02  0.8744394E-01
       -2   -1    0    0    0  501  0.00000000000E+00  0.00000000000E+00  0.92582278192E+03  0.92582278193E+03  0.25500000920E-02 0.  1.
        2   -1    0    0  501    0  0.00000000000E+00  0.00000000000E+00 -0.80824489698E+03  0.80824489698E+03  0.25500000920E-02 0. -1.
    10030    2    1    2    0    0  0.00000000000E+00  0.00000000000E+00  0.11757788495E+03  0.17340676789E+04  0.17300769220E+04 0.  0.
        5    1    3    3  502    0 -0.55656543426E+03 -0.52801436347E+03  0.45934209744E+03  0.89419321353E+03  0.46999998093E+01 0.  1.
       -5    1    3    3    0  502  0.55656543426E+03  0.52801436347E+03 -0.34176421249E+03  0.83987446537E+03  0.46999998093E+01 0. -1.
</event>
<event>
 5   0  0.1523029E-05  0.3094258E+04  0.7818609E-02  0.8217316E-01
       -2   -1    0    0    0  501  0.00000000000E+00  0.00000000000E+00  0.10923677861E+04  0.10923677862E+04  0.25500000920E-02 0.  1.
        2   -1    0    0  501    0  0.00000000000E+00  0.00000000000E+00 -0.21912106401E+04  0.21912106401E+04  0.25500000920E-02 0. -1.
    10030    2    1    2    0    0  0.00000000000E+00  0.00000000000E+00 -0.10988428539E+04  0.32835784262E+04  0.30942578534E+04 0.  0.
        5    1    3    3  502    0  0.11956477167E+04  0.93174840527E+02  0.48779117417E+03  0.12946881219E+04  0.46999998093E+01 0.  1.
       -5    1    3    3    0  502 -0.11956477167E+04 -0.93174840527E+02 -0.15866340281E+04  0.19888903043E+04  0.46999998093E+01 0. -1.
</event>
<event>
 5   0  0.1345931E-05  0.2939718E+04  0.7818609E-02  0.8261157E-01
       -2   -1    0    0    0  501  0.00000000000E+00  0.00000000000E+00  0.15120805195E+04  0.15120805195E+04  0.25500000920E-02 0.  1.
        2   -1    0    0  501    0  0.00000000000E+00  0.00000000000E+00 -0.14288168938E+04  0.14288168938E+04  0.25500000920E-02 0. -1.
    10030    2    1    2    0    0  0.00000000000E+00  0.00000000000E+00  0.83263625632E+02  0.29408974133E+04  0.29397184839E+04 0.  0.
        2    1    3    3  502    0 -0.10117949687E+04 -0.91952390047E+03  0.58150824749E+03  0.14857338605E+04  0.25500000920E-02 0.  1.
       -2    1    3    3    0  502  0.10117949687E+04  0.91952390047E+03 -0.49824462186E+03  0.14551635528E+04  0.25500000920E-02 0. -1.
</event>
<event>
 5   0  0.5730920E-06  0.3045152E+04  0.7818609E-02  0.8230954E-01
        1   -1    0    0  501    0  0.00000000000E+00  0.00000000000E+00  0.17204055466E+04  0.17204055466E+04  0.50400001928E-02 0.  1.
       -1   -1    0    0    0  501  0.00000000000E+00  0.00000000000E+00 -0.13474953032E+04  0.13474953032E+04  0.50400001928E-02 0. -1.
    10030    2    1    2    0    0  0.00000000000E+00  0.00000000000E+00  0.37291024340E+03  0.30679008498E+04  0.30451524715E+04 0.  0.
        1    1    3    3  502    0  0.43179007571E+03  0.13564625635E+04  0.73068034937E+03  0.16001022245E+04  0.50400001928E-02 0.  1.
       -1    1    3    3    0  502 -0.43179007571E+03 -0.13564625635E+04 -0.35777010598E+03  0.14677986253E+04  0.50400001928E-02 0. -1.
</event>
<event>
 5   0  0.1523029E-05  0.2949907E+04  0.7818609E-02  0.8258182E-01
        2   -1    0    0  501    0  0.00000000000E+00  0.00000000000E+00  0.15533202133E+04  0.15533202133E+04  0.25500000920E-02 0. -1.
       -2   -1    0    0    0  501  0.00000000000E+00  0.00000000000E+00 -0.14005408380E+04  0.14005408380E+04  0.25500000920E-02 0.  1.
    10030    2    1    2    0    0  0.00000000000E+00  0.00000000000E+00  0.15277937536E+03  0.29538610513E+04  0.29499073838E+04 0.  0.
        5    1    3    3  502    0 -0.13590965427E+04  0.53434554307E+03  0.28354308305E+03  0.14876448977E+04  0.46999998093E+01 0.  1.
       -5    1    3    3    0  502  0.13590965427E+04 -0.53434554307E+03 -0.13076370770E+03  0.14662161536E+04  0.46999998093E+01 0. -1.
</event>
<event>
 5   0  0.7032692E-06  0.2958420E+04  0.7818609E-02  0.8255705E-01
        1   -1    0    0  501    0  0.00000000000E+00  0.00000000000E+00  0.99431369150E+03  0.99431369152E+03  0.50400001928E-02 0.  1.
       -1   -1    0    0    0  501  0.00000000000E+00  0.00000000000E+00 -0.22005759288E+04  0.22005759288E+04  0.50400001928E-02 0. -1.
    10030    2    1    2    0    0  0.00000000000E+00  0.00000000000E+00 -0.12062622373E+04  0.31948896203E+04  0.29584203726E+04 0.  0.
        5    1    3    3  502    0  0.24100795165E+03  0.12798300173E+04 -0.13606170023E+04  0.18834411122E+04  0.46999998093E+01 0. -1.
       -5    1    3    3    0  502 -0.24100795165E+03 -0.12798300173E+04  0.15435476503E+03  0.13114485081E+04  0.46999998093E+01 0.  1.
</event>
<event>
 5   0  0.1423692E-05  0.3056194E+04  0.7818609E-02  0.8227864E-01
       -2   -1    0    0    0  501  0.00000000000E+00  0.00000000000E+00  0.11809947866E+04  0.11809947866E+04  0.25500000920E-02 0.  1.
        2   -1    0    0  501    0  0.00000000000E+00  0.00000000000E+00 -0.19772154386E+04  0.19772154386E+04  0.25500000920E-02 0. -1.
    10030    2    1    2    0    0  0.00000000000E+00  0.00000000000E+00 -0.79622065199E+03  0.31582102253E+04  0.30561944474E+04 0.  0.
        3    1    3    3  502    0  0.12871196426E+04  0.82207098125E+03 -0.34538320882E+03  0.15658120078E+04  0.10100000352E+00 0. -1.
       -3    1    3    3    0  502 -0.12871196426E+04 -0.82207098125E+03 -0.45083744316E+03  0.15923982175E+04  0.10100000352E+00 0.  1.
</event>
<event>
 5   0  0.1523029E-05  0.3025608E+04  0.7818609E-02  0.8236456E-01
        2   -1    0    0  501    0  0.00000000000E+00  0.00000000000E+00  0.13869934510E+04  0.13869934510E+04  0.25500000920E-02 0.  1.
       -2   -1    0    0    0  501  0.00000000000E+00  0.00000000000E+00 -0.16500265552E+04  0.16500265552E+04  0.25500000920E-02 0. -1.
    10030    2    1    2    0    0  0.00000000000E+00  0.00000000000E+00 -0.26303310423E+03  0.30370200063E+04  0.30256080553E+04 0.  0.
        5    1    3    3  502    0  0.27051419627E+03  0.23043253309E+02 -0.16253653977E+04  0.16478906784E+04  0.46999998093E+01 0. -1.
       -5    1    3    3    0  502 -0.27051419627E+03 -0.23043253309E+02  0.13623322934E+04  0.13891293279E+04  0.46999998093E+01 0.  1.
</event>
<event>
 5   0  0.5329891E-06  0.2983968E+04  0.7818609E-02  0.8248324E-01
        1   -1    0    0  501    0  0.00000000000E+00  0.00000000000E+00  0.26825902750E+04  0.26825902750E+04  0.50400001928E-02 0. -1.
       -1   -1    0    0    0  501  0.00000000000E+00  0.00000000000E+00 -0.82980091914E+03  0.82980091916E+03  0.50400001928E-02 0.  1.
    10030    2    1    2    0    0  0.00000000000E+00  0.00000000000E+00  0.18527893559E+04  0.35123911942E+04  0.29839677451E+04 0.  0.
        4    1    3    3  502    0  0.14760494103E+04  0.34239029538E+02  0.11791811503E+04  0.18895406773E+04  0.12699999809E+01 0.  1.
       -4    1    3    3    0  502 -0.14760494103E+04 -0.34239029538E+02  0.67360820555E+03  0.16228505169E+04  0.12699999809E+01 0. -1.
</event>
<event>
 5   0  0.1423692E-05  0.2999221E+04  0.7818609E-02  0.8243953E-01
        2   -1    0    0  501    0  0.00000000000E+00  0.00000000000E+00  0.87391490374E+03  0.87391490374E+03  0.25500000920E-02 0.  1.
       -2   -1    0    0    0  501  0.00000000000E+00  0.00000000000E+00 -0.25732852116E+04  0.25732852116E+04  0.25500000920E-02 0. -1.
    10030    2    1    2    0    0  0.00000000000E+00  0.00000000000E+00 -0.16993703078E+04  0.34472001153E+04  0.29992214310E+04 0.  0.
        3    1    3    3  502    0 -0.88859425468E+03 -0.53429910517E+03 -0.20949079523E+04  0.23374590097E+04  0.10100000352E+00 0. -1.
       -3    1    3    3    0  502  0.88859425468E+03  0.53429910517E+03  0.39553764442E+03  0.11097411057E+04  0.10100000352E+00 0.  1.
</event>
<event>
 5   0  0.1345931E-05  0.3124756E+04  0.7818609E-02  0.8208977E-01
        2   -1    0    0  501    0  0.00000000000E+00  0.00000000000E+00  0.17001535217E+04  0.17001535217E+04  0.25500000920E-02 0. -1.
       -2   -1    0    0    0  501  0.00000000000E+00  0.00000000000E+00 -0.14357674535E+04  0.14357674535E+04  0.25500000920E-02 0.  1.
    10030    2    1    2    0    0  0.00000000000E+00  0.00000000000E+00  0.26438606819E+03  0.31359209751E+04  0.31247560496E+04 0.  0.
        2    1    3    3  502    0  0.15075498238E+04  0.29462127193E+03  0.41872487693E+03  0.15921176739E+04  0.25500000920E-02 0. -1.
       -2    1    3    3    0  502 -0.15075498238E+04 -0.29462127193E+03 -0.15433880874E+03  0.15438033012E+04  0.25500000920E-02 0.  1.
</event>
<event>
 5   0  0.1388724E-05  0.1491213E+04  0.7818609E-02  0.8890318E-01
        2   -1    0    0  501    0  0.00000000000E+00  0.00000000000E+00  0.66897668273E+03  0.66897668273E+03  0.25500000920E-02 0. -1.
       -2   -1    0    0    0  501  0.00000000000E+00  0.00000000000E+00 -0.83101355487E+03  0.83101355488E+03  0.25500000920E-02 0.  1.
    10030    2    1    2    0    0  0.00000000000E+00  0.00000000000E+00 -0.16203687214E+03  0.14999902376E+04  0.14912125150E+04 0.  0.
        4    1    3    3  502    0 -0.18562476809E+03 -0.75088988570E+02 -0.80346063104E+03  0.82803714244E+03  0.12699999809E+01 0.  1.
       -4    1    3    3    0  502  0.18562476809E+03  0.75088988570E+02  0.64142375889E+03  0.67195309517E+03  0.12699999809E+01 0. -1.
</event>
<event>
 5   0  0.1423692E-05  0.2092385E+04  0.7818609E-02  0.8564605E-01
        2   -1    0    0  501    0  0.00000000000E+00  0.00000000000E+00  0.11280501056E+04  0.11280501056E+04  0.25500000920E-02 0. -1.
       -2   -1    0    0    0  501  0.00000000000E+00  0.00000000000E+00 -0.97027503531E+03  0.97027503532E+03  0.25500000920E-02 0.  1.
    10030    2    1    2    0    0  0.00000000000E+00  0.00000000000E+00  0.15777507025E+03  0.20983251409E+04  0.20923851042E+04 0.  0.
        3    1    3    3  502    0 -0.17711858206E+03 -0.20597751965E+03 -0.93428804553E+03  0.97298093143E+03  0.10100000352E+00 0.  1.
       -3    1    3    3    0  502  0.17711858206E+03  0.20597751965E+03  0.10920631158E+04  0.11253442095E+04  0.10100000352E+00 0. -1.
</event>
<event>
 5   0  0.1480547E-05  0.3068192E+04  0.7818609E-02  0.8224522E-01
       -2   -1    0    0    0  501  0.00000000000E+00  0.00000000000E+00  0.96133422917E+03  0.96133422917E+03  0.25500000920E-02 0.  1.
        2   -1    0    0  501    0  0.00000000000E+00  0.00000000000E+00 -0.24481088911E+04  0.24481088911E+04  0.25500000920E-02 0. -1.
    10030    2    1    2    0    0  0.00000000000E+00  0.00000000000E+00 -0.14867746619E+04  0.34094431203E+04  0.30681922194E+04 0.  0.
        1    1    3    3  502    0 -0.17688313663E+03  0.84121348023E+03  0.66857469975E+03  0.10889994915E+04  0.50400001928E-02 0.  1.
       -1    1    3    3    0  502  0.17688313663E+03 -0.84121348023E+03 -0.21553493617E+04  0.23204436288E+04  0.50400001928E-02 0. -1.
</event>
<event>
 5   0  0.1388724E-05  0.3052969E+04  0.7818609E-02  0.8228765E-01
       -2   -1    0    0    0  501  0.00000000000E+00  0.00000000000E+00  0.11647347363E+04  0.11647347363E+04  0.25500000920E-02 0. -1.
        2   -1    0    0  501    0  0.00000000000E+00  0.00000000000E+00 -0.20005888018E+04  0.20005888018E+04  0.25500000920E-02 0.  1.
    10030    2    1    2    0    0  0.00000000000E+00  0.00000000000E+00 -0.83585406554E+03  0.31653235382E+04  0.30529692239E+04 0.  0.
        4    1    3    3  502    0 -0.50745495353E+02 -0.14409876585E+04 -0.93750135218E+03  0.17198636386E+04  0.12699999809E+01 0.  1.
       -4    1    3    3    0  502  0.50745495353E+02  0.14409876585E+04  0.10164728664E+03  0.14454598995E+04  0.12699999809E+01 0. -1.
</event>
<event>
 5   0  0.5730920E-06  0.2191954E+04  0.7818609E-02  0.8521785E-01
       -1   -1    0    0    0  501  0.00000000000E+00  0.00000000000E+00  0.66706036519E+03  0.66706036521E+03  0.50400001928E-02 0.  1.
        1   -1    0    0  501    0  0.00000000000E+00  0.00000000000E+00 -0.18006841816E+04  0.18006841816E+04  0.50400001928E-02 0. -1.
    10030    2    1    2    0    0  0.00000000000E+00  0.00000000000E+00 -0.11336238164E+04  0.24677445468E+04  0.21919535103E+04 0.  0.
        1    1    3    3  502    0  0.35970206782E+03  0.17955479268E+03  0.58104927522E+03  0.70657183741E+03  0.50400001928E-02 0.  1.
       -1    1    3    3    0  502 -0.35970206782E+03 -0.17955479268E+03 -0.17146730916E+04  0.17611727094E+04  0.50400001928E-02 0. -1.
</event>
<event>
 5   0  0.5392262E-06  0.2921068E+04  0.7818609E-02  0.8266637E-01
        1   -1    0    0  501    0  0.00000000000E+00  0.00000000000E+00  0.15568534714E+04  0.15568534714E+04  0.50400001928E-02 0.  1.
       -1   -1    0    0    0  501  0.00000000000E+00  0.00000000000E+00 -0.13701736549E+04  0.13701736550E+04  0.50400001928E-02 0. -1.
    10030    2    1    2    0    0  0.00000000000E+00  0.00000000000E+00  0.18667981646E+03  0.29270271264E+04  0.29210680315E+04 0.  0.
        2    1    3    3  502    0  0.11367396747E+04  0.90140015094E+03  0.26238584798E+03  0.14742949682E+04  0.25500000920E-02 0.  1.
       -2    1    3    3    0  502 -0.11367396747E+04 -0.90140015094E+03 -0.75706031513E+02  0.14527321581E+04  0.25500000920E-02 0. -1.
</event>
<event>
 5   0  0.1480547E-05  0.3035159E+04  0.7818609E-02  0.8233762E-01
       -2   -1    0    0    0  501  0.00000000000E+00  0.00000000000E+00  0.17035176774E+04  0.17035176774E+04  0.25500000920E-02 0. -1.
        2   -1    0    0  501    0  0.00000000000E+00  0.00000000000E+00 -0.13519360335E+04  0.13519360335E+04  0.25500000920E-02 0.  1.
    10030    2    1    2    0    0  0.00000000000E+00  0.00000000000E+00  0.35158164393E+03  0.30554537108E+04  0.30351585999E+04 0.  0.
        1    1    3    3  502    0  0.52883774574E+03 -0.47254833846E+03 -0.11748494537E+04  0.13723128406E+04  0.50400001928E-02 0.  1.
       -1    1    3    3    0  502 -0.52883774574E+03  0.47254833846E+03  0.15264310976E+04  0.16831408703E+04  0.50400001928E-02 0. -1.
</event>
<event>
 5   0  0.5522695E-06  0.2963649E+04  0.7818609E-02  0.8254188E-01
        1   -1    0    0  501    0  0.00000000000E+00  0.00000000000E+00  0.20428300857E+04  0.20428300857E+04  0.50400001928E-02 0. -1.
       -1   -1    0    0    0  501  0.00000000000E+00  0.00000000000E+00 -0.10748830414E+04  0.10748830414E+04  0.50400001928E-02 0.  1.
    10030    2    1    2    0    0  0.00000000000E+00  0.00000000000E+00  0.96794704436E+03  0.31177131271E+04  0.29636487076E+04 0.  0.
        3    1    3    3  502    0  0.50436073806E+03 -0.11559093580E+04  0.13024265559E+04  0.18129592223E+04  0.10100000352E+00 0. -1.
       -3    1    3    3    0  502 -0.50436073806E+03  0.11559093580E+04 -0.33447951155E+03  0.13047539047E+04  0.10100000352E+00 0.  1.
</event>
<event>
 5   0  0.1523029E-05  0.2989986E+04  0.7818609E-02  0.8246596E-01
       -2   -1    0    0    0  501  0.00000000000E+00  0.00000000000E+00  0.12372154298E+04  0.12372154298E+04  0.25500000920E-02 0. -1.
        2   -1    0    0  501    0  0.00000000000E+00  0.00000000000E+00 -0.18064798785E+04  0.18064798785E+04  0.25500000920E-02 0.  1.
    10030    2    1    2    0    0  0.00000000000E+00  0.00000000000E+00 -0.56926444868E+03  0.30436953083E+04  0.29899864745E+04 0.  0.
        5    1    3    3  502    0 -0.51049888660E+03  0.96154114517E+03 -0.13276405120E+04  0.17169222190E+04  0.46999998093E+01 0.  1.
       -5    1    3    3    0  502  0.51049888660E+03 -0.96154114517E+03  0.75837606333E+03  0.13267730893E+04  0.46999998093E+01 0. -1.
</event>
<event>
 5   0  0.5522695E-06  0.3008512E+04  0.7818609E-02  0.8241304E-01
       -1   -1    0    0    0  501  0.00000000000E+00  0.00000000000E+00  0.14476915916E+04  0.14476915916E+04  0.50400001928E-02 0.  1.
        1   -1    0    0  501    0  0.00000000000E+00  0.00000000000E+00 -0.15630307665E+04  0.15630307665E+04  0.50400001928E-02 0. -1.
    10030    2    1    2    0    0  0.00000000000E+00  0.00000000000E+00 -0.11533917491E+03  0.30107223582E+04  0.30085122557E+04 0.  0.
        3    1    3    3  502    0  0.53368310477E+03  0.92736796498E+03 -0.11157814116E+04  0.15458968812E+04  0.10100000352E+00 0. -1.
       -3    1    3    3    0  502 -0.53368310477E+03 -0.92736796498E+03  0.10004422367E+04  0.14648254769E+04  0.10100000352E+00 0.  1.
</event>
<event>
 5   0  0.1345931E-05  0.3021782E+04  0.7818609E-02  0.8237538E-01
       -2   -1    0    0    0  501  0.00000000000E+00  0.00000000000E+00  0.15514006093E+04  0.15514006093E+04  0.25500000920E-02 0. -1.
        2   -1    0    0  501    0  0.00000000000E+00  0.00000000000E+00 -0.14714395529E+04  0.14714395529E+04  0.25500000920E-02 0.  1.
    10030    2    1    2    0    0  0.00000000000E+00  0.00000000000E+00  0.79961056389E+02  0.30228401621E+04  0.30217824004E+04 0.  0.
        2    1    3    3  502    0 -0.98185633440E+03  0.17658353197E+03 -0.10951274785E+04  0.14813938705E+04  0.25500000920E-02 0.  1.
       -2    1    3    3    0  502  0.98185633440E+03 -0.17658353197E+03  0.11750885349E+04  0.15414462917E+04  0.25500000920E-02 0. -1.
</event>
<event>
 5   0  0.5329891E-06  0.2894936E+04  0.7818609E-02  0.8274386E-01
        1   -1    0    0  501    0  0.00000000000E+00  0.00000000000E+00  0.17541630814E+04  0.17541630814E+04  0.50400001928E-02 0. -1.
       -1   -1    0    0    0  501  0.00000000000E+00  0.00000000000E+00 -0.11943946140E+04  0.11943946140E+04  0.50400001928E-02 0.  1.
    10030    2    1    2    0    0  0.00000000000E+00  0.00000000000E+00  0.55976846743E+03  0.29485576954E+04  0.28949355340E+04 0.  0.
        4    1    3    3  502    0 -0.74944056817E+03 -0.21501415708E+03  0.15220098157E+04  0.17100899816E+04  0.12699999809E+01 0. -1.
       -4    1    3    3    0  502  0.74944056817E+03  0.21501415708E+03 -0.96224134832E+03  0.12384677139E+04  0.12699999809E+01 0.  1.
</event>
<event>
 5   0  0.7032692E-06  0.2936775E+04  0.7818609E-02  0.8262019E-01
       -1   -1    0    0    0  501  0.00000000000E+00  0.00000000000E+00  0.89815335566E+03  0.89815335567E+03  0.50400001928E-02 0. -1.
        1   -1    0    0  501    0  0.00000000000E+00  0.00000000000E+00 -0.24006608081E+04  0.24006608081E+04  0.50400001928E-02 0.  1.
    10030    2    1    2    0    0  0.00000000000E+00  0.00000000000E+00 -0.15025074525E+04  0.32988141638E+04  0.29367748028E+04 0.  0.
        5    1    3    3  502    0 -0.33032090767E+03 -0.72329863992E+03 -0.21378840295E+04  0.22809741424E+04  0.46999998093E+01 0.  1.
       -5    1    3    3    0  502  0.33032090767E+03  0.72329863992E+03  0.63537657704E+03  0.10178400214E+04  0.46999998093E+01 0. -1.
</event>
<event>
 5   0  0.5730920E-06  0.3078843E+04  0.7818609E-02  0.8221568E-01
       -1   -1    0    0    0  501  0.00000000000E+00  0.00000000000E+00  0.16397136766E+04  0.16397136766E+04  0.50400001928E-02 0.  1.
        1   -1    0    0  501    0  0.00000000000E+00  0.00000000000E+00 -0.14452635036E+04  0.14452635036E+04  0.50400001928E-02 0. -1.
    10030    2    1    2    0    0  0.00000000000E+00  0.00000000000E+00  0.19445017305E+03  0.30849771802E+04  0.30788428561E+04 0.  0.
        1    1    3    3  502    0 -0.12557056703E+04  0.51765303368E+02 -0.79355797761E+03  0.14863413609E+04  0.50400001928E-02 0. -1.
       -1    1    3    3    0  502  0.12557056703E+04 -0.51765303368E+02  0.98800815066E+03  0.15986358194E+04  0.50400001928E-02 0.  1.
</event>
<event>
 5   0  0.5392262E-06  0.2999810E+04  0.7818609E-02  0.8243785E-01
        1   -1    0    0  501    0  0.00000000000E+00  0.00000000000E+00  0.15213704624E+04  0.15213704625E+04  0.50400001928E-02 0. -1.
       -1   -1    0    0    0  501  0.00000000000E+00  0.00000000000E+00 -0.14787428023E+04  0.14787428023E+04  0.50400001928E-02 0.  1.
    10030    2    1    2    0    0  0.00000000000E+00  0.00000000000E+00  0.42627660143E+02  0.30001132648E+04  0.29998104080E+04 0.  0.
        2    1    3    3  502    0  0.13898488219E+04  0.25573979094E+03 -0.48136305035E+03  0.14929142556E+04  0.25500000920E-02 0.  1.
       -2    1    3    3    0  502 -0.13898488219E+04 -0.25573979094E+03  0.52399071049E+03  0.15071990091E+04  0.25500000920E-02 0. -1.
</event>
<event>
 5   0  0.1423692E-05  0.1677600E+04  0.7818609E-02  0.8774244E-01
       -2   -1    0    0    0  501  0.00000000000E+00  0.00000000000E+00  0.43526852301E+03  0.43526852302E+03  0.25500000920E-02 0. -1.
        2   -1    0    0  501    0  0.00000000000E+00  0.00000000000E+00 -0.16164392342E+04  0.16164392342E+04  0.25500000920E-02 0.  1.
    10030    2    1    2    0    0  0.00000000000E+00  0.00000000000E+00 -0.11811707112E+04  0.20517077572E+04  0.16775996161E+04 0.  0.
        3    1    3    3  502    0 -0.37617882845E+03  0.70957172215E+03 -0.29457194627E+03  0.85543859019E+03  0.10100000352E+00 0. -1.
       -3    1    3    3    0  502  0.37617882845E+03 -0.70957172215E+03 -0.88659876494E+03  0.11962691671E+04  0.10100000352E+00 0.  1.
</event>
<event>
 5   0  0.1480547E-05  0.3115302E+04  0.7818609E-02  0.8211551E-01
       -2   -1    0    0    0  501  0.00000000000E+00  0.00000000000E+00  0.97101408347E+03  0.97101408347E+03  0.25500000920E-02 0. -1.
        2   -1    0    0  501    0  0.00000000000E+00  0.00000000000E+00 -0.24987043221E+04  0.24987043221E+04  0.25500000920E-02 0.  1.
    10030    2    1    2    0    0  0.00000000000E+00  0.00000000000E+00 -0.15276902387E+04  0.34697184056E+04  0.31153022885E+04 0.  0.
        1    1    3    3  502    0 -0.95050628376E+03  0.62645957591E+03 -0.19479851376E+04  0.22562269150E+04  0.50400001928E-02 0.  1.
       -1    1    3    3    0  502  0.95050628376E+03 -0.62645957591E+03  0.42029489891E+03  0.12134914906E+04  0.50400001928E-02 0. -1.
</event>
<event>
 5   0  0.5392262E-06  0.3023670E+04  0.7818609E-02  0.8237004E-01
       -1   -1    0    0    0  501  0.00000000000E+00  0.00000000000E+00  0.13139342629E+04  0.13139342629E+04  0.50400001928E-02 0.  1.
        1   -1    0    0  501    0  0.00000000000E+00  0.00000000000E+00 -0.17395432957E+04  0.17395432957E+04  0.50400001928E-02 0. -1.
    10030    2    1    2    0    0  0.00000000000E+00  0.00000000000E+00 -0.42560903283E+03  0.30534775586E+04  0.30236703114E+04 0.  0.
        2    1    3    3  502    0  0.26293192811E+03  0.55876491897E+03  0.11807607337E+04  0.13324966580E+04  0.25500000920E-02 0.  1.
       -2    1    3    3    0  502 -0.26293192811E+03 -0.55876491897E+03 -0.16063697665E+04  0.17209809006E+04  0.25500000920E-02 0. -1.
</event>
<event>
 5   0  0.5329891E-06  0.2910373E+04  0.7818609E-02  0.8269798E-01
       -1   -1    0    0    0  501  0.00000000000E+00  0.00000000000E+00  0.97181156230E+03  0.97181156231E+03  0.50400001928E-02 0.  1.
        1   -1    0    0  501    0  0.00000000000E+00  0.00000000000E+00 -0.21789895950E+04  0.21789895950E+04  0.50400001928E-02 0. -1.
    10030    2    1    2    0    0  0.00000000000E+00  0.00000000000E+00 -0.12071780327E+04  0.31508011573E+04  0.29103726790E+04 0.  0.
        4    1    3    3  502    0 -0.13762831623E+04 -0.23643122923E+03 -0.10466806393E+04  0.17451639014E+04  0.12699999809E+01 0. -1.
       -4    1    3    3    0  502  0.13762831623E+04  0.23643122923E+03 -0.16049739340E+03  0.14056372559E+04  0.12699999809E+01 0.  1.
</event>
<event>
 5   0  0.5522695E-06  0.3012260E+04  0.7818609E-02  0.8240239E-01
        1   -1    0    0  501    0  0.00000000000E+00  0.00000000000E+00  0.21317358421E+04  0.21317358421E+04  0.50400001928E-02 0.  1.
       -1   -1    0    0    0  501  0.00000000000E+00  0.00000000000E+00 -0.10641224859E+04  0.10641224859E+04  0.50400001928E-02 0. -1.
    10030    2    1    2    0    0  0.00000000000E+00  0.00000000000E+00  0.10676133563E+04  0.31958583280E+04  0.30122603098E+04 0.  0.
        3    1    3    3  502    0  0.15324307528E+03  0.66376408542E+02 -0.10542692053E+04  0.10674140879E+04  0.10100000352E+00 0. -1.
       -3    1    3    3    0  502 -0.15324307528E+03 -0.66376408542E+02  0.21218825615E+04  0.21284442400E+04  0.10100000352E+00 0.  1.
</event>
<event>
 5   0  0.5329891E-06  0.3086824E+04  0.7818609E-02  0.8219363E-01
        1   -1    0    0  501    0  0.00000000000E+00  0.00000000000E+00  0.26600636328E+04  0.26600636328E+04  0.50400001928E-02 0.  1.
       -1   -1    0    0    0  501  0.00000000000E+00  0.00000000000E+00 -0.89551245160E+03  0.89551245161E+03  0.50400001928E-02 0. -1.
    10030    2    1    2    0    0  0.00000000000E+00  0.00000000000E+00  0.17645511812E+04  0.35555760844E+04  0.30868236783E+04 0.  0.
        4    1    3    3  502    0  0.18377042589E+03  0.95808448563E+03  0.22598976817E+04  0.24614704133E+04  0.12699999809E+01 0.  1.
       -4    1    3    3    0  502 -0.18377042589E+03 -0.95808448563E+03 -0.49534650051E+03  0.10941056711E+04  0.12699999809E+01 0. -1.
</event>
<event>
 5   0  0.1345931E-05  0.2923884E+04  0.7818609E-02  0.8265807E-01
       -2   -1    0    0    0  501  0.00000000000E+00  0.00000000000E+00  0.15482981644E+04  0.15482981644E+04  0.25500000920E-02 0. -1.
        2   -1    0    0  501    0  0.00000000000E+00  0.00000000000E+00 -0.13804020693E+04  0.13804020693E+04  0.25500000920E-02 0.  1.
    10030    2    1    2    0    0  0.00000000000E+00  0.00000000000E+00  0.16789609511E+03  0.29287002336E+04  0.29238837117E+04 0.  0.
        2    1    3    3  502    0 -0.14120349025E+04  0.32032195506E+03  0.28633352931E+03  0.14759524419E+04  0.25500000920E-02 0. -1.
       -2    1    3    3    0  502  0.14120349025E+04 -0.32032195506E+03 -0.11843743420E+03  0.14527477918E+04  0.25500000920E-02 0.  1.
</event>
<event>
 5   0  0.1480547E-05  0.1621774E+04  0.7818609E-02  0.8807282E-01
       -2   -1    0    0    0  501  0.00000000000E+00  0.00000000000E+00  0.71407706896E+03  0.71407706897E+03  0.25500000920E-02 0. -1.
        2   -1    0    0  501    0  0.00000000000E+00  0.00000000000E+00 -0.92082175337E+03  0.92082175337E+03  0.25500000920E-02 0.  1.
    10030    2    1    2    0    0  0.00000000000E+00  0.00000000000E+00 -0.20674468440E+03  0.16348988223E+04  0.16217739654E+04 0.  0.
        1    1    3    3  502    0  0.30542084517E+01 -0.65024900699E+03  0.38501157829E+03  0.75568976089E+03  0.50400001928E-02 0. -1.
       -1    1    3    3    0  502 -0.30542084517E+01  0.65024900699E+03 -0.59175626269E+03  0.87920906145E+03  0.50400001928E-02 0.  1.
</event>
<event>
 5   0  0.5730920E-06  0.2934238E+04  0.7818609E-02  0.8262763E-01
       -1   -1    0    0    0  501  0.00000000000E+00  0.00000000000E+00  0.13267833205E+04  0.13267833205E+04  0.50400001928E-02 0. -1.
        1   -1    0    0  501    0  0.00000000000E+00  0.00000000000E+00 -0.16222982818E+04  0.16222982818E+04  0.50400001928E-02 0.  1.
    10030    2    1    2    0    0  0.00000000000E+00  0.00000000000E+00 -0.29551496132E+03  0.29490816023E+04  0.29342380961E+04 0.  0.
        1    1    3    3  502    0 -0.90621353326E+03  0.11160775140E+04  0.14627384700E+03  0.14450771687E+04  0.50400001928E-02 0. -1.
       -1    1    3    3    0  502  0.90621353326E+03 -0.11160775140E+04 -0.44178880832E+03  0.15040044336E+04  0.50400001928E-02 0.  1.
</event>
<event>
 5   0  0.1345931E-05  0.2315117E+04  0.7818609E-02  0.8471984E-01
        2   -1    0    0  501    0  0.00000000000E+00  0.00000000000E+00  0.96541214151E+03  0.96541214152E+03  0.25500000920E-02 0. -1.
       -2   -1    0    0    0  501  0.00000000000E+00  0.00000000000E+00 -0.13879480878E+04  0.13879480878E+04  0.25500000920E-02 0.  1.
    10030    2    1    2    0    0  0.00000000000E+00  0.00000000000E+00 -0.42253594626E+03  0.23533602293E+04  0.23151172201E+04 0.  0.
        2    1    3    3  502    0 -0.49325602921E+02  0.56892691136E+02 -0.13854559628E+04  0.13875006372E+04  0.25500000920E-02 0.  1.
       -2    1    3    3    0  502  0.49325602921E+02 -0.56892691136E+02  0.96292001652E+03  0.96585959209E+03  0.25500000920E-02 0. -1.
</event>
<event>
 5   0  0.5522695E-06  0.3030235E+04  0.7818609E-02  0.8235149E-01
       -1   -1    0    0    0  501  0.00000000000E+00  0.00000000000E+00  0.15048279182E+04  0.15048279182E+04  0.50400001928E-02 0.  1.
        1   -1    0    0  501    0  0.00000000000E+00  0.00000000000E+00 -0.15254776361E+04  0.15254776361E+04  0.50400001928E-02 0. -1.
    10030    2    1    2    0    0  0.00000000000E+00  0.00000000000E+00 -0.20649717888E+02  0.30303055544E+04  0.30302351958E+04 0.  0.
        3    1    3    3  502    0 -0.13704268554E+03 -0.59989441753E+03 -0.13948884487E+04  0.15245877490E+04  0.10100000352E+00 0. -1.
       -3    1    3    3    0  502  0.13704268554E+03  0.59989441753E+03  0.13742387308E+04  0.15057178054E+04  0.10100000352E+00 0.  1.
</event>
<event>
 5   0  0.1480547E-05  0.2963212E+04  0.7818609E-02  0.8254314E-01
       -2   -1    0    0    0  501  0.00000000000E+00  0.00000000000E+00  0.10599914114E+04  0.10599914114E+04  0.25500000920E-02 0.  1.
        2   -1    0    0  501    0  0.00000000000E+00  0.00000000000E+00 -0.20709195603E+04  0.20709195603E+04  0.25500000920E-02 0. -1.
    10030    2    1    2    0    0  0.00000000000E+00  0.00000000000E+00 -0.10109281489E+04  0.31309109716E+04  0.29632124106E+04 0.  0.
        1    1    3    3  502    0 -0.14036153541E+04  0.12238580165E+03 -0.98970515288E+03  0.17218102789E+04  0.50400001928E-02 0. -1.
       -1    1    3    3    0  502  0.14036153541E+04 -0.12238580165E+03 -0.21222996018E+02  0.14091006928E+04  0.50400001928E-02 0.  1.
</event>
<event>
 5   0  0.5522695E-06  0.2004312E+04  0.7818609E-02  0.8604607E-01
       -1   -1    0    0    0  501  0.00000000000E+00  0.00000000000E+00  0.84639827384E+03  0.84639827385E+03  0.50400001928E-02 0. -1.
        1   -1    0    0  501    0  0.00000000000E+00  0.00000000000E+00 -0.11865765131E+04  0.11865765131E+04  0.50400001928E-02 0.  1.
    10030    2    1    2    0    0  0.00000000000E+00  0.00000000000E+00 -0.34017823929E+03  0.20329747870E+04  0.20043116649E+04 0.  0.
        3    1    3    3  502    0 -0.53889908208E+03 -0.68674944134E+03  0.32916870658E+03  0.93294644190E+03  0.10100000352E+00 0. -1.
       -3    1    3    3    0  502  0.53889908208E+03  0.68674944134E+03 -0.66934694587E+03  0.11000283451E+04  0.10100000352E+00 0.  1.
</event>
<event>
 5   0  0.1523029E-05  0.3046202E+04  0.7818609E-02  0.8230659E-01
        2   -1    0    0  501    0  0.00000000000E+00  0.00000000000E+00  0.17655715633E+04  0.17655715633E+04  0.25500000920E-02 0. -1.
       -2   -1    0    0    0  501  0.00000000000E+00  0.00000000000E+00 -0.13139291585E+04  0.13139291585E+04  0.25500000920E-02 0.  1.
    10030    2    1    2    0    0  0.00000000000E+00  0.00000000000E+00  0.45164240483E+03  0.30795007218E+04  0.30462015419E+04 0.  0.
        5    1    3    3  502    0 -0.10814513737E+03 -0.12383233634E+04  0.11155980384E+04  0.16702458491E+04  0.46999998093E+01 0. -1.
       -5    1    3    3    0  502  0.10814513737E+03  0.12383233634E+04 -0.66395563357E+03  0.14092548728E+04  0.46999998093E+01 0.  1.
</event>
<event>
 5   0  0.1480547E-05  0.2925420E+04  0.7818609E-02  0.8265354E-01
       -2   -1    0    0    0  501  0.00000000000E+00  0.00000000000E+00  0.11135128378E+04  0.11135128378E+04  0.25500000920E-02 0.  1.
        2   -1    0    0  501    0  0.00000000000E+00  0.00000000000E+00 -0.19214152963E+04  0.19214152963E+04  0.25500000920E-02 0. -1.
    10030    2    1    2    0    0  0.00000000000E+00  0.00000000000E+00 -0.80790245851E+03  0.30349281341E+04  0.29254200377E+04 0.  0.
        1    1    3    3  502    0 -0.60825312521E+03 -0.52108017656E+03  0.86580277837E+03  0.11794536302E+04  0.50400001928E-02 0.  1.
       -1    1    3    3    0  502  0.60825312521E+03  0.52108017656E+03 -0.16737052369E+04  0.18554745039E+04  0.50400001928E-02 0. -1.
</event>
<event>
 5   0  0.5392262E-06  0.2183846E+04  0.7818609E-02  0.8525182E-01
       -1   -1    0    0    0  501  0.00000000000E+00  0.00000000000E+00  0.94927956824E+03  0.94927956826E+03  0.50400001928E-02 0.  1.
        1   -1    0    0  501    0  0.00000000000E+00  0.00000000000E+00 -0.12560003227E+04  0.12560003227E+04  0.50400001928E-02 0. -1.
    10030    2    1    2    0    0  0.00000000000E+00  0.00000000000E+00 -0.30672075443E+03  0.22052798909E+04  0.21838456393E+04 0.  0.
        2    1    3    3  502    0  0.10916686698E+04  0.22934486330E+02 -0.14792529274E+03  0.11018840082E+04  0.25500000920E-02 0.  1.
       -2    1    3    3    0  502 -0.10916686698E+04 -0.22934486330E+02 -0.15879546169E+03  0.11033958827E+04  0.25500000920E-02 0. -1.
</event>
<event>
 5   0  0.1345931E-05  0.2939842E+04  0.7818609E-02  0.8261121E-01
        2   -1    0    0  501    0  0.00000000000E+00  0.00000000000E+00  0.18755027756E+04  0.18755027756E+04  0.25500000920E-02 0. -1.
       -2   -1    0    0    0  501  0.00000000000E+00  0.00000000000E+00 -0.11520472128E+04  0.11520472128E+04  0.25500000920E-02 0.  1.
    10030    2    1    2    0    0  0.00000000000E+00  0.00000000000E+00  0.72345556279E+03  0.30275499884E+04  0.29398419994E+04 0.  0.
        2    1    3    3  502    0  0.11251837588E+04  0.39703290000E+03 -0.52236805867E+03  0.13025137249E+04  0.25500000920E-02 0.  1.
       -2    1    3    3    0  502 -0.11251837588E+04 -0.39703290000E+03  0.12458236215E+04  0.17250362636E+04  0.25500000920E-02 0. -1.
</event>
<event>
 5   0  0.1480547E-05  0.2586536E+04  0.7818609E-02  0.8372789E-01
       -2   -1    0    0    0  501  0.00000000000E+00  0.00000000000E+00  0.71745675413E+03  0.71745675414E+03  0.25500000920E-02 0. -1.
        2   -1    0    0  501    0  0.00000000000E+00  0.00000000000E+00 -0.23312090111E+04  0.23312090111E+04  0.25500000920E-02 0.  1.
    10030    2    1    2    0    0  0.00000000000E+00  0.00000000000E+00 -0.16137522570E+04  0.30486657653E+04  0.25865356370E+04 0.  0.
        1    1    3    3  502    0  0.29569151805E+03  0.23172759316E+03  0.65172705658E+03  0.75224949823E+03  0.50400001928E-02 0. -1.
       -1    1    3    3    0  502 -0.29569151805E+03 -0.23172759316E+03 -0.22654793136E+04  0.22964162670E+04  0.50400001928E-02 0.  1.
</event>
<event>
 5   0  0.5392262E-06  0.2965510E+04  0.7818609E-02  0.8253649E-01
        1   -1    0    0  501    0  0.00000000000E+00  0.00000000000E+00  0.16854150052E+04  0.16854150052E+04  0.50400001928E-02 0. -1.
       -1   -1    0    0    0  501  0.00000000000E+00  0.00000000000E+00 -0.13044635823E+04  0.13044635823E+04  0.50400001928E-02 0.  1.
    10030    2    1    2    0    0  0.00000000000E+00  0.00000000000E+00  0.38095142294E+03  0.29898785875E+04  0.29655100710E+04 0.  0.
        2    1    3    3  502    0  0.10235772350E+04 -0.75646829239E+02 -0.88842502194E+03  0.13574725848E+04  0.25500000920E-02 0.  1.
       -2    1    3    3    0  502 -0.10235772350E+04  0.75646829239E+02  0.12693764449E+04  0.16324060027E+04  0.25500000920E-02 0. -1.
</event>
<event>
 5   0  0.5329891E-06  0.2155136E+04  0.7818609E-02  0.8537337E-01
        1   -1    0    0  501    0  0.00000000000E+00  0.00000000000E+00  0.97413138566E+03  0.97413138567E+03  0.50400001928E-02 0.  1.
       -1   -1    0    0    0  501  0.00000000000E+00  0.00000000000E+00 -0.11919873573E+04  0.11919873573E+04  0.50400001928E-02 0. -1.
    10030    2    1    2    0    0  0.00000000000E+00  0.00000000000E+00 -0.21785597168E+03  0.21661187430E+04  0.21551355374E+04 0.  0.
        4    1    3    3  502    0  0.22176241188E+03  0.54156454013E+03 -0.10183485136E+04  0.11745237445E+04  0.12699999809E+01 0. -1.
       -4    1    3    3    0  502 -0.22176241188E+03 -0.54156454013E+03  0.80049254191E+03  0.99159499848E+03  0.12699999809E+01 0.  1.
</event>
<event>
 5   0  0.1523029E-05  0.2993756E+04  0.7818609E-02  0.8245516E-01
        2   -1    0    0  501    0  0.00000000000E+00  0.00000000000E+00  0.11221148268E+04  0.11221148268E+04  0.25500000920E-02 0.  1.
       -2   -1    0    0    0  501  0.00000000000E+00  0.00000000000E+00 -0.19968041312E+04  0.19968041312E+04  0.25500000920E-02 0. -1.
    10030    2    1    2    0    0  0.00000000000E+00  0.00000000000E+00 -0.87468930442E+03  0.31189189580E+04  0.29937558496E+04 0.  0.
        5    1    3    3  502    0  0.12160711432E+03  0.78961247625E+03  0.88141534033E+03  0.11896181089E+04  0.46999998093E+01 0.  1.
       -5    1    3    3    0  502 -0.12160711432E+03 -0.78961247625E+03 -0.17561046447E+04  0.19293008491E+04  0.46999998093E+01 0. -1.
</event>
<event>
 5   0  0.5522695E-06  0.2527159E+04  0.7818609E-02  0.8393373E-01
       -1   -1    0    0    0  501  0.00000000000E+00  0.00000000000E+00  0.12678621450E+04  0.12678621450E+04  0.50400001928E-02 0.  1.
        1   -1    0    0  501    0  0.00000000000E+00  0.00000000000E+00 -0.12593112826E+04  0.12593112826E+04  0.50400001928E-02 0. -1.
    10030    2    1    2    0    0  0.00000000000E+00  0.00000000000E+00  0.85508624264E+01  0.25271734276E+04  0.25271589613E+04 0.  0.
        3    1    3    3  502    0 -0.50444214291E+03  0.10810544006E+04 -0.41225138366E+03  0.12621773671E+04  0.10100000352E+00 0. -1.
       -3    1    3    3    0  502  0.50444214291E+03 -0.10810544006E+04  0.42080224609E+03  0.12649960605E+04  0.10100000352E+00 0.  1.
</event>
<event>
 5   0  0.5522695E-06  0.2949279E+04  0.7818609E-02  0.8258365E-01
        1   -1    0    0  501    0  0.00000000000E+00  0.00000000000E+00  0.12845442582E+04  0.12845442582E+04  0.50400001928E-02 0.  1.
       -1   -1    0    0    0  501  0.00000000000E+00  0.00000000000E+00 -0.16928658705E+04  0.16928658705E+04  0.50400001928E-02 0. -1.
    10030    2    1    2    0    0  0.00000000000E+00  0.00000000000E+00 -0.40832161230E+03  0.29774101288E+04  0.29492786467E+04 0.  0.
        3    1    3    3  502    0 -0.59367168731E+03 -0.13437097302E+04 -0.74250773318E+02  0.14708892205E+04  0.10100000352E+00 0.  1.
       -3    1    3    3    0  502  0.59367168731E+03  0.13437097302E+04 -0.33407083898E+03  0.15065209083E+04  0.10100000352E+00 0. -1.
</event>
<event>
 5   0  0.1423692E-05  0.2988568E+04  0.7818609E-02  0.8247003E-01
        2   -1    0    0  501    0  0.00000000000E+00  0.00000000000E+00  0.14979118440E+04  0.14979118440E+04  0.25500000920E-02 0. -1.
       -2   -1    0    0    0  501  0.00000000000E+00  0.00000000000E+00 -0.14906651914E+04  0.14906651914E+04  0.25500000920E-02 0.  1.
    10030    2    1    2    0    0  0.00000000000E+00  0.00000000000E+00  0.72466526635E+01  0.29885770354E+04  0.29885682496E+04 0.  0.
        3    1    3    3  502    0 -0.74758669861E+03 -0.10395414984E+04 -0.76667280203E+03  0.14924207163E+04  0.10100000352E+00 0. -1.
       -3    1    3    3    0  502  0.74758669861E+03  0.10395414984E+04  0.77391945469E+03  0.14961563191E+04  0.10100000352E+00 0.  1.
</event>
<event>
 5   0  0.1523029E-05  0.3077602E+04  0.7818609E-02  0.8221912E-01
        2   -1    0    0  501    0  0.00000000000E+00  0.00000000000E+00  0.18660343318E+04  0.18660343318E+04  0.25500000920E-02 0. -1.
       -2   -1    0    0    0  501  0.00000000000E+00  0.00000000000E+00 -0.12689521421E+04  0.12689521421E+04  0.25500000920E-02 0.  1.
    10030    2    1    2    0    0  0.00000000000E+00  0.00000000000E+00  0.59708218969E+03  0.31349864740E+04  0.30776018343E+04 0.  0.
        5    1    3    3  502    0 -0.10294337196E+04 -0.30914780555E+03  0.14202455478E+04  0.17811304429E+04  0.46999998093E+01 0. -1.
       -5    1    3    3    0  502  0.10294337196E+04  0.30914780555E+03 -0.82316335812E+03  0.13538560310E+04  0.46999998093E+01 0.  1.
</event>
<event>
 5   0  0.7032692E-06  0.2947467E+04  0.7818609E-02  0.8258893E-01
       -1   -1    0    0    0  501  0.00000000000E+00  0.00000000000E+00  0.97001493317E+03  0.97001493319E+03  0.50400001928E-02 0.  1.
        1   -1    0    0  501    0  0.00000000000E+00  0.00000000000E+00 -0.22390277859E+04  0.22390277859E+04  0.50400001928E-02 0. -1.
    10030    2    1    2    0    0  0.00000000000E+00  0.00000000000E+00 -0.12690128527E+04  0.32090427191E+04  0.29474669723E+04 0.  0.
        5    1    3    3  502    0 -0.71449256537E+03 -0.11408790656E+04  0.18526650654E+02  0.13462800582E+04  0.46999998093E+01 0.  1.
       -5    1    3    3    0  502  0.71449256537E+03  0.11408790656E+04 -0.12875395034E+04  0.18627626609E+04  0.46999998093E+01 0. -1.
</event>
<event>
 5   0  0.5392262E-06  0.2763889E+04  0.7818609E-02  0.8314568E-01
        1   -1    0    0  501    0  0.00000000000E+00  0.00000000000E+00  0.27899654925E+04  0.27899654925E+04  0.50400001928E-02 0. -1.
       -1   -1    0    0    0  501  0.00000000000E+00  0.00000000000E+00 -0.68451406907E+03  0.68451406909E+03  0.50400001928E-02 0.  1.
    10030    2    1    2    0    0  0.00000000000E+00  0.00000000000E+00  0.21054514234E+04  0.34744795616E+04  0.27638890223E+04 0.  0.
        2    1    3    3  502    0 -0.61112576116E+03  0.10951461206E+03 -0.49932082587E+03  0.79673674031E+03  0.25500000920E-02 0.  1.
       -2    1    3    3    0  502  0.61112576116E+03 -0.10951461206E+03  0.26047722493E+04  0.26777428213E+04  0.25500000920E-02 0. -1.
</event>
<event>
 5   0  0.1388724E-05  0.2424760E+04  0.7818609E-02  0.8430292E-01
        2   -1    0    0  501    0  0.00000000000E+00  0.00000000000E+00  0.97872662553E+03  0.97872662553E+03  0.25500000920E-02 0.  1.
       -2   -1    0    0    0  501  0.00000000000E+00  0.00000000000E+00 -0.15018138567E+04  0.15018138567E+04  0.25500000920E-02 0. -1.
    10030    2    1    2    0    0  0.00000000000E+00  0.00000000000E+00 -0.52308723112E+03  0.24805404822E+04  0.24247599536E+04 0.  0.
        4    1    3    3  502    0 -0.92055307368E+03 -0.66590864834E+03  0.17128682689E+03  0.11489965532E+04  0.12699999809E+01 0.  1.
       -4    1    3    3    0  502  0.92055307368E+03  0.66590864834E+03 -0.69437405802E+03  0.13315439290E+04  0.12699999809E+01 0. -1.
</event>
<event>
 5   0  0.1523029E-05  0.3411657E+04  0.7818609E-02  0.8135051E-01
       -2   -1    0    0    0  501  0.00000000000E+00  0.00000000000E+00  0.33909094739E+04  0.33909094739E+04  0.25500000920E-02 0.  1.
        2   -1    0    0  501    0  0.00000000000E+00  0.00000000000E+00 -0.85813279453E+03  0.85813279454E+03  0.25500000920E-02 0. -1.
    10030    2    1    2    0    0  0.00000000000E+00  0.00000000000E+00  0.25327766794E+04  0.42490422684E+04  0.34116568543E+04 0.  0.
        5    1    3    3  502    0  0.37486216294E+03  0.16384392485E+04  0.16291190844E+04  0.23407383222E+04  0.46999998093E+01 0. -1.
       -5    1    3    3    0  502 -0.37486216294E+03 -0.16384392485E+04  0.90365759500E+03  0.19083039462E+04  0.46999998093E+01 0.  1.
</event>
<event>
 5   0  0.5730920E-06  0.1598819E+04  0.7818609E-02  0.8821274E-01
        1   -1    0    0  501    0  0.00000000000E+00  0.00000000000E+00  0.84521800103E+03  0.84521800104E+03  0.50400001928E-02 0. -1.
       -1   -1    0    0    0  501  0.00000000000E+00  0.00000000000E+00 -0.75608416280E+03  0.75608416282E+03  0.50400001928E-02 0.  1.
    10030    2    1    2    0    0  0.00000000000E+00  0.00000000000E+00  0.89133838226E+02  0.16013021639E+04  0.15988194954E+04 0.  0.
        1    1    3    3  502    0 -0.25659824959E+03  0.35968667516E+03 -0.62267984677E+03  0.76350989357E+03  0.50400001928E-02 0.  1.
       -1    1    3    3    0  502  0.25659824959E+03 -0.35968667516E+03  0.71181368500E+03  0.83779227029E+03  0.50400001928E-02 0. -1.
</event>
<event>
 5   0  0.1345931E-05  0.2208465E+04  0.7818609E-02  0.8514913E-01
        2   -1    0    0  501    0  0.00000000000E+00  0.00000000000E+00  0.83992201381E+03  0.83992201382E+03  0.25500000920E-02 0. -1.
       -2   -1    0    0    0  501  0.00000000000E+00  0.00000000000E+00 -0.14517175411E+04  0.14517175411E+04  0.25500000920E-02 0.  1.
    10030    2    1    2    0    0  0.00000000000E+00  0.00000000000E+00 -0.61179552729E+03  0.22916395549E+04  0.22084650965E+04 0.  0.
        2    1    3    3  502    0 -0.57714821308E+02 -0.40649738269E+03 -0.13695684844E+04  0.14297863324E+04  0.25500000920E-02 0.  1.
       -2    1    3    3    0  502  0.57714821308E+02  0.40649738269E+03  0.75777295710E+03  0.86185322257E+03  0.25500000920E-02 0. -1.
</event>
<event>
 5   0  0.5392262E-06  0.1756706E+04  0.7818609E-02  0.8729667E-01
        1   -1    0    0  501    0  0.00000000000E+00  0.00000000000E+00  0.96225044161E+03  0.96225044163E+03  0.50400001928E-02 0. -1.
       -1   -1    0    0    0  501  0.00000000000E+00  0.00000000000E+00 -0.80177089127E+03  0.80177089128E+03  0.50400001928E-02 0.  1.
    10030    2    1    2    0    0  0.00000000000E+00  0.00000000000E+00  0.16047955035E+03  0.17640213329E+04  0.17567064572E+04 0.  0.
        2    1    3    3  502    0 -0.25892046557E+03  0.39556916263E+03  0.82358542297E+03  0.94963557160E+03  0.25500000920E-02 0. -1.
       -2    1    3    3    0  502  0.25892046557E+03 -0.39556916263E+03 -0.66310587262E+03  0.81438576131E+03  0.25500000920E-02 0.  1.
</event>
<event>
 5   0  0.1480547E-05  0.2882991E+04  0.7818609E-02  0.8277956E-01
       -2   -1    0    0    0  501  0.00000000000E+00  0.00000000000E+00  0.14975643318E+04  0.14975643318E+04  0.25500000920E-02 0. -1.
        2   -1    0    0  501    0  0.00000000000E+00  0.00000000000E+00 -0.13875260804E+04  0.13875260804E+04  0.25500000920E-02 0.  1.
    10030    2    1    2    0    0  0.00000000000E+00  0.00000000000E+00  0.11003825133E+03  0.28850904122E+04  0.28829912018E+04 0.  0.
        1    1    3    3  502    0 -0.32893106131E+03 -0.75241733571E+03 -0.11305722118E+04  0.13973263814E+04  0.50400001928E-02 0.  1.
       -1    1    3    3    0  502  0.32893106131E+03  0.75241733571E+03  0.12406104631E+04  0.14877640308E+04  0.50400001928E-02 0. -1.
</event>
<event>
 5   0  0.5522695E-06  0.2978899E+04  0.7818609E-02  0.8249782E-01
       -1   -1    0    0    0  501  0.00000000000E+00  0.00000000000E+00  0.21969671208E+04  0.21969671208E+04  0.50400001928E-02 0.  1.
        1   -1    0    0  501    0  0.00000000000E+00  0.00000000000E+00 -0.10097830308E+04  0.10097830308E+04  0.50400001928E-02 0. -1.
    10030    2    1    2    0    0  0.00000000000E+00  0.00000000000E+00  0.11871840900E+04  0.32067501516E+04  0.29788992046E+04 0.  0.
        3    1    3    3  502    0 -0.70227928796E+03  0.91198215488E+03  0.16111738724E+04  0.19800982063E+04  0.10100000352E+00 0.  1.
       -3    1    3    3    0  502  0.70227928796E+03 -0.91198215488E+03 -0.42398978244E+03  0.12266519453E+04  0.10100000352E+00 0. -1.
</event>
<event>
 5   0  0.5522695E-06  0.2224314E+04  0.7818609E-02  0.8508376E-01
       -1   -1    0    0    0  501  0.00000000000E+00  0.00000000000E+00  0.80010798720E+03  0.80010798721E+03  0.50400001928E-02 0.  1.
        1   -1    0    0  501    0  0.00000000000E+00  0.00000000000E+00 -0.15459076944E+04  0.15459076944E+04  0.50400001928E-02 0. -1.
    10030    2    1    2    0    0  0.00000000000E+00  0.00000000000E+00 -0.74579970716E+03  0.23460156816E+04  0.22243139111E+04 0.  0.
        3    1    3    3  502    0  0.61174551546E+03 -0.69382772850E+02  0.60397658389E+03  0.86245827084E+03  0.10100000352E+00 0.  1.
       -3    1    3    3    0  502 -0.61174551546E+03  0.69382772850E+02 -0.13497762911E+04  0.14835574107E+04  0.10100000352E+00 0. -1.
</event>
<event>
 5   0  0.1388724E-05  0.3089340E+04  0.7818609E-02  0.8218670E-01
        2   -1    0    0  501    0  0.00000000000E+00  0.00000000000E+00  0.24316202944E+04  0.24316202944E+04  0.25500000920E-02 0.  1.
       -2   -1    0    0    0  501  0.00000000000E+00  0.00000000000E+00 -0.98124075468E+03  0.98124075468E+03  0.25500000920E-02 0. -1.
    10030    2    1    2    0    0  0.00000000000E+00  0.00000000000E+00  0.14503795397E+04  0.34128610491E+04  0.30893396917E+04 0.  0.
        4    1    3    3  502    0  0.10989214251E+04 -0.90154940186E+03  0.57236080614E+02  0.14225671177E+04  0.12699999809E+01 0.  1.
       -4    1    3    3    0  502 -0.10989214251E+04  0.90154940186E+03  0.13931434591E+04  0.19902939313E+04  0.12699999809E+01 0. -1.
</event>
<event>
 5   0  0.1480547E-05  0.2673934E+04  0.7818609E-02  0.8343512E-01
        2   -1    0    0  501    0  0.00000000000E+00  0.00000000000E+00  0.14943976071E+04  0.14943976071E+04  0.25500000920E-02 0.  1.
       -2   -1    0    0    0  501  0.00000000000E+00  0.00000000000E+00 -0.11961214019E+04  0.11961214019E+04  0.25500000920E-02 0. -1.
    10030    2    1    2    0    0  0.00000000000E+00  0.00000000000E+00  0.29827620514E+03  0.26905190090E+04  0.26739341509E+04 0.  0.
        1    1    3    3  502    0  0.24464018552E+03 -0.12867838518E+04  0.41879182609E+03  0.13751538443E+04  0.50400001928E-02 0.  1.
       -1    1    3    3    0  502 -0.24464018552E+03  0.12867838518E+04 -0.12051562096E+03  0.13153651648E+04  0.50400001928E-02 0. -1.
</event>
<event>
 5   0  0.4806125E-06  0.1678392E+04  0.7818609E-02  0.8773785E-01
        4   -1    0    0  501    0  0.00000000000E+00  0.00000000000E+00  0.11500558721E+04  0.11500565734E+04  0.12699999809E+01 0. -1.
       -4   -1    0    0    0  501  0.00000000000E+00  0.00000000000E+00 -0.61236019207E+03  0.61236150903E+03  0.12699999809E+01 0.  1.
    10030    2    1    2    0    0  0.00000000000E+00  0.00000000000E+00  0.53769568007E+03  0.17624180824E+04  0.16783923417E+04 0.  0.
        1    1    3    3  502    0 -0.19382275913E+03 -0.17108052014E+03 -0.56950412839E+03  0.62543645449E+03  0.50400001928E-02 0.  1.
       -1    1    3    3    0  502  0.19382275913E+03  0.17108052014E+03  0.11071998085E+04  0.11369816279E+04  0.50400001928E-02 0. -1.
</event>
<event>
 5   0  0.5329891E-06  0.1682170E+04  0.7818609E-02  0.8771600E-01
       -1   -1    0    0    0  501  0.00000000000E+00  0.00000000000E+00  0.16631706421E+04  0.16631706421E+04  0.50400001928E-02 0. -1.
        1   -1    0    0  501    0  0.00000000000E+00  0.00000000000E+00 -0.42534640103E+03  0.42534640106E+03  0.50400001928E-02 0.  1.
    10030    2    1    2    0    0  0.00000000000E+00  0.00000000000E+00  0.12378242410E+04  0.20885170431E+04  0.16821696073E+04 0.  0.
        4    1    3    3  502    0  0.45501242696E+03  0.36835250855E+03 -0.13087401621E+03  0.59987457044E+03  0.12699999809E+01 0.  1.
       -4    1    3    3    0  502 -0.45501242696E+03 -0.36835250855E+03  0.13686982572E+04  0.14886424727E+04  0.12699999809E+01 0. -1.
</event>
<event>
 5   0  0.7032692E-06  0.2948119E+04  0.7818609E-02  0.8258703E-01
       -1   -1    0    0    0  501  0.00000000000E+00  0.00000000000E+00  0.13709020972E+04  0.13709020972E+04  0.50400001928E-02 0.  1.
        1   -1    0    0  501    0  0.00000000000E+00  0.00000000000E+00 -0.15849793173E+04  0.15849793173E+04  0.50400001928E-02 0. -1.
    10030    2    1    2    0    0  0.00000000000E+00  0.00000000000E+00 -0.21407722009E+03  0.29558814146E+04  0.29481190412E+04 0.  0.
        5    1    3    3  502    0 -0.97152677850E+03 -0.10827397415E+04  0.13157909185E+03  0.14606590213E+04  0.46999998093E+01 0. -1.
       -5    1    3    3    0  502  0.97152677850E+03  0.10827397415E+04 -0.34565631194E+03  0.14952223932E+04  0.46999998093E+01 0.  1.
</event>
<event>
 5   0  0.1345931E-05  0.3013411E+04  0.7818609E-02  0.8239912E-01
       -2   -1    0    0    0  501  0.00000000000E+00  0.00000000000E+00  0.12638795177E+04  0.12638795177E+04  0.25500000920E-02 0.  1.
        2   -1    0    0  501    0  0.00000000000E+00  0.00000000000E+00 -0.17961848390E+04  0.17961848390E+04  0.25500000920E-02 0. -1.
    10030    2    1    2    0    0  0.00000000000E+00  0.00000000000E+00 -0.53230532127E+03  0.30600643568E+04  0.30134108436E+04 0.  0.
        2    1    3    3  502    0 -0.10730020012E+04  0.83128699300E+02 -0.13369530160E+04  0.17163003939E+04  0.25500000920E-02 0. -1.
       -2    1    3    3    0  502  0.10730020012E+04 -0.83128699300E+02  0.80464769469E+03  0.13437639628E+04  0.25500000920E-02 0.  1.
</event>
<event>
 5   0  0.5329891E-06  0.1798544E+04  0.7818609E-02  0.8707074E-01
       -1   -1    0    0    0  501  0.00000000000E+00  0.00000000000E+00  0.47020342757E+03  0.47020342760E+03  0.50400001928E-02 0.  1.
        1   -1    0    0  501    0  0.00000000000E+00  0.00000000000E+00 -0.17198721933E+04  0.17198721934E+04  0.50400001928E-02 0. -1.
    10030    2    1    2    0    0  0.00000000000E+00  0.00000000000E+00 -0.12496687658E+04  0.21900756210E+04  0.17985436334E+04 0.  0.
        4    1    3    3  502    0  0.38378068698E+03  0.75188848628E+02 -0.16109012305E+04  0.16576927840E+04  0.12699999809E+01 0. -1.
       -4    1    3    3    0  502 -0.38378068698E+03 -0.75188848628E+02  0.36123246472E+03  0.53238283700E+03  0.12699999809E+01 0.  1.
</event>
<event>
 5   0  0.1523029E-05  0.2148551E+04  0.7818609E-02  0.8540153E-01
       -2   -1    0    0    0  501  0.00000000000E+00  0.00000000000E+00  0.12270472211E+04  0.12270472211E+04  0.25500000920E-02 0.  1.
        2   -1    0    0  501    0  0.00000000000E+00  0.00000000000E+00 -0.94052457868E+03  0.94052457868E+03  0.25500000920E-02 0. -1.
    10030    2    1    2    0    0  0.00000000000E+00  0.00000000000E+00  0.28652264245E+03  0.21675717998E+04  0.21485512055E+04 0.  0.
        5    1    3    3  502    0 -0.60859293521E+03 -0.49946804891E+03  0.88061625520E+03  0.11812538980E+04  0.46999998093E+01 0.  1.
       -5    1    3    3    0  502  0.60859293521E+03  0.49946804891E+03 -0.59409361275E+03  0.98631790178E+03  0.46999998093E+01 0. -1.
</event>
<event>
 5   0  0.7032692E-06  0.2965334E+04  0.7818609E-02  0.8253700E-01
       -1   -1    0    0    0  501  0.00000000000E+00  0.00000000000E+00  0.15186143169E+04  0.15186143169E+04  0.50400001928E-02 0.  1.
        1   -1    0    0  501    0  0.00000000000E+00  0.00000000000E+00 -0.14475710266E+04  0.14475710266E+04  0.50400001928E-02 0. -1.
    10030    2    1    2    0    0  0.00000000000E+00  0.00000000000E+00  0.71043290264E+02  0.29661853435E+04  0.29653344403E+04 0.  0.
        5    1    3    3  502    0  0.46635521243E+03 -0.45067295618E+03  0.13692034136E+04  0.15150357670E+04  0.46999998093E+01 0.  1.
       -5    1    3    3    0  502 -0.46635521243E+03  0.45067295618E+03 -0.12981601233E+04  0.14511495765E+04  0.46999998093E+01 0. -1.
</event>
<event>
 5   0  0.5730920E-06  0.1500694E+04  0.7818609E-02  0.8883992E-01
       -1   -1    0    0    0  501  0.00000000000E+00  0.00000000000E+00  0.44137817867E+03  0.44137817870E+03  0.50400001928E-02 0.  1.
        1   -1    0    0  501    0  0.00000000000E+00  0.00000000000E+00 -0.12755969366E+04  0.12755969366E+04  0.50400001928E-02 0. -1.
    10030    2    1    2    0    0  0.00000000000E+00  0.00000000000E+00 -0.83421875794E+03  0.17169751153E+04  0.15006940429E+04 0.  0.
        1    1    3    3  502    0 -0.54729012009E+03 -0.72109562747E+02  0.16436331820E+03  0.57597010771E+03  0.50400001928E-02 0.  1.
       -1    1    3    3    0  502  0.54729012009E+03  0.72109562747E+02 -0.99858207614E+03  0.11410050076E+04  0.50400001928E-02 0. -1.
</event>
<event>
 5   0  0.1345931E-05  0.3019310E+04  0.7818609E-02  0.8238238E-01
        2   -1    0    0  501    0  0.00000000000E+00  0.00000000000E+00  0.20744493788E+04  0.20744493788E+04  0.25500000920E-02 0.  1.
       -2   -1    0    0    0  501  0.00000000000E+00  0.00000000000E+00 -0.10986327426E+04  0.10986327426E+04  0.25500000920E-02 0. -1.
    10030    2    1    2    0    0  0.00000000000E+00  0.00000000000E+00  0.97581663623E+03  0.31730821215E+04  0.30193098619E+04 0.  0.
        2    1    3    3  502    0 -0.14828390311E+04  0.17507013742E+03  0.25386257773E+03  0.15145650707E+04  0.25500000920E-02 0. -1.
       -2    1    3    3    0  502  0.14828390311E+04 -0.17507013742E+03  0.72195405849E+03  0.16585170508E+04  0.25500000920E-02 0.  1.
</event>
<event>
 5   0  0.7032692E-06  0.2692475E+04  0.7818609E-02  0.8337451E-01
       -1   -1    0    0    0  501  0.00000000000E+00  0.00000000000E+00  0.90653026567E+03  0.90653026568E+03  0.50400001928E-02 0.  1.
        1   -1    0    0  501    0  0.00000000000E+00  0.00000000000E+00 -0.19992228832E+04  0.19992228832E+04  0.50400001928E-02 0. -1.
    10030    2    1    2    0    0  0.00000000000E+00  0.00000000000E+00 -0.10926926175E+04  0.29057531489E+04  0.26924754792E+04 0.  0.
        5    1    3    3  502    0 -0.98420383765E+03  0.26653821053E+03  0.40227725903E+03  0.10961518576E+04  0.46999998093E+01 0.  1.
       -5    1    3    3    0  502  0.98420383765E+03 -0.26653821053E+03 -0.14949698766E+04  0.18096012913E+04  0.46999998093E+01 0. -1.
</event>
<event>
 5   0  0.1480547E-05  0.2997306E+04  0.7818609E-02  0.8244500E-01
        2   -1    0    0  501    0  0.00000000000E+00  0.00000000000E+00  0.20547357349E+04  0.20547357349E+04  0.25500000920E-02 0.  1.
       -2   -1    0    0    0  501  0.00000000000E+00  0.00000000000E+00 -0.10930657954E+04  0.10930657954E+04  0.25500000920E-02 0. -1.
    10030    2    1    2    0    0  0.00000000000E+00  0.00000000000E+00  0.96166993953E+03  0.31478015304E+04  0.29973063577E+04 0.  0.
        1    1    3    3  502    0  0.13689113857E+04 -0.46691156663E+03  0.68653835992E+02  0.14479772588E+04  0.50400001928E-02 0.  1.
       -1    1    3    3    0  502 -0.13689113857E+04  0.46691156663E+03  0.89301610354E+03  0.16998242715E+04  0.50400001928E-02 0. -1.
</event>
<event>
 5   0  0.5730920E-06  0.2875943E+04  0.7818609E-02  0.8280071E-01
        1   -1    0    0  501    0  0.00000000000E+00  0.00000000000E+00  0.20379712538E+04  0.20379712538E+04  0.50400001928E-02 0. -1.
       -1   -1    0    0    0  501  0.00000000000E+00  0.00000000000E+00 -0.10146175398E+04  0.10146175398E+04  0.50400001928E-02 0.  1.
    10030    2    1    2    0    0  0.00000000000E+00  0.00000000000E+00  0.10233537140E+04  0.30525887936E+04  0.28759425445E+04 0.  0.
        1    1    3    3  502    0  0.24915564280E+03  0.10035550098E+03 -0.98775285369E+03  0.10236236911E+04  0.50400001928E-02 0.  1.
       -1    1    3    3    0  502 -0.24915564280E+03 -0.10035550098E+03  0.20111065677E+04  0.20289651026E+04  0.50400001928E-02 0. -1.
</event>
<event>
 5   0  0.5392262E-06  0.3048511E+04  0.7818609E-02  0.8230012E-01
       -1   -1    0    0    0  501  0.00000000000E+00  0.00000000000E+00  0.13691789045E+04  0.13691789046E+04  0.50400001928E-02 0. -1.
        1   -1    0    0  501    0  0.00000000000E+00  0.00000000000E+00 -0.16968966169E+04  0.16968966169E+04  0.50400001928E-02 0.  1.
    10030    2    1    2    0    0  0.00000000000E+00  0.00000000000E+00 -0.32771771233E+03  0.30660755214E+04  0.30485111455E+04 0.  0.
        2    1    3    3  502    0 -0.25830320790E+03  0.65298340318E+03  0.11968021339E+04  0.13876034086E+04  0.25500000920E-02 0. -1.
       -2    1    3    3    0  502  0.25830320790E+03 -0.65298340318E+03 -0.15245198462E+04  0.16784721128E+04  0.25500000920E-02 0.  1.
</event>
<event>
 5   0  0.1388724E-05  0.3022834E+04  0.7818609E-02  0.8237241E-01
        2   -1    0    0  501    0  0.00000000000E+00  0.00000000000E+00  0.19042882168E+04  0.19042882168E+04  0.25500000920E-02 0.  1.
       -2   -1    0    0    0  501  0.00000000000E+00  0.00000000000E+00 -0.11995981462E+04  0.11995981462E+04  0.25500000920E-02 0. -1.
    10030    2    1    2    0    0  0.00000000000E+00  0.00000000000E+00  0.70469007057E+03  0.31038863629E+04  0.30228335148E+04 0.  0.
        4    1    3    3  502    0  0.34485112592E+03  0.45330009061E+03  0.17898750823E+04  0.18783124591E+04  0.12699999809E+01 0.  1.
       -4    1    3    3    0  502 -0.34485112592E+03 -0.45330009061E+03 -0.10851850117E+04  0.12255739038E+04  0.12699999809E+01 0. -1.
</event>
<event>
 5   0  0.1345931E-05  0.3004734E+04  0.7818609E-02  0.8242380E-01
       -2   -1    0    0    0  501  0.00000000000E+00  0.00000000000E+00  0.13553687956E+04  0.13553687956E+04  0.25500000920E-02 0.  1.
        2   -1    0    0  501    0  0.00000000000E+00  0.00000000000E+00 -0.16653079168E+04  0.16653079168E+04  0.25500000920E-02 0. -1.
    10030    2    1    2    0    0  0.00000000000E+00  0.00000000000E+00 -0.30993912129E+03  0.30206767124E+04  0.30047338554E+04 0.  0.
        2    1    3    3  502    0 -0.10764440110E+04  0.97260009173E+03 -0.54745589613E+03  0.15506097528E+04  0.25500000920E-02 0. -1.
       -2    1    3    3    0  502  0.10764440110E+04 -0.97260009173E+03  0.23751677484E+03  0.14700669596E+04  0.25500000920E-02 0.  1.
</event>
<event>
 5   0  0.1388724E-05  0.3032095E+04  0.7818609E-02  0.8234625E-01
       -2   -1    0    0    0  501  0.00000000000E+00  0.00000000000E+00  0.85955576871E+03  0.85955576872E+03  0.25500000920E-02 0.  1.
        2   -1    0    0  501    0  0.00000000000E+00  0.00000000000E+00 -0.26739395814E+04  0.26739395814E+04  0.25500000920E-02 0. -1.
    10030    2    1    2    0    0  0.00000000000E+00  0.00000000000E+00 -0.18143838127E+04  0.35334953501E+04  0.30320951122E+04 0.  0.
        4    1    3    3  502    0 -0.42624857912E+03 -0.13998858620E+04 -0.13689913828E+04  0.20038730741E+04  0.12699999809E+01 0. -1.
       -4    1    3    3    0  502  0.42624857912E+03  0.13998858620E+04 -0.44539242988E+03  0.15296222760E+04  0.12699999809E+01 0.  1.
</event>
<event>
 5   0  0.5392262E-06  0.1643985E+04  0.7818609E-02  0.8793973E-01
        1   -1    0    0  501    0  0.00000000000E+00  0.00000000000E+00  0.17643490689E+04  0.17643490689E+04  0.50400001928E-02 0.  1.
       -1   -1    0    0    0  501  0.00000000000E+00  0.00000000000E+00 -0.38295792414E+03  0.38295792418E+03  0.50400001928E-02 0. -1.
    10030    2    1    2    0    0  0.00000000000E+00  0.00000000000E+00  0.13813911447E+04  0.21473069931E+04  0.16439847407E+04 0.  0.
        2    1    3    3  502    0 -0.74404405941E+03 -0.33397636981E+03  0.82472616013E+03  0.11598771561E+04  0.25500000920E-02 0.  1.
       -2    1    3    3    0  502  0.74404405941E+03  0.33397636981E+03  0.55666498461E+03  0.98742983701E+03  0.25500000920E-02 0. -1.
</event>
<event>
 5   0  0.1480547E-05  0.1896951E+04  0.7818609E-02  0.8656375E-01
        2   -1    0    0  501    0  0.00000000000E+00  0.00000000000E+00  0.14467441957E+04  0.14467441957E+04  0.25500000920E-02 0.  1.
       -2   -1    0    0    0  501  0.00000000000E+00  0.00000000000E+00 -0.62181417262E+03  0.62181417263E+03  0.25500000920E-02 0. -1.
    10030    2    1    2    0    0  0.00000000000E+00  0.00000000000E+00  0.82493002307E+03  0.20685583683E+04  0.18969512857E+04 0.  0.
        1    1    3    3  502    0 -0.58177678723E+03  0.73093119307E+03  0.23367733081E+03  0.96297961252E+03  0.50400001928E-02 0.  1.
       -1    1    3    3    0  502  0.58177678723E+03 -0.73093119307E+03  0.59125269226E+03  0.11055787558E+04  0.50400001928E-02 0. -1.
</event>
<event>
 5   0  0.5329891E-06  0.1578767E+04  0.7818609E-02  0.8833699E-01
       -1   -1    0    0    0  501  0.00000000000E+00  0.00000000000E+00  0.56861696978E+03  0.56861696980E+03  0.50400001928E-02 0. -1.
        1   -1    0    0  501    0  0.00000000000E+00  0.00000000000E+00 -0.10958634445E+04  0.10958634445E+04  0.50400001928E-02 0.  1.
    10030    2    1    2    0    0  0.00000000000E+00  0.00000000000E+00 -0.52724647474E+03  0.16644804143E+04  0.15787673054E+04 0.  0.
        4    1    3    3  502    0  0.69104720480E+03  0.36792965930E+03 -0.15711131175E+03  0.79850112751E+03  0.12699999809E+01 0.  1.
       -4    1    3    3    0  502 -0.69104720480E+03 -0.36792965930E+03 -0.37013516299E+03  0.86597928684E+03  0.12699999809E+01 0. -1.
</event>
<event>
 5   0  0.5392262E-06  0.3130594E+04  0.7818609E-02  0.8207391E-01
        1   -1    0    0  501    0  0.00000000000E+00  0.00000000000E+00  0.14901232125E+04  0.14901232125E+04  0.50400001928E-02 0. -1.
       -1   -1    0    0    0  501  0.00000000000E+00  0.00000000000E+00 -0.16442634600E+04  0.16442634600E+04  0.50400001928E-02 0.  1.
    10030    2    1    2    0    0  0.00000000000E+00  0.00000000000E+00 -0.15414024749E+03  0.31343866725E+04  0.31305942881E+04 0.  0.
        2    1    3    3  502    0  0.45018666527E+03 -0.76232683958E+03 -0.13695037013E+04  0.16307515543E+04  0.25500000920E-02 0.  1.
       -2    1    3    3    0  502 -0.45018666527E+03  0.76232683958E+03  0.12153634538E+04  0.15036351182E+04  0.25500000920E-02 0. -1.
</event>
<event>
 5   0  0.5730920E-06  0.2886707E+04  0.7818609E-02  0.8276844E-01
        1   -1    0    0  501    0  0.00000000000E+00  0.00000000000E+00  0.26007777651E+04  0.26007777651E+04  0.50400001928E-02 0. -1.
       -1   -1    0    0    0  501  0.00000000000E+00  0.00000000000E+00 -0.80101776094E+03  0.80101776096E+03  0.50400001928E-02 0.  1.
    10030    2    1    2    0    0  0.00000000000E+00  0.00000000000E+00  0.17997600042E+04  0.34017955261E+04  0.28867069004E+04 0.  0.
        1    1    3    3  502    0  0.97977725963E+03  0.72207387533E+03 -0.14387128497E+02  0.12171939654E+04  0.50400001928E-02 0.  1.
       -1    1    3    3    0  502 -0.97977725963E+03 -0.72207387533E+03  0.18141471327E+04  0.21846015607E+04  0.50400001928E-02 0. -1.
</event>
<event>
 5   0  0.1388724E-05  0.2043905E+04  0.7818609E-02  0.8586364E-01
        2   -1    0    0  501    0  0.00000000000E+00  0.00000000000E+00  0.94549897246E+03  0.94549897247E+03  0.25500000920E-02 0.  1.
       -2   -1    0    0    0  501  0.00000000000E+00  0.00000000000E+00 -0.11045880751E+04  0.11045880751E+04  0.25500000920E-02 0. -1.
    10030    2    1    2    0    0  0.00000000000E+00  0.00000000000E+00 -0.15908910264E+03  0.20500870476E+04  0.20439049782E+04 0.  0.
        4    1    3    3  502    0 -0.54124168478E+03 -0.86534872004E+03 -0.28259591729E+02  0.10210637522E+04  0.12699999809E+01 0. -1.
       -4    1    3    3    0  502  0.54124168478E+03  0.86534872004E+03 -0.13082951091E+03  0.10290232954E+04  0.12699999809E+01 0.  1.
</event>
<event>
 5   0  0.5522695E-06  0.3025977E+04  0.7818609E-02  0.8236352E-01
        1   -1    0    0  501    0  0.00000000000E+00  0.00000000000E+00  0.11427046948E+04  0.11427046948E+04  0.50400001928E-02 0.  1.
       -1   -1    0    0    0  501  0.00000000000E+00  0.00000000000E+00 -0.20032601284E+04  0.20032601284E+04  0.50400001928E-02 0. -1.
    10030    2    1    2    0    0  0.00000000000E+00  0.00000000000E+00 -0.86055543361E+03  0.31459648232E+04  0.30259773652E+04 0.  0.
        3    1    3    3  502    0  0.13454981312E+04  0.69048269476E+03 -0.38374620731E+03  0.15602540610E+04  0.10100000352E+00 0. -1.
       -3    1    3    3    0  502 -0.13454981312E+04 -0.69048269476E+03 -0.47680922631E+03  0.15857107622E+04  0.10100000352E+00 0.  1.
</event>
<event>
 5   0  0.7032692E-06  0.2885815E+04  0.7818609E-02  0.8277110E-01
       -1   -1    0    0    0  501  0.00000000000E+00  0.00000000000E+00  0.14429911034E+04  0.14429911034E+04  0.50400001928E-02 0.  1.
        1   -1    0    0  501    0  0.00000000000E+00  0.00000000000E+00 -0.14428238951E+04  0.14428238952E+04  0.50400001928E-02 0. -1.
    10030    2    1    2    0    0  0.00000000000E+00  0.00000000000E+00  0.16720827404E+00  0.28858149986E+04  0.28858149937E+04 0.  0.
        5    1    3    3  502    0  0.90059744460E+03 -0.51845188410E+03  0.10011289800E+04  0.14429655013E+04  0.46999998093E+01 0.  1.
       -5    1    3    3    0  502 -0.90059744460E+03  0.51845188410E+03 -0.10009617717E+04  0.14428494973E+04  0.46999998093E+01 0. -1.
</event>
<event>
 5   0  0.5522695E-06  0.2975347E+04  0.7818609E-02  0.8250806E-01
        1   -1    0    0  501    0  0.00000000000E+00  0.00000000000E+00  0.24385732952E+04  0.24385732952E+04  0.50400001928E-02 0.  1.
       -1   -1    0    0    0  501  0.00000000000E+00  0.00000000000E+00 -0.90756866233E+03  0.90756866234E+03  0.50400001928E-02 0. -1.
    10030    2    1    2    0    0  0.00000000000E+00  0.00000000000E+00  0.15310046329E+04  0.33461419576E+04  0.29753471754E+04 0.  0.
        3    1    3    3  502    0 -0.90971805704E+02 -0.10169973453E+04  0.19822861369E+04  0.22298021904E+04  0.10100000352E+00 0.  1.
       -3    1    3    3    0  502  0.90971805704E+02  0.10169973453E+04 -0.45128150398E+03  0.11163397672E+04  0.10100000352E+00 0. -1.
</event>
<event>
 5   0  0.1345931E-05  0.2279573E+04  0.7818609E-02  0.8486019E-01
       -2   -1    0    0    0  501  0.00000000000E+00  0.00000000000E+00  0.11540182673E+04  0.11540182674E+04  0.25500000920E-02 0. -1.
        2   -1    0    0  501    0  0.00000000000E+00  0.00000000000E+00 -0.11257306774E+04  0.11257306774E+04  0.25500000920E-02 0.  1.
    10030    2    1    2    0    0  0.00000000000E+00  0.00000000000E+00  0.28287589939E+02  0.22797489448E+04  0.22795734389E+04 0.  0.
        2    1    3    3  502    0 -0.11328137478E+04 -0.89591397499E+02  0.10258227236E+03  0.11409718350E+04  0.25500000920E-02 0.  1.
       -2    1    3    3    0  502  0.11328137478E+04  0.89591397499E+02 -0.74294682419E+02  0.11387771097E+04  0.25500000920E-02 0. -1.
</event>
<event>
 5   0  0.1345931E-05  0.2059756E+04  0.7818609E-02  0.8579181E-01
        2   -1    0    0  501    0  0.00000000000E+00  0.00000000000E+00  0.13044522039E+04  0.13044522039E+04  0.25500000920E-02 0. -1.
       -2   -1    0    0    0  501  0.00000000000E+00  0.00000000000E+00 -0.81309927985E+03  0.81309927986E+03  0.25500000920E-02 0.  1.
    10030    2    1    2    0    0  0.00000000000E+00  0.00000000000E+00  0.49135292400E+03  0.21175514837E+04  0.20597564395E+04 0.  0.
        2    1    3    3  502    0 -0.11071272721E+03  0.56376883592E+03  0.11243853617E+04  0.12626698103E+04  0.25500000920E-02 0. -1.
       -2    1    3    3    0  502  0.11071272721E+03 -0.56376883592E+03 -0.63303243769E+03  0.85488167339E+03  0.25500000920E-02 0.  1.
</event>
<event>
 5   0  0.1388724E-05  0.2634050E+04  0.7818609E-02  0.8356726E-01
        2   -1    0    0  501    0  0.00000000000E+00  0.00000000000E+00  0.14337404952E+04  0.14337404952E+04  0.25500000920E-02 0.  1.
       -2   -1    0    0    0  501  0.00000000000E+00  0.00000000000E+00 -0.12098109639E+04  0.12098109639E+04  0.25500000920E-02 0. -1.
    10030    2    1    2    0    0  0.00000000000E+00  0.00000000000E+00  0.22392953125E+03  0.26435514591E+04  0.26340500910E+04 0.  0.
        4    1    3    3  502    0 -0.24131088769E+03  0.89393505840E+03  0.10519340788E+04  0.14013984987E+04  0.12699999809E+01 0.  1.
       -4    1    3    3    0  502  0.24131088769E+03 -0.89393505840E+03 -0.82800454760E+03  0.12421529603E+04  0.12699999809E+01 0. -1.
</event>
<event>
 5   0  0.5522695E-06  0.3053933E+04  0.7818609E-02  0.8228496E-01
       -1   -1    0    0    0  501  0.00000000000E+00  0.00000000000E+00  0.14169117444E+04  0.14169117444E+04  0.50400001928E-02 0.  1.
        1   -1    0    0  501    0  0.00000000000E+00  0.00000000000E+00 -0.16455693939E+04  0.16455693939E+04  0.50400001928E-02 0. -1.
    10030    2    1    2    0    0  0.00000000000E+00  0.00000000000E+00 -0.22865764956E+03  0.30624811383E+04  0.30539329399E+04 0.  0.
        3    1    3    3  502    0  0.55262359035E+03 -0.39141370849E+03  0.12580884778E+04  0.14287701537E+04  0.10100000352E+00 0.  1.
       -3    1    3    3    0  502 -0.55262359035E+03  0.39141370849E+03 -0.14867461274E+04  0.16337109846E+04  0.10100000352E+00 0. -1.
</event>
<event>
 5   0  0.5329891E-06  0.3034263E+04  0.7818609E-02  0.8234014E-01
       -1   -1    0    0    0  501  0.00000000000E+00  0.00000000000E+00  0.12489617119E+04  0.12489617119E+04  0.50400001928E-02 0. -1.
        1   -1    0    0  501    0  0.00000000000E+00  0.00000000000E+00 -0.18428807144E+04  0.18428807144E+04  0.50400001928E-02 0.  1.
    10030    2    1    2    0    0  0.00000000000E+00  0.00000000000E+00 -0.59391900252E+03  0.30918424263E+04  0.30342626465E+04 0.  0.
        4    1    3    3  502    0  0.56548311195E+03 -0.13308862444E+04 -0.76464252637E+03  0.16357595029E+04  0.12699999809E+01 0. -1.
       -4    1    3    3    0  502 -0.56548311195E+03  0.13308862444E+04  0.17072352385E+03  0.14560829234E+04  0.12699999809E+01 0.  1.
</event>
<event>
 5   0  0.1523029E-05  0.3228841E+04  0.7818609E-02  0.8181242E-01
        2   -1    0    0  501    0  0.00000000000E+00  0.00000000000E+00  0.20821472166E+04  0.20821472166E+04  0.25500000920E-02 0. -1.
       -2   -1    0    0    0  501  0.00000000000E+00  0.00000000000E+00 -0.12517623723E+04  0.12517623723E+04  0.25500000920E-02 0.  1.
    10030    2    1    2    0    0  0.00000000000E+00  0.00000000000E+00  0.83038484439E+03  0.33339095889E+04  0.32288409929E+04 0.  0.
        5    1    3    3  502    0  0.65770751702E+03 -0.84855529459E+03 -0.82973914332E+03  0.13568767084E+04  0.46999998093E+01 0.  1.
       -5    1    3    3    0  502 -0.65770751702E+03  0.84855529459E+03  0.16601239877E+04  0.19770328805E+04  0.46999998093E+01 0. -1.
</event>
<event>
 5   0  0.5522695E-06  0.3112261E+04  0.7818609E-02  0.8212381E-01
       -1   -1    0    0    0  501  0.00000000000E+00  0.00000000000E+00  0.11675181566E+04  0.11675181566E+04  0.50400001928E-02 0.  1.
        1   -1    0    0  501    0  0.00000000000E+00  0.00000000000E+00 -0.20740935750E+04  0.20740935750E+04  0.50400001928E-02 0. -1.
    10030    2    1    2    0    0  0.00000000000E+00  0.00000000000E+00 -0.90657541842E+03  0.32416117316E+04  0.31122608550E+04 0.  0.
        3    1    3    3  502    0  0.50943404996E+03  0.11985801951E+04 -0.13404050595E+04  0.18689042964E+04  0.10100000352E+00 0. -1.
       -3    1    3    3    0  502 -0.50943404996E+03 -0.11985801951E+04  0.43382964105E+03  0.13727074353E+04  0.10100000352E+00 0.  1.
</event>
<event>
 5   0  0.5392262E-06  0.2052187E+04  0.7818609E-02  0.8582603E-01
       -1   -1    0    0    0  501  0.00000000000E+00  0.00000000000E+00  0.65489595094E+03  0.65489595096E+03  0.50400001928E-02 0. -1.
        1   -1    0    0  501    0  0.00000000000E+00  0.00000000000E+00 -0.16076866686E+04  0.16076866687E+04  0.50400001928E-02 0.  1.
    10030    2    1    2    0    0  0.00000000000E+00  0.00000000000E+00 -0.95279071770E+03  0.22625826196E+04  0.20521866287E+04 0.  0.
        2    1    3    3  502    0  0.93727343474E+03 -0.32192996457E+03 -0.76964797990E+03  0.12547822148E+04  0.25500000920E-02 0.  1.
       -2    1    3    3    0  502 -0.93727343474E+03  0.32192996457E+03 -0.18314273780E+03  0.10078004048E+04  0.25500000920E-02 0. -1.
</event>
<event>
 5   0  0.1423692E-05  0.2376680E+04  0.7818609E-02  0.8448286E-01
       -2   -1    0    0    0  501  0.00000000000E+00  0.00000000000E+00  0.10912544085E+04  0.10912544085E+04  0.25500000920E-02 0.  1.
        2   -1    0    0  501    0  0.00000000000E+00  0.00000000000E+00 -0.12940633417E+04  0.12940633417E+04  0.25500000920E-02 0. -1.
    10030    2    1    2    0    0  0.00000000000E+00  0.00000000000E+00 -0.20280893318E+03  0.23853177502E+04  0.23766803121E+04 0.  0.
        3    1    3    3  502    0 -0.44327676903E+02  0.82851118899E+03  0.75242617204E+03  0.11200628946E+04  0.10100000352E+00 0.  1.
       -3    1    3    3    0  502  0.44327676903E+02 -0.82851118899E+03 -0.95523510522E+03  0.12652548556E+04  0.10100000352E+00 0. -1.
</event>
<event>
 5   0  0.5522695E-06  0.2995736E+04  0.7818609E-02  0.8244949E-01
       -1   -1    0    0    0  501  0.00000000000E+00  0.00000000000E+00  0.14554157954E+04  0.14554157954E+04  0.50400001928E-02 0. -1.
        1   -1    0    0  501    0  0.00000000000E+00  0.00000000000E+00 -0.15415589714E+04  0.15415589714E+04  0.50400001928E-02 0.  1.
    10030    2    1    2    0    0  0.00000000000E+00  0.00000000000E+00 -0.86143176021E+02  0.29969747668E+04  0.29957364881E+04 0.  0.
        3    1    3    3  502    0 -0.94882686095E+02 -0.14808702164E+04  0.16104692319E+03  0.14926203280E+04  0.10100000352E+00 0.  1.
       -3    1    3    3    0  502  0.94882686095E+02  0.14808702164E+04 -0.24719009921E+03  0.15043544387E+04  0.10100000352E+00 0. -1.
</event>
<event>
 5   0  0.5522695E-06  0.2671575E+04  0.7818609E-02  0.8344287E-01
       -1   -1    0    0    0  501  0.00000000000E+00  0.00000000000E+00  0.25678280993E+04  0.25678280993E+04  0.50400001928E-02 0.  1.
        1   -1    0    0  501    0  0.00000000000E+00  0.00000000000E+00 -0.69487863497E+03  0.69487863498E+03  0.50400001928E-02 0. -1.
    10030    2    1    2    0    0  0.00000000000E+00  0.00000000000E+00  0.18729494643E+04  0.32627067343E+04  0.26715754786E+04 0.  0.
        3    1    3    3  502    0 -0.41817455949E+03  0.11720625973E+04  0.34352709537E+03  0.12909731095E+04  0.10100000352E+00 0.  1.
       -3    1    3    3    0  502  0.41817455949E+03 -0.11720625973E+04  0.15294223689E+04  0.19717336247E+04  0.10100000352E+00 0. -1.
</event>
<event>
 5   0  0.5522695E-06  0.2642093E+04  0.7818609E-02  0.8354042E-01
        1   -1    0    0  501    0  0.00000000000E+00  0.00000000000E+00  0.14070218264E+04  0.14070218264E+04  0.50400001928E-02 0. -1.
       -1   -1    0    0    0  501  0.00000000000E+00  0.00000000000E+00 -0.12403245931E+04  0.12403245931E+04  0.50400001928E-02 0.  1.
    10030    2    1    2    0    0  0.00000000000E+00  0.00000000000E+00  0.16669723329E+03  0.26473464194E+04  0.26420929387E+04 0.  0.
        3    1    3    3  502    0  0.12675904551E+04 -0.14626540468E+03  0.42605886673E+03  0.13452528753E+04  0.10100000352E+00 0.  1.
       -3    1    3    3    0  502 -0.12675904551E+04  0.14626540468E+03 -0.25936163344E+03  0.13020935441E+04  0.10100000352E+00 0. -1.
</event>
<event>
 5   0  0.4806125E-06  0.2056876E+04  0.7818609E-02  0.8580481E-01
        4   -1    0    0  501    0  0.00000000000E+00  0.00000000000E+00  0.88545142619E+03  0.88545233696E+03  0.12699999809E+01 0.  1.
       -4   -1    0    0    0  501  0.00000000000E+00  0.00000000000E+00 -0.11945133086E+04  0.11945139837E+04  0.12699999809E+01 0. -1.
    10030    2    1    2    0    0  0.00000000000E+00  0.00000000000E+00 -0.30906188243E+03  0.20799663207E+04  0.20568764300E+04 0.  0.
        3    1    3    3  502    0 -0.38712663961E+03  0.86948457542E+03 -0.54853890465E+03  0.10985287443E+04  0.10100000352E+00 0.  1.
       -3    1    3    3    0  502  0.38712663961E+03 -0.86948457542E+03  0.23947702221E+03  0.98143757639E+03  0.10100000352E+00 0. -1.
</event>
<event>
 5   0  0.5329891E-06  0.2994813E+04  0.7818609E-02  0.8245214E-01
        1   -1    0    0  501    0  0.00000000000E+00  0.00000000000E+00  0.17921505776E+04  0.17921505776E+04  0.50400001928E-02 0. -1.
       -1   -1    0    0    0  501  0.00000000000E+00  0.00000000000E+00 -0.12511370625E+04  0.12511370625E+04  0.50400001928E-02 0.  1.
    10030    2    1    2    0    0  0.00000000000E+00  0.00000000000E+00  0.54101351507E+03  0.30432876402E+04  0.29948128551E+04 0.  0.
        4    1    3    3  502    0 -0.56180714629E+03  0.86853431533E+02 -0.11372151422E+04  0.12713892719E+04  0.12699999809E+01 0.  1.
       -4    1    3    3    0  502  0.56180714629E+03 -0.86853431533E+02  0.16782286573E+04  0.17718983682E+04  0.12699999809E+01 0. -1.
</event>
<event>
 5   0  0.5329891E-06  0.2880932E+04  0.7818609E-02  0.8278573E-01
        1   -1    0    0  501    0  0.00000000000E+00  0.00000000000E+00  0.20095157704E+04  0.20095157704E+04  0.50400001928E-02 0.  1.
       -1   -1    0    0    0  501  0.00000000000E+00  0.00000000000E+00 -0.10325584694E+04  0.10325584694E+04  0.50400001928E-02 0. -1.
    10030    2    1    2    0    0  0.00000000000E+00  0.00000000000E+00  0.97695730097E+03  0.30420742399E+04  0.28809321604E+04 0.  0.
        4    1    3    3  502    0 -0.75459302719E+03  0.69375820388E+03 -0.58017134333E+03  0.11778418751E+04  0.12699999809E+01 0. -1.
       -4    1    3    3    0  502  0.75459302719E+03 -0.69375820388E+03  0.15571286443E+04  0.18642323648E+04  0.12699999809E+01 0.  1.
</event>
<event>
 5   0  0.1423692E-05  0.2445629E+04  0.7818609E-02  0.8422616E-01
        2   -1    0    0  501    0  0.00000000000E+00  0.00000000000E+00  0.13294961123E+04  0.13294961123E+04  0.25500000920E-02 0. -1.
       -2   -1    0    0    0  501  0.00000000000E+00  0.00000000000E+00 -0.11246933977E+04  0.11246933977E+04  0.25500000920E-02 0.  1.
    10030    2    1    2    0    0  0.00000000000E+00  0.00000000000E+00  0.20480271458E+03  0.24541895101E+04  0.24456291623E+04 0.  0.
        3    1    3    3  502    0 -0.34730191565E+03 -0.75924729026E+03 -0.79414648033E+03  0.11522776188E+04  0.10100000352E+00 0.  1.
       -3    1    3    3    0  502  0.34730191565E+03  0.75924729026E+03  0.99894919492E+03  0.13019118913E+04  0.10100000352E+00 0. -1.
</event>
<event>
 5   0  0.1388724E-05  0.2504101E+04  0.7818609E-02  0.8401526E-01
       -2   -1    0    0    0  501  0.00000000000E+00  0.00000000000E+00  0.70573148101E+03  0.70573148101E+03  0.25500000920E-02 0.  1.
        2   -1    0    0  501    0  0.00000000000E+00  0.00000000000E+00 -0.22212846376E+04  0.22212846376E+04  0.25500000920E-02 0. -1.
    10030    2    1    2    0    0  0.00000000000E+00  0.00000000000E+00 -0.15155531566E+04  0.29270161186E+04  0.25041010339E+04 0.  0.
        4    1    3    3  502    0  0.11836030882E+04 -0.17345602114E+03 -0.11898318843E+04  0.16872180617E+04  0.12699999809E+01 0.  1.
       -4    1    3    3    0  502 -0.11836030882E+04  0.17345602114E+03 -0.32572127221E+03  0.12397980569E+04  0.12699999809E+01 0. -1.
</event>
<event>
 5   0  0.1388724E-05  0.2291557E+04  0.7818609E-02  0.8481258E-01
        2   -1    0    0  501    0  0.00000000000E+00  0.00000000000E+00  0.23541597476E+04  0.23541597476E+04  0.25500000920E-02 0. -1.
       -2   -1    0    0    0  501  0.00000000000E+00  0.00000000000E+00 -0.55765450952E+03  0.55765450953E+03  0.25500000920E-02 0.  1.
    10030    2    1    2    0    0  0.00000000000E+00  0.00000000000E+00  0.17965052381E+04  0.29118142572E+04  0.22915565011E+04 0.  0.
        4    1    3    3  502    0 -0.41946185456E+03 -0.88770182259E+03  0.14775665347E+03  0.99287280898E+03  0.12699999809E+01 0.  1.
       -4    1    3    3    0  502  0.41946185456E+03  0.88770182259E+03  0.16487485847E+04  0.19189414482E+04  0.12699999809E+01 0. -1.
</event>
<event>
 5   0  0.7032692E-06  0.3095825E+04  0.7818609E-02  0.8216885E-01
       -1   -1    0    0    0  501  0.00000000000E+00  0.00000000000E+00  0.15849585798E+04  0.15849585798E+04  0.50400001928E-02 0. -1.
        1   -1    0    0  501    0  0.00000000000E+00  0.00000000000E+00 -0.15117318576E+04  0.15117318576E+04  0.50400001928E-02 0.  1.
    10030    2    1    2    0    0  0.00000000000E+00  0.00000000000E+00  0.73226722119E+02  0.30966904374E+04  0.30958245287E+04 0.  0.
        5    1    3    3  502    0  0.14274643975E+03  0.58362253207E+03  0.14635531073E+04  0.15820877326E+04  0.46999998093E+01 0. -1.
       -5    1    3    3    0  502 -0.14274643975E+03 -0.58362253207E+03 -0.13903263852E+04  0.15146027048E+04  0.46999998093E+01 0.  1.
</event>
<event>
 5   0  0.5522695E-06  0.1670307E+04  0.7818609E-02  0.8778483E-01
        1   -1    0    0  501    0  0.00000000000E+00  0.00000000000E+00  0.12665266405E+04  0.12665266405E+04  0.50400001928E-02 0. -1.
       -1   -1    0    0    0  501  0.00000000000E+00  0.00000000000E+00 -0.55070410117E+03  0.55070410119E+03  0.50400001928E-02 0.  1.
    10030    2    1    2    0    0  0.00000000000E+00  0.00000000000E+00  0.71582253930E+03  0.18172307417E+04  0.16703070558E+04 0.  0.
        3    1    3    3  502    0 -0.14716912065E+03 -0.32863610454E+03  0.11777330863E+04  0.12315501095E+04  0.10100000352E+00 0. -1.
       -3    1    3    3    0  502  0.14716912065E+03  0.32863610454E+03 -0.46191054703E+03  0.58568063221E+03  0.10100000352E+00 0.  1.
</event>
<event>
 5   0  0.1388724E-05  0.2966571E+04  0.7818609E-02  0.8253342E-01
       -2   -1    0    0    0  501  0.00000000000E+00  0.00000000000E+00  0.11115257494E+04  0.11115257494E+04  0.25500000920E-02 0.  1.
        2   -1    0    0  501    0  0.00000000000E+00  0.00000000000E+00 -0.19793837056E+04  0.19793837056E+04  0.25500000920E-02 0. -1.
    10030    2    1    2    0    0  0.00000000000E+00  0.00000000000E+00 -0.86785795620E+03  0.30909094550E+04  0.29665710554E+04 0.  0.
        4    1    3    3  502    0 -0.64898564868E+03 -0.30469576070E+03  0.91899937253E+03  0.11655828321E+04  0.12699999809E+01 0.  1.
       -4    1    3    3    0  502  0.64898564868E+03  0.30469576070E+03 -0.17868573287E+04  0.19253266229E+04  0.12699999809E+01 0. -1.
</event>
<event>
 5   0  0.1523029E-05  0.3060204E+04  0.7818609E-02  0.8226745E-01
        2   -1    0    0  501    0  0.00000000000E+00  0.00000000000E+00  0.27227386286E+04  0.27227386286E+04  0.25500000920E-02 0.  1.
       -2   -1    0    0    0  501  0.00000000000E+00  0.00000000000E+00 -0.85987422729E+03  0.85987422730E+03  0.25500000920E-02 0. -1.
    10030    2    1    2    0    0  0.00000000000E+00  0.00000000000E+00  0.18628644013E+04  0.35826128558E+04  0.30602044209E+04 0.  0.
        5    1    3    3  502    0 -0.64312235865E+03  0.11141015276E+04  0.19013302585E+04  0.22956278932E+04  0.46999998093E+01 0.  1.
       -5    1    3    3    0  502  0.64312235865E+03 -0.11141015276E+04 -0.38465857269E+02  0.12869849627E+04  0.46999998093E+01 0. -1.
</event>
<event>
 5   0  0.7032692E-06  0.2768747E+04  0.7818609E-02  0.8313037E-01
       -1   -1    0    0    0  501  0.00000000000E+00  0.00000000000E+00  0.18484993847E+04  0.18484993847E+04  0.50400001928E-02 0.  1.
        1   -1    0    0  501    0  0.00000000000E+00  0.00000000000E+00 -0.10367813117E+04  0.10367813117E+04  0.50400001928E-02 0. -1.
    10030    2    1    2    0    0  0.00000000000E+00  0.00000000000E+00  0.81171807297E+03  0.28852806964E+04  0.27687467322E+04 0.  0.
        5    1    3    3  502    0  0.10408154799E+04  0.40549019085E+03 -0.44633051870E+03  0.12028932538E+04  0.46999998093E+01 0. -1.
       -5    1    3    3    0  502 -0.10408154799E+04 -0.40549019085E+03  0.12580485917E+04  0.16823874426E+04  0.46999998093E+01 0.  1.
</event>
<event>
 5   0  0.5522695E-06  0.2976267E+04  0.7818609E-02  0.8250541E-01
        1   -1    0    0  501    0  0.00000000000E+00  0.00000000000E+00  0.20603349573E+04  0.20603349573E+04  0.50400001928E-02 0.  1.
       -1   -1    0    0    0  501  0.00000000000E+00  0.00000000000E+00 -0.10748455490E+04  0.10748455490E+04  0.50400001928E-02 0. -1.
    10030    2    1    2    0    0  0.00000000000E+00  0.00000000000E+00  0.98548940827E+03  0.31351805063E+04  0.29762673659E+04 0.  0.
        3    1    3    3  502    0  0.20115695857E+03 -0.14689474807E+04  0.35837601946E+03  0.15253537965E+04  0.10100000352E+00 0. -1.
       -3    1    3    3    0  502 -0.20115695857E+03  0.14689474807E+04  0.62711338881E+03  0.16098267098E+04  0.10100000352E+00 0.  1.
</event>
<event>
 5   0  0.1345931E-05  0.3035202E+04  0.7818609E-02  0.8233750E-01
        2   -1    0    0  501    0  0.00000000000E+00  0.00000000000E+00  0.23102017270E+04  0.23102017270E+04  0.25500000920E-02 0.  1.
       -2   -1    0    0    0  501  0.00000000000E+00  0.00000000000E+00 -0.99693160947E+03  0.99693160948E+03  0.25500000920E-02 0. -1.
    10030    2    1    2    0    0  0.00000000000E+00  0.00000000000E+00  0.13132701175E+04  0.33071333365E+04  0.30352022179E+04 0.  0.
        2    1    3    3  502    0 -0.21799184005E+03 -0.14180738815E+04  0.11768961404E+03  0.14395502149E+04  0.25500000920E-02 0. -1.
       -2    1    3    3    0  502  0.21799184005E+03  0.14180738815E+04  0.11955805035E+04  0.18675831216E+04  0.25500000920E-02 0.  1.
</event>
<event>
 5   0  0.1523029E-05  0.2249998E+04  0.7818609E-02  0.8497901E-01
       -2   -1    0    0    0  501  0.00000000000E+00  0.00000000000E+00  0.53442364090E+03  0.53442364090E+03  0.25500000920E-02 0. -1.
        2   -1    0    0  501    0  0.00000000000E+00  0.00000000000E+00 -0.23682016414E+04  0.23682016414E+04  0.25500000920E-02 0.  1.
    10030    2    1    2    0    0  0.00000000000E+00  0.00000000000E+00 -0.18337780005E+04  0.29026252823E+04  0.22499981721E+04 0.  0.
        5    1    3    3  502    0  0.37147607620E+03 -0.10332056830E+04 -0.60064771605E+03  0.12515223639E+04  0.46999998093E+01 0.  1.
       -5    1    3    3    0  502 -0.37147607620E+03  0.10332056830E+04 -0.12331302844E+04  0.16511029183E+04  0.46999998093E+01 0. -1.
</event>
<event>
 5   0  0.1480547E-05  0.2990011E+04  0.7818609E-02  0.8246589E-01
        2   -1    0    0  501    0  0.00000000000E+00  0.00000000000E+00  0.11206926978E+04  0.11206926978E+04  0.25500000920E-02 0.  1.
       -2   -1    0    0    0  501  0.00000000000E+00  0.00000000000E+00 -0.19943396817E+04  0.19943396817E+04  0.25500000920E-02 0. -1.
    10030    2    1    2    0    0  0.00000000000E+00  0.00000000000E+00 -0.87364698391E+03  0.31150323794E+04  0.29900113164E+04 0.  0.
        1    1    3    3  502    0  0.42434500507E+03 -0.31425734305E+02 -0.19299219147E+04  0.19762729713E+04  0.50400001928E-02 0. -1.
       -1    1    3    3    0  502 -0.42434500507E+03  0.31425734305E+02  0.10562749308E+04  0.11387594081E+04  0.50400001928E-02 0.  1.
</event>
<event>
 5   0  0.1388724E-05  0.3222000E+04  0.7818609E-02  0.8183031E-01
       -2   -1    0    0    0  501  0.00000000000E+00  0.00000000000E+00  0.99134335434E+03  0.99134335434E+03  0.25500000920E-02 0.  1.
        2   -1    0    0  501    0  0.00000000000E+00  0.00000000000E+00 -0.26179836674E+04  0.26179836674E+04  0.25500000920E-02 0. -1.
    10030    2    1    2    0    0  0.00000000000E+00  0.00000000000E+00 -0.16266403131E+04  0.36093270218E+04  0.32219998203E+04 0.  0.
        4    1    3    3  502    0  0.15346020674E+04 -0.27678833600E+03 -0.36007819148E+03  0.16003978271E+04  0.12699999809E+01 0.  1.
       -4    1    3    3    0  502 -0.15346020674E+04  0.27678833600E+03 -0.12665621216E+04  0.20089291946E+04  0.12699999809E+01 0. -1.
</event>
<event>
 5   0  0.1523029E-05  0.1921829E+04  0.7818609E-02  0.8644066E-01
       -2   -1    0    0    0  501  0.00000000000E+00  0.00000000000E+00  0.49148395202E+03  0.49148395203E+03  0.25500000920E-02 0. -1.
        2   -1    0    0  501    0  0.00000000000E+00  0.00000000000E+00 -0.18787121283E+04  0.18787121283E+04  0.25500000920E-02 0.  1.
    10030    2    1    2    0    0  0.00000000000E+00  0.00000000000E+00 -0.13872281763E+04  0.23701960804E+04  0.19218291928E+04 0.  0.
        5    1    3    3  502    0  0.47703927928E+03  0.42705951478E+03 -0.15772890386E+04  0.17022952460E+04  0.46999998093E+01 0.  1.
       -5    1    3    3    0  502 -0.47703927928E+03 -0.42705951478E+03  0.19006086233E+03  0.66790083435E+03  0.46999998093E+01 0. -1.
</event>
<event>
 5   0  0.1423692E-05  0.2805992E+04  0.7818609E-02  0.8301411E-01
        2   -1    0    0  501    0  0.00000000000E+00  0.00000000000E+00  0.15022806594E+04  0.15022806594E+04  0.25500000920E-02 0.  1.
       -2   -1    0    0    0  501  0.00000000000E+00  0.00000000000E+00 -0.13102727784E+04  0.13102727784E+04  0.25500000920E-02 0. -1.
    10030    2    1    2    0    0  0.00000000000E+00  0.00000000000E+00  0.19200788102E+03  0.28125534377E+04  0.28059917701E+04 0.  0.
        3    1    3    3  502    0  0.85542350700E+02  0.13676180360E+04  0.39787403125E+03  0.14268848381E+04  0.10100000352E+00 0.  1.
       -3    1    3    3    0  502 -0.85542350700E+02 -0.13676180360E+04 -0.20586615023E+03  0.13856685997E+04  0.10100000352E+00 0. -1.
</event>
<event>
 5   0  0.5329891E-06  0.1744875E+04  0.7818609E-02  0.8736176E-01
       -1   -1    0    0    0  501  0.00000000000E+00  0.00000000000E+00  0.78398914470E+03  0.78398914471E+03  0.50400001928E-02 0. -1.
        1   -1    0    0  501    0  0.00000000000E+00  0.00000000000E+00 -0.97086424853E+03  0.97086424854E+03  0.50400001928E-02 0.  1.
    10030    2    1    2    0    0  0.00000000000E+00  0.00000000000E+00 -0.18687510383E+03  0.17548533933E+04  0.17448748171E+04 0.  0.
        4    1    3    3  502    0 -0.36583646185E+03  0.23178330305E+03  0.66824794417E+03  0.79631447568E+03  0.12699999809E+01 0. -1.
       -4    1    3    3    0  502  0.36583646185E+03 -0.23178330305E+03 -0.85512304800E+03  0.95853891758E+03  0.12699999809E+01 0.  1.
</event>
<event>
 5   0  0.1523029E-05  0.2922857E+04  0.7818609E-02  0.8266109E-01
       -2   -1    0    0    0  501  0.00000000000E+00  0.00000000000E+00  0.13427981920E+04  0.13427981920E+04  0.25500000920E-02 0. -1.
        2   -1    0    0  501    0  0.00000000000E+00  0.00000000000E+00 -0.15905395082E+04  0.15905395082E+04  0.25500000920E-02 0.  1.
    10030    2    1    2    0    0  0.00000000000E+00  0.00000000000E+00 -0.24774131620E+03  0.29333377003E+04  0.29228572158E+04 0.  0.
        5    1    3    3  502    0  0.77796216565E+03 -0.68666515274E+03 -0.11566463222E+04  0.15538941302E+04  0.46999998093E+01 0.  1.
       -5    1    3    3    0  502 -0.77796216565E+03  0.68666515274E+03  0.90890500598E+03  0.13794435701E+04  0.46999998093E+01 0. -1.
</event>
<event>
 5   0  0.7032692E-06  0.2969135E+04  0.7818609E-02  0.8252600E-01
       -1   -1    0    0    0  501  0.00000000000E+00  0.00000000000E+00  0.12379683969E+04  0.12379683969E+04  0.50400001928E-02 0. -1.
        1   -1    0    0  501    0  0.00000000000E+00  0.00000000000E+00 -0.17802881162E+04  0.17802881162E+04  0.50400001928E-02 0.  1.
    10030    2    1    2    0    0  0.00000000000E+00  0.00000000000E+00 -0.54231971932E+03  0.30182565131E+04  0.29691348405E+04 0.  0.
        5    1    3    3  502    0  0.13963498988E+04  0.48177461135E+03 -0.42200116448E+03  0.15362313917E+04  0.46999998093E+01 0. -1.
       -5    1    3    3    0  502 -0.13963498988E+04 -0.48177461135E+03 -0.12031855484E+03  0.14820251214E+04  0.46999998093E+01 0.  1.
</event>
<event>
 5   0  0.7032692E-06  0.3289037E+04  0.7818609E-02  0.8165690E-01
        1   -1    0    0  501    0  0.00000000000E+00  0.00000000000E+00  0.12414797494E+04  0.12414797494E+04  0.50400001928E-02 0.  1.
       -1   -1    0    0    0  501  0.00000000000E+00  0.00000000000E+00 -0.21784018464E+04  0.21784018464E+04  0.50400001928E-02 0. -1.
    10030    2    1    2    0    0  0.00000000000E+00  0.00000000000E+00 -0.93692209702E+03  0.34198815958E+04  0.32890374144E+04 0.  0.
        5    1    3    3  502    0  0.50810868725E+02  0.31734388492E+03 -0.21454235530E+04  0.21693670038E+04  0.46999998093E+01 0. -1.
       -5    1    3    3    0  502 -0.50810868725E+02 -0.31734388492E+03  0.12085014559E+04  0.12505145920E+04  0.46999998093E+01 0.  1.
</event>
<event>
 5   0  0.7032692E-06  0.2893008E+04  0.7818609E-02  0.8274961E-01
        1   -1    0    0  501    0  0.00000000000E+00  0.00000000000E+00  0.15649608520E+04  0.15649608520E+04  0.50400001928E-02 0. -1.
       -1   -1    0    0    0  501  0.00000000000E+00  0.00000000000E+00 -0.13370133645E+04  0.13370133645E+04  0.50400001928E-02 0.  1.
    10030    2    1    2    0    0  0.00000000000E+00  0.00000000000E+00  0.22794748751E+03  0.29019742165E+04  0.28930078286E+04 0.  0.
        5    1    3    3  502    0 -0.49918912289E+03  0.37204494894E+03 -0.11957314778E+04  0.13481109307E+04  0.46999998093E+01 0.  1.
       -5    1    3    3    0  502  0.49918912289E+03 -0.37204494894E+03  0.14236789654E+04  0.15538632858E+04  0.46999998093E+01 0. -1.
</event>
<event>
 5   0  0.5730920E-06  0.3237846E+04  0.7818609E-02  0.8178893E-01
       -1   -1    0    0    0  501  0.00000000000E+00  0.00000000000E+00  0.12737175107E+04  0.12737175107E+04  0.50400001928E-02 0.  1.
        1   -1    0    0  501    0  0.00000000000E+00  0.00000000000E+00 -0.20576869588E+04  0.20576869589E+04  0.50400001928E-02 0. -1.
    10030    2    1    2    0    0  0.00000000000E+00  0.00000000000E+00 -0.78396944811E+03  0.33314044696E+04  0.32378461428E+04 0.  0.
        1    1    3    3  502    0 -0.69658176281E+03 -0.14607681321E+04 -0.43614606756E+03  0.16760945917E+04  0.50400001928E-02 0. -1.
       -1    1    3    3    0  502  0.69658176281E+03  0.14607681321E+04 -0.34782338055E+03  0.16553098779E+04  0.50400001928E-02 0.  1.
</event>
<event>
 5   0  0.1423692E-05  0.2937543E+04  0.7818609E-02  0.8261794E-01
        2   -1    0    0  501    0  0.00000000000E+00  0.00000000000E+00  0.96238677009E+03  0.96238677009E+03  0.25500000920E-02 0. -1.
       -2   -1    0    0    0  501  0.00000000000E+00  0.00000000000E+00 -0.22416035622E+04  0.22416035622E+04  0.25500000920E-02 0.  1.
    10030    2    1    2    0    0  0.00000000000E+00  0.00000000000E+00 -0.12792167921E+04  0.32039903323E+04  0.29375429270E+04 0.  0.
        3    1    3    3  502    0 -0.96977683053E+03 -0.24449923881E+03 -0.18128343290E+04  0.20704142807E+04  0.10100000352E+00 0.  1.
       -3    1    3    3    0  502  0.96977683053E+03  0.24449923881E+03  0.53361753696E+03  0.11335760516E+04  0.10100000352E+00 0. -1.
</event>
<event>
 5   0  0.4806125E-06  0.2127202E+04  0.7818609E-02  0.8549355E-01
       -4   -1    0    0    0  501  0.00000000000E+00  0.00000000000E+00  0.83356831153E+03  0.83356927899E+03  0.12699999809E+01 0. -1.
        4   -1    0    0  501    0  0.00000000000E+00  0.00000000000E+00 -0.13571114733E+04  0.13571120676E+04  0.12699999809E+01 0.  1.
    10030    2    1    2    0    0  0.00000000000E+00  0.00000000000E+00 -0.52354316181E+03  0.21906813466E+04  0.21272017582E+04 0.  0.
        2    1    3    3  502    0 -0.22410159709E+03 -0.38443125301E+03 -0.12566424503E+04  0.13331013323E+04  0.25500000920E-02 0.  1.
       -2    1    3    3    0  502  0.22410159709E+03  0.38443125301E+03  0.73309928852E+03  0.85758001431E+03  0.25500000920E-02 0. -1.
</event>
<event>
 5   0  0.5329891E-06  0.3000776E+04  0.7818609E-02  0.8243509E-01
       -1   -1    0    0    0  501  0.00000000000E+00  0.00000000000E+00  0.80581304203E+03  0.80581304205E+03  0.50400001928E-02 0. -1.
        1   -1    0    0  501    0  0.00000000000E+00  0.00000000000E+00 -0.27936565456E+04  0.27936565456E+04  0.50400001928E-02 0.  1.
    10030    2    1    2    0    0  0.00000000000E+00  0.00000000000E+00 -0.19878435036E+04  0.35994695877E+04  0.30007764858E+04 0.  0.
        4    1    3    3  502    0  0.12451694992E+04 -0.72742133522E+03 -0.14907783791E+04  0.20741288941E+04  0.12699999809E+01 0.  1.
       -4    1    3    3    0  502 -0.12451694992E+04  0.72742133522E+03 -0.49706512447E+03  0.15253406936E+04  0.12699999809E+01 0. -1.
</event>
<event>
 5   0  0.1345931E-05  0.2005304E+04  0.7818609E-02  0.8604145E-01
        2   -1    0    0  501    0  0.00000000000E+00  0.00000000000E+00  0.10860163314E+04  0.10860163314E+04  0.25500000920E-02 0. -1.
       -2   -1    0    0    0  501  0.00000000000E+00  0.00000000000E+00 -0.92568638842E+03  0.92568638842E+03  0.25500000920E-02 0.  1.
    10030    2    1    2    0    0  0.00000000000E+00  0.00000000000E+00  0.16032994299E+03  0.20117027198E+04  0.20053035038E+04 0.  0.
        2    1    3    3  502    0 -0.47778033762E+03  0.80351233830E+03 -0.28348926839E+03  0.97686861661E+03  0.25500000920E-02 0.  1.
       -2    1    3    3    0  502  0.47778033762E+03 -0.80351233830E+03  0.44381921138E+03  0.10348341032E+04  0.25500000920E-02 0. -1.
</event>
<event>
 5   0  0.1345931E-05  0.3149850E+04  0.7818609E-02  0.8202189E-01
        2   -1    0    0  501    0  0.00000000000E+00  0.00000000000E+00  0.13013532440E+04  0.13013532440E+04  0.25500000920E-02 0.  1.
       -2   -1    0    0    0  501  0.00000000000E+00  0.00000000000E+00 -0.19060073450E+04  0.19060073450E+04  0.25500000920E-02 0. -1.
    10030    2    1    2    0    0  0.00000000000E+00  0.00000000000E+00 -0.60465410107E+03  0.32073605890E+04  0.31498500545E+04 0.  0.
        2    1    3    3  502    0 -0.51113289861E+03 -0.41876691983E+03  0.11533784458E+04  0.13292495674E+04  0.25500000920E-02 0.  1.
       -2    1    3    3    0  502  0.51113289861E+03  0.41876691983E+03 -0.17580325469E+04  0.18781110215E+04  0.25500000920E-02 0. -1.
</event>
<event>
 5   0  0.5730920E-06  0.2992473E+04  0.7818609E-02  0.8245883E-01
        1   -1    0    0  501    0  0.00000000000E+00  0.00000000000E+00  0.15444577210E+04  0.15444577210E+04  0.50400001928E-02 0.  1.
       -1   -1    0    0    0  501  0.00000000000E+00  0.00000000000E+00 -0.14495210913E+04  0.14495210913E+04  0.50400001928E-02 0. -1.
    10030    2    1    2    0    0  0.00000000000E+00  0.00000000000E+00  0.94936629760E+02  0.29939788123E+04  0.29924732522E+04 0.  0.
        1    1    3    3  502    0 -0.11284299343E+04 -0.14376562495E+03 -0.92497818590E+03  0.14661539196E+04  0.50400001928E-02 0. -1.
       -1    1    3    3    0  502  0.11284299343E+04  0.14376562495E+03  0.10199148157E+04  0.15278248927E+04  0.50400001928E-02 0.  1.
</event>
<event>
 5   0  0.1523029E-05  0.2975884E+04  0.7818609E-02  0.8250651E-01
        2   -1    0    0  501    0  0.00000000000E+00  0.00000000000E+00  0.20399846475E+04  0.20399846475E+04  0.25500000920E-02 0.  1.
       -2   -1    0    0    0  501  0.00000000000E+00  0.00000000000E+00 -0.10852885069E+04  0.10852885069E+04  0.25500000920E-02 0. -1.
    10030    2    1    2    0    0  0.00000000000E+00  0.00000000000E+00  0.95469614051E+03  0.31252731544E+04  0.29758843339E+04 0.  0.
        5    1    3    3  502    0 -0.47893880352E+02 -0.61283282221E+03  0.19003947387E+04  0.19973432716E+04  0.46999998093E+01 0.  1.
       -5    1    3    3    0  502  0.47893880352E+02  0.61283282221E+03 -0.94569859823E+03  0.11279298828E+04  0.46999998093E+01 0. -1.
</event>
<event>
 5   0  0.5522695E-06  0.2492415E+04  0.7818609E-02  0.8405693E-01
       -1   -1    0    0    0  501  0.00000000000E+00  0.00000000000E+00  0.10955889624E+04  0.10955889625E+04  0.50400001928E-02 0.  1.
        1   -1    0    0  501    0  0.00000000000E+00  0.00000000000E+00 -0.14175328375E+04  0.14175328376E+04  0.50400001928E-02 0. -1.
    10030    2    1    2    0    0  0.00000000000E+00  0.00000000000E+00 -0.32194387510E+03  0.25131218000E+04  0.24924151586E+04 0.  0.
        3    1    3    3  502    0 -0.45132277021E+03 -0.35423719384E+03  0.95449963593E+03  0.11136632335E+04  0.10100000352E+00 0.  1.
       -3    1    3    3    0  502  0.45132277021E+03  0.35423719384E+03 -0.12764435110E+04  0.13994585665E+04  0.10100000352E+00 0. -1.
</event>
<event>
 5   0  0.1388724E-05  0.3005669E+04  0.7818609E-02  0.8242114E-01
       -2   -1    0    0    0  501  0.00000000000E+00  0.00000000000E+00  0.87174505816E+03  0.87174505816E+03  0.25500000920E-02 0.  1.
        2   -1    0    0  501    0  0.00000000000E+00  0.00000000000E+00 -0.25907938185E+04  0.25907938185E+04  0.25500000920E-02 0. -1.
    10030    2    1    2    0    0  0.00000000000E+00  0.00000000000E+00 -0.17190487603E+04  0.34625388766E+04  0.30056691155E+04 0.  0.
        4    1    3    3  502    0  0.91637266020E+03  0.60151019580E+03 -0.20438799125E+04  0.23192671424E+04  0.12699999809E+01 0. -1.
       -4    1    3    3    0  502 -0.91637266020E+03 -0.60151019580E+03  0.32483115220E+03  0.11432717343E+04  0.12699999809E+01 0.  1.
</event>
<event>
 5   0  0.4806125E-06  0.1572720E+04  0.7818609E-02  0.8837485E-01
        4   -1    0    0  501    0  0.00000000000E+00  0.00000000000E+00  0.67590438615E+03  0.67590557929E+03  0.12699999809E+01 0.  1.
       -4   -1    0    0    0  501  0.00000000000E+00  0.00000000000E+00 -0.91486351549E+03  0.91486439699E+03  0.12699999809E+01 0. -1.
    10030    2    1    2    0    0  0.00000000000E+00  0.00000000000E+00 -0.23895912934E+03  0.15907699763E+04  0.15727198263E+04 0.  0.
        2    1    3    3  502    0 -0.75574559145E+02  0.75187851533E+03  0.10056980759E+03  0.76233004796E+03  0.25500000920E-02 0. -1.
       -2    1    3    3    0  502  0.75574559145E+02 -0.75187851533E+03 -0.33952893694E+03  0.82843992832E+03  0.25500000920E-02 0.  1.
</event>
<event>
 5   0  0.5730920E-06  0.1998682E+04  0.7818609E-02  0.8607237E-01
       -1   -1    0    0    0  501  0.00000000000E+00  0.00000000000E+00  0.73339751720E+03  0.73339751722E+03  0.50400001928E-02 0. -1.
        1   -1    0    0  501    0  0.00000000000E+00  0.00000000000E+00 -0.13617201087E+04  0.13617201087E+04  0.50400001928E-02 0.  1.
    10030    2    1    2    0    0  0.00000000000E+00  0.00000000000E+00 -0.62832259148E+03  0.20951176259E+04  0.19986817124E+04 0.  0.
        1    1    3    3  502    0  0.86584799998E+03  0.33777145675E+03  0.70847342976E+02  0.93209530741E+03  0.50400001928E-02 0. -1.
       -1    1    3    3    0  502 -0.86584799998E+03 -0.33777145675E+03 -0.69916993446E+03  0.11630223185E+04  0.50400001928E-02 0.  1.
</event>
<event>
 5   0  0.5730920E-06  0.2973217E+04  0.7818609E-02  0.8251420E-01
       -1   -1    0    0    0  501  0.00000000000E+00  0.00000000000E+00  0.10555189688E+04  0.10555189688E+04  0.50400001928E-02 0.  1.
        1   -1    0    0  501    0  0.00000000000E+00  0.00000000000E+00 -0.20937616540E+04  0.20937616540E+04  0.50400001928E-02 0. -1.
    10030    2    1    2    0    0  0.00000000000E+00  0.00000000000E+00 -0.10382426852E+04  0.31492806229E+04  0.29732172083E+04 0.  0.
        1    1    3    3  502    0 -0.97935355019E+03 -0.10481495504E+04 -0.93242522646E+03  0.17108967412E+04  0.50400001928E-02 0.  1.
       -1    1    3    3    0  502  0.97935355019E+03  0.10481495504E+04 -0.10581745878E+03  0.14383838816E+04  0.50400001928E-02 0. -1.
</event>
<event>
 5   0  0.5522695E-06  0.2961910E+04  0.7818609E-02  0.8254692E-01
       -1   -1    0    0    0  501  0.00000000000E+00  0.00000000000E+00  0.87857377493E+03  0.87857377495E+03  0.50400001928E-02 0.  1.
        1   -1    0    0  501    0  0.00000000000E+00  0.00000000000E+00 -0.24963504925E+04  0.24963504925E+04  0.50400001928E-02 0. -1.
    10030    2    1    2    0    0  0.00000000000E+00  0.00000000000E+00 -0.16177767176E+04  0.33749242675E+04  0.29619102456E+04 0.  0.
        3    1    3    3  502    0  0.13547751408E+04 -0.59334541649E+03 -0.72245886427E+03  0.16460319822E+04  0.10100000352E+00 0. -1.
       -3    1    3    3    0  502 -0.13547751408E+04  0.59334541649E+03 -0.89531785330E+03  0.17288922853E+04  0.10100000352E+00 0.  1.
</event>
<event>
 5   0  0.1388724E-05  0.2997554E+04  0.7818609E-02  0.8244430E-01
       -2   -1    0    0    0  501  0.00000000000E+00  0.00000000000E+00  0.16038222528E+04  0.16038222528E+04  0.25500000920E-02 0.  1.
        2   -1    0    0  501    0  0.00000000000E+00  0.00000000000E+00 -0.14006115226E+04  0.14006115226E+04  0.25500000920E-02 0. -1.
    10030    2    1    2    0    0  0.00000000000E+00  0.00000000000E+00  0.20321073019E+03  0.30044337753E+04  0.29975536208E+04 0.  0.
        4    1    3    3  502    0  0.69184447843E+03 -0.12001114976E+04 -0.47190893148E+03  0.14634261312E+04  0.12699999809E+01 0. -1.
       -4    1    3    3    0  502 -0.69184447843E+03  0.12001114976E+04  0.67511966168E+03  0.15410076442E+04  0.12699999809E+01 0.  1.
</event>
<event>
 5   0  0.1480547E-05  0.3008124E+04  0.7818609E-02  0.8241415E-01
        2   -1    0    0  501    0  0.00000000000E+00  0.00000000000E+00  0.19842427097E+04  0.19842427097E+04  0.25500000920E-02 0. -1.
       -2   -1    0    0    0  501  0.00000000000E+00  0.00000000000E+00 -0.11400833641E+04  0.11400833641E+04  0.25500000920E-02 0.  1.
    10030    2    1    2    0    0  0.00000000000E+00  0.00000000000E+00  0.84415934558E+03  0.31243260738E+04  0.30081237366E+04 0.  0.
        1    1    3    3  502    0  0.12073262193E+04 -0.69902320692E+03 -0.16171147630E+03  0.14044289391E+04  0.50400001928E-02 0.  1.
       -1    1    3    3    0  502 -0.12073262193E+04  0.69902320692E+03  0.10058708219E+04  0.17198971347E+04  0.50400001928E-02 0. -1.
</event>
<event>
 5   0  0.4806125E-06  0.2635771E+04  0.7818609E-02  0.8356151E-01
        4   -1    0    0  501    0  0.00000000000E+00  0.00000000000E+00  0.18335332590E+04  0.18335336988E+04  0.12699999809E+01 0. -1.
       -4   -1    0    0    0  501  0.00000000000E+00  0.00000000000E+00 -0.94725341177E+03  0.94725426313E+03  0.12699999809E+01 0.  1.
    10030    2    1    2    0    0  0.00000000000E+00  0.00000000000E+00  0.88627984720E+03  0.27807879619E+04  0.26357711816E+04 0.  0.
        4    1    3    3  502    0  0.44487601644E+03 -0.12334990514E+04  0.58225140470E+03  0.14347309473E+04  0.12699999809E+01 0. -1.
       -4    1    3    3    0  502 -0.44487601644E+03  0.12334990514E+04  0.30402844250E+03  0.13460570146E+04  0.12699999809E+01 0.  1.
</event>
<event>
 5   0  0.5392262E-06  0.1500004E+04  0.7818609E-02  0.8884450E-01
       -1   -1    0    0    0  501  0.00000000000E+00  0.00000000000E+00  0.88940888341E+03  0.88940888343E+03  0.50400001928E-02 0.  1.
        1   -1    0    0  501    0  0.00000000000E+00  0.00000000000E+00 -0.63244597202E+03  0.63244597204E+03  0.50400001928E-02 0. -1.
    10030    2    1    2    0    0  0.00000000000E+00  0.00000000000E+00  0.25696291139E+03  0.15218548555E+04  0.15000040878E+04 0.  0.
        2    1    3    3  502    0  0.44594063502E+03 -0.54884623608E+02 -0.48078929449E+03  0.65805297474E+03  0.25500000920E-02 0. -1.
       -2    1    3    3    0  502 -0.44594063502E+03  0.54884623608E+02  0.73775220588E+03  0.86380188073E+03  0.25500000920E-02 0.  1.
</event>
<event>
 5   0  0.4806125E-06  0.2435914E+04  0.7818609E-02  0.8426179E-01
        3   -1    0    0  501    0  0.00000000000E+00  0.00000000000E+00  0.23190741599E+04  0.23190741621E+04  0.10100000352E+00 0.  1.
       -3   -1    0    0    0  501  0.00000000000E+00  0.00000000000E+00 -0.63966018124E+03  0.63966018922E+03  0.10100000352E+00 0. -1.
    10030    2    1    2    0    0  0.00000000000E+00  0.00000000000E+00  0.16794139787E+04  0.29587343513E+04  0.24359141302E+04 0.  0.
        3    1    3    3  502    0 -0.15138092854E+03 -0.49586424226E+03  0.21783492997E+04  0.22391970020E+04  0.10100000352E+00 0.  1.
       -3    1    3    3    0  502  0.15138092854E+03  0.49586424226E+03 -0.49893532101E+03  0.71953734930E+03  0.10100000352E+00 0. -1.
</event>
<event>
 5   0  0.1388724E-05  0.2235042E+04  0.7818609E-02  0.8503983E-01
       -2   -1    0    0    0  501  0.00000000000E+00  0.00000000000E+00  0.60446772222E+03  0.60446772222E+03  0.25500000920E-02 0.  1.
        2   -1    0    0  501    0  0.00000000000E+00  0.00000000000E+00 -0.20660384853E+04  0.20660384853E+04  0.25500000920E-02 0. -1.
    10030    2    1    2    0    0  0.00000000000E+00  0.00000000000E+00 -0.14615707631E+04  0.26705062076E+04  0.22350423506E+04 0.  0.
        4    1    3    3  502    0 -0.31816790328E+03 -0.82266338393E+03 -0.15506597829E+04  0.17839711974E+04  0.12699999809E+01 0. -1.
       -4    1    3    3    0  502  0.31816790328E+03  0.82266338393E+03  0.89089019767E+02  0.88653501018E+03  0.12699999809E+01 0.  1.
</event>
<event>
 5   0  0.5522695E-06  0.2926519E+04  0.7818609E-02  0.8265031E-01
       -1   -1    0    0    0  501  0.00000000000E+00  0.00000000000E+00  0.14411559374E+04  0.14411559374E+04  0.50400001928E-02 0.  1.
        1   -1    0    0  501    0  0.00000000000E+00  0.00000000000E+00 -0.14857022005E+04  0.14857022005E+04  0.50400001928E-02 0. -1.
    10030    2    1    2    0    0  0.00000000000E+00  0.00000000000E+00 -0.44546263149E+02  0.29268581379E+04  0.29265191252E+04 0.  0.
        3    1    3    3  502    0 -0.43952126957E+03  0.56605655640E+03 -0.12981675861E+04  0.14828479569E+04  0.10100000352E+00 0. -1.
       -3    1    3    3    0  502  0.43952126957E+03 -0.56605655640E+03  0.12536213229E+04  0.14440101811E+04  0.10100000352E+00 0.  1.
</event>
<event>
 5   0  0.1388724E-05  0.2980527E+04  0.7818609E-02  0.8249313E-01
       -2   -1    0    0    0  501  0.00000000000E+00  0.00000000000E+00  0.12814987920E+04  0.12814987920E+04  0.25500000920E-02 0.  1.
        2   -1    0    0  501    0  0.00000000000E+00  0.00000000000E+00 -0.17330376840E+04  0.17330376840E+04  0.25500000920E-02 0. -1.
    10030    2    1    2    0    0  0.00000000000E+00  0.00000000000E+00 -0.45153889198E+03  0.30145364760E+04  0.29805272678E+04 0.  0.
        4    1    3    3  502    0  0.10473226894E+04  0.80798729108E+03 -0.92000958227E+03  0.16112565043E+04  0.12699999809E+01 0. -1.
       -4    1    3    3    0  502 -0.10473226894E+04 -0.80798729108E+03  0.46847069029E+03  0.14032799717E+04  0.12699999809E+01 0.  1.
</event>
<event>
 5   0  0.5522695E-06  0.2959370E+04  0.7818609E-02  0.8255429E-01
        1   -1    0    0  501    0  0.00000000000E+00  0.00000000000E+00  0.10151064343E+04  0.10151064343E+04  0.50400001928E-02 0. -1.
       -1   -1    0    0    0  501  0.00000000000E+00  0.00000000000E+00 -0.21568849710E+04  0.21568849710E+04  0.50400001928E-02 0.  1.
    10030    2    1    2    0    0  0.00000000000E+00  0.00000000000E+00 -0.11417785367E+04  0.31719914053E+04  0.29593700763E+04 0.  0.
        3    1    3    3  502    0  0.10623792302E+04 -0.73514855325E+03  0.20230894721E+03  0.13076780737E+04  0.10100000352E+00 0. -1.
       -3    1    3    3    0  502 -0.10623792302E+04  0.73514855325E+03 -0.13440874839E+04  0.18643133316E+04  0.10100000352E+00 0.  1.
</event>
<event>
 5   0  0.5730920E-06  0.3237461E+04  0.7818609E-02  0.8178993E-01
        1   -1    0    0  501    0  0.00000000000E+00  0.00000000000E+00  0.12739074401E+04  0.12739074401E+04  0.50400001928E-02 0.  1.
       -1   -1    0    0    0  501  0.00000000000E+00  0.00000000000E+00 -0.20568905696E+04  0.20568905696E+04  0.50400001928E-02 0. -1.
    10030    2    1    2    0    0  0.00000000000E+00  0.00000000000E+00 -0.78298312948E+03  0.33307980097E+04  0.32374608570E+04 0.  0.
        1    1    3    3  502    0 -0.22226320349E+02 -0.38304249063E+03  0.12264476702E+04  0.12850639855E+04  0.50400001928E-02 0.  1.
       -1    1    3    3    0  502  0.22226320349E+02  0.38304249063E+03 -0.20094307997E+04  0.20457340242E+04  0.50400001928E-02 0. -1.
</event>
<event>
 5   0  0.1388724E-05  0.1561748E+04  0.7818609E-02  0.8844399E-01
       -2   -1    0    0    0  501  0.00000000000E+00  0.00000000000E+00  0.27660116603E+03  0.27660116605E+03  0.25500000920E-02 0.  1.
        2   -1    0    0  501    0  0.00000000000E+00  0.00000000000E+00 -0.22044888395E+04  0.22044888395E+04  0.25500000920E-02 0. -1.
    10030    2    1    2    0    0  0.00000000000E+00  0.00000000000E+00 -0.19278876735E+04  0.24810900056E+04  0.15617479740E+04 0.  0.
        4    1    3    3  502    0  0.57441443970E+03  0.48487504515E+03 -0.62803732546E+03  0.97953471252E+03  0.12699999809E+01 0.  1.
       -4    1    3    3    0  502 -0.57441443970E+03 -0.48487504515E+03 -0.12998503480E+04  0.15015552931E+04  0.12699999809E+01 0. -1.
</event>
<event>
 5   0  0.1480547E-05  0.3006863E+04  0.7818609E-02  0.8241774E-01
        2   -1    0    0  501    0  0.00000000000E+00  0.00000000000E+00  0.18500996282E+04  0.18500996282E+04  0.25500000920E-02 0.  1.
       -2   -1    0    0    0  501  0.00000000000E+00  0.00000000000E+00 -0.12217215003E+04  0.12217215003E+04  0.25500000920E-02 0. -1.
    10030    2    1    2    0    0  0.00000000000E+00  0.00000000000E+00  0.62837812783E+03  0.30718211285E+04  0.30068631452E+04 0.  0.
        1    1    3    3  502    0 -0.10902293267E+04  0.53467032903E+03  0.12198126186E+04  0.17211668048E+04  0.50400001928E-02 0.  1.
       -1    1    3    3    0  502  0.10902293267E+04 -0.53467032903E+03 -0.59143449072E+03  0.13506543238E+04  0.50400001928E-02 0. -1.
</event>
<event>
 5   0  0.1345931E-05  0.2962557E+04  0.7818609E-02  0.8254505E-01
       -2   -1    0    0    0  501  0.00000000000E+00  0.00000000000E+00  0.95819024595E+03  0.95819024595E+03  0.25500000920E-02 0. -1.
        2   -1    0    0  501    0  0.00000000000E+00  0.00000000000E+00 -0.22899265974E+04  0.22899265974E+04  0.25500000920E-02 0.  1.
    10030    2    1    2    0    0  0.00000000000E+00  0.00000000000E+00 -0.13317363514E+04  0.32481168433E+04  0.29625565511E+04 0.  0.
        2    1    3    3  502    0  0.11715553783E+04 -0.86488728667E+03 -0.96333816451E+03  0.17460218906E+04  0.25500000920E-02 0.  1.
       -2    1    3    3    0  502 -0.11715553783E+04  0.86488728667E+03 -0.36839818692E+03  0.15020949528E+04  0.25500000920E-02 0. -1.
</event>
<event>
 5   0  0.1388724E-05  0.3054113E+04  0.7818609E-02  0.8228445E-01
        2   -1    0    0  501    0  0.00000000000E+00  0.00000000000E+00  0.18504728031E+04  0.18504728031E+04  0.25500000920E-02 0.  1.
       -2   -1    0    0    0  501  0.00000000000E+00  0.00000000000E+00 -0.12601649085E+04  0.12601649086E+04  0.25500000920E-02 0. -1.
    10030    2    1    2    0    0  0.00000000000E+00  0.00000000000E+00  0.59030789458E+03  0.31106377117E+04  0.30541125655E+04 0.  0.
        4    1    3    3  502    0  0.12947586783E+04  0.70970256398E+03  0.69200821166E+03  0.16306301672E+04  0.12699999809E+01 0.  1.
       -4    1    3    3    0  502 -0.12947586783E+04 -0.70970256398E+03 -0.10170031708E+03  0.14800075445E+04  0.12699999809E+01 0. -1.
</event>
<event>
 5   0  0.5730920E-06  0.3091661E+04  0.7818609E-02  0.8218030E-01
       -1   -1    0    0    0  501  0.00000000000E+00  0.00000000000E+00  0.19114452718E+04  0.19114452718E+04  0.50400001928E-02 0. -1.
        1   -1    0    0  501    0  0.00000000000E+00  0.00000000000E+00 -0.12501496434E+04  0.12501496434E+04  0.50400001928E-02 0.  1.
    10030    2    1    2    0    0  0.00000000000E+00  0.00000000000E+00  0.66129562837E+03  0.31615949152E+04  0.30916614465E+04 0.  0.
        1    1    3    3  502    0  0.82799246449E+03  0.11072260882E+04  0.10377150581E+04  0.17286913181E+04  0.50400001928E-02 0. -1.
       -1    1    3    3    0  502 -0.82799246449E+03 -0.11072260882E+04 -0.37641942969E+03  0.14329035971E+04  0.50400001928E-02 0.  1.
</event>
<event>
 5   0  0.5522695E-06  0.2990360E+04  0.7818609E-02  0.8246489E-01
        1   -1    0    0  501    0  0.00000000000E+00  0.00000000000E+00  0.22507998951E+04  0.22507998951E+04  0.50400001928E-02 0.  1.
       -1   -1    0    0    0  501  0.00000000000E+00  0.00000000000E+00 -0.99323065670E+03  0.99323065671E+03  0.50400001928E-02 0. -1.
    10030    2    1    2    0    0  0.00000000000E+00  0.00000000000E+00  0.12575692384E+04  0.32440305518E+04  0.29903601508E+04 0.  0.
        3    1    3    3  502    0  0.14047449625E+04 -0.41264161271E+03  0.95779735961E+03  0.17495591738E+04  0.10100000352E+00 0.  1.
       -3    1    3    3    0  502 -0.14047449625E+04  0.41264161271E+03  0.29977187878E+03  0.14944713780E+04  0.10100000352E+00 0. -1.
</event>
<event>
 5   0  0.1345931E-05  0.3039241E+04  0.7818609E-02  0.8232613E-01
       -2   -1    0    0    0  501  0.00000000000E+00  0.00000000000E+00  0.16964263938E+04  0.16964263938E+04  0.25500000920E-02 0. -1.
        2   -1    0    0  501    0  0.00000000000E+00  0.00000000000E+00 -0.13612414192E+04  0.13612414192E+04  0.25500000920E-02 0.  1.
    10030    2    1    2    0    0  0.00000000000E+00  0.00000000000E+00  0.33518497460E+03  0.30576678131E+04  0.30392406104E+04 0.  0.
        2    1    3    3  502    0 -0.62166141967E+03 -0.63264025248E+03  0.14089900677E+04  0.16649173014E+04  0.25500000920E-02 0. -1.
       -2    1    3    3    0  502  0.62166141967E+03  0.63264025248E+03 -0.10738050931E+04  0.13927505117E+04  0.25500000920E-02 0.  1.
</event>
<event>
 5   0  0.5392262E-06  0.3043764E+04  0.7818609E-02  0.8231343E-01
        1   -1    0    0  501    0  0.00000000000E+00  0.00000000000E+00  0.21732278014E+04  0.21732278014E+04  0.50400001928E-02 0.  1.
       -1   -1    0    0    0  501  0.00000000000E+00  0.00000000000E+00 -0.10657532818E+04  0.10657532819E+04  0.50400001928E-02 0. -1.
    10030    2    1    2    0    0  0.00000000000E+00  0.00000000000E+00  0.11074745195E+04  0.32389810832E+04  0.30437638946E+04 0.  0.
        2    1    3    3  502    0 -0.10221274845E+04  0.23781587263E+03  0.17266185932E+04  0.20205228903E+04  0.25500000920E-02 0.  1.
       -2    1    3    3    0  502  0.10221274845E+04 -0.23781587263E+03 -0.61914407369E+03  0.12184581929E+04  0.25500000920E-02 0. -1.
</event>
<event>
 5   0  0.5329891E-06  0.3003651E+04  0.7818609E-02  0.8242689E-01
        1   -1    0    0  501    0  0.00000000000E+00  0.00000000000E+00  0.18076379675E+04  0.18076379675E+04  0.50400001928E-02 0.  1.
       -1   -1    0    0    0  501  0.00000000000E+00  0.00000000000E+00 -0.12477494840E+04  0.12477494840E+04  0.50400001928E-02 0. -1.
    10030    2    1    2    0    0  0.00000000000E+00  0.00000000000E+00  0.55988848345E+03  0.30553874515E+04  0.30036506729E+04 0.  0.
        4    1    3    3  502    0  0.96872667909E+03 -0.11383742016E+04  0.13200701905E+03  0.15005847752E+04  0.12699999809E+01 0.  1.
       -4    1    3    3    0  502 -0.96872667909E+03  0.11383742016E+04  0.42788146440E+03  0.15548026763E+04  0.12699999809E+01 0. -1.
</event>
<event>
 5   0  0.5329891E-06  0.1776315E+04  0.7818609E-02  0.8718997E-01
       -1   -1    0    0    0  501  0.00000000000E+00  0.00000000000E+00  0.69818266051E+03  0.69818266052E+03  0.50400001928E-02 0.  1.
        1   -1    0    0  501    0  0.00000000000E+00  0.00000000000E+00 -0.11298239756E+04  0.11298239756E+04  0.50400001928E-02 0. -1.
    10030    2    1    2    0    0  0.00000000000E+00  0.00000000000E+00 -0.43164131505E+03  0.18280066361E+04  0.17763147347E+04 0.  0.
        4    1    3    3  502    0 -0.20936104565E+03 -0.59505799720E+03  0.42759017396E+03  0.76207679221E+03  0.12699999809E+01 0.  1.
       -4    1    3    3    0  502  0.20936104565E+03  0.59505799720E+03 -0.85923148901E+03  0.10659298439E+04  0.12699999809E+01 0. -1.
</event>
<event>
 5   0  0.1345931E-05  0.1618673E+04  0.7818609E-02  0.8809158E-01
       -2   -1    0    0    0  501  0.00000000000E+00  0.00000000000E+00  0.70343776243E+03  0.70343776244E+03  0.25500000920E-02 0.  1.
        2   -1    0    0  501    0  0.00000000000E+00  0.00000000000E+00 -0.93117721006E+03  0.93117721006E+03  0.25500000920E-02 0. -1.
    10030    2    1    2    0    0  0.00000000000E+00  0.00000000000E+00 -0.22773944763E+03  0.16346149725E+04  0.16186725587E+04 0.  0.
        2    1    3    3  502    0 -0.16303222669E+03  0.38510182950E+03  0.58587792321E+03  0.71981655089E+03  0.25500000920E-02 0.  1.
       -2    1    3    3    0  502  0.16303222669E+03 -0.38510182950E+03 -0.81361737084E+03  0.91479842160E+03  0.25500000920E-02 0. -1.
</event>
<event>
 5   0  0.5730920E-06  0.3036506E+04  0.7818609E-02  0.8233383E-01
       -1   -1    0    0    0  501  0.00000000000E+00  0.00000000000E+00  0.12911897667E+04  0.12911897667E+04  0.50400001928E-02 0. -1.
        1   -1    0    0  501    0  0.00000000000E+00  0.00000000000E+00 -0.17852464207E+04  0.17852464207E+04  0.50400001928E-02 0.  1.
    10030    2    1    2    0    0  0.00000000000E+00  0.00000000000E+00 -0.49405665396E+03  0.30764361874E+04  0.30365058271E+04 0.  0.
        1    1    3    3  502    0 -0.39912512746E+02  0.10810203437E+04  0.83229465978E+03  0.13648854871E+04  0.50400001928E-02 0. -1.
       -1    1    3    3    0  502  0.39912512746E+02 -0.10810203437E+04 -0.13263513137E+04  0.17115507003E+04  0.50400001928E-02 0.  1.
</event>
<event>
 5   0  0.1345931E-05  0.3024386E+04  0.7818609E-02  0.8236802E-01
        2   -1    0    0  501    0  0.00000000000E+00  0.00000000000E+00  0.24296134766E+04  0.24296134766E+04  0.25500000920E-02 0.  1.
       -2   -1    0    0    0  501  0.00000000000E+00  0.00000000000E+00 -0.94118962749E+03  0.94118962749E+03  0.25500000920E-02 0. -1.
    10030    2    1    2    0    0  0.00000000000E+00  0.00000000000E+00  0.14884238491E+04  0.33708031041E+04  0.30243855594E+04 0.  0.
        2    1    3    3  502    0  0.39385781348E+03 -0.69231432032E+03  0.21768655212E+04  0.23180091874E+04  0.25500000920E-02 0.  1.
       -2    1    3    3    0  502 -0.39385781348E+03  0.69231432032E+03 -0.68844167205E+03  0.10527939168E+04  0.25500000920E-02 0. -1.
</event>
<event>
 5   0  0.1345931E-05  0.3050621E+04  0.7818609E-02  0.8229422E-01
       -2   -1    0    0    0  501  0.00000000000E+00  0.00000000000E+00  0.15747411212E+04  0.15747411212E+04  0.25500000920E-02 0. -1.
        2   -1    0    0  501    0  0.00000000000E+00  0.00000000000E+00 -0.14774319235E+04  0.14774319235E+04  0.25500000920E-02 0.  1.
    10030    2    1    2    0    0  0.00000000000E+00  0.00000000000E+00  0.97309197621E+02  0.30521730447E+04  0.30506214473E+04 0.  0.
        2    1    3    3  502    0  0.26683852973E+03  0.14337667162E+04  0.49574092387E+03  0.15403405017E+04  0.25500000920E-02 0. -1.
       -2    1    3    3    0  502 -0.26683852973E+03 -0.14337667162E+04 -0.39843172625E+03  0.15118325430E+04  0.25500000920E-02 0.  1.
</event>
<event>
 5   0  0.1345931E-05  0.3023537E+04  0.7818609E-02  0.8237042E-01
        2   -1    0    0  501    0  0.00000000000E+00  0.00000000000E+00  0.20516076342E+04  0.20516076342E+04  0.25500000920E-02 0. -1.
       -2   -1    0    0    0  501  0.00000000000E+00  0.00000000000E+00 -0.11139769591E+04  0.11139769591E+04  0.25500000920E-02 0.  1.
    10030    2    1    2    0    0  0.00000000000E+00  0.00000000000E+00  0.93763067508E+03  0.31655845933E+04  0.30235367593E+04 0.  0.
        2    1    3    3  502    0  0.64048760606E+03 -0.84546355868E+03  0.15966476164E+04  0.19168507019E+04  0.25500000920E-02 0. -1.
       -2    1    3    3    0  502 -0.64048760606E+03  0.84546355868E+03 -0.65901694132E+03  0.12487338914E+04  0.25500000920E-02 0.  1.
</event>
<event>
 5   0  0.1480547E-05  0.3091989E+04  0.7818609E-02  0.8217940E-01
       -2   -1    0    0    0  501  0.00000000000E+00  0.00000000000E+00  0.13551782143E+04  0.13551782143E+04  0.25500000920E-02 0. -1.
        2   -1    0    0  501    0  0.00000000000E+00  0.00000000000E+00 -0.17636792917E+04  0.17636792917E+04  0.25500000920E-02 0.  1.
    10030    2    1    2    0    0  0.00000000000E+00  0.00000000000E+00 -0.40850107738E+03  0.31188575060E+04  0.30919894910E+04 0.  0.
        1    1    3    3  502    0  0.66665850406E+03  0.48292425040E+03 -0.15242280122E+04  0.17323164912E+04  0.50400001928E-02 0.  1.
       -1    1    3    3    0  502 -0.66665850406E+03 -0.48292425040E+03  0.11157269348E+04  0.13865410148E+04  0.50400001928E-02 0. -1.
</event>
<event>
 5   0  0.5392262E-06  0.3025904E+04  0.7818609E-02  0.8236372E-01
       -1   -1    0    0    0  501  0.00000000000E+00  0.00000000000E+00  0.14346647302E+04  0.14346647302E+04  0.50400001928E-02 0. -1.
        1   -1    0    0  501    0  0.00000000000E+00  0.00000000000E+00 -0.15955109600E+04  0.15955109600E+04  0.50400001928E-02 0.  1.
    10030    2    1    2    0    0  0.00000000000E+00  0.00000000000E+00 -0.16084622986E+03  0.30301756902E+04  0.30259037004E+04 0.  0.
        2    1    3    3  502    0  0.85695640659E+03 -0.44609834197E+03  0.10855424963E+04  0.14531966573E+04  0.25500000920E-02 0. -1.
       -2    1    3    3    0  502 -0.85695640659E+03  0.44609834197E+03 -0.12463887262E+04  0.15769790329E+04  0.25500000920E-02 0.  1.
</event>
<event>
 5   0  0.1388724E-05  0.3015122E+04  0.7818609E-02  0.8239426E-01
       -2   -1    0    0    0  501  0.00000000000E+00  0.00000000000E+00  0.93000971206E+03  0.93000971206E+03  0.25500000920E-02 0. -1.
        2   -1    0    0  501    0  0.00000000000E+00  0.00000000000E+00 -0.24437812408E+04  0.24437812408E+04  0.25500000920E-02 0.  1.
    10030    2    1    2    0    0  0.00000000000E+00  0.00000000000E+00 -0.15137715287E+04  0.33737909528E+04  0.30151220792E+04 0.  0.
        4    1    3    3  502    0  0.57217487343E+03 -0.11465155400E+04 -0.16456337518E+04  0.20856639296E+04  0.12699999809E+01 0.  1.
       -4    1    3    3    0  502 -0.57217487343E+03  0.11465155400E+04  0.13186222309E+03  0.12881270232E+04  0.12699999809E+01 0. -1.
</event>
<event>
 5   0  0.1523029E-05  0.3401098E+04  0.7818609E-02  0.8137637E-01
        2   -1    0    0  501    0  0.00000000000E+00  0.00000000000E+00  0.20404785443E+04  0.20404785443E+04  0.25500000920E-02 0.  1.
       -2   -1    0    0    0  501  0.00000000000E+00  0.00000000000E+00 -0.14172497162E+04  0.14172497162E+04  0.25500000920E-02 0. -1.
    10030    2    1    2    0    0  0.00000000000E+00  0.00000000000E+00  0.62322882805E+03  0.34577282605E+04  0.34010984331E+04 0.  0.
        5    1    3    3  502    0 -0.62343324392E+03 -0.15765230786E+04  0.17616116054E+03  0.17044497269E+04  0.46999998093E+01 0. -1.
       -5    1    3    3    0  502  0.62343324392E+03  0.15765230786E+04  0.44706766751E+03  0.17532785336E+04  0.46999998093E+01 0.  1.
</event>
<event>
 5   0  0.5522695E-06  0.1738307E+04  0.7818609E-02  0.8739813E-01
        1   -1    0    0  501    0  0.00000000000E+00  0.00000000000E+00  0.11030458840E+04  0.11030458841E+04  0.50400001928E-02 0.  1.
       -1   -1    0    0    0  501  0.00000000000E+00  0.00000000000E+00 -0.68485624192E+03  0.68485624194E+03  0.50400001928E-02 0. -1.
    10030    2    1    2    0    0  0.00000000000E+00  0.00000000000E+00  0.41818964212E+03  0.17879021260E+04  0.17383070601E+04 0.  0.
        3    1    3    3  502    0 -0.83300881634E+03  0.14671853476E+03  0.33942614125E+01  0.84583777862E+03  0.10100000352E+00 0. -1.
       -3    1    3    3    0  502  0.83300881634E+03 -0.14671853476E+03  0.41479538071E+03  0.94206434737E+03  0.10100000352E+00 0.  1.
</event>
<event>
 5   0  0.1523029E-05  0.3000301E+04  0.7818609E-02  0.8243645E-01
       -2   -1    0    0    0  501  0.00000000000E+00  0.00000000000E+00  0.97673381423E+03  0.97673381423E+03  0.25500000920E-02 0. -1.
        2   -1    0    0  501    0  0.00000000000E+00  0.00000000000E+00 -0.23040585594E+04  0.23040585594E+04  0.25500000920E-02 0.  1.
    10030    2    1    2    0    0  0.00000000000E+00  0.00000000000E+00 -0.13273247452E+04  0.32807923736E+04  0.30003012548E+04 0.  0.
        5    1    3    3  502    0 -0.27150895551E+03 -0.96113781603E+03 -0.18876491682E+04  0.21355899621E+04  0.46999998093E+01 0.  1.
       -5    1    3    3    0  502  0.27150895551E+03  0.96113781603E+03  0.56032442298E+03  0.11452024115E+04  0.46999998093E+01 0. -1.
</event>
<event>
 5   0  0.7032692E-06  0.2903274E+04  0.7818609E-02  0.8271904E-01
        1   -1    0    0  501    0  0.00000000000E+00  0.00000000000E+00  0.22031350698E+04  0.22031350698E+04  0.50400001928E-02 0.  1.
       -1   -1    0    0    0  501  0.00000000000E+00  0.00000000000E+00 -0.95647807047E+03  0.95647807049E+03  0.50400001928E-02 0. -1.
    10030    2    1    2    0    0  0.00000000000E+00  0.00000000000E+00  0.12466569993E+04  0.31596131403E+04  0.29032742761E+04 0.  0.
        5    1    3    3  502    0  0.61147933188E+03  0.66915254752E+03  0.18572609237E+04  0.20666669625E+04  0.46999998093E+01 0.  1.
       -5    1    3    3    0  502 -0.61147933188E+03 -0.66915254752E+03 -0.61060392436E+03  0.10929461778E+04  0.46999998093E+01 0. -1.
</event>
<event>
 5   0  0.1423692E-05  0.2822923E+04  0.7818609E-02  0.8296187E-01
       -2   -1    0    0    0  501  0.00000000000E+00  0.00000000000E+00  0.11166450503E+04  0.11166450503E+04  0.25500000920E-02 0.  1.
        2   -1    0    0  501    0  0.00000000000E+00  0.00000000000E+00 -0.17841158168E+04  0.17841158168E+04  0.25500000920E-02 0. -1.
    10030    2    1    2    0    0  0.00000000000E+00  0.00000000000E+00 -0.66747076643E+03  0.29007608671E+04  0.28229233755E+04 0.  0.
        3    1    3    3  502    0 -0.79073496125E+03 -0.10188284744E+04 -0.92309224205E+03  0.15859926030E+04  0.10100000352E+00 0. -1.
       -3    1    3    3    0  502  0.79073496125E+03  0.10188284744E+04  0.25562147562E+03  0.13147682641E+04  0.10100000352E+00 0.  1.
</event>
<event>
 5   0  0.1345931E-05  0.2658497E+04  0.7818609E-02  0.8348598E-01
        2   -1    0    0  501    0  0.00000000000E+00  0.00000000000E+00  0.20250036000E+04  0.20250036000E+04  0.25500000920E-02 0. -1.
       -2   -1    0    0    0  501  0.00000000000E+00  0.00000000000E+00 -0.87254245734E+03  0.87254245735E+03  0.25500000920E-02 0.  1.
    10030    2    1    2    0    0  0.00000000000E+00  0.00000000000E+00  0.11524611426E+04  0.28975460573E+04  0.26584970320E+04 0.  0.
        2    1    3    3  502    0 -0.18398695493E+03  0.73972898042E+03 -0.61065626517E+03  0.97670427369E+03  0.25500000920E-02 0.  1.
       -2    1    3    3    0  502  0.18398695493E+03 -0.73972898042E+03  0.17631174078E+04  0.19208417836E+04  0.25500000920E-02 0. -1.
</event>
<event>
 5   0  0.5730920E-06  0.1806398E+04  0.7818609E-02  0.8702905E-01
        1   -1    0    0  501    0  0.00000000000E+00  0.00000000000E+00  0.84937306689E+03  0.84937306691E+03  0.50400001928E-02 0.  1.
       -1   -1    0    0    0  501  0.00000000000E+00  0.00000000000E+00 -0.96043545951E+03  0.96043545952E+03  0.50400001928E-02 0. -1.
    10030    2    1    2    0    0  0.00000000000E+00  0.00000000000E+00 -0.11106239262E+03  0.18098085264E+04  0.18063975330E+04 0.  0.
        1    1    3    3  502    0 -0.82542533099E+03 -0.25071493509E+03 -0.32358650727E+03  0.92135399464E+03  0.50400001928E-02 0.  1.
       -1    1    3    3    0  502  0.82542533099E+03  0.25071493509E+03  0.21252411465E+03  0.88845453179E+03  0.50400001928E-02 0. -1.
</event>
<event>
 5   0  0.5522695E-06  0.3126096E+04  0.7818609E-02  0.8208612E-01
        1   -1    0    0  501    0  0.00000000000E+00  0.00000000000E+00  0.11178664167E+04  0.11178664167E+04  0.50400001928E-02 0.  1.
       -1   -1    0    0    0  501  0.00000000000E+00  0.00000000000E+00 -0.21855194361E+04  0.21855194361E+04  0.50400001928E-02 0. -1.
    10030    2    1    2    0    0  0.00000000000E+00  0.00000000000E+00 -0.10676530194E+04  0.33033858528E+04  0.31260958275E+04 0.  0.
        3    1    3    3  502    0  0.93940764413E+03  0.18575922662E+03 -0.18392521861E+04  0.20736059960E+04  0.10100000352E+00 0. -1.
       -3    1    3    3    0  502 -0.93940764413E+03 -0.18575922662E+03  0.77159916669E+03  0.12297798569E+04  0.10100000352E+00 0.  1.
</event>
<event>
 5   0  0.1388724E-05  0.2470169E+04  0.7818609E-02  0.8413691E-01
       -2   -1    0    0    0  501  0.00000000000E+00  0.00000000000E+00  0.11669618509E+04  0.11669618509E+04  0.25500000920E-02 0. -1.
        2   -1    0    0  501    0  0.00000000000E+00  0.00000000000E+00 -0.13071834923E+04  0.13071834923E+04  0.25500000920E-02 0.  1.
    10030    2    1    2    0    0  0.00000000000E+00  0.00000000000E+00 -0.14022164135E+03  0.24741453432E+04  0.24701686320E+04 0.  0.
        4    1    3    3  502    0 -0.63742014459E+03  0.76372283614E+02  0.98671553559E+03  0.11771772711E+04  0.12699999809E+01 0. -1.
       -4    1    3    3    0  502  0.63742014459E+03 -0.76372283614E+02 -0.11269371769E+04  0.12969680721E+04  0.12699999809E+01 0.  1.
</event>
<event>
 5   0  0.1388724E-05  0.2937909E+04  0.7818609E-02  0.8261687E-01
        2   -1    0    0  501    0  0.00000000000E+00  0.00000000000E+00  0.14563051654E+04  0.14563051654E+04  0.25500000920E-02 0.  1.
       -2   -1    0    0    0  501  0.00000000000E+00  0.00000000000E+00 -0.14817133190E+04  0.14817133190E+04  0.25500000920E-02 0. -1.
    10030    2    1    2    0    0  0.00000000000E+00  0.00000000000E+00 -0.25408153509E+02  0.29380184844E+04  0.29379086168E+04 0.  0.
        4    1    3    3  502    0  0.42589741010E+02 -0.30671734273E+03  0.14232938182E+04  0.14565906495E+04  0.12699999809E+01 0.  1.
       -4    1    3    3    0  502 -0.42589741010E+02  0.30671734273E+03 -0.14487019717E+04  0.14814278349E+04  0.12699999809E+01 0. -1.
</event>
<event>
 5   0  0.1480547E-05  0.3190954E+04  0.7818609E-02  0.8191210E-01
       -2   -1    0    0    0  501  0.00000000000E+00  0.00000000000E+00  0.98811327116E+03  0.98811327116E+03  0.25500000920E-02 0. -1.
        2   -1    0    0  501    0  0.00000000000E+00  0.00000000000E+00 -0.25761685064E+04  0.25761685064E+04  0.25500000920E-02 0.  1.
    10030    2    1    2    0    0  0.00000000000E+00  0.00000000000E+00 -0.15880552353E+04  0.35642817776E+04  0.31909536443E+04 0.  0.
        1    1    3    3  502    0 -0.97062951161E+02  0.10558168285E+04  0.53767118300E+03  0.11888064152E+04  0.50400001928E-02 0. -1.
       -1    1    3    3    0  502  0.97062951161E+02 -0.10558168285E+04 -0.21257264183E+04  0.23754753624E+04  0.50400001928E-02 0.  1.
</event>
<event>
 5   0  0.1523029E-05  0.2893743E+04  0.7818609E-02  0.8274742E-01
       -2   -1    0    0    0  501  0.00000000000E+00  0.00000000000E+00  0.16817193277E+04  0.16817193277E+04  0.25500000920E-02 0.  1.
        2   -1    0    0  501    0  0.00000000000E+00  0.00000000000E+00 -0.12448194845E+04  0.12448194845E+04  0.25500000920E-02 0. -1.
    10030    2    1    2    0    0  0.00000000000E+00  0.00000000000E+00  0.43689984317E+03  0.29265388122E+04  0.28937428957E+04 0.  0.
        5    1    3    3  502    0  0.12787565845E+04  0.21944042198E+02 -0.46576398422E+03  0.13611238453E+04  0.46999998093E+01 0. -1.
       -5    1    3    3    0  502 -0.12787565845E+04 -0.21944042198E+02  0.90266382739E+03  0.15654149669E+04  0.46999998093E+01 0.  1.
</event>
<event>
 5   0  0.5522695E-06  0.3029297E+04  0.7818609E-02  0.8235414E-01
       -1   -1    0    0    0  501  0.00000000000E+00  0.00000000000E+00  0.17791163668E+04  0.17791163668E+04  0.50400001928E-02 0. -1.
        1   -1    0    0  501    0  0.00000000000E+00  0.00000000000E+00 -0.12894939050E+04  0.12894939050E+04  0.50400001928E-02 0.  1.
    10030    2    1    2    0    0  0.00000000000E+00  0.00000000000E+00  0.48962246187E+03  0.30686102718E+04  0.30292967575E+04 0.  0.
        3    1    3    3  502    0 -0.27007496140E+03  0.42673839799E+03 -0.12016960380E+04  0.13035027898E+04  0.10100000352E+00 0.  1.
       -3    1    3    3    0  502  0.27007496140E+03 -0.42673839799E+03  0.16913184998E+04  0.17651074820E+04  0.10100000352E+00 0. -1.
</event>
<event>
 5   0  0.5730920E-06  0.3036582E+04  0.7818609E-02  0.8233361E-01
       -1   -1    0    0    0  501  0.00000000000E+00  0.00000000000E+00  0.20915745923E+04  0.20915745924E+04  0.50400001928E-02 0. -1.
        1   -1    0    0  501    0  0.00000000000E+00  0.00000000000E+00 -0.11021395558E+04  0.11021395558E+04  0.50400001928E-02 0.  1.
    10030    2    1    2    0    0  0.00000000000E+00  0.00000000000E+00  0.98943503655E+03  0.31937141482E+04  0.30365816914E+04 0.  0.
        1    1    3    3  502    0 -0.70424811953E+03  0.55192061650E+03  0.17848231015E+04  0.19965408296E+04  0.50400001928E-02 0. -1.
       -1    1    3    3    0  502  0.70424811953E+03 -0.55192061650E+03 -0.79538806493E+03  0.11971733185E+04  0.50400001928E-02 0.  1.
</event>
<event>
 5   0  0.1345931E-05  0.3189932E+04  0.7818609E-02  0.8191481E-01
        2   -1    0    0  501    0  0.00000000000E+00  0.00000000000E+00  0.21472006450E+04  0.21472006451E+04  0.25500000920E-02 0. -1.
       -2   -1    0    0    0  501  0.00000000000E+00  0.00000000000E+00 -0.11847597370E+04  0.11847597370E+04  0.25500000920E-02 0.  1.
    10030    2    1    2    0    0  0.00000000000E+00  0.00000000000E+00  0.96244090806E+03  0.33319603820E+04  0.31899322071E+04 0.  0.
        2    1    3    3  502    0  0.12349461965E+03  0.13723092692E+04  0.13203790210E+04  0.19083721887E+04  0.25500000920E-02 0. -1.
       -2    1    3    3    0  502 -0.12349461965E+03 -0.13723092692E+04 -0.35793811294E+03  0.14235881933E+04  0.25500000920E-02 0.  1.
</event>
<event>
 5   0  0.7032692E-06  0.2918700E+04  0.7818609E-02  0.8267335E-01
       -1   -1    0    0    0  501  0.00000000000E+00  0.00000000000E+00  0.14497370556E+04  0.14497370556E+04  0.50400001928E-02 0.  1.
        1   -1    0    0  501    0  0.00000000000E+00  0.00000000000E+00 -0.14690262012E+04  0.14690262012E+04  0.50400001928E-02 0. -1.
    10030    2    1    2    0    0  0.00000000000E+00  0.00000000000E+00 -0.19289145605E+02  0.29187632568E+04  0.29186995183E+04 0.  0.
        5    1    3    3  502    0 -0.35616633391E+03  0.83915320789E+03  0.11299622831E+04  0.14518503418E+04  0.46999998093E+01 0.  1.
       -5    1    3    3    0  502  0.35616633391E+03 -0.83915320789E+03 -0.11492514287E+04  0.14669129150E+04  0.46999998093E+01 0. -1.
</event>
<event>
 5   0  0.5730920E-06  0.2961050E+04  0.7818609E-02  0.8254942E-01
       -1   -1    0    0    0  501  0.00000000000E+00  0.00000000000E+00  0.11786745670E+04  0.11786745670E+04  0.50400001928E-02 0. -1.
        1   -1    0    0  501    0  0.00000000000E+00  0.00000000000E+00 -0.18596769492E+04  0.18596769492E+04  0.50400001928E-02 0.  1.
    10030    2    1    2    0    0  0.00000000000E+00  0.00000000000E+00 -0.68100238222E+03  0.30383515162E+04  0.29610497617E+04 0.  0.
        1    1    3    3  502    0  0.10399230022E+04  0.10474516872E+04 -0.22190251068E+03  0.14925935856E+04  0.50400001928E-02 0. -1.
       -1    1    3    3    0  502 -0.10399230022E+04 -0.10474516872E+04 -0.45909987153E+03  0.15457579305E+04  0.50400001928E-02 0.  1.
</event>
<event>
 5   0  0.5392262E-06  0.2501685E+04  0.7818609E-02  0.8402385E-01
       -1   -1    0    0    0  501  0.00000000000E+00  0.00000000000E+00  0.10376606664E+04  0.10376606664E+04  0.50400001928E-02 0. -1.
        1   -1    0    0  501    0  0.00000000000E+00  0.00000000000E+00 -0.15078219984E+04  0.15078219984E+04  0.50400001928E-02 0.  1.
    10030    2    1    2    0    0  0.00000000000E+00  0.00000000000E+00 -0.47016133200E+03  0.25454826647E+04  0.25016854955E+04 0.  0.
        2    1    3    3  502    0 -0.89632150233E+03  0.83966036848E+03 -0.47626592182E+03  0.13172892614E+04  0.25500000920E-02 0. -1.
       -2    1    3    3    0  502  0.89632150233E+03 -0.83966036848E+03  0.61045898130E+01  0.12281934033E+04  0.25500000920E-02 0.  1.
</event>
<event>
 5   0  0.1345931E-05  0.3038906E+04  0.7818609E-02  0.8232708E-01
       -2   -1    0    0    0  501  0.00000000000E+00  0.00000000000E+00  0.10054242022E+04  0.10054242022E+04  0.25500000920E-02 0. -1.
        2   -1    0    0  501    0  0.00000000000E+00  0.00000000000E+00 -0.22962815076E+04  0.22962815076E+04  0.25500000920E-02 0.  1.
    10030    2    1    2    0    0  0.00000000000E+00  0.00000000000E+00 -0.12908573054E+04  0.33017057098E+04  0.30389057260E+04 0.  0.
        2    1    3    3  502    0 -0.26188383439E+03  0.14367558653E+04 -0.18977241775E+03  0.14727063963E+04  0.25500000920E-02 0. -1.
       -2    1    3    3    0  502  0.26188383439E+03 -0.14367558653E+04 -0.11010848876E+04  0.18289993135E+04  0.25500000920E-02 0.  1.
</event>
<event>
 5   0  0.1423692E-05  0.2896885E+04  0.7818609E-02  0.8273805E-01
        2   -1    0    0  501    0  0.00000000000E+00  0.00000000000E+00  0.16880653662E+04  0.16880653662E+04  0.25500000920E-02 0. -1.
       -2   -1    0    0    0  501  0.00000000000E+00  0.00000000000E+00 -0.12428346759E+04  0.12428346759E+04  0.25500000920E-02 0.  1.
    10030    2    1    2    0    0  0.00000000000E+00  0.00000000000E+00  0.44523069034E+03  0.29309000421E+04  0.28968853428E+04 0.  0.
        3    1    3    3  502    0  0.11097792868E+04 -0.60241039926E+03  0.94050859024E+03  0.15745046120E+04  0.10100000352E+00 0. -1.
       -3    1    3    3    0  502 -0.11097792868E+04  0.60241039926E+03 -0.49527789989E+03  0.13563954301E+04  0.10100000352E+00 0.  1.
</event>
<event>
 5   0  0.7032692E-06  0.2222833E+04  0.7818609E-02  0.8508984E-01
        1   -1    0    0  501    0  0.00000000000E+00  0.00000000000E+00  0.12482726801E+04  0.12482726801E+04  0.50400001928E-02 0.  1.
       -1   -1    0    0    0  501  0.00000000000E+00  0.00000000000E+00 -0.98956510544E+03  0.98956510546E+03  0.50400001928E-02 0. -1.
    10030    2    1    2    0    0  0.00000000000E+00  0.00000000000E+00  0.25870757466E+03  0.22378377856E+04  0.22228334048E+04 0.  0.
        5    1    3    3  502    0  0.42432948597E+03 -0.54967531770E+03  0.10029823531E+04  0.12199156356E+04  0.46999998093E+01 0.  1.
       -5    1    3    3    0  502 -0.42432948597E+03  0.54967531770E+03 -0.74427477839E+03  0.10179221499E+04  0.46999998093E+01 0. -1.
</event>
<event>
 5   0  0.5730920E-06  0.2984079E+04  0.7818609E-02  0.8248292E-01
        1   -1    0    0  501    0  0.00000000000E+00  0.00000000000E+00  0.24079681300E+04  0.24079681300E+04  0.50400001928E-02 0.  1.
       -1   -1    0    0    0  501  0.00000000000E+00  0.00000000000E+00 -0.92450623558E+03  0.92450623559E+03  0.50400001928E-02 0. -1.
    10030    2    1    2    0    0  0.00000000000E+00  0.00000000000E+00  0.14834618944E+04  0.33324743656E+04  0.29840787867E+04 0.  0.
        1    1    3    3  502    0 -0.65052873069E+02 -0.59556754940E+03 -0.78427998963E+03  0.98692840893E+03  0.50400001928E-02 0. -1.
       -1    1    3    3    0  502  0.65052873069E+02  0.59556754940E+03  0.22677418841E+04  0.23455459567E+04  0.50400001928E-02 0.  1.
</event>
<event>
 5   0  0.5522695E-06  0.3025226E+04  0.7818609E-02  0.8236564E-01
       -1   -1    0    0    0  501  0.00000000000E+00  0.00000000000E+00  0.12878283464E+04  0.12878283464E+04  0.50400001928E-02 0.  1.
        1   -1    0    0  501    0  0.00000000000E+00  0.00000000000E+00 -0.17766322348E+04  0.17766322348E+04  0.50400001928E-02 0. -1.
    10030    2    1    2    0    0  0.00000000000E+00  0.00000000000E+00 -0.48880388841E+03  0.30644605812E+04  0.30252255143E+04 0.  0.
        3    1    3    3  502    0  0.44929636577E+03 -0.10800429035E+04 -0.12158165027E+04  0.16871780215E+04  0.10100000352E+00 0. -1.
       -3    1    3    3    0  502 -0.44929636577E+03  0.10800429035E+04  0.72701261429E+03  0.13772825597E+04  0.10100000352E+00 0.  1.
</event>
<event>
 5   0  0.1523029E-05  0.3046132E+04  0.7818609E-02  0.8230679E-01
       -2   -1    0    0    0  501  0.00000000000E+00  0.00000000000E+00  0.14805218769E+04  0.14805218769E+04  0.25500000920E-02 0. -1.
        2   -1    0    0  501    0  0.00000000000E+00  0.00000000000E+00 -0.15668329195E+04  0.15668329195E+04  0.25500000920E-02 0.  1.
    10030    2    1    2    0    0  0.00000000000E+00  0.00000000000E+00 -0.86311042612E+02  0.30473547964E+04  0.30461322458E+04 0.  0.
        5    1    3    3  502    0  0.49868084812E+03  0.14312112533E+04 -0.19374860719E+03  0.15279426863E+04  0.46999998093E+01 0.  1.
       -5    1    3    3    0  502 -0.49868084812E+03 -0.14312112533E+04  0.10743756458E+03  0.15194121101E+04  0.46999998093E+01 0. -1.
</event>
<event>
 5   0  0.1345931E-05  0.1904165E+04  0.7818609E-02  0.8652786E-01
       -2   -1    0    0    0  501  0.00000000000E+00  0.00000000000E+00  0.98753292934E+03  0.98753292935E+03  0.25500000920E-02 0.  1.
        2   -1    0    0  501    0  0.00000000000E+00  0.00000000000E+00 -0.91790461698E+03  0.91790461698E+03  0.25500000920E-02 0. -1.
    10030    2    1    2    0    0  0.00000000000E+00  0.00000000000E+00  0.69628312369E+02  0.19054375463E+04  0.19041649459E+04 0.  0.
        2    1    3    3  502    0  0.54928563965E+03 -0.76587378447E+03  0.16975110776E+03  0.95764962604E+03  0.25500000920E-02 0. -1.
       -2    1    3    3    0  502 -0.54928563965E+03  0.76587378447E+03 -0.10012279540E+03  0.94778792028E+03  0.25500000920E-02 0.  1.
</event>
<event>
 5   0  0.1345931E-05  0.2131138E+04  0.7818609E-02  0.8547650E-01
       -2   -1    0    0    0  501  0.00000000000E+00  0.00000000000E+00  0.95059648659E+03  0.95059648660E+03  0.25500000920E-02 0.  1.
        2   -1    0    0  501    0  0.00000000000E+00  0.00000000000E+00 -0.11944470396E+04  0.11944470396E+04  0.25500000920E-02 0. -1.
    10030    2    1    2    0    0  0.00000000000E+00  0.00000000000E+00 -0.24385055298E+03  0.21450435262E+04  0.21311378738E+04 0.  0.
        2    1    3    3  502    0 -0.70739657240E+03 -0.61944253863E+03 -0.62651281800E+03  0.11298837464E+04  0.25500000920E-02 0. -1.
       -2    1    3    3    0  502  0.70739657240E+03  0.61944253863E+03  0.38266226503E+03  0.10151597797E+04  0.25500000920E-02 0.  1.
</event>
<event>
 5   0  0.1523029E-05  0.2927328E+04  0.7818609E-02  0.8264793E-01
        2   -1    0    0  501    0  0.00000000000E+00  0.00000000000E+00  0.19536940084E+04  0.19536940084E+04  0.25500000920E-02 0. -1.
       -2   -1    0    0    0  501  0.00000000000E+00  0.00000000000E+00 -0.10965444211E+04  0.10965444211E+04  0.25500000920E-02 0.  1.
    10030    2    1    2    0    0  0.00000000000E+00  0.00000000000E+00  0.85714958726E+03  0.30502384295E+04  0.29273279731E+04 0.  0.
        5    1    3    3  502    0 -0.54157741999E+03  0.13522007937E+04  0.57789955434E+03  0.15670810679E+04  0.46999998093E+01 0. -1.
       -5    1    3    3    0  502  0.54157741999E+03 -0.13522007937E+04  0.27925003293E+03  0.14831573616E+04  0.46999998093E+01 0.  1.
</event>
<event>
 5   0  0.1388724E-05  0.2980442E+04  0.7818609E-02  0.8249338E-01
       -2   -1    0    0    0  501  0.00000000000E+00  0.00000000000E+00  0.89014855947E+03  0.89014855947E+03  0.25500000920E-02 0. -1.
        2   -1    0    0  501    0  0.00000000000E+00  0.00000000000E+00 -0.24948178303E+04  0.24948178303E+04  0.25500000920E-02 0.  1.
    10030    2    1    2    0    0  0.00000000000E+00  0.00000000000E+00 -0.16046692708E+04  0.33849663897E+04  0.29804419120E+04 0.  0.
        4    1    3    3  502    0 -0.11897501721E+04  0.60601054111E+03 -0.15539784040E+04  0.20488056865E+04  0.12699999809E+01 0.  1.
       -4    1    3    3    0  502  0.11897501721E+04 -0.60601054111E+03 -0.50690866755E+02  0.13361607032E+04  0.12699999809E+01 0. -1.
</event>
<event>
 5   0  0.1345931E-05  0.2150964E+04  0.7818609E-02  0.8539120E-01
        2   -1    0    0  501    0  0.00000000000E+00  0.00000000000E+00  0.17312192251E+04  0.17312192251E+04  0.25500000920E-02 0. -1.
       -2   -1    0    0    0  501  0.00000000000E+00  0.00000000000E+00 -0.66811989740E+03  0.66811989741E+03  0.25500000920E-02 0.  1.
    10030    2    1    2    0    0  0.00000000000E+00  0.00000000000E+00  0.10630993277E+04  0.23993391225E+04  0.21509644451E+04 0.  0.
        2    1    3    3  502    0  0.99607611566E+03  0.33721476993E+03  0.78291607227E+03  0.13110450051E+04  0.25500000920E-02 0.  1.
       -2    1    3    3    0  502 -0.99607611566E+03 -0.33721476993E+03  0.28018325540E+03  0.10882941174E+04  0.25500000920E-02 0. -1.
</event>
<event>
 5   0  0.1480547E-05  0.2993567E+04  0.7818609E-02  0.8245570E-01
        2   -1    0    0  501    0  0.00000000000E+00  0.00000000000E+00  0.11356207611E+04  0.11356207611E+04  0.25500000920E-02 0. -1.
       -2   -1    0    0    0  501  0.00000000000E+00  0.00000000000E+00 -0.19728071510E+04  0.19728071510E+04  0.25500000920E-02 0.  1.
    10030    2    1    2    0    0  0.00000000000E+00  0.00000000000E+00 -0.83718638989E+03  0.31084279121E+04  0.29935669415E+04 0.  0.
        1    1    3    3  502    0  0.51363680652E+03  0.41726797659E+03  0.97546363433E+03  0.11787555452E+04  0.50400001928E-02 0. -1.
       -1    1    3    3    0  502 -0.51363680652E+03 -0.41726797659E+03 -0.18126500242E+04  0.19296723669E+04  0.50400001928E-02 0.  1.
</event>
<event>
 5   0  0.5329891E-06  0.3034643E+04  0.7818609E-02  0.8233907E-01
       -1   -1    0    0    0  501  0.00000000000E+00  0.00000000000E+00  0.12118845688E+04  0.12118845689E+04  0.50400001928E-02 0. -1.
        1   -1    0    0  501    0  0.00000000000E+00  0.00000000000E+00 -0.18997390632E+04  0.18997390632E+04  0.50400001928E-02 0.  1.
    10030    2    1    2    0    0  0.00000000000E+00  0.00000000000E+00 -0.68785449438E+03  0.31116236321E+04  0.30346429481E+04 0.  0.
        4    1    3    3  502    0  0.19591040255E+03  0.89179108077E+03 -0.15865229204E+04  0.18304996059E+04  0.12699999809E+01 0.  1.
       -4    1    3    3    0  502 -0.19591040255E+03 -0.89179108077E+03  0.89866842600E+03  0.12811240261E+04  0.12699999809E+01 0. -1.
</event>
<event>
 5   0  0.5329891E-06  0.2914746E+04  0.7818609E-02  0.8268504E-01
       -1   -1    0    0    0  501  0.00000000000E+00  0.00000000000E+00  0.10254349788E+04  0.10254349789E+04  0.50400001928E-02 0. -1.
        1   -1    0    0  501    0  0.00000000000E+00  0.00000000000E+00 -0.20712540345E+04  0.20712540345E+04  0.50400001928E-02 0.  1.
    10030    2    1    2    0    0  0.00000000000E+00  0.00000000000E+00 -0.10458190557E+04  0.30966890134E+04  0.29147461893E+04 0.  0.
        4    1    3    3  502    0  0.21670637215E+03  0.12142536906E+04  0.30179309677E+03  0.12698245402E+04  0.12699999809E+01 0. -1.
       -4    1    3    3    0  502 -0.21670637215E+03 -0.12142536906E+04 -0.13476121524E+04  0.18268644731E+04  0.12699999809E+01 0.  1.
</event>
<event>
 5   0  0.5329891E-06  0.1511275E+04  0.7818609E-02  0.8876990E-01
       -1   -1    0    0    0  501  0.00000000000E+00  0.00000000000E+00  0.48910108605E+03  0.48910108608E+03  0.50400001928E-02 0. -1.
        1   -1    0    0  501    0  0.00000000000E+00  0.00000000000E+00 -0.11674228223E+04  0.11674228223E+04  0.50400001928E-02 0.  1.
    10030    2    1    2    0    0  0.00000000000E+00  0.00000000000E+00 -0.67832173622E+03  0.16565239084E+04  0.15112746544E+04 0.  0.
        4    1    3    3  502    0  0.92296973619E+02  0.70135522080E+03 -0.47982520882E+02  0.70902878100E+03  0.12699999809E+01 0.  1.
       -4    1    3    3    0  502 -0.92296973619E+02 -0.70135522080E+03 -0.63033921534E+03  0.94749512736E+03  0.12699999809E+01 0. -1.
</event>
<event>
 5   0  0.1388724E-05  0.2777552E+04  0.7818609E-02  0.8310272E-01
       -2   -1    0    0    0  501  0.00000000000E+00  0.00000000000E+00  0.10266653915E+04  0.10266653915E+04  0.25500000920E-02 0. -1.
        2   -1    0    0  501    0  0.00000000000E+00  0.00000000000E+00 -0.18786054927E+04  0.18786054927E+04  0.25500000920E-02 0.  1.
    10030    2    1    2    0    0  0.00000000000E+00  0.00000000000E+00 -0.85194010127E+03  0.29052708842E+04  0.27775523351E+04 0.  0.
        4    1    3    3  502    0 -0.42559766162E+03 -0.12174538470E+04  0.11285851762E+03  0.12946296370E+04  0.12699999809E+01 0.  1.
       -4    1    3    3    0  502  0.42559766162E+03  0.12174538470E+04 -0.96479861889E+03  0.16106412472E+04  0.12699999809E+01 0. -1.
</event>
<event>
 5   0  0.7032692E-06  0.3061314E+04  0.7818609E-02  0.8226436E-01
       -1   -1    0    0    0  501  0.00000000000E+00  0.00000000000E+00  0.11796801344E+04  0.11796801344E+04  0.50400001928E-02 0. -1.
        1   -1    0    0  501    0  0.00000000000E+00  0.00000000000E+00 -0.19860561306E+04  0.19860561306E+04  0.50400001928E-02 0.  1.
    10030    2    1    2    0    0  0.00000000000E+00  0.00000000000E+00 -0.80637599624E+03  0.31657362651E+04  0.30613140729E+04 0.  0.
        5    1    3    3  502    0  0.56361960976E+03  0.68583078868E+03  0.88628484743E+03  0.12544137499E+04  0.46999998093E+01 0. -1.
       -5    1    3    3    0  502 -0.56361960976E+03 -0.68583078868E+03 -0.16926608437E+04  0.19113225151E+04  0.46999998093E+01 0.  1.
</event>
<event>
 5   0  0.5392262E-06  0.2561092E+04  0.7818609E-02  0.8381539E-01
       -1   -1    0    0    0  501  0.00000000000E+00  0.00000000000E+00  0.53283745465E+03  0.53283745468E+03  0.50400001928E-02 0.  1.
        1   -1    0    0  501    0  0.00000000000E+00  0.00000000000E+00 -0.30774836901E+04  0.30774836901E+04  0.50400001928E-02 0. -1.
    10030    2    1    2    0    0  0.00000000000E+00  0.00000000000E+00 -0.25446462354E+04  0.36103211448E+04  0.25610924046E+04 0.  0.
        2    1    3    3  502    0  0.48266187764E+03 -0.44590235407E+03 -0.28216938374E+04  0.28971964914E+04  0.25500000920E-02 0. -1.
       -2    1    3    3    0  502 -0.48266187764E+03  0.44590235407E+03  0.27704760199E+03  0.71312465339E+03  0.25500000920E-02 0.  1.
</event>
<event>
 5   0  0.5329891E-06  0.1795925E+04  0.7818609E-02  0.8708469E-01
        1   -1    0    0  501    0  0.00000000000E+00  0.00000000000E+00  0.10755634019E+04  0.10755634019E+04  0.50400001928E-02 0.  1.
       -1   -1    0    0    0  501  0.00000000000E+00  0.00000000000E+00 -0.74968772236E+03  0.74968772238E+03  0.50400001928E-02 0. -1.
    10030    2    1    2    0    0  0.00000000000E+00  0.00000000000E+00  0.32587567953E+03  0.18252511243E+04  0.17959250286E+04 0.  0.
        4    1    3    3  502    0  0.49309995243E+03 -0.22363328352E+03  0.89099829780E+03  0.10426116190E+04  0.12699999809E+01 0.  1.
       -4    1    3    3    0  502 -0.49309995243E+03  0.22363328352E+03 -0.56512261827E+03  0.78263950524E+03  0.12699999809E+01 0. -1.
</event>
<event>
 5   0  0.5329891E-06  0.3127586E+04  0.7818609E-02  0.8208208E-01
        1   -1    0    0  501    0  0.00000000000E+00  0.00000000000E+00  0.11420499051E+04  0.11420499051E+04  0.50400001928E-02 0. -1.
       -1   -1    0    0    0  501  0.00000000000E+00  0.00000000000E+00 -0.21412796996E+04  0.21412796996E+04  0.50400001928E-02 0.  1.
    10030    2    1    2    0    0  0.00000000000E+00  0.00000000000E+00 -0.99922979448E+03  0.32833296047E+04  0.31275858279E+04 0.  0.
        4    1    3    3  502    0  0.31556825467E+03  0.41183201051E+03 -0.20482903338E+04  0.21129798467E+04  0.12699999809E+01 0.  1.
       -4    1    3    3    0  502 -0.31556825467E+03 -0.41183201051E+03  0.10490605393E+04  0.11703497581E+04  0.12699999809E+01 0. -1.
</event>
<event>
 5   0  0.1423692E-05  0.2602010E+04  0.7818609E-02  0.8367519E-01
        2   -1    0    0  501    0  0.00000000000E+00  0.00000000000E+00  0.19015642408E+04  0.19015642408E+04  0.25500000920E-02 0. -1.
       -2   -1    0    0    0  501  0.00000000000E+00  0.00000000000E+00 -0.89011652842E+03  0.89011652843E+03  0.25500000920E-02 0.  1.
    10030    2    1    2    0    0  0.00000000000E+00  0.00000000000E+00  0.10114477124E+04  0.27916807693E+04  0.26020098083E+04 0.  0.
        3    1    3    3  502    0 -0.23545442457E+03  0.15523075553E+03 -0.85692689629E+03  0.90214139097E+03  0.10100000352E+00 0.  1.
       -3    1    3    3    0  502  0.23545442457E+03 -0.15523075553E+03  0.18683746087E+04  0.18895393783E+04  0.10100000352E+00 0. -1.
</event>
<event>
 5   0  0.5392262E-06  0.2918688E+04  0.7818609E-02  0.8267339E-01
       -1   -1    0    0    0  501  0.00000000000E+00  0.00000000000E+00  0.76920486554E+03  0.76920486555E+03  0.50400001928E-02 0.  1.
        1   -1    0    0  501    0  0.00000000000E+00  0.00000000000E+00 -0.27686836854E+04  0.27686836854E+04  0.50400001928E-02 0. -1.
    10030    2    1    2    0    0  0.00000000000E+00  0.00000000000E+00 -0.19994788198E+04  0.35378885509E+04  0.29186880354E+04 0.  0.
        2    1    3    3  502    0  0.12071850219E+04  0.81993274107E+03 -0.98764308701E+03  0.17621078980E+04  0.25500000920E-02 0. -1.
       -2    1    3    3    0  502 -0.12071850219E+04 -0.81993274107E+03 -0.10118357328E+04  0.17757806529E+04  0.25500000920E-02 0.  1.
</event>
<event>
 5   0  0.1423692E-05  0.3047526E+04  0.7818609E-02  0.8230288E-01
        2   -1    0    0  501    0  0.00000000000E+00  0.00000000000E+00  0.12872246850E+04  0.12872246850E+04  0.25500000920E-02 0.  1.
       -2   -1    0    0    0  501  0.00000000000E+00  0.00000000000E+00 -0.18037670536E+04  0.18037670536E+04  0.25500000920E-02 0. -1.
    10030    2    1    2    0    0  0.00000000000E+00  0.00000000000E+00 -0.51654236856E+03  0.30909917386E+04  0.30475258669E+04 0.  0.
        3    1    3    3  502    0  0.30164193308E+03  0.84619863299E+03  0.99006059040E+03  0.13368844248E+04  0.10100000352E+00 0.  1.
       -3    1    3    3    0  502 -0.30164193308E+03 -0.84619863299E+03 -0.15066029590E+04  0.17541073138E+04  0.10100000352E+00 0. -1.
</event>
<event>
 5   0  0.4806125E-06  0.3073859E+04  0.7818609E-02  0.8222949E-01
        3   -1    0    0  501    0  0.00000000000E+00  0.00000000000E+00  0.17931628379E+04  0.17931628407E+04  0.10100000352E+00 0.  1.
       -3   -1    0    0    0  501  0.00000000000E+00  0.00000000000E+00 -0.13173101408E+04  0.13173101447E+04  0.10100000352E+00 0. -1.
    10030    2    1    2    0    0  0.00000000000E+00  0.00000000000E+00  0.47585269711E+03  0.31104729854E+04  0.30738585529E+04 0.  0.
        2    1    3    3  502    0 -0.12182485456E+04  0.54364426890E+03  0.10102164187E+04  0.16733845411E+04  0.25500000920E-02 0.  1.
       -2    1    3    3    0  502  0.12182485456E+04 -0.54364426890E+03 -0.53436372154E+03  0.14370884443E+04  0.25500000920E-02 0. -1.
</event>
<event>
 5   0  0.1423692E-05  0.1873967E+04  0.7818609E-02  0.8667924E-01
        2   -1    0    0  501    0  0.00000000000E+00  0.00000000000E+00  0.85663373492E+03  0.85663373493E+03  0.25500000920E-02 0. -1.
       -2   -1    0    0    0  501  0.00000000000E+00  0.00000000000E+00 -0.10248696887E+04  0.10248696887E+04  0.25500000920E-02 0.  1.
    10030    2    1    2    0    0  0.00000000000E+00  0.00000000000E+00 -0.16823595378E+03  0.18815034236E+04  0.18739668612E+04 0.  0.
        3    1    3    3  502    0 -0.70057944288E+03  0.10948685194E+03 -0.69906714972E+03  0.99573782521E+03  0.10100000352E+00 0.  1.
       -3    1    3    3    0  502  0.70057944288E+03 -0.10948685194E+03  0.53083119595E+03  0.88576559841E+03  0.10100000352E+00 0. -1.
</event>
<event>
 5   0  0.5522695E-06  0.2622615E+04  0.7818609E-02  0.8360560E-01
        1   -1    0    0  501    0  0.00000000000E+00  0.00000000000E+00  0.13877281951E+04  0.13877281951E+04  0.50400001928E-02 0.  1.
       -1   -1    0    0    0  501  0.00000000000E+00  0.00000000000E+00 -0.12390954967E+04  0.12390954967E+04  0.50400001928E-02 0. -1.
    10030    2    1    2    0    0  0.00000000000E+00  0.00000000000E+00  0.14863269844E+03  0.26268236919E+04  0.26226153033E+04 0.  0.
        3    1    3    3  502    0  0.10049979705E+04  0.80984384688E+03 -0.15770114767E+03  0.13002836764E+04  0.10100000352E+00 0. -1.
       -3    1    3    3    0  502 -0.10049979705E+04 -0.80984384688E+03  0.30633384612E+03  0.13265400154E+04  0.10100000352E+00 0.  1.
</event>
<event>
 5   0  0.7032692E-06  0.2974694E+04  0.7818609E-02  0.8250994E-01
        1   -1    0    0  501    0  0.00000000000E+00  0.00000000000E+00  0.18629422192E+04  0.18629422192E+04  0.50400001928E-02 0.  1.
       -1   -1    0    0    0  501  0.00000000000E+00  0.00000000000E+00 -0.11874767848E+04  0.11874767848E+04  0.50400001928E-02 0. -1.
    10030    2    1    2    0    0  0.00000000000E+00  0.00000000000E+00  0.67546543443E+03  0.30504190040E+04  0.29746936896E+04 0.  0.
        5    1    3    3  502    0  0.12639334265E+04 -0.78397429870E+03  0.33165399906E+03  0.15238634692E+04  0.46999998093E+01 0.  1.
       -5    1    3    3    0  502 -0.12639334265E+04  0.78397429870E+03  0.34381143537E+03  0.15265555348E+04  0.46999998093E+01 0. -1.
</event>
<event>
 5   0  0.1423692E-05  0.2962977E+04  0.7818609E-02  0.8254383E-01
       -2   -1    0    0    0  501  0.00000000000E+00  0.00000000000E+00  0.11760730293E+04  0.11760730293E+04  0.25500000920E-02 0.  1.
        2   -1    0    0  501    0  0.00000000000E+00  0.00000000000E+00 -0.18662180555E+04  0.18662180555E+04  0.25500000920E-02 0. -1.
    10030    2    1    2    0    0  0.00000000000E+00  0.00000000000E+00 -0.69014502620E+03  0.30422910848E+04  0.29629773687E+04 0.  0.
        3    1    3    3  502    0  0.51253224096E+03 -0.49610504796E+03  0.98814531311E+03  0.12187045116E+04  0.10100000352E+00 0.  1.
       -3    1    3    3    0  502 -0.51253224096E+03  0.49610504796E+03 -0.16782903393E+04  0.18235865732E+04  0.10100000352E+00 0. -1.
</event>
<event>
 5   0  0.5730920E-06  0.3065181E+04  0.7818609E-02  0.8225359E-01
        1   -1    0    0  501    0  0.00000000000E+00  0.00000000000E+00  0.17422559442E+04  0.17422559442E+04  0.50400001928E-02 0. -1.
       -1   -1    0    0    0  501  0.00000000000E+00  0.00000000000E+00 -0.13481564657E+04  0.13481564657E+04  0.50400001928E-02 0.  1.
    10030    2    1    2    0    0  0.00000000000E+00  0.00000000000E+00  0.39409947856E+03  0.30904124099E+04  0.30651809839E+04 0.  0.
        1    1    3    3  502    0 -0.70273415838E+03 -0.42683265225E+03 -0.11069692355E+04  0.13789134486E+04  0.50400001928E-02 0.  1.
       -1    1    3    3    0  502  0.70273415838E+03  0.42683265225E+03  0.15010687140E+04  0.17114989613E+04  0.50400001928E-02 0. -1.
</event>
<event>
 5   0  0.5392262E-06  0.2987500E+04  0.7818609E-02  0.8247309E-01
        1   -1    0    0  501    0  0.00000000000E+00  0.00000000000E+00  0.14182884520E+04  0.14182884520E+04  0.50400001928E-02 0. -1.
       -1   -1    0    0    0  501  0.00000000000E+00  0.00000000000E+00 -0.15732265964E+04  0.15732265964E+04  0.50400001928E-02 0.  1.
    10030    2    1    2    0    0  0.00000000000E+00  0.00000000000E+00 -0.15493814440E+03  0.29915150484E+04  0.29875000345E+04 0.  0.
        2    1    3    3  502    0  0.14219258362E+04  0.41458125674E+03 -0.27147777935E+03  0.15058057267E+04  0.25500000920E-02 0.  1.
       -2    1    3    3    0  502 -0.14219258362E+04 -0.41458125674E+03  0.11653963495E+03  0.14857093217E+04  0.25500000920E-02 0. -1.
</event>
<event>
 5   0  0.1345931E-05  0.1577819E+04  0.7818609E-02  0.8834292E-01
        2   -1    0    0  501    0  0.00000000000E+00  0.00000000000E+00  0.98692676520E+03  0.98692676520E+03  0.25500000920E-02 0. -1.
       -2   -1    0    0    0  501  0.00000000000E+00  0.00000000000E+00 -0.63062263795E+03  0.63062263796E+03  0.25500000920E-02 0.  1.
    10030    2    1    2    0    0  0.00000000000E+00  0.00000000000E+00  0.35630412724E+03  0.16175494032E+04  0.15778192040E+04 0.  0.
        2    1    3    3  502    0  0.72474761886E+03 -0.16422963658E+02 -0.14089083829E+03  0.73849783554E+03  0.25500000920E-02 0.  1.
       -2    1    3    3    0  502 -0.72474761886E+03  0.16422963658E+02  0.49719496553E+03  0.87905156762E+03  0.25500000920E-02 0. -1.
</event>
<event>
 5   0  0.1345931E-05  0.2908026E+04  0.7818609E-02  0.8270494E-01
        2   -1    0    0  501    0  0.00000000000E+00  0.00000000000E+00  0.15305177823E+04  0.15305177823E+04  0.25500000920E-02 0.  1.
       -2   -1    0    0    0  501  0.00000000000E+00  0.00000000000E+00 -0.13813319655E+04  0.13813319655E+04  0.25500000920E-02 0. -1.
    10030    2    1    2    0    0  0.00000000000E+00  0.00000000000E+00  0.14918581675E+03  0.29118497478E+04  0.29080255408E+04 0.  0.
        2    1    3    3  502    0 -0.47326296566E+03  0.81000540894E+03 -0.10377534400E+04  0.13989348803E+04  0.25500000920E-02 0. -1.
       -2    1    3    3    0  502  0.47326296566E+03 -0.81000540894E+03  0.11869392567E+04  0.15129148675E+04  0.25500000920E-02 0.  1.
</event>
<event>
 5   0  0.1388724E-05  0.2350865E+04  0.7818609E-02  0.8458131E-01
       -2   -1    0    0    0  501  0.00000000000E+00  0.00000000000E+00  0.21619140689E+04  0.21619140689E+04  0.25500000920E-02 0.  1.
        2   -1    0    0  501    0  0.00000000000E+00  0.00000000000E+00 -0.63908254858E+03  0.63908254859E+03  0.25500000920E-02 0. -1.
    10030    2    1    2    0    0  0.00000000000E+00  0.00000000000E+00  0.15228315204E+04  0.28009966175E+04  0.23508649923E+04 0.  0.
        4    1    3    3  502    0 -0.39703271004E+02  0.97126992136E+03  0.15487799546E+04  0.18285684484E+04  0.12699999809E+01 0.  1.
       -4    1    3    3    0  502  0.39703271004E+02 -0.97126992136E+03 -0.25948434277E+02  0.97242816908E+03  0.12699999809E+01 0. -1.
</event>
<event>
 5   0  0.1480547E-05  0.3021069E+04  0.7818609E-02  0.8237740E-01
        2   -1    0    0  501    0  0.00000000000E+00  0.00000000000E+00  0.14503400093E+04  0.14503400093E+04  0.25500000920E-02 0. -1.
       -2   -1    0    0    0  501  0.00000000000E+00  0.00000000000E+00 -0.15732277016E+04  0.15732277016E+04  0.25500000920E-02 0.  1.
    10030    2    1    2    0    0  0.00000000000E+00  0.00000000000E+00 -0.12288769227E+03  0.30235677109E+04  0.30210693996E+04 0.  0.
        1    1    3    3  502    0 -0.23284608835E+03  0.11792457883E+04  0.85412256523E+03  0.14745722385E+04  0.50400001928E-02 0. -1.
       -1    1    3    3    0  502  0.23284608835E+03 -0.11792457883E+04 -0.97701025750E+03  0.15489954724E+04  0.50400001928E-02 0.  1.
</event>
<event>
 5   0  0.4806125E-06  0.2943111E+04  0.7818609E-02  0.8260165E-01
       -4   -1    0    0    0  501  0.00000000000E+00  0.00000000000E+00  0.13538809607E+04  0.13538815564E+04  0.12699999809E+01 0. -1.
        4   -1    0    0  501    0  0.00000000000E+00  0.00000000000E+00 -0.15994561696E+04  0.15994566738E+04  0.12699999809E+01 0.  1.
    10030    2    1    2    0    0  0.00000000000E+00  0.00000000000E+00 -0.24557520890E+03  0.29533382302E+04  0.29431105176E+04 0.  0.
        1    1    3    3  502    0  0.47635514317E+03 -0.64529664415E+03  0.11152554727E+04  0.13737236806E+04  0.50400001928E-02 0. -1.
       -1    1    3    3    0  502 -0.47635514317E+03  0.64529664415E+03 -0.13608306816E+04  0.15796145496E+04  0.50400001928E-02 0.  1.
</event>
<event>
 5   0  0.1345931E-05  0.3013308E+04  0.7818609E-02  0.8239941E-01
        2   -1    0    0  501    0  0.00000000000E+00  0.00000000000E+00  0.21111841011E+04  0.21111841011E+04  0.25500000920E-02 0. -1.
       -2   -1    0    0    0  501  0.00000000000E+00  0.00000000000E+00 -0.10752289015E+04  0.10752289015E+04  0.25500000920E-02 0.  1.
    10030    2    1    2    0    0  0.00000000000E+00  0.00000000000E+00  0.10359551997E+04  0.31864130026E+04  0.30133079244E+04 0.  0.
        2    1    3    3  502    0 -0.13049032369E+04  0.73452998198E+03  0.69396995727E+03  0.16504245071E+04  0.25500000920E-02 0. -1.
       -2    1    3    3    0  502  0.13049032369E+04 -0.73452998198E+03  0.34198524239E+03  0.15359884955E+04  0.25500000920E-02 0.  1.
</event>
<event>
 5   0  0.1480547E-05  0.2967787E+04  0.7818609E-02  0.8252990E-01
        2   -1    0    0  501    0  0.00000000000E+00  0.00000000000E+00  0.15649496011E+04  0.15649496011E+04  0.25500000920E-02 0. -1.
       -2   -1    0    0    0  501  0.00000000000E+00  0.00000000000E+00 -0.14070360780E+04  0.14070360780E+04  0.25500000920E-02 0.  1.
    10030    2    1    2    0    0  0.00000000000E+00  0.00000000000E+00  0.15791352307E+03  0.29719856791E+04  0.29677874243E+04 0.  0.
        1    1    3    3  502    0  0.15259584148E+03 -0.14735041021E+04 -0.74248656233E+01  0.14814030371E+04  0.50400001928E-02 0. -1.
       -1    1    3    3    0  502 -0.15259584148E+03  0.14735041021E+04  0.16533838869E+03  0.14905826420E+04  0.50400001928E-02 0.  1.
</event>
<event>
 5   0  0.5522695E-06  0.2785990E+04  0.7818609E-02  0.8307631E-01
        1   -1    0    0  501    0  0.00000000000E+00  0.00000000000E+00  0.97223768608E+03  0.97223768609E+03  0.50400001928E-02 0. -1.
       -1   -1    0    0    0  501  0.00000000000E+00  0.00000000000E+00 -0.19958447374E+04  0.19958447374E+04  0.50400001928E-02 0.  1.
    10030    2    1    2    0    0  0.00000000000E+00  0.00000000000E+00 -0.10236070513E+04  0.29680824235E+04  0.27859902866E+04 0.  0.
        3    1    3    3  502    0 -0.16049181347E+03  0.13520016869E+04 -0.82562260585E+03  0.15922684701E+04  0.10100000352E+00 0.  1.
       -3    1    3    3    0  502  0.16049181347E+03 -0.13520016869E+04 -0.19798444548E+03  0.13758139534E+04  0.10100000352E+00 0. -1.
</event>
<event>
 5   0  0.1523029E-05  0.3004316E+04  0.7818609E-02  0.8242500E-01
        2   -1    0    0  501    0  0.00000000000E+00  0.00000000000E+00  0.19221110478E+04  0.19221110478E+04  0.25500000920E-02 0. -1.
       -2   -1    0    0    0  501  0.00000000000E+00  0.00000000000E+00 -0.11739584781E+04  0.11739584781E+04  0.25500000920E-02 0.  1.
    10030    2    1    2    0    0  0.00000000000E+00  0.00000000000E+00  0.74815256969E+03  0.30960695260E+04  0.30043159358E+04 0.  0.
        5    1    3    3  502    0 -0.10933156702E+04 -0.23007873656E+03  0.14088237642E+04  0.17980772698E+04  0.46999998093E+01 0. -1.
       -5    1    3    3    0  502  0.10933156702E+04  0.23007873656E+03 -0.66067119447E+03  0.12979922562E+04  0.46999998093E+01 0.  1.
</event>
<event>
 5   0  0.5329891E-06  0.3125606E+04  0.7818609E-02  0.8208745E-01
       -1   -1    0    0    0  501  0.00000000000E+00  0.00000000000E+00  0.10435415460E+04  0.10435415461E+04  0.50400001928E-02 0.  1.
        1   -1    0    0  501    0  0.00000000000E+00  0.00000000000E+00 -0.23404466902E+04  0.23404466902E+04  0.50400001928E-02 0. -1.
    10030    2    1    2    0    0  0.00000000000E+00  0.00000000000E+00 -0.12969051442E+04  0.33839882363E+04  0.31256060901E+04 0.  0.
        4    1    3    3  502    0  0.68520279974E+03 -0.49866051811E+02  0.87128163449E+03  0.11095597322E+04  0.12699999809E+01 0.  1.
       -4    1    3    3    0  502 -0.68520279974E+03  0.49866051811E+02 -0.21681867787E+04  0.22744285041E+04  0.12699999809E+01 0. -1.
</event>
<event>
 5   0  0.1480547E-05  0.2486658E+04  0.7818609E-02  0.8407754E-01
       -2   -1    0    0    0  501  0.00000000000E+00  0.00000000000E+00  0.88576922719E+03  0.88576922719E+03  0.25500000920E-02 0. -1.
        2   -1    0    0  501    0  0.00000000000E+00  0.00000000000E+00 -0.17452258215E+04  0.17452258215E+04  0.25500000920E-02 0.  1.
    10030    2    1    2    0    0  0.00000000000E+00  0.00000000000E+00 -0.85945659434E+03  0.26309950487E+04  0.24866582614E+04 0.  0.
        1    1    3    3  502    0 -0.82871420806E+03 -0.19217018970E+03  0.52963903404E+03  0.10021048482E+04  0.50400001928E-02 0. -1.
       -1    1    3    3    0  502  0.82871420806E+03  0.19217018970E+03 -0.13890956284E+04  0.16288902005E+04  0.50400001928E-02 0.  1.
</event>
<event>
 5   0  0.1345931E-05  0.2727354E+04  0.7818609E-02  0.8326184E-01
        2   -1    0    0  501    0  0.00000000000E+00  0.00000000000E+00  0.15102671662E+04  0.15102671662E+04  0.25500000920E-02 0.  1.
       -2   -1    0    0    0  501  0.00000000000E+00  0.00000000000E+00 -0.12313156476E+04  0.12313156476E+04  0.25500000920E-02 0. -1.
    10030    2    1    2    0    0  0.00000000000E+00  0.00000000000E+00  0.27895151860E+03  0.27415828138E+04  0.27273544645E+04 0.  0.
        2    1    3    3  502    0  0.12335091350E+04  0.56190033720E+03  0.28971725059E+03  0.13860782302E+04  0.25500000920E-02 0.  1.
       -2    1    3    3    0  502 -0.12335091350E+04 -0.56190033720E+03 -0.10765731983E+02  0.13555045835E+04  0.25500000920E-02 0. -1.
</event>
<event>
 5   0  0.7032692E-06  0.3181058E+04  0.7818609E-02  0.8193838E-01
       -1   -1    0    0    0  501  0.00000000000E+00  0.00000000000E+00  0.10601819912E+04  0.10601819912E+04  0.50400001928E-02 0. -1.
        1   -1    0    0  501    0  0.00000000000E+00  0.00000000000E+00 -0.23861776460E+04  0.23861776460E+04  0.50400001928E-02 0.  1.
    10030    2    1    2    0    0  0.00000000000E+00  0.00000000000E+00 -0.13259956548E+04  0.34463596372E+04  0.31810580429E+04 0.  0.
        5    1    3    3  502    0  0.96305409281E+03  0.44172490520E+03 -0.19481712335E+04  0.22176535623E+04  0.46999998093E+01 0.  1.
       -5    1    3    3    0  502 -0.96305409281E+03 -0.44172490520E+03  0.62217557873E+03  0.12287060748E+04  0.46999998093E+01 0. -1.
</event>
<event>
 5   0  0.1345931E-05  0.3012313E+04  0.7818609E-02  0.8240224E-01
        2   -1    0    0  501    0  0.00000000000E+00  0.00000000000E+00  0.18273027080E+04  0.18273027080E+04  0.25500000920E-02 0.  1.
       -2   -1    0    0    0  501  0.00000000000E+00  0.00000000000E+00 -0.12414514442E+04  0.12414514442E+04  0.25500000920E-02 0. -1.
    10030    2    1    2    0    0  0.00000000000E+00  0.00000000000E+00  0.58585126388E+03  0.30687541522E+04  0.30123131217E+04 0.  0.
        2    1    3    3  502    0  0.92009442821E+03  0.44202331762E+03 -0.83532211009E+03  0.13189849877E+04  0.25500000920E-02 0. -1.
       -2    1    3    3    0  502 -0.92009442821E+03 -0.44202331762E+03  0.14211733740E+04  0.17497691645E+04  0.25500000920E-02 0.  1.
</event>
<event>
 5   0  0.1523029E-05  0.3027668E+04  0.7818609E-02  0.8235874E-01
       -2   -1    0    0    0  501  0.00000000000E+00  0.00000000000E+00  0.13347859637E+04  0.13347859637E+04  0.25500000920E-02 0. -1.
        2   -1    0    0  501    0  0.00000000000E+00  0.00000000000E+00 -0.17169000567E+04  0.17169000567E+04  0.25500000920E-02 0.  1.
    10030    2    1    2    0    0  0.00000000000E+00  0.00000000000E+00 -0.38211409299E+03  0.30516860204E+04  0.30276684737E+04 0.  0.
        5    1    3    3  502    0 -0.85217175973E+03 -0.26794044391E+03  0.10408013277E+04  0.13715969828E+04  0.46999998093E+01 0. -1.
       -5    1    3    3    0  502  0.85217175973E+03  0.26794044391E+03 -0.14229154207E+04  0.16800890375E+04  0.46999998093E+01 0.  1.
</event>
<event>
 5   0  0.5329891E-06  0.2748256E+04  0.7818609E-02  0.8319515E-01
        1   -1    0    0  501    0  0.00000000000E+00  0.00000000000E+00  0.24103745890E+04  0.24103745890E+04  0.50400001928E-02 0. -1.
       -1   -1    0    0    0  501  0.00000000000E+00  0.00000000000E+00 -0.78337532951E+03  0.78337532953E+03  0.50400001928E-02 0.  1.
    10030    2    1    2    0    0  0.00000000000E+00  0.00000000000E+00  0.16269992595E+04  0.31937499185E+04  0.27482561656E+04 0.  0.
        4    1    3    3  502    0 -0.75765606975E+03  0.38377280335E+02  0.21449599587E+04  0.22751638123E+04  0.12699999809E+01 0. -1.
       -4    1    3    3    0  502  0.75765606975E+03 -0.38377280335E+02 -0.51796069920E+03  0.91858610619E+03  0.12699999809E+01 0.  1.
</event>
<event>
 5   0  0.1480547E-05  0.3043302E+04  0.7818609E-02  0.8231473E-01
       -2   -1    0    0    0  501  0.00000000000E+00  0.00000000000E+00  0.11855529136E+04  0.11855529136E+04  0.25500000920E-02 0.  1.
        2   -1    0    0  501    0  0.00000000000E+00  0.00000000000E+00 -0.19530306991E+04  0.19530306991E+04  0.25500000920E-02 0. -1.
    10030    2    1    2    0    0  0.00000000000E+00  0.00000000000E+00 -0.76747778551E+03  0.31385836127E+04  0.30433016516E+04 0.  0.
        1    1    3    3  502    0  0.13152702013E+04  0.55315323159E+03 -0.92897558368E+03  0.17026185230E+04  0.50400001928E-02 0. -1.
       -1    1    3    3    0  502 -0.13152702013E+04 -0.55315323159E+03  0.16149779817E+03  0.14359650897E+04  0.50400001928E-02 0.  1.
</event>
<event>
 5   0  0.4806125E-06  0.3116732E+04  0.7818609E-02  0.8211161E-01
        3   -1    0    0  501    0  0.00000000000E+00  0.00000000000E+00  0.10603621297E+04  0.10603621345E+04  0.10100000352E+00 0.  1.
       -3   -1    0    0    0  501  0.00000000000E+00  0.00000000000E+00 -0.22902597012E+04  0.22902597035E+04  0.10100000352E+00 0. -1.
    10030    2    1    2    0    0  0.00000000000E+00  0.00000000000E+00 -0.12298975715E+04  0.33506218380E+04  0.31167320489E+04 0.  0.
        1    1    3    3  502    0  0.87874202531E+03 -0.19627061381E+03  0.75242637903E+03  0.11733947148E+04  0.50400001928E-02 0.  1.
       -1    1    3    3    0  502 -0.87874202531E+03  0.19627061381E+03 -0.19823239506E+04  0.21772271232E+04  0.50400001928E-02 0. -1.
</event>
<event>
 5   0  0.5522695E-06  0.2551038E+04  0.7818609E-02  0.8385025E-01
        1   -1    0    0  501    0  0.00000000000E+00  0.00000000000E+00  0.17460511458E+04  0.17460511458E+04  0.50400001928E-02 0. -1.
       -1   -1    0    0    0  501  0.00000000000E+00  0.00000000000E+00 -0.93178781718E+03  0.93178781719E+03  0.50400001928E-02 0.  1.
    10030    2    1    2    0    0  0.00000000000E+00  0.00000000000E+00  0.81426332857E+03  0.26778389629E+04  0.25510383657E+04 0.  0.
        3    1    3    3  502    0  0.13756231203E+03 -0.11915770700E+04 -0.48215368700E+02  0.12004599266E+04  0.10100000352E+00 0.  1.
       -3    1    3    3    0  502 -0.13756231203E+03  0.11915770700E+04  0.86247869727E+03  0.14773790363E+04  0.10100000352E+00 0. -1.
</event>
<event>
 5   0  0.5522695E-06  0.3040910E+04  0.7818609E-02  0.8232144E-01
       -1   -1    0    0    0  501  0.00000000000E+00  0.00000000000E+00  0.22720803281E+04  0.22720803281E+04  0.50400001928E-02 0. -1.
        1   -1    0    0  501    0  0.00000000000E+00  0.00000000000E+00 -0.10174745353E+04  0.10174745353E+04  0.50400001928E-02 0.  1.
    10030    2    1    2    0    0  0.00000000000E+00  0.00000000000E+00  0.12546057928E+04  0.32895548635E+04  0.30409103085E+04 0.  0.
        3    1    3    3  502    0  0.10170779625E+04 -0.77608667312E+03  0.15160817159E+04  0.19837494513E+04  0.10100000352E+00 0. -1.
       -3    1    3    3    0  502 -0.10170779625E+04  0.77608667312E+03 -0.26147592309E+03  0.13058054122E+04  0.10100000352E+00 0.  1.
</event>
<event>
 5   0  0.5730920E-06  0.2902863E+04  0.7818609E-02  0.8272026E-01
       -1   -1    0    0    0  501  0.00000000000E+00  0.00000000000E+00  0.22156880738E+04  0.22156880738E+04  0.50400001928E-02 0.  1.
        1   -1    0    0  501    0  0.00000000000E+00  0.00000000000E+00 -0.95078992784E+03  0.95078992786E+03  0.50400001928E-02 0. -1.
    10030    2    1    2    0    0  0.00000000000E+00  0.00000000000E+00  0.12648981460E+04  0.31664780017E+04  0.29028633477E+04 0.  0.
        1    1    3    3  502    0 -0.10045994770E+04 -0.23487241019E+03 -0.48117789832E+03  0.11383836472E+04  0.50400001928E-02 0. -1.
       -1    1    3    3    0  502  0.10045994770E+04  0.23487241019E+03  0.17460760443E+04  0.20280943545E+04  0.50400001928E-02 0.  1.
</event>
<event>
 5   0  0.1423692E-05  0.1709418E+04  0.7818609E-02  0.8756011E-01
       -2   -1    0    0    0  501  0.00000000000E+00  0.00000000000E+00  0.53772681989E+03  0.53772681990E+03  0.25500000920E-02 0.  1.
        2   -1    0    0  501    0  0.00000000000E+00  0.00000000000E+00 -0.13585480048E+04  0.13585480048E+04  0.25500000920E-02 0. -1.
    10030    2    1    2    0    0  0.00000000000E+00  0.00000000000E+00 -0.82082118488E+03  0.18962748247E+04  0.17094182616E+04 0.  0.
        3    1    3    3  502    0  0.39884194967E+03  0.65720771114E+03  0.39591166323E+01  0.76877341343E+03  0.10100000352E+00 0.  1.
       -3    1    3    3    0  502 -0.39884194967E+03 -0.65720771114E+03 -0.82478030151E+03  0.11275014112E+04  0.10100000352E+00 0. -1.
</event>
<event>
 5   0  0.1423692E-05  0.2968449E+04  0.7818609E-02  0.8252798E-01
       -2   -1    0    0    0  501  0.00000000000E+00  0.00000000000E+00  0.13965405221E+04  0.13965405221E+04  0.25500000920E-02 0. -1.
        2   -1    0    0  501    0  0.00000000000E+00  0.00000000000E+00 -0.15774136604E+04  0.15774136604E+04  0.25500000920E-02 0.  1.
    10030    2    1    2    0    0  0.00000000000E+00  0.00000000000E+00 -0.18087313827E+03  0.29739541826E+04  0.29684488185E+04 0.  0.
        3    1    3    3  502    0  0.54454418435E+03 -0.12006897443E+04 -0.77341774367E+03  0.15285153736E+04  0.10100000352E+00 0.  1.
       -3    1    3    3    0  502 -0.54454418435E+03  0.12006897443E+04  0.59254460540E+03  0.14454388090E+04  0.10100000352E+00 0. -1.
</event>
<event>
 5   0  0.1523029E-05  0.3011968E+04  0.7818609E-02  0.8240322E-01
        2   -1    0    0  501    0  0.00000000000E+00  0.00000000000E+00  0.19051855926E+04  0.19051855926E+04  0.25500000920E-02 0.  1.
       -2   -1    0    0    0  501  0.00000000000E+00  0.00000000000E+00 -0.11904285274E+04  0.11904285274E+04  0.25500000920E-02 0. -1.
    10030    2    1    2    0    0  0.00000000000E+00  0.00000000000E+00  0.71475706520E+03  0.30956141199E+04  0.30119676488E+04 0.  0.
        5    1    3    3  502    0  0.99260237458E+03 -0.37889217023E+03 -0.73957010845E+03  0.12945287892E+04  0.46999998093E+01 0. -1.
       -5    1    3    3    0  502 -0.99260237458E+03  0.37889217023E+03  0.14543271736E+04  0.18010853308E+04  0.46999998093E+01 0.  1.
</event>
<event>
 5   0  0.5392262E-06  0.3035900E+04  0.7818609E-02  0.8233553E-01
       -1   -1    0    0    0  501  0.00000000000E+00  0.00000000000E+00  0.10768621819E+04  0.10768621819E+04  0.50400001928E-02 0.  1.
        1   -1    0    0  501    0  0.00000000000E+00  0.00000000000E+00 -0.21397089976E+04  0.21397089976E+04  0.50400001928E-02 0. -1.
    10030    2    1    2    0    0  0.00000000000E+00  0.00000000000E+00 -0.10628468157E+04  0.32165711795E+04  0.30358996689E+04 0.  0.
        2    1    3    3  502    0 -0.11487796123E+04 -0.33886778534E+03  0.45662207065E+03  0.12818071965E+04  0.25500000920E-02 0.  1.
       -2    1    3    3    0  502  0.11487796123E+04  0.33886778534E+03 -0.15194688863E+04  0.19347639830E+04  0.25500000920E-02 0. -1.
</event>
<event>
 5   0  0.5329891E-06  0.2361218E+04  0.7818609E-02  0.8454167E-01
       -1   -1    0    0    0  501  0.00000000000E+00  0.00000000000E+00  0.23551035774E+04  0.23551035774E+04  0.50400001928E-02 0.  1.
        1   -1    0    0  501    0  0.00000000000E+00  0.00000000000E+00 -0.59183732248E+03  0.59183732250E+03  0.50400001928E-02 0. -1.
    10030    2    1    2    0    0  0.00000000000E+00  0.00000000000E+00  0.17632662549E+04  0.29469408999E+04  0.23612184951E+04 0.  0.
        4    1    3    3  502    0  0.66299624088E+03  0.91559125578E+03  0.13066431064E+04  0.17277700030E+04  0.12699999809E+01 0.  1.
       -4    1    3    3    0  502 -0.66299624088E+03 -0.91559125578E+03  0.45662314855E+03  0.12191708969E+04  0.12699999809E+01 0. -1.
</event>
<event>
 5   0  0.1345931E-05  0.2965875E+04  0.7818609E-02  0.8253543E-01
       -2   -1    0    0    0  501  0.00000000000E+00  0.00000000000E+00  0.99559385930E+03  0.99559385931E+03  0.25500000920E-02 0. -1.
        2   -1    0    0  501    0  0.00000000000E+00  0.00000000000E+00 -0.22088357502E+04  0.22088357502E+04  0.25500000920E-02 0.  1.
    10030    2    1    2    0    0  0.00000000000E+00  0.00000000000E+00 -0.12132418909E+04  0.32044296095E+04  0.29658747844E+04 0.  0.
        2    1    3    3  502    0 -0.10015867420E+04 -0.85591402239E+03  0.12881883181E+03  0.13237670138E+04  0.25500000920E-02 0. -1.
       -2    1    3    3    0  502  0.10015867420E+04  0.85591402239E+03 -0.13420607227E+04  0.18806625957E+04  0.25500000920E-02 0.  1.
</event>
<event>
 5   0  0.1423692E-05  0.2952551E+04  0.7818609E-02  0.8257412E-01
       -2   -1    0    0    0  501  0.00000000000E+00  0.00000000000E+00  0.15393206086E+04  0.15393206086E+04  0.25500000920E-02 0.  1.
        2   -1    0    0  501    0  0.00000000000E+00  0.00000000000E+00 -0.14158121118E+04  0.14158121118E+04  0.25500000920E-02 0. -1.
    10030    2    1    2    0    0  0.00000000000E+00  0.00000000000E+00  0.12350849681E+03  0.29551327204E+04  0.29525506002E+04 0.  0.
        3    1    3    3  502    0  0.79644789853E+03  0.11819387818E+04 -0.32339420276E+03  0.14614692469E+04  0.10100000352E+00 0.  1.
       -3    1    3    3    0  502 -0.79644789853E+03 -0.11819387818E+04  0.44690269957E+03  0.14936634735E+04  0.10100000352E+00 0. -1.
</event>
<event>
 5   0  0.5730920E-06  0.2879577E+04  0.7818609E-02  0.8278980E-01
        1   -1    0    0  501    0  0.00000000000E+00  0.00000000000E+00  0.13809498057E+04  0.13809498057E+04  0.50400001928E-02 0.  1.
       -1   -1    0    0    0  501  0.00000000000E+00  0.00000000000E+00 -0.15011346281E+04  0.15011346281E+04  0.50400001928E-02 0. -1.
    10030    2    1    2    0    0  0.00000000000E+00  0.00000000000E+00 -0.12018482238E+03  0.28820844338E+04  0.28795774503E+04 0.  0.
        1    1    3    3  502    0  0.55672027744E+03  0.13277460091E+04 -0.48055256863E+02  0.14405402596E+04  0.50400001928E-02 0. -1.
       -1    1    3    3    0  502 -0.55672027744E+03 -0.13277460091E+04 -0.72129565518E+02  0.14415441742E+04  0.50400001928E-02 0.  1.
</event>
<event>
 5   0  0.1523029E-05  0.2859730E+04  0.7818609E-02  0.8284961E-01
        2   -1    0    0  501    0  0.00000000000E+00  0.00000000000E+00  0.19852231080E+04  0.19852231080E+04  0.25500000920E-02 0.  1.
       -2   -1    0    0    0  501  0.00000000000E+00  0.00000000000E+00 -0.10298660395E+04  0.10298660395E+04  0.25500000920E-02 0. -1.
    10030    2    1    2    0    0  0.00000000000E+00  0.00000000000E+00  0.95535706850E+03  0.30150891476E+04  0.28597299592E+04 0.  0.
        5    1    3    3  502    0 -0.23464200709E+03  0.99584867118E+03 -0.57544554188E+03  0.11738531037E+04  0.46999998093E+01 0. -1.
       -5    1    3    3    0  502  0.23464200709E+03 -0.99584867118E+03  0.15308026104E+04  0.18412360439E+04  0.46999998093E+01 0.  1.
</event>
<event>
 5   0  0.5329891E-06  0.2834358E+04  0.7818609E-02  0.8292680E-01
       -1   -1    0    0    0  501  0.00000000000E+00  0.00000000000E+00  0.19360474559E+04  0.19360474559E+04  0.50400001928E-02 0.  1.
        1   -1    0    0  501    0  0.00000000000E+00  0.00000000000E+00 -0.10373697116E+04  0.10373697116E+04  0.50400001928E-02 0. -1.
    10030    2    1    2    0    0  0.00000000000E+00  0.00000000000E+00  0.89867774436E+03  0.29734171675E+04  0.28343584749E+04 0.  0.
        4    1    3    3  502    0  0.94186339956E+03  0.10510439337E+04  0.58448215425E+03  0.15275539321E+04  0.12699999809E+01 0.  1.
       -4    1    3    3    0  502 -0.94186339956E+03 -0.10510439337E+04  0.31419559011E+03  0.14458632355E+04  0.12699999809E+01 0. -1.
</event>
<event>
 5   0  0.7032692E-06  0.3027413E+04  0.7818609E-02  0.8235946E-01
        1   -1    0    0  501    0  0.00000000000E+00  0.00000000000E+00  0.20212961282E+04  0.20212961282E+04  0.50400001928E-02 0.  1.
       -1   -1    0    0    0  501  0.00000000000E+00  0.00000000000E+00 -0.11335829764E+04  0.11335829764E+04  0.50400001928E-02 0. -1.
    10030    2    1    2    0    0  0.00000000000E+00  0.00000000000E+00  0.88771315174E+03  0.31548791046E+04  0.30274126783E+04 0.  0.
        5    1    3    3  502    0  0.30038830730E+03 -0.14725851921E+04  0.63185315760E+03  0.16303376294E+04  0.46999998093E+01 0. -1.
       -5    1    3    3    0  502 -0.30038830730E+03  0.14725851921E+04  0.25585999414E+03  0.15245414752E+04  0.46999998093E+01 0.  1.
</event>
<event>
 5   0  0.1345931E-05  0.2516470E+04  0.7818609E-02  0.8397141E-01
        2   -1    0    0  501    0  0.00000000000E+00  0.00000000000E+00  0.21690547192E+04  0.21690547192E+04  0.25500000920E-02 0. -1.
       -2   -1    0    0    0  501  0.00000000000E+00  0.00000000000E+00 -0.72988289434E+03  0.72988289435E+03  0.25500000920E-02 0.  1.
    10030    2    1    2    0    0  0.00000000000E+00  0.00000000000E+00  0.14391718249E+04  0.28989376135E+04  0.25164704937E+04 0.  0.
        2    1    3    3  502    0 -0.11934206361E-01  0.71362143566E+03 -0.47420708014E+03  0.85681264488E+03  0.25500000920E-02 0.  1.
       -2    1    3    3    0  502  0.11934206361E-01 -0.71362143566E+03  0.19133789050E+04  0.20421249687E+04  0.25500000920E-02 0. -1.
</event>
<event>
 5   0  0.5730920E-06  0.2080195E+04  0.7818609E-02  0.8570018E-01
       -1   -1    0    0    0  501  0.00000000000E+00  0.00000000000E+00  0.54557137372E+03  0.54557137374E+03  0.50400001928E-02 0. -1.
        1   -1    0    0  501    0  0.00000000000E+00  0.00000000000E+00 -0.19828809042E+04  0.19828809042E+04  0.50400001928E-02 0.  1.
    10030    2    1    2    0    0  0.00000000000E+00  0.00000000000E+00 -0.14373095305E+04  0.25284522779E+04  0.20801952397E+04 0.  0.
        1    1    3    3  502    0  0.64239077218E+03  0.35135030937E+03 -0.16165459467E+04  0.17746362281E+04  0.50400001928E-02 0.  1.
       -1    1    3    3    0  502 -0.64239077218E+03 -0.35135030937E+03  0.17923641626E+03  0.75381604985E+03  0.50400001928E-02 0. -1.
</event>
<event>
 5   0  0.5392262E-06  0.3053690E+04  0.7818609E-02  0.8228564E-01
        1   -1    0    0  501    0  0.00000000000E+00  0.00000000000E+00  0.22535024164E+04  0.22535024164E+04  0.50400001928E-02 0.  1.
       -1   -1    0    0    0  501  0.00000000000E+00  0.00000000000E+00 -0.10345030518E+04  0.10345030518E+04  0.50400001928E-02 0. -1.
    10030    2    1    2    0    0  0.00000000000E+00  0.00000000000E+00  0.12189993646E+04  0.32880054682E+04  0.30536896549E+04 0.  0.
        2    1    3    3  502    0  0.10871820894E+04 -0.93514310671E+03  0.11739348982E+04  0.18532621700E+04  0.25500000920E-02 0.  1.
       -2    1    3    3    0  502 -0.10871820894E+04  0.93514310671E+03  0.45064466362E+02  0.14347432982E+04  0.25500000920E-02 0. -1.
</event>
<event>
 5   0  0.1523029E-05  0.2997557E+04  0.7818609E-02  0.8244429E-01
        2   -1    0    0  501    0  0.00000000000E+00  0.00000000000E+00  0.15220666056E+04  0.15220666056E+04  0.25500000920E-02 0. -1.
       -2   -1    0    0    0  501  0.00000000000E+00  0.00000000000E+00 -0.14758466624E+04  0.14758466624E+04  0.25500000920E-02 0.  1.
    10030    2    1    2    0    0  0.00000000000E+00  0.00000000000E+00  0.46219943119E+02  0.29979132680E+04  0.29975569518E+04 0.  0.
        5    1    3    3  502    0 -0.12117797018E+04 -0.76028049131E+03 -0.42402074757E+03  0.14920630535E+04  0.46999998093E+01 0.  1.
       -5    1    3    3    0  502  0.12117797018E+04  0.76028049131E+03  0.47024069069E+03  0.15058502145E+04  0.46999998093E+01 0. -1.
</event>
<event>
 5   0  0.1388724E-05  0.3036959E+04  0.7818609E-02  0.8233255E-01
       -2   -1    0    0    0  501  0.00000000000E+00  0.00000000000E+00  0.98330766427E+03  0.98330766428E+03  0.25500000920E-02 0.  1.
        2   -1    0    0  501    0  0.00000000000E+00  0.00000000000E+00 -0.23449215188E+04  0.23449215188E+04  0.25500000920E-02 0. -1.
    10030    2    1    2    0    0  0.00000000000E+00  0.00000000000E+00 -0.13616138545E+04  0.33282291830E+04  0.30369585453E+04 0.  0.
        4    1    3    3  502    0  0.12465685516E+04 -0.75639656526E+03 -0.21622854487E+03  0.14740506485E+04  0.12699999809E+01 0.  1.
       -4    1    3    3    0  502 -0.12465685516E+04  0.75639656526E+03 -0.11453853096E+04  0.18541785346E+04  0.12699999809E+01 0. -1.
</event>
<event>
 5   0  0.5392262E-06  0.1556860E+04  0.7818609E-02  0.8847498E-01
        1   -1    0    0  501    0  0.00000000000E+00  0.00000000000E+00  0.12149785602E+04  0.12149785602E+04  0.50400001928E-02 0. -1.
       -1   -1    0    0    0  501  0.00000000000E+00  0.00000000000E+00 -0.49873604873E+03  0.49873604876E+03  0.50400001928E-02 0.  1.
    10030    2    1    2    0    0  0.00000000000E+00  0.00000000000E+00  0.71624251146E+03  0.17137146090E+04  0.15568604387E+04 0.  0.
        2    1    3    3  502    0  0.48971950679E+03  0.43461658585E+03 -0.10528917861E+03  0.66317613284E+03  0.25500000920E-02 0.  1.
       -2    1    3    3    0  502 -0.48971950679E+03 -0.43461658585E+03  0.82153169007E+03  0.10505384761E+04  0.25500000920E-02 0. -1.
</event>
<event>
 5   0  0.5522695E-06  0.2945288E+04  0.7818609E-02  0.8259529E-01
       -1   -1    0    0    0  501  0.00000000000E+00  0.00000000000E+00  0.25442660057E+04  0.25442660057E+04  0.50400001928E-02 0.  1.
        1   -1    0    0  501    0  0.00000000000E+00  0.00000000000E+00 -0.85237959037E+03  0.85237959038E+03  0.50400001928E-02 0. -1.
    10030    2    1    2    0    0  0.00000000000E+00  0.00000000000E+00  0.16918864153E+04  0.33966455960E+04  0.29452880441E+04 0.  0.
        3    1    3    3  502    0 -0.50159020870E+03 -0.10337096551E+04  0.19082661913E+04  0.22274712693E+04  0.10100000352E+00 0.  1.
       -3    1    3    3    0  502  0.50159020870E+03  0.10337096551E+04 -0.21637977605E+03  0.11691743267E+04  0.10100000352E+00 0. -1.
</event>
<event>
 5   0  0.5392262E-06  0.2418373E+04  0.7818609E-02  0.8432657E-01
        1   -1    0    0  501    0  0.00000000000E+00  0.00000000000E+00  0.11134925771E+04  0.11134925771E+04  0.50400001928E-02 0. -1.
       -1   -1    0    0    0  501  0.00000000000E+00  0.00000000000E+00 -0.13131039558E+04  0.13131039558E+04  0.50400001928E-02 0.  1.
    10030    2    1    2    0    0  0.00000000000E+00  0.00000000000E+00 -0.19961137863E+03  0.24265965329E+04  0.24183725997E+04 0.  0.
        2    1    3    3  502    0  0.75759128377E+03  0.21566185147E+03  0.82074364522E+03  0.11375740497E+04  0.25500000920E-02 0. -1.
       -2    1    3    3    0  502 -0.75759128377E+03 -0.21566185147E+03 -0.10203550238E+04  0.12890224832E+04  0.25500000920E-02 0.  1.
</event>
<event>
 5   0  0.1423692E-05  0.2985701E+04  0.7818609E-02  0.8247826E-01
        2   -1    0    0  501    0  0.00000000000E+00  0.00000000000E+00  0.19143902973E+04  0.19143902973E+04  0.25500000920E-02 0. -1.
       -2   -1    0    0    0  501  0.00000000000E+00  0.00000000000E+00 -0.11641315964E+04  0.11641315964E+04  0.25500000920E-02 0.  1.
    10030    2    1    2    0    0  0.00000000000E+00  0.00000000000E+00  0.75025870095E+03  0.30785218937E+04  0.29857007438E+04 0.  0.
        3    1    3    3  502    0  0.14090594749E+04  0.37994976916E+03  0.69921246310E+03  0.16182424137E+04  0.10100000352E+00 0. -1.
       -3    1    3    3    0  502 -0.14090594749E+04 -0.37994976916E+03  0.51046237849E+02  0.14602794799E+04  0.10100000352E+00 0.  1.
</event>
<event>
 5   0  0.4806125E-06  0.2120910E+04  0.7818609E-02  0.8552088E-01
       -3   -1    0    0    0  501  0.00000000000E+00  0.00000000000E+00  0.88175707705E+03  0.88175708283E+03  0.10100000352E+00 0.  1.
        3   -1    0    0  501    0  0.00000000000E+00  0.00000000000E+00 -0.12753676495E+04  0.12753676535E+04  0.10100000352E+00 0. -1.
    10030    2    1    2    0    0  0.00000000000E+00  0.00000000000E+00 -0.39361057246E+03  0.21571247363E+04  0.21209096740E+04 0.  0.
        3    1    3    3  502    0 -0.79666387469E+03 -0.63075190240E+03  0.11176126391E+03  0.10222582266E+04  0.10100000352E+00 0. -1.
       -3    1    3    3    0  502  0.79666387469E+03  0.63075190240E+03 -0.50537183637E+03  0.11348665097E+04  0.10100000352E+00 0.  1.
</event>
<event>
 5   0  0.5329891E-06  0.3022277E+04  0.7818609E-02  0.8237398E-01
        1   -1    0    0  501    0  0.00000000000E+00  0.00000000000E+00  0.17624345691E+04  0.17624345691E+04  0.50400001928E-02 0. -1.
       -1   -1    0    0    0  501  0.00000000000E+00  0.00000000000E+00 -0.12956732903E+04  0.12956732903E+04  0.50400001928E-02 0.  1.
    10030    2    1    2    0    0  0.00000000000E+00  0.00000000000E+00  0.46676127875E+03  0.30581078594E+04  0.30222768881E+04 0.  0.
        4    1    3    3  502    0 -0.12926268022E+03 -0.97342692194E+03  0.13955922852E+04  0.17064431583E+04  0.12699999809E+01 0. -1.
       -4    1    3    3    0  502  0.12926268022E+03  0.97342692194E+03 -0.92883100648E+03  0.13516647012E+04  0.12699999809E+01 0.  1.
</event>
<event>
 5   0  0.5522695E-06  0.1946697E+04  0.7818609E-02  0.8631955E-01
       -1   -1    0    0    0  501  0.00000000000E+00  0.00000000000E+00  0.10988648797E+04  0.10988648797E+04  0.50400001928E-02 0. -1.
        1   -1    0    0  501    0  0.00000000000E+00  0.00000000000E+00 -0.86216899185E+03  0.86216899186E+03  0.50400001928E-02 0.  1.
    10030    2    1    2    0    0  0.00000000000E+00  0.00000000000E+00  0.23669588784E+03  0.19610338716E+04  0.19466969210E+04 0.  0.
        3    1    3    3  502    0  0.69228745486E+03  0.60667844496E+03  0.43704249159E+03  0.10189832213E+04  0.10100000352E+00 0. -1.
       -3    1    3    3    0  502 -0.69228745486E+03 -0.60667844496E+03 -0.20034660375E+03  0.94205065021E+03  0.10100000352E+00 0.  1.
</event>
<event>
 5   0  0.1480547E-05  0.3119075E+04  0.7818609E-02  0.8210522E-01
        2   -1    0    0  501    0  0.00000000000E+00  0.00000000000E+00  0.28154241212E+04  0.28154241212E+04  0.25500000920E-02 0.  1.
       -2   -1    0    0    0  501  0.00000000000E+00  0.00000000000E+00 -0.86386861275E+03  0.86386861276E+03  0.25500000920E-02 0. -1.
    10030    2    1    2    0    0  0.00000000000E+00  0.00000000000E+00  0.19515555085E+04  0.36792927340E+04  0.31190745614E+04 0.  0.
        1    1    3    3  502    0 -0.13506083555E+04 -0.56135355544E+03  0.16141810901E+04  0.21782656715E+04  0.50400001928E-02 0.  1.
       -1    1    3    3    0  502  0.13506083555E+04  0.56135355544E+03  0.33737441837E+03  0.15010270625E+04  0.50400001928E-02 0. -1.
</event>
<event>
 5   0  0.5730920E-06  0.3004543E+04  0.7818609E-02  0.8242435E-01
        1   -1    0    0  501    0  0.00000000000E+00  0.00000000000E+00  0.15731711613E+04  0.15731711613E+04  0.50400001928E-02 0.  1.
       -1   -1    0    0    0  501  0.00000000000E+00  0.00000000000E+00 -0.14345669040E+04  0.14345669041E+04  0.50400001928E-02 0. -1.
    10030    2    1    2    0    0  0.00000000000E+00  0.00000000000E+00  0.13860425726E+03  0.30077380654E+04  0.30045427489E+04 0.  0.
        1    1    3    3  502    0  0.10356597531E+04 -0.85340071109E+03 -0.60664585040E+03  0.14727196222E+04  0.50400001928E-02 0. -1.
       -1    1    3    3    0  502 -0.10356597531E+04  0.85340071109E+03  0.74525010766E+03  0.15350184432E+04  0.50400001928E-02 0.  1.
</event>
<event>
 5   0  0.1423692E-05  0.2983642E+04  0.7818609E-02  0.8248418E-01
        2   -1    0    0  501    0  0.00000000000E+00  0.00000000000E+00  0.15053118571E+04  0.15053118571E+04  0.25500000920E-02 0. -1.
       -2   -1    0    0    0  501  0.00000000000E+00  0.00000000000E+00 -0.14784506143E+04  0.14784506143E+04  0.25500000920E-02 0.  1.
    10030    2    1    2    0    0  0.00000000000E+00  0.00000000000E+00  0.26861242812E+02  0.29837624714E+04  0.29836415601E+04 0.  0.
        3    1    3    3  502    0 -0.13028445845E+04 -0.28745703286E+03  0.68091079356E+03  0.14978902083E+04  0.10100000352E+00 0. -1.
       -3    1    3    3    0  502  0.13028445845E+04  0.28745703286E+03 -0.65404955074E+03  0.14858722631E+04  0.10100000352E+00 0.  1.
</event>
<event>
 5   0  0.1423692E-05  0.2288213E+04  0.7818609E-02  0.8482583E-01
       -2   -1    0    0    0  501  0.00000000000E+00  0.00000000000E+00  0.63698077827E+03  0.63698077828E+03  0.25500000920E-02 0.  1.
        2   -1    0    0  501    0  0.00000000000E+00  0.00000000000E+00 -0.20549752566E+04  0.20549752566E+04  0.25500000920E-02 0. -1.
    10030    2    1    2    0    0  0.00000000000E+00  0.00000000000E+00 -0.14179944783E+04  0.26919560348E+04  0.22882130480E+04 0.  0.
        3    1    3    3  502    0  0.10520685718E+04  0.19332864186E+03 -0.11865171065E+04  0.15975127848E+04  0.10100000352E+00 0. -1.
       -3    1    3    3    0  502 -0.10520685718E+04 -0.19332864186E+03 -0.23147737183E+03  0.10944432500E+04  0.10100000352E+00 0.  1.
</event>
<event>
 5   0  0.1388724E-05  0.2998434E+04  0.7818609E-02  0.8244178E-01
        2   -1    0    0  501    0  0.00000000000E+00  0.00000000000E+00  0.26052297523E+04  0.26052297523E+04  0.25500000920E-02 0. -1.
       -2   -1    0    0    0  501  0.00000000000E+00  0.00000000000E+00 -0.86274597166E+03  0.86274597167E+03  0.25500000920E-02 0.  1.
    10030    2    1    2    0    0  0.00000000000E+00  0.00000000000E+00  0.17424837806E+04  0.34679757240E+04  0.29984339073E+04 0.  0.
        4    1    3    3  502    0 -0.60739884335E+03 -0.48415313498E+02 -0.71307150369E+03  0.93794988126E+03  0.12699999809E+01 0.  1.
       -4    1    3    3    0  502  0.60739884335E+03  0.48415313498E+02  0.24555552843E+04  0.25300258427E+04  0.12699999809E+01 0. -1.
</event>
<event>
 5   0  0.5522695E-06  0.3013526E+04  0.7818609E-02  0.8239879E-01
        1   -1    0    0  501    0  0.00000000000E+00  0.00000000000E+00  0.14595034410E+04  0.14595034410E+04  0.50400001928E-02 0.  1.
       -1   -1    0    0    0  501  0.00000000000E+00  0.00000000000E+00 -0.15555531586E+04  0.15555531586E+04  0.50400001928E-02 0. -1.
    10030    2    1    2    0    0  0.00000000000E+00  0.00000000000E+00 -0.96049717601E+02  0.30150565996E+04  0.30135262983E+04 0.  0.
        3    1    3    3  502    0 -0.32127994785E+03 -0.11530221676E+04 -0.96372415954E+03  0.15366994468E+04  0.10100000352E+00 0. -1.
       -3    1    3    3    0  502  0.32127994785E+03  0.11530221676E+04  0.86767444194E+03  0.14783571528E+04  0.10100000352E+00 0.  1.
</event>
<event>
 5   0  0.1388724E-05  0.1646528E+04  0.7818609E-02  0.8792463E-01
        2   -1    0    0  501    0  0.00000000000E+00  0.00000000000E+00  0.18290027588E+04  0.18290027588E+04  0.25500000920E-02 0.  1.
       -2   -1    0    0    0  501  0.00000000000E+00  0.00000000000E+00 -0.37056443389E+03  0.37056443389E+03  0.25500000920E-02 0. -1.
    10030    2    1    2    0    0  0.00000000000E+00  0.00000000000E+00  0.14584383249E+04  0.21995671927E+04  0.16465277063E+04 0.  0.
        4    1    3    3  502    0 -0.41352348341E+02  0.52427878127E+03 -0.11691596026E+03  0.53874781844E+03  0.12699999809E+01 0. -1.
       -4    1    3    3    0  502  0.41352348341E+02 -0.52427878127E+03  0.15753542852E+04  0.16608193743E+04  0.12699999809E+01 0.  1.
</event>
<event>
 5   0  0.7032692E-06  0.2094347E+04  0.7818609E-02  0.8563737E-01
        1   -1    0    0  501    0  0.00000000000E+00  0.00000000000E+00  0.16967989759E+04  0.16967989760E+04  0.50400001928E-02 0.  1.
       -1   -1    0    0    0  501  0.00000000000E+00  0.00000000000E+00 -0.64625971376E+03  0.64625971378E+03  0.50400001928E-02 0. -1.
    10030    2    1    2    0    0  0.00000000000E+00  0.00000000000E+00  0.10505392622E+04  0.23430586897E+04  0.20943474597E+04 0.  0.
        5    1    3    3  502    0  0.57001975927E+03 -0.22107604546E+03  0.14763770308E+04  0.15979700782E+04  0.46999998093E+01 0.  1.
       -5    1    3    3    0  502 -0.57001975927E+03  0.22107604546E+03 -0.42583776861E+03  0.74508861151E+03  0.46999998093E+01 0. -1.
</event>
<event>
 5   0  0.1480547E-05  0.1833639E+04  0.7818609E-02  0.8688612E-01
        2   -1    0    0  501    0  0.00000000000E+00  0.00000000000E+00  0.17430916172E+04  0.17430916172E+04  0.25500000920E-02 0.  1.
       -2   -1    0    0    0  501  0.00000000000E+00  0.00000000000E+00 -0.48222255557E+03  0.48222255558E+03  0.25500000920E-02 0. -1.
    10030    2    1    2    0    0  0.00000000000E+00  0.00000000000E+00  0.12608690616E+04  0.22253141728E+04  0.18336391076E+04 0.  0.
        1    1    3    3  502    0  0.46422216630E+03  0.13696750082E+03  0.15754082774E+04  0.16480817809E+04  0.50400001928E-02 0.  1.
       -1    1    3    3    0  502 -0.46422216630E+03 -0.13696750082E+03 -0.31453921578E+03  0.57723239189E+03  0.50400001928E-02 0. -1.
</event>
<event>
 5   0  0.5392262E-06  0.2959356E+04  0.7818609E-02  0.8255433E-01
        1   -1    0    0  501    0  0.00000000000E+00  0.00000000000E+00  0.18524704820E+04  0.18524704820E+04  0.50400001928E-02 0. -1.
       -1   -1    0    0    0  501  0.00000000000E+00  0.00000000000E+00 -0.11819062636E+04  0.11819062636E+04  0.50400001928E-02 0.  1.
    10030    2    1    2    0    0  0.00000000000E+00  0.00000000000E+00  0.67056421832E+03  0.30343767456E+04  0.29593556500E+04 0.  0.
        2    1    3    3  502    0 -0.11350297465E+03 -0.14706273141E+04  0.21474849135E+03  0.14905517558E+04  0.25500000920E-02 0. -1.
       -2    1    3    3    0  502  0.11350297465E+03  0.14706273141E+04  0.45581572697E+03  0.15438249898E+04  0.25500000920E-02 0.  1.
</event>
<event>
 5   0  0.1523029E-05  0.1705212E+04  0.7818609E-02  0.8758397E-01
        2   -1    0    0  501    0  0.00000000000E+00  0.00000000000E+00  0.18891579517E+04  0.18891579517E+04  0.25500000920E-02 0.  1.
       -2   -1    0    0    0  501  0.00000000000E+00  0.00000000000E+00 -0.38479413189E+03  0.38479413190E+03  0.25500000920E-02 0. -1.
    10030    2    1    2    0    0  0.00000000000E+00  0.00000000000E+00  0.15043638198E+04  0.22739520836E+04  0.17052118860E+04 0.  0.
        5    1    3    3  502    0 -0.47962328205E+03  0.67050346053E+03  0.46215382781E+03  0.94510403333E+03  0.46999998093E+01 0.  1.
       -5    1    3    3    0  502  0.47962328205E+03 -0.67050346053E+03  0.10422099920E+04  0.13288480503E+04  0.46999998093E+01 0. -1.
</event>
<event>
 5   0  0.5522695E-06  0.3095341E+04  0.7818609E-02  0.8217018E-01
        1   -1    0    0  501    0  0.00000000000E+00  0.00000000000E+00  0.16521641523E+04  0.16521641523E+04  0.50400001928E-02 0. -1.
       -1   -1    0    0    0  501  0.00000000000E+00  0.00000000000E+00 -0.14497853095E+04  0.14497853095E+04  0.50400001928E-02 0.  1.
    10030    2    1    2    0    0  0.00000000000E+00  0.00000000000E+00  0.20237884283E+03  0.31019494618E+04  0.30953405738E+04 0.  0.
        3    1    3    3  502    0  0.14811476718E+04 -0.24200547665E+03 -0.27766302158E+03  0.15262574620E+04  0.10100000352E+00 0.  1.
       -3    1    3    3    0  502 -0.14811476718E+04  0.24200547665E+03  0.48004186441E+03  0.15756919998E+04  0.10100000352E+00 0. -1.
</event>
<event>
 5   0  0.5522695E-06  0.2955655E+04  0.7818609E-02  0.8256508E-01
       -1   -1    0    0    0  501  0.00000000000E+00  0.00000000000E+00  0.10984407311E+04  0.10984407311E+04  0.50400001928E-02 0.  1.
        1   -1    0    0  501    0  0.00000000000E+00  0.00000000000E+00 -0.19882498489E+04  0.19882498489E+04  0.50400001928E-02 0. -1.
    10030    2    1    2    0    0  0.00000000000E+00  0.00000000000E+00 -0.88980911781E+03  0.30866905800E+04  0.29556553368E+04 0.  0.
        3    1    3    3  502    0 -0.63728184814E+02  0.24749515557E+03 -0.19649966074E+04  0.19815465705E+04  0.10100000352E+00 0. -1.
       -3    1    3    3    0  502  0.63728184814E+02 -0.24749515557E+03  0.10751874896E+04  0.11051440095E+04  0.10100000352E+00 0.  1.
</event>
<event>
 5   0  0.5730920E-06  0.2870987E+04  0.7818609E-02  0.8281562E-01
        1   -1    0    0  501    0  0.00000000000E+00  0.00000000000E+00  0.12249199970E+04  0.12249199970E+04  0.50400001928E-02 0. -1.
       -1   -1    0    0    0  501  0.00000000000E+00  0.00000000000E+00 -0.16822667135E+04  0.16822667135E+04  0.50400001928E-02 0.  1.
    10030    2    1    2    0    0  0.00000000000E+00  0.00000000000E+00 -0.45734671647E+03  0.29071867106E+04  0.28709873826E+04 0.  0.
        1    1    3    3  502    0  0.14096058263E+03 -0.13433495483E+04  0.26344220614E+03  0.13761757485E+04  0.50400001928E-02 0. -1.
       -1    1    3    3    0  502 -0.14096058263E+03  0.13433495483E+04 -0.72078892261E+03  0.15310109620E+04  0.50400001928E-02 0.  1.
</event>
<event>
 5   0  0.5392262E-06  0.1936074E+04  0.7818609E-02  0.8637105E-01
        1   -1    0    0  501    0  0.00000000000E+00  0.00000000000E+00  0.90070796785E+03  0.90070796786E+03  0.50400001928E-02 0.  1.
       -1   -1    0    0    0  501  0.00000000000E+00  0.00000000000E+00 -0.10403992693E+04  0.10403992693E+04  0.50400001928E-02 0. -1.
    10030    2    1    2    0    0  0.00000000000E+00  0.00000000000E+00 -0.13969130148E+03  0.19411072372E+04  0.19360742875E+04 0.  0.
        2    1    3    3  502    0  0.20176801365E+03 -0.94645503267E+03 -0.94576582304E+02  0.97233337396E+03  0.25500000920E-02 0. -1.
       -2    1    3    3    0  502 -0.20176801365E+03  0.94645503267E+03 -0.45114719175E+02  0.96877386324E+03  0.25500000920E-02 0.  1.
</event>
<event>
 5   0  0.7032692E-06  0.2142102E+04  0.7818609E-02  0.8542921E-01
       -1   -1    0    0    0  501  0.00000000000E+00  0.00000000000E+00  0.87345649104E+03  0.87345649105E+03  0.50400001928E-02 0. -1.
        1   -1    0    0  501    0  0.00000000000E+00  0.00000000000E+00 -0.13133451468E+04  0.13133451469E+04  0.50400001928E-02 0.  1.
    10030    2    1    2    0    0  0.00000000000E+00  0.00000000000E+00 -0.43988865581E+03  0.21868016379E+04  0.21421016255E+04 0.  0.
        5    1    3    3  502    0  0.60417726856E+03  0.50442001859E+03 -0.96150312987E+03  0.12425699521E+04  0.46999998093E+01 0.  1.
       -5    1    3    3    0  502 -0.60417726856E+03 -0.50442001859E+03  0.52161447407E+03  0.94423168585E+03  0.46999998093E+01 0. -1.
</event>
<event>
 5   0  0.1523029E-05  0.3037716E+04  0.7818609E-02  0.8233042E-01
       -2   -1    0    0    0  501  0.00000000000E+00  0.00000000000E+00  0.18978852425E+04  0.18978852425E+04  0.25500000920E-02 0. -1.
        2   -1    0    0  501    0  0.00000000000E+00  0.00000000000E+00 -0.12155267888E+04  0.12155267888E+04  0.25500000920E-02 0.  1.
    10030    2    1    2    0    0  0.00000000000E+00  0.00000000000E+00  0.68235845362E+03  0.31134120313E+04  0.30377164808E+04 0.  0.
        5    1    3    3  502    0 -0.78391193971E+03 -0.11546503075E+04 -0.27306517146E+03  0.14220836613E+04  0.46999998093E+01 0.  1.
       -5    1    3    3    0  502  0.78391193971E+03  0.11546503075E+04  0.95542362508E+03  0.16913283700E+04  0.46999998093E+01 0. -1.
</event>
<event>
 5   0  0.4806125E-06  0.1615485E+04  0.7818609E-02  0.8811091E-01
       -3   -1    0    0    0  501  0.00000000000E+00  0.00000000000E+00  0.85761010506E+03  0.85761011101E+03  0.10100000352E+00 0. -1.
        3   -1    0    0  501    0  0.00000000000E+00  0.00000000000E+00 -0.76077432361E+03  0.76077433031E+03  0.10100000352E+00 0.  1.
    10030    2    1    2    0    0  0.00000000000E+00  0.00000000000E+00  0.96835781455E+02  0.16183844413E+04  0.16154847667E+04 0.  0.
        1    1    3    3  502    0  0.46185587275E+03 -0.63519953174E+03 -0.14075554543E+03  0.79787305752E+03  0.50400001928E-02 0. -1.
       -1    1    3    3    0  502 -0.46185587275E+03  0.63519953174E+03  0.23759132689E+03  0.82051138381E+03  0.50400001928E-02 0.  1.
</event>
<event>
 5   0  0.1480547E-05  0.3002818E+04  0.7818609E-02  0.8242927E-01
        2   -1    0    0  501    0  0.00000000000E+00  0.00000000000E+00  0.13448634026E+04  0.13448634026E+04  0.25500000920E-02 0. -1.
       -2   -1    0    0    0  501  0.00000000000E+00  0.00000000000E+00 -0.16761765963E+04  0.16761765963E+04  0.25500000920E-02 0.  1.
    10030    2    1    2    0    0  0.00000000000E+00  0.00000000000E+00 -0.33131319375E+03  0.30210399989E+04  0.30028177172E+04 0.  0.
        1    1    3    3  502    0 -0.24105996989E+03  0.52104314351E+03  0.12300734736E+04  0.13574522521E+04  0.50400001928E-02 0. -1.
       -1    1    3    3    0  502  0.24105996989E+03 -0.52104314351E+03 -0.15613866673E+04  0.16635877468E+04  0.50400001928E-02 0.  1.
</event>
<event>
 5   0  0.5730920E-06  0.3020067E+04  0.7818609E-02  0.8238024E-01
       -1   -1    0    0    0  501  0.00000000000E+00  0.00000000000E+00  0.81728845165E+03  0.81728845167E+03  0.50400001928E-02 0.  1.
        1   -1    0    0  501    0  0.00000000000E+00  0.00000000000E+00 -0.27899588098E+04  0.27899588098E+04  0.50400001928E-02 0. -1.
    10030    2    1    2    0    0  0.00000000000E+00  0.00000000000E+00 -0.19726703582E+04  0.36072472615E+04  0.30200669634E+04 0.  0.
        1    1    3    3  502    0  0.13111529170E+04  0.10253243915E+03 -0.18726012629E+04  0.22882898336E+04  0.50400001928E-02 0. -1.
       -1    1    3    3    0  502 -0.13111529170E+04 -0.10253243915E+03 -0.10006909531E+03  0.13189574279E+04  0.50400001928E-02 0.  1.
</event>
<event>
 5   0  0.1388724E-05  0.1587024E+04  0.7818609E-02  0.8828559E-01
       -2   -1    0    0    0  501  0.00000000000E+00  0.00000000000E+00  0.45249212543E+03  0.45249212543E+03  0.25500000920E-02 0. -1.
        2   -1    0    0  501    0  0.00000000000E+00  0.00000000000E+00 -0.13915414892E+04  0.13915414892E+04  0.25500000920E-02 0.  1.
    10030    2    1    2    0    0  0.00000000000E+00  0.00000000000E+00 -0.93904936380E+03  0.18440336147E+04  0.15870243427E+04 0.  0.
        4    1    3    3  502    0 -0.46934966265E+03 -0.26429146727E+02 -0.12123263520E+04  0.13002785864E+04  0.12699999809E+01 0.  1.
       -4    1    3    3    0  502  0.46934966265E+03  0.26429146727E+02  0.27327698816E+03  0.54375502829E+03  0.12699999809E+01 0. -1.
</event>
<event>
 5   0  0.1423692E-05  0.3062499E+04  0.7818609E-02  0.8226106E-01
        2   -1    0    0  501    0  0.00000000000E+00  0.00000000000E+00  0.15995180710E+04  0.15995180710E+04  0.25500000920E-02 0.  1.
       -2   -1    0    0    0  501  0.00000000000E+00  0.00000000000E+00 -0.14658948502E+04  0.14658948502E+04  0.25500000920E-02 0. -1.
    10030    2    1    2    0    0  0.00000000000E+00  0.00000000000E+00  0.13362322079E+03  0.30654129213E+04  0.30624991776E+04 0.  0.
        3    1    3    3  502    0  0.50229258106E+03 -0.82794143961E+02  0.15123367789E+04  0.15957177853E+04  0.10100000352E+00 0.  1.
       -3    1    3    3    0  502 -0.50229258106E+03  0.82794143961E+02 -0.13787135581E+04  0.14696951360E+04  0.10100000352E+00 0. -1.
</event>
<event>
 5   0  0.5522695E-06  0.2045376E+04  0.7818609E-02  0.8585695E-01
        1   -1    0    0  501    0  0.00000000000E+00  0.00000000000E+00  0.15998439060E+04  0.15998439060E+04  0.50400001928E-02 0. -1.
       -1   -1    0    0    0  501  0.00000000000E+00  0.00000000000E+00 -0.65374518399E+03  0.65374518401E+03  0.50400001928E-02 0.  1.
    10030    2    1    2    0    0  0.00000000000E+00  0.00000000000E+00  0.94609872199E+03  0.22535890900E+04  0.20453755144E+04 0.  0.
        3    1    3    3  502    0  0.10030276322E+04  0.11504409356E+03  0.29338320749E+03  0.10513673436E+04  0.10100000352E+00 0.  1.
       -3    1    3    3    0  502 -0.10030276322E+04 -0.11504409356E+03  0.65271551449E+03  0.12022217464E+04  0.10100000352E+00 0. -1.
</event>
<event>
 5   0  0.7032692E-06  0.2518807E+04  0.7818609E-02  0.8396316E-01
        1   -1    0    0  501    0  0.00000000000E+00  0.00000000000E+00  0.20917355468E+04  0.20917355468E+04  0.50400001928E-02 0. -1.
       -1   -1    0    0    0  501  0.00000000000E+00  0.00000000000E+00 -0.75826833389E+03  0.75826833391E+03  0.50400001928E-02 0.  1.
    10030    2    1    2    0    0  0.00000000000E+00  0.00000000000E+00  0.13334672129E+04  0.28500038807E+04  0.25188067238E+04 0.  0.
        5    1    3    3  502    0 -0.27778962547E+03  0.90611400410E+03  0.16051643708E+04  0.18640773621E+04  0.46999998093E+01 0.  1.
       -5    1    3    3    0  502  0.27778962547E+03 -0.90611400410E+03 -0.27169715796E+03  0.98592651860E+03  0.46999998093E+01 0. -1.
</event>
<event>
 5   0  0.5329891E-06  0.2749053E+04  0.7818609E-02  0.8319262E-01
        1   -1    0    0  501    0  0.00000000000E+00  0.00000000000E+00  0.26575778589E+04  0.26575778590E+04  0.50400001928E-02 0. -1.
       -1   -1    0    0    0  501  0.00000000000E+00  0.00000000000E+00 -0.71091913193E+03  0.71091913195E+03  0.50400001928E-02 0.  1.
    10030    2    1    2    0    0  0.00000000000E+00  0.00000000000E+00  0.19466587270E+04  0.33684969909E+04  0.27490528875E+04 0.  0.
        4    1    3    3  502    0 -0.10381064029E+03 -0.98451612857E+03  0.21417524750E+04  0.23594817086E+04  0.12699999809E+01 0. -1.
       -4    1    3    3    0  502  0.10381064029E+03  0.98451612857E+03 -0.19509374795E+03  0.10090152823E+04  0.12699999809E+01 0.  1.
</event>
<event>
 5   0  0.1423692E-05  0.3059590E+04  0.7818609E-02  0.8226916E-01
       -2   -1    0    0    0  501  0.00000000000E+00  0.00000000000E+00  0.15946248828E+04  0.15946248829E+04  0.25500000920E-02 0. -1.
        2   -1    0    0  501    0  0.00000000000E+00  0.00000000000E+00 -0.14676008030E+04  0.14676008030E+04  0.25500000920E-02 0.  1.
    10030    2    1    2    0    0  0.00000000000E+00  0.00000000000E+00  0.12702407982E+03  0.30622256859E+04  0.30595900108E+04 0.  0.
        3    1    3    3  502    0  0.84447129319E+03  0.39067142818E+02 -0.12125822789E+04  0.14781792178E+04  0.10100000352E+00 0.  1.
       -3    1    3    3    0  502 -0.84447129319E+03 -0.39067142818E+02  0.13396063587E+04  0.15840464681E+04  0.10100000352E+00 0. -1.
</event>
<event>
 5   0  0.1345931E-05  0.2988412E+04  0.7818609E-02  0.8247048E-01
        2   -1    0    0  501    0  0.00000000000E+00  0.00000000000E+00  0.13972172900E+04  0.13972172900E+04  0.25500000920E-02 0.  1.
       -2   -1    0    0    0  501  0.00000000000E+00  0.00000000000E+00 -0.15979274186E+04  0.15979274186E+04  0.25500000920E-02 0. -1.
    10030    2    1    2    0    0  0.00000000000E+00  0.00000000000E+00 -0.20071012864E+03  0.29951447086E+04  0.29884121653E+04 0.  0.
        2    1    3    3  502    0  0.74152330964E+02 -0.51341243563E+03 -0.15047831446E+04  0.15916856503E+04  0.25500000920E-02 0. -1.
       -2    1    3    3    0  502 -0.74152330964E+02  0.51341243563E+03  0.13040730159E+04  0.14034590582E+04  0.25500000920E-02 0.  1.
</event>
<event>
 5   0  0.1423692E-05  0.2726578E+04  0.7818609E-02  0.8326432E-01
       -2   -1    0    0    0  501  0.00000000000E+00  0.00000000000E+00  0.89782812021E+03  0.89782812022E+03  0.25500000920E-02 0.  1.
        2   -1    0    0  501    0  0.00000000000E+00  0.00000000000E+00 -0.20700589819E+04  0.20700589819E+04  0.25500000920E-02 0. -1.
    10030    2    1    2    0    0  0.00000000000E+00  0.00000000000E+00 -0.11722308617E+04  0.29678871021E+04  0.27265781958E+04 0.  0.
        3    1    3    3  502    0  0.14490920477E+03  0.12979485511E+04 -0.10117296895E+04  0.16520490591E+04  0.10100000352E+00 0. -1.
       -3    1    3    3    0  502 -0.14490920477E+03 -0.12979485511E+04 -0.16050117212E+03  0.13158380430E+04  0.10100000352E+00 0.  1.
</event>
<event>
 5   0  0.1345931E-05  0.2143900E+04  0.7818609E-02  0.8542148E-01
       -2   -1    0    0    0  501  0.00000000000E+00  0.00000000000E+00  0.39822673279E+03  0.39822673280E+03  0.25500000920E-02 0.  1.
        2   -1    0    0  501    0  0.00000000000E+00  0.00000000000E+00 -0.28854849218E+04  0.28854849218E+04  0.25500000920E-02 0. -1.
    10030    2    1    2    0    0  0.00000000000E+00  0.00000000000E+00 -0.24872581890E+04  0.32837116546E+04  0.21439004015E+04 0.  0.
        2    1    3    3  502    0 -0.72041533800E+03 -0.64991606837E+03 -0.54561178546E+03  0.11131403216E+04  0.25500000920E-02 0.  1.
       -2    1    3    3    0  502  0.72041533800E+03  0.64991606837E+03 -0.19416464035E+04  0.21705713330E+04  0.25500000920E-02 0. -1.
</event>
<event>
 5   0  0.1423692E-05  0.3059619E+04  0.7818609E-02  0.8226908E-01
       -2   -1    0    0    0  501  0.00000000000E+00  0.00000000000E+00  0.14199909186E+04  0.14199909186E+04  0.25500000920E-02 0.  1.
        2   -1    0    0  501    0  0.00000000000E+00  0.00000000000E+00 -0.16481214031E+04  0.16481214031E+04  0.25500000920E-02 0. -1.
    10030    2    1    2    0    0  0.00000000000E+00  0.00000000000E+00 -0.22813048444E+03  0.30681123217E+04  0.30596192084E+04 0.  0.
        3    1    3    3  502    0  0.48279402569E+03  0.13254891197E+04 -0.70757467415E+03  0.15781867467E+04  0.10100000352E+00 0. -1.
       -3    1    3    3    0  502 -0.48279402569E+03 -0.13254891197E+04  0.47944418972E+03  0.14899255750E+04  0.10100000352E+00 0.  1.
</event>
<event>
 5   0  0.1523029E-05  0.2573896E+04  0.7818609E-02  0.8377122E-01
        2   -1    0    0  501    0  0.00000000000E+00  0.00000000000E+00  0.12457998429E+04  0.12457998429E+04  0.25500000920E-02 0. -1.
       -2   -1    0    0    0  501  0.00000000000E+00  0.00000000000E+00 -0.13294555501E+04  0.13294555501E+04  0.25500000920E-02 0.  1.
    10030    2    1    2    0    0  0.00000000000E+00  0.00000000000E+00 -0.83655707235E+02  0.25752553930E+04  0.25738962803E+04 0.  0.
        5    1    3    3  502    0  0.88170989078E+03  0.53860313137E+03 -0.80950593981E+03  0.13125652826E+04  0.46999998093E+01 0.  1.
       -5    1    3    3    0  502 -0.88170989078E+03 -0.53860313137E+03  0.72585023258E+03  0.12626901103E+04  0.46999998093E+01 0. -1.
</event>
<event>
 5   0  0.1388724E-05  0.1579325E+04  0.7818609E-02  0.8833351E-01
       -2   -1    0    0    0  501  0.00000000000E+00  0.00000000000E+00  0.58483512460E+03  0.58483512460E+03  0.25500000920E-02 0. -1.
        2   -1    0    0  501    0  0.00000000000E+00  0.00000000000E+00 -0.10662271523E+04  0.10662271523E+04  0.25500000920E-02 0.  1.
    10030    2    1    2    0    0  0.00000000000E+00  0.00000000000E+00 -0.48139202766E+03  0.16510622769E+04  0.15793252856E+04 0.  0.
        4    1    3    3  502    0  0.64241044206E+03 -0.14272671021E+03 -0.69698839421E+03  0.95857004149E+03  0.12699999809E+01 0.  1.
       -4    1    3    3    0  502 -0.64241044206E+03  0.14272671021E+03  0.21559636655E+03  0.69249223537E+03  0.12699999809E+01 0. -1.
</event>
<event>
 5   0  0.1388724E-05  0.2467822E+04  0.7818609E-02  0.8414540E-01
       -2   -1    0    0    0  501  0.00000000000E+00  0.00000000000E+00  0.26141903988E+04  0.26141903988E+04  0.25500000920E-02 0.  1.
        2   -1    0    0  501    0  0.00000000000E+00  0.00000000000E+00 -0.58241196343E+03  0.58241196344E+03  0.25500000920E-02 0. -1.
    10030    2    1    2    0    0  0.00000000000E+00  0.00000000000E+00  0.20317784354E+04  0.31966023623E+04  0.24678215195E+04 0.  0.
        4    1    3    3  502    0  0.54723400891E+03  0.10845111608E+04  0.73535700728E+03  0.14199933308E+04  0.12699999809E+01 0.  1.
       -4    1    3    3    0  502 -0.54723400891E+03 -0.10845111608E+04  0.12964214281E+04  0.17766090315E+04  0.12699999809E+01 0. -1.
</event>
<event>
 5   0  0.5730920E-06  0.2978474E+04  0.7818609E-02  0.8249905E-01
        1   -1    0    0  501    0  0.00000000000E+00  0.00000000000E+00  0.13723263280E+04  0.13723263280E+04  0.50400001928E-02 0. -1.
       -1   -1    0    0    0  501  0.00000000000E+00  0.00000000000E+00 -0.16161071369E+04  0.16161071370E+04  0.50400001928E-02 0.  1.
    10030    2    1    2    0    0  0.00000000000E+00  0.00000000000E+00 -0.24378080894E+03  0.29884334650E+04  0.29784736849E+04 0.  0.
        1    1    3    3  502    0 -0.13423689015E+04 -0.49113348975E+03 -0.54121134582E+03  0.15284227469E+04  0.50400001928E-02 0.  1.
       -1    1    3    3    0  502  0.13423689015E+04  0.49113348975E+03  0.29743053688E+03  0.14600107180E+04  0.50400001928E-02 0. -1.
</event>
<event>
 5   0  0.1345931E-05  0.1700145E+04  0.7818609E-02  0.8761282E-01
       -2   -1    0    0    0  501  0.00000000000E+00  0.00000000000E+00  0.63257982131E+03  0.63257982132E+03  0.25500000920E-02 0.  1.
        2   -1    0    0  501    0  0.00000000000E+00  0.00000000000E+00 -0.11423434881E+04  0.11423434881E+04  0.25500000920E-02 0. -1.
    10030    2    1    2    0    0  0.00000000000E+00  0.00000000000E+00 -0.50976366680E+03  0.17749233094E+04  0.17001452168E+04 0.  0.
        2    1    3    3  502    0 -0.75795459088E+03  0.32816999978E+03 -0.46480487117E+03  0.94775222440E+03  0.25500000920E-02 0. -1.
       -2    1    3    3    0  502  0.75795459088E+03 -0.32816999978E+03 -0.44958795621E+02  0.82717108502E+03  0.25500000920E-02 0.  1.
</event>
<event>
 5   0  0.7032692E-06  0.2931100E+04  0.7818609E-02  0.8263684E-01
       -1   -1    0    0    0  501  0.00000000000E+00  0.00000000000E+00  0.19999308908E+04  0.19999308908E+04  0.50400001928E-02 0. -1.
        1   -1    0    0  501    0  0.00000000000E+00  0.00000000000E+00 -0.10739556688E+04  0.10739556688E+04  0.50400001928E-02 0.  1.
    10030    2    1    2    0    0  0.00000000000E+00  0.00000000000E+00  0.92597522202E+03  0.30738865596E+04  0.29311002149E+04 0.  0.
        5    1    3    3  502    0 -0.96799884922E+03  0.10819440938E+04  0.67322861988E+03  0.16002761196E+04  0.46999998093E+01 0. -1.
       -5    1    3    3    0  502  0.96799884922E+03 -0.10819440938E+04  0.25274660213E+03  0.14736104401E+04  0.46999998093E+01 0.  1.
</event>
<event>
 5   0  0.5329891E-06  0.3021878E+04  0.7818609E-02  0.8237511E-01
        1   -1    0    0  501    0  0.00000000000E+00  0.00000000000E+00  0.19297288476E+04  0.19297288476E+04  0.50400001928E-02 0. -1.
       -1   -1    0    0    0  501  0.00000000000E+00  0.00000000000E+00 -0.11830349041E+04  0.11830349041E+04  0.50400001928E-02 0.  1.
    10030    2    1    2    0    0  0.00000000000E+00  0.00000000000E+00  0.74669394347E+03  0.31127637517E+04  0.30218779474E+04 0.  0.
        4    1    3    3  502    0 -0.52849808736E+03  0.81179446889E+03 -0.82110346395E+03  0.12698555034E+04  0.12699999809E+01 0.  1.
       -4    1    3    3    0  502  0.52849808736E+03 -0.81179446889E+03  0.15677974074E+04  0.18429082483E+04  0.12699999809E+01 0. -1.
</event>
<event>
 5   0  0.7032692E-06  0.2994683E+04  0.7818609E-02  0.8245251E-01
       -1   -1    0    0    0  501  0.00000000000E+00  0.00000000000E+00  0.14248206994E+04  0.14248206994E+04  0.50400001928E-02 0. -1.
        1   -1    0    0  501    0  0.00000000000E+00  0.00000000000E+00 -0.15735532610E+04  0.15735532610E+04  0.50400001928E-02 0.  1.
    10030    2    1    2    0    0  0.00000000000E+00  0.00000000000E+00 -0.14873256162E+03  0.29983739604E+04  0.29946827931E+04 0.  0.
        5    1    3    3  502    0 -0.22068296838E+03  0.13868415476E+03 -0.15506581282E+04  0.15724175615E+04  0.46999998093E+01 0.  1.
       -5    1    3    3    0  502  0.22068296838E+03 -0.13868415476E+03  0.14019255665E+04  0.14259563989E+04  0.46999998093E+01 0. -1.
</event>
<event>
 5   0  0.1480547E-05  0.2220736E+04  0.7818609E-02  0.8509847E-01
       -2   -1    0    0    0  501  0.00000000000E+00  0.00000000000E+00  0.43053894346E+03  0.43053894347E+03  0.25500000920E-02 0.  1.
        2   -1    0    0  501    0  0.00000000000E+00  0.00000000000E+00 -0.28636597735E+04  0.28636597735E+04  0.25500000920E-02 0. -1.
    10030    2    1    2    0    0  0.00000000000E+00  0.00000000000E+00 -0.24331208300E+04  0.32941987170E+04  0.22207359621E+04 0.  0.
        1    1    3    3  502    0 -0.64680689943E+03 -0.81772167980E+03 -0.17831444776E+04  0.20655827601E+04  0.50400001928E-02 0.  1.
       -1    1    3    3    0  502  0.64680689943E+03  0.81772167980E+03 -0.64997635247E+03  0.12286159569E+04  0.50400001928E-02 0. -1.
</event>
<event>
 5   0  0.1423692E-05  0.3043716E+04  0.7818609E-02  0.8231357E-01
       -2   -1    0    0    0  501  0.00000000000E+00  0.00000000000E+00  0.20386630023E+04  0.20386630023E+04  0.25500000920E-02 0.  1.
        2   -1    0    0  501    0  0.00000000000E+00  0.00000000000E+00 -0.11360637666E+04  0.11360637666E+04  0.25500000920E-02 0. -1.
    10030    2    1    2    0    0  0.00000000000E+00  0.00000000000E+00  0.90259923569E+03  0.31747267689E+04  0.30437156038E+04 0.  0.
        3    1    3    3  502    0  0.61502119937E+03 -0.11705362906E+04  0.12371514030E+04  0.18107870906E+04  0.10100000352E+00 0.  1.
       -3    1    3    3    0  502 -0.61502119937E+03  0.11705362906E+04 -0.33455216728E+03  0.13639396783E+04  0.10100000352E+00 0. -1.
</event>
<event>
 5   0  0.1523029E-05  0.3021395E+04  0.7818609E-02  0.8237648E-01
        2   -1    0    0  501    0  0.00000000000E+00  0.00000000000E+00  0.24380439880E+04  0.24380439880E+04  0.25500000920E-02 0. -1.
       -2   -1    0    0    0  501  0.00000000000E+00  0.00000000000E+00 -0.93608113290E+03  0.93608113290E+03  0.25500000920E-02 0.  1.
    10030    2    1    2    0    0  0.00000000000E+00  0.00000000000E+00  0.15019628551E+04  0.33741251209E+04  0.30213950277E+04 0.  0.
        5    1    3    3  502    0  0.94948107268E+03  0.58856221040E+03 -0.38473421987E+03  0.11815084819E+04  0.46999998093E+01 0.  1.
       -5    1    3    3    0  502 -0.94948107268E+03 -0.58856221040E+03  0.18866970750E+04  0.21926166390E+04  0.46999998093E+01 0. -1.
</event>
<event>
 5   0  0.7032692E-06  0.3018799E+04  0.7818609E-02  0.8238383E-01
       -1   -1    0    0    0  501  0.00000000000E+00  0.00000000000E+00  0.15174491031E+04  0.15174491031E+04  0.50400001928E-02 0. -1.
        1   -1    0    0  501    0  0.00000000000E+00  0.00000000000E+00 -0.15013930747E+04  0.15013930747E+04  0.50400001928E-02 0.  1.
    10030    2    1    2    0    0  0.00000000000E+00  0.00000000000E+00  0.16056028390E+02  0.30188421778E+04  0.30187994797E+04 0.  0.
        5    1    3    3  502    0  0.10190237296E+04 -0.62380185898E+03 -0.91433386136E+03  0.15045154106E+04  0.46999998093E+01 0. -1.
       -5    1    3    3    0  502 -0.10190237296E+04  0.62380185898E+03  0.93038988975E+03  0.15143267672E+04  0.46999998093E+01 0.  1.
</event>
<event>
 5   0  0.1423692E-05  0.2977059E+04  0.7818609E-02  0.8250312E-01
        2   -1    0    0  501    0  0.00000000000E+00  0.00000000000E+00  0.19522078545E+04  0.19522078545E+04  0.25500000920E-02 0. -1.
       -2   -1    0    0    0  501  0.00000000000E+00  0.00000000000E+00 -0.11349815384E+04  0.11349815384E+04  0.25500000920E-02 0.  1.
    10030    2    1    2    0    0  0.00000000000E+00  0.00000000000E+00  0.81722631607E+03  0.30871893930E+04  0.29770588668E+04 0.  0.
        3    1    3    3  502    0  0.27367613113E+03 -0.20123931467E+03  0.19114747875E+04  0.19414251878E+04  0.10100000352E+00 0. -1.
       -3    1    3    3    0  502 -0.27367613113E+03  0.20123931467E+03 -0.10942484714E+04  0.11457642052E+04  0.10100000352E+00 0.  1.
</event>
<event>
 5   0  0.1388724E-05  0.3063735E+04  0.7818609E-02  0.8225762E-01
        2   -1    0    0  501    0  0.00000000000E+00  0.00000000000E+00  0.28248370058E+04  0.28248370058E+04  0.25500000920E-02 0. -1.
       -2   -1    0    0    0  501  0.00000000000E+00  0.00000000000E+00 -0.83070893700E+03  0.83070893701E+03  0.25500000920E-02 0.  1.
    10030    2    1    2    0    0  0.00000000000E+00  0.00000000000E+00  0.19941280688E+04  0.36555459428E+04  0.30637345488E+04 0.  0.
        4    1    3    3  502    0 -0.55548666845E+03  0.87498021127E+03  0.23429961906E+04  0.25619891824E+04  0.12699999809E+01 0. -1.
       -4    1    3    3    0  502  0.55548666845E+03 -0.87498021127E+03 -0.34886812176E+03  0.10935567604E+04  0.12699999809E+01 0.  1.
</event>
<event>
 5   0  0.1523029E-05  0.2880940E+04  0.7818609E-02  0.8278571E-01
        2   -1    0    0  501    0  0.00000000000E+00  0.00000000000E+00  0.25737376450E+04  0.25737376450E+04  0.25500000920E-02 0.  1.
       -2   -1    0    0    0  501  0.00000000000E+00  0.00000000000E+00 -0.80620257641E+03  0.80620257641E+03  0.25500000920E-02 0. -1.
    10030    2    1    2    0    0  0.00000000000E+00  0.00000000000E+00  0.17675350686E+04  0.33799402215E+04  0.28809400691E+04 0.  0.
        5    1    3    3  502    0  0.66839997075E+03 -0.43993479052E+03  0.22889892542E+04  0.24248288675E+04  0.46999998093E+01 0.  1.
       -5    1    3    3    0  502 -0.66839997075E+03  0.43993479052E+03 -0.52145418557E+03  0.95511135396E+03  0.46999998093E+01 0. -1.
</event>
<event>
 5   0  0.7032692E-06  0.3009201E+04  0.7818609E-02  0.8241108E-01
        1   -1    0    0  501    0  0.00000000000E+00  0.00000000000E+00  0.22251228907E+04  0.22251228907E+04  0.50400001928E-02 0.  1.
       -1   -1    0    0    0  501  0.00000000000E+00  0.00000000000E+00 -0.10173920193E+04  0.10173920193E+04  0.50400001928E-02 0. -1.
    10030    2    1    2    0    0  0.00000000000E+00  0.00000000000E+00  0.12077308714E+04  0.32425149100E+04  0.30092007384E+04 0.  0.
        5    1    3    3  502    0  0.10112137342E+04  0.24359776995E+03 -0.56758115087E+03  0.11849318725E+04  0.46999998093E+01 0. -1.
       -5    1    3    3    0  502 -0.10112137342E+04 -0.24359776995E+03  0.17753120223E+04  0.20575830375E+04  0.46999998093E+01 0.  1.
</event>
<event>
 5   0  0.1423692E-05  0.3017265E+04  0.7818609E-02  0.8238818E-01
       -2   -1    0    0    0  501  0.00000000000E+00  0.00000000000E+00  0.14641773162E+04  0.14641773162E+04  0.25500000920E-02 0.  1.
        2   -1    0    0  501    0  0.00000000000E+00  0.00000000000E+00 -0.15544379000E+04  0.15544379000E+04  0.25500000920E-02 0. -1.
    10030    2    1    2    0    0  0.00000000000E+00  0.00000000000E+00 -0.90260583792E+02  0.30186152162E+04  0.30172654591E+04 0.  0.
        3    1    3    3  502    0 -0.40161703208E+03 -0.12069048787E+03  0.14046937091E+04  0.14659559547E+04  0.10100000352E+00 0.  1.
       -3    1    3    3    0  502  0.40161703208E+03  0.12069048787E+03 -0.14949542929E+04  0.15526592615E+04  0.10100000352E+00 0. -1.
</event>
<event>
 5   0  0.1480547E-05  0.2952195E+04  0.7818609E-02  0.8257515E-01
       -2   -1    0    0    0  501  0.00000000000E+00  0.00000000000E+00  0.12076760109E+04  0.12076760109E+04  0.25500000920E-02 0. -1.
        2   -1    0    0  501    0  0.00000000000E+00  0.00000000000E+00 -0.18041791177E+04  0.18041791177E+04  0.25500000920E-02 0.  1.
    10030    2    1    2    0    0  0.00000000000E+00  0.00000000000E+00 -0.59650310678E+03  0.30118551286E+04  0.29521950069E+04 0.  0.
        1    1    3    3  502    0  0.25633483527E+03  0.49518613437E+03  0.10960968699E+04  0.12297744523E+04  0.50400001928E-02 0. -1.
       -1    1    3    3    0  502 -0.25633483527E+03 -0.49518613437E+03 -0.16925999767E+04  0.17820806762E+04  0.50400001928E-02 0.  1.
</event>
<event>
 5   0  0.1388724E-05  0.2284499E+04  0.7818609E-02  0.8484058E-01
        2   -1    0    0  501    0  0.00000000000E+00  0.00000000000E+00  0.11513767047E+04  0.11513767047E+04  0.25500000920E-02 0. -1.
       -2   -1    0    0    0  501  0.00000000000E+00  0.00000000000E+00 -0.11331943067E+04  0.11331943067E+04  0.25500000920E-02 0.  1.
    10030    2    1    2    0    0  0.00000000000E+00  0.00000000000E+00  0.18182398067E+02  0.22845710114E+04  0.22844986554E+04 0.  0.
        4    1    3    3  502    0  0.91116567039E+03 -0.41672550226E+02  0.69669746843E+03  0.11477580127E+04  0.12699999809E+01 0. -1.
       -4    1    3    3    0  502 -0.91116567039E+03  0.41672550226E+02 -0.67851507036E+03  0.11368129987E+04  0.12699999809E+01 0.  1.
</event>
<event>
 5   0  0.1480547E-05  0.2951222E+04  0.7818609E-02  0.8257798E-01
        2   -1    0    0  501    0  0.00000000000E+00  0.00000000000E+00  0.11156002524E+04  0.11156002524E+04  0.25500000920E-02 0. -1.
       -2   -1    0    0    0  501  0.00000000000E+00  0.00000000000E+00 -0.19517996146E+04  0.19517996146E+04  0.25500000920E-02 0.  1.
    10030    2    1    2    0    0  0.00000000000E+00  0.00000000000E+00 -0.83619936216E+03  0.30673998670E+04  0.29512222165E+04 0.  0.
        1    1    3    3  502    0 -0.14126383214E+04  0.32264838443E+03 -0.12823183784E+03  0.14546794875E+04  0.50400001928E-02 0. -1.
       -1    1    3    3    0  502  0.14126383214E+04 -0.32264838443E+03 -0.70796752432E+03  0.16127203795E+04  0.50400001928E-02 0.  1.
</event>
<event>
 5   0  0.1423692E-05  0.2974715E+04  0.7818609E-02  0.8250988E-01
        2   -1    0    0  501    0  0.00000000000E+00  0.00000000000E+00  0.18916198926E+04  0.18916198926E+04  0.25500000920E-02 0.  1.
       -2   -1    0    0    0  501  0.00000000000E+00  0.00000000000E+00 -0.11694905960E+04  0.11694905960E+04  0.25500000920E-02 0. -1.
    10030    2    1    2    0    0  0.00000000000E+00  0.00000000000E+00  0.72212929658E+03  0.30611104886E+04  0.29747145581E+04 0.  0.
        3    1    3    3  502    0 -0.13047764004E+04 -0.70898242035E+03  0.44798159427E+03  0.15510593304E+04  0.10100000352E+00 0.  1.
       -3    1    3    3    0  502  0.13047764004E+04  0.70898242035E+03  0.27414770231E+03  0.15100511582E+04  0.10100000352E+00 0. -1.
</event>
<event>
 5   0  0.1345931E-05  0.1673823E+04  0.7818609E-02  0.8776437E-01
        2   -1    0    0  501    0  0.00000000000E+00  0.00000000000E+00  0.16143878933E+04  0.16143878933E+04  0.25500000920E-02 0. -1.
       -2   -1    0    0    0  501  0.00000000000E+00  0.00000000000E+00 -0.43386143697E+03  0.43386143697E+03  0.25500000920E-02 0.  1.
    10030    2    1    2    0    0  0.00000000000E+00  0.00000000000E+00  0.11805264564E+04  0.20482493303E+04  0.16738227519E+04 0.  0.
        2    1    3    3  502    0 -0.11882471603E+03 -0.45668781556E+02  0.16024714777E+04  0.16075197627E+04  0.25500000920E-02 0. -1.
       -2    1    3    3    0  502  0.11882471603E+03  0.45668781556E+02 -0.42194502130E+03  0.44072956760E+03  0.25500000920E-02 0.  1.
</event>
<event>
 5   0  0.1480547E-05  0.2793735E+04  0.7818609E-02  0.8305216E-01
       -2   -1    0    0    0  501  0.00000000000E+00  0.00000000000E+00  0.89528468673E+03  0.89528468674E+03  0.25500000920E-02 0. -1.
        2   -1    0    0  501    0  0.00000000000E+00  0.00000000000E+00 -0.21794615919E+04  0.21794615919E+04  0.25500000920E-02 0.  1.
    10030    2    1    2    0    0  0.00000000000E+00  0.00000000000E+00 -0.12841769052E+04  0.30747462787E+04  0.27937348397E+04 0.  0.
        1    1    3    3  502    0  0.54769106101E+03  0.10885669616E+04  0.10945571408E+03  0.12234884885E+04  0.50400001928E-02 0. -1.
       -1    1    3    3    0  502 -0.54769106101E+03 -0.10885669616E+04 -0.13936326193E+04  0.18512577902E+04  0.50400001928E-02 0.  1.
</event>
<event>
 5   0  0.1345931E-05  0.1818856E+04  0.7818609E-02  0.8696336E-01
        2   -1    0    0  501    0  0.00000000000E+00  0.00000000000E+00  0.96228782413E+03  0.96228782414E+03  0.25500000920E-02 0.  1.
       -2   -1    0    0    0  501  0.00000000000E+00  0.00000000000E+00 -0.85947162211E+03  0.85947162211E+03  0.25500000920E-02 0. -1.
    10030    2    1    2    0    0  0.00000000000E+00  0.00000000000E+00  0.10281620203E+03  0.18217594462E+04  0.18188557690E+04 0.  0.
        2    1    3    3  502    0 -0.87733543048E+01  0.90495719036E+03  0.14118706742E+03  0.91594665574E+03  0.25500000920E-02 0.  1.
       -2    1    3    3    0  502  0.87733543048E+01 -0.90495719036E+03 -0.38370865397E+02  0.90581279051E+03  0.25500000920E-02 0. -1.
</event>
<event>
 5   0  0.5730920E-06  0.2940043E+04  0.7818609E-02  0.8261062E-01
       -1   -1    0    0    0  501  0.00000000000E+00  0.00000000000E+00  0.89933543008E+03  0.89933543009E+03  0.50400001928E-02 0.  1.
        1   -1    0    0  501    0  0.00000000000E+00  0.00000000000E+00 -0.24028441029E+04  0.24028441029E+04  0.50400001928E-02 0. -1.
    10030    2    1    2    0    0  0.00000000000E+00  0.00000000000E+00 -0.15035086728E+04  0.33021795330E+04  0.29400427444E+04 0.  0.
        1    1    3    3  502    0  0.32637235958E+01  0.33252577615E+03  0.85653464745E+03  0.91882296772E+03  0.50400001928E-02 0.  1.
       -1    1    3    3    0  502 -0.32637235958E+01 -0.33252577615E+03 -0.23600433203E+04  0.23833565653E+04  0.50400001928E-02 0. -1.
</event>
<event>
 5   0  0.5392262E-06  0.2972541E+04  0.7818609E-02  0.8251616E-01
       -1   -1    0    0    0  501  0.00000000000E+00  0.00000000000E+00  0.17623366743E+04  0.17623366743E+04  0.50400001928E-02 0.  1.
        1   -1    0    0  501    0  0.00000000000E+00  0.00000000000E+00 -0.12534493722E+04  0.12534493722E+04  0.50400001928E-02 0. -1.
    10030    2    1    2    0    0  0.00000000000E+00  0.00000000000E+00  0.50888730209E+03  0.30157860465E+04  0.29725408647E+04 0.  0.
        2    1    3    3  502    0  0.10682103240E+04 -0.98518280769E+03 -0.62091064342E+02  0.14544805812E+04  0.25500000920E-02 0. -1.
       -2    1    3    3    0  502 -0.10682103240E+04  0.98518280769E+03  0.57097836643E+03  0.15613054653E+04  0.25500000920E-02 0.  1.
</event>
<event>
 5   0  0.5329891E-06  0.2943201E+04  0.7818609E-02  0.8260139E-01
       -1   -1    0    0    0  501  0.00000000000E+00  0.00000000000E+00  0.94081435370E+03  0.94081435371E+03  0.50400001928E-02 0.  1.
        1   -1    0    0  501    0  0.00000000000E+00  0.00000000000E+00 -0.23018447603E+04  0.23018447603E+04  0.50400001928E-02 0. -1.
    10030    2    1    2    0    0  0.00000000000E+00  0.00000000000E+00 -0.13610304066E+04  0.32426591140E+04  0.29432013798E+04 0.  0.
        4    1    3    3  502    0  0.69291913682E+03  0.12976296702E+04 -0.72495922277E+03  0.16399838959E+04  0.12699999809E+01 0.  1.
       -4    1    3    3    0  502 -0.69291913682E+03 -0.12976296702E+04 -0.63607118384E+03  0.16026752182E+04  0.12699999809E+01 0. -1.
</event>
<event>
 5   0  0.4806125E-06  0.2876800E+04  0.7818609E-02  0.8279814E-01
        3   -1    0    0  501    0  0.00000000000E+00  0.00000000000E+00  0.87089884394E+03  0.87089884980E+03  0.10100000352E+00 0.  1.
       -3   -1    0    0    0  501  0.00000000000E+00  0.00000000000E+00 -0.23756997222E+04  0.23756997243E+04  0.10100000352E+00 0. -1.
    10030    2    1    2    0    0  0.00000000000E+00  0.00000000000E+00 -0.15048008782E+04  0.32465985741E+04  0.28767997181E+04 0.  0.
        4    1    3    3  502    0 -0.23646793785E+03  0.14010328400E+04 -0.10052107843E+04  0.17404770720E+04  0.12699999809E+01 0. -1.
       -4    1    3    3    0  502  0.23646793785E+03 -0.14010328400E+04 -0.49959009396E+03  0.15061215021E+04  0.12699999809E+01 0.  1.
</event>
<event>
 5   0  0.1423692E-05  0.2978241E+04  0.7818609E-02  0.8249972E-01
       -2   -1    0    0    0  501  0.00000000000E+00  0.00000000000E+00  0.11650507368E+04  0.11650507368E+04  0.25500000920E-02 0.  1.
        2   -1    0    0  501    0  0.00000000000E+00  0.00000000000E+00 -0.19033329557E+04  0.19033329557E+04  0.25500000920E-02 0. -1.
    10030    2    1    2    0    0  0.00000000000E+00  0.00000000000E+00 -0.73828221886E+03  0.30683836925E+04  0.29782407307E+04 0.  0.
        3    1    3    3  502    0 -0.92017195154E+03 -0.10027635206E+03  0.83265912938E+03  0.12450273102E+04  0.10100000352E+00 0.  1.
       -3    1    3    3    0  502  0.92017195154E+03  0.10027635206E+03 -0.15709413482E+04  0.18233563823E+04  0.10100000352E+00 0. -1.
</event>
<event>
 5   0  0.1423692E-05  0.3042548E+04  0.7818609E-02  0.8231684E-01
       -2   -1    0    0    0  501  0.00000000000E+00  0.00000000000E+00  0.14546634400E+04  0.14546634400E+04  0.25500000920E-02 0.  1.
        2   -1    0    0  501    0  0.00000000000E+00  0.00000000000E+00 -0.15909343043E+04  0.15909343043E+04  0.25500000920E-02 0. -1.
    10030    2    1    2    0    0  0.00000000000E+00  0.00000000000E+00 -0.13627086427E+03  0.30455977443E+04  0.30425475956E+04 0.  0.
        3    1    3    3  502    0 -0.63433222406E+03 -0.77255833699E+03  0.10797705727E+04  0.14714374789E+04  0.10100000352E+00 0.  1.
       -3    1    3    3    0  502  0.63433222406E+03  0.77255833699E+03 -0.12160414370E+04  0.15741602654E+04  0.10100000352E+00 0. -1.
</event>
<event>
 5   0  0.5522695E-06  0.3289192E+04  0.7818609E-02  0.8165651E-01
        1   -1    0    0  501    0  0.00000000000E+00  0.00000000000E+00  0.18269360462E+04  0.18269360462E+04  0.50400001928E-02 0. -1.
       -1   -1    0    0    0  501  0.00000000000E+00  0.00000000000E+00 -0.14804544129E+04  0.14804544129E+04  0.50400001928E-02 0.  1.
    10030    2    1    2    0    0  0.00000000000E+00  0.00000000000E+00  0.34648163332E+03  0.33073904591E+04  0.32891917133E+04 0.  0.
        3    1    3    3  502    0  0.88397495921E+03  0.39249908933E+03  0.15107236466E+04  0.17938096918E+04  0.10100000352E+00 0. -1.
       -3    1    3    3    0  502 -0.88397495921E+03 -0.39249908933E+03 -0.11642420133E+04  0.15135807674E+04  0.10100000352E+00 0.  1.
</event>
<event>
 5   0  0.5329891E-06  0.1721830E+04  0.7818609E-02  0.8749011E-01
        1   -1    0    0  501    0  0.00000000000E+00  0.00000000000E+00  0.59085272308E+03  0.59085272310E+03  0.50400001928E-02 0.  1.
       -1   -1    0    0    0  501  0.00000000000E+00  0.00000000000E+00 -0.12544154424E+04  0.12544154424E+04  0.50400001928E-02 0. -1.
    10030    2    1    2    0    0  0.00000000000E+00  0.00000000000E+00 -0.66356271929E+03  0.18452681655E+04  0.17218301659E+04 0.  0.
        4    1    3    3  502    0 -0.31591713147E+03  0.33084378215E+02 -0.11893175055E+04  0.12310060731E+04  0.12699999809E+01 0. -1.
       -4    1    3    3    0  502  0.31591713147E+03 -0.33084378215E+02  0.52575478624E+03  0.61426209243E+03  0.12699999809E+01 0.  1.
</event>
<event>
 5   0  0.4806125E-06  0.2972233E+04  0.7818609E-02  0.8251705E-01
        3   -1    0    0  501    0  0.00000000000E+00  0.00000000000E+00  0.22785177593E+04  0.22785177616E+04  0.10100000352E+00 0.  1.
       -3   -1    0    0    0  501  0.00000000000E+00  0.00000000000E+00 -0.96928878022E+03  0.96928878548E+03  0.10100000352E+00 0. -1.
    10030    2    1    2    0    0  0.00000000000E+00  0.00000000000E+00  0.13092289791E+04  0.32478065470E+04  0.29722326368E+04 0.  0.
        2    1    3    3  502    0  0.56548642477E+03 -0.96881807918E+03 -0.41052220762E+03  0.11945341561E+04  0.25500000920E-02 0.  1.
       -2    1    3    3    0  502 -0.56548642477E+03  0.96881807918E+03  0.17197511867E+04  0.20532723909E+04  0.25500000920E-02 0. -1.
</event>
<event>
 5   0  0.1388724E-05  0.3016965E+04  0.7818609E-02  0.8238903E-01
       -2   -1    0    0    0  501  0.00000000000E+00  0.00000000000E+00  0.97476347461E+03  0.97476347461E+03  0.25500000920E-02 0. -1.
        2   -1    0    0  501    0  0.00000000000E+00  0.00000000000E+00 -0.23344321474E+04  0.23344321474E+04  0.25500000920E-02 0.  1.
    10030    2    1    2    0    0  0.00000000000E+00  0.00000000000E+00 -0.13596686728E+04  0.33091956220E+04  0.30169648266E+04 0.  0.
        4    1    3    3  502    0 -0.29965168799E+03 -0.32457337686E+02  0.94139857474E+03  0.98847230730E+03  0.12699999809E+01 0. -1.
       -4    1    3    3    0  502  0.29965168799E+03  0.32457337686E+02 -0.23010672475E+04  0.23207233147E+04  0.12699999809E+01 0.  1.
</event>
<event>
 5   0  0.1388724E-05  0.1694244E+04  0.7818609E-02  0.8764654E-01
       -2   -1    0    0    0  501  0.00000000000E+00  0.00000000000E+00  0.12733471484E+04  0.12733471484E+04  0.25500000920E-02 0. -1.
        2   -1    0    0  501    0  0.00000000000E+00  0.00000000000E+00 -0.56356637363E+03  0.56356637363E+03  0.25500000920E-02 0.  1.
    10030    2    1    2    0    0  0.00000000000E+00  0.00000000000E+00  0.70978077481E+03  0.18369135221E+04  0.16942439433E+04 0.  0.
        4    1    3    3  502    0  0.24873732383E+02 -0.54651177444E+03  0.10561312051E+04  0.11894152166E+04  0.12699999809E+01 0. -1.
       -4    1    3    3    0  502 -0.24873732383E+02  0.54651177444E+03 -0.34635043028E+03  0.64749830550E+03  0.12699999809E+01 0.  1.
</event>
<event>
 5   0  0.1423692E-05  0.3059893E+04  0.7818609E-02  0.8226832E-01
       -2   -1    0    0    0  501  0.00000000000E+00  0.00000000000E+00  0.11804659331E+04  0.11804659331E+04  0.25500000920E-02 0. -1.
        2   -1    0    0  501    0  0.00000000000E+00  0.00000000000E+00 -0.19828912826E+04  0.19828912826E+04  0.25500000920E-02 0.  1.
    10030    2    1    2    0    0  0.00000000000E+00  0.00000000000E+00 -0.80242534957E+03  0.31633572157E+04  0.30598925524E+04 0.  0.
        3    1    3    3  502    0 -0.11043818162E+04  0.59816234781E+03 -0.13044117649E+04  0.18107864184E+04  0.10100000352E+00 0.  1.
       -3    1    3    3    0  502  0.11043818162E+04 -0.59816234781E+03  0.50198641537E+03  0.13525707973E+04  0.10100000352E+00 0. -1.
</event>
<event>
 5   0  0.5730920E-06  0.2937474E+04  0.7818609E-02  0.8261814E-01
        1   -1    0    0  501    0  0.00000000000E+00  0.00000000000E+00  0.34825778198E+04  0.34825778198E+04  0.50400001928E-02 0.  1.
       -1   -1    0    0    0  501  0.00000000000E+00  0.00000000000E+00 -0.61942274568E+03  0.61942274570E+03  0.50400001928E-02 0. -1.
    10030    2    1    2    0    0  0.00000000000E+00  0.00000000000E+00  0.28631550741E+04  0.41020005655E+04  0.29374736868E+04 0.  0.
        1    1    3    3  502    0 -0.12217276249E+03 -0.14620238924E+04  0.15277988126E+04  0.21181617638E+04  0.50400001928E-02 0.  1.
       -1    1    3    3    0  502  0.12217276249E+03  0.14620238924E+04  0.13353562615E+04  0.19838388017E+04  0.50400001928E-02 0. -1.
</event>
<event>
 5   0  0.1388724E-05  0.1946880E+04  0.7818609E-02  0.8631867E-01
        2   -1    0    0  501    0  0.00000000000E+00  0.00000000000E+00  0.20318895111E+04  0.20318895111E+04  0.25500000920E-02 0.  1.
       -2   -1    0    0    0  501  0.00000000000E+00  0.00000000000E+00 -0.46635696850E+03  0.46635696851E+03  0.25500000920E-02 0. -1.
    10030    2    1    2    0    0  0.00000000000E+00  0.00000000000E+00  0.15655325426E+04  0.24982464797E+04  0.19468804100E+04 0.  0.
        4    1    3    3  502    0  0.48370843064E+03 -0.51307599642E+03 -0.78381241386E+02  0.70948294967E+03  0.12699999809E+01 0. -1.
       -4    1    3    3    0  502 -0.48370843064E+03  0.51307599642E+03  0.16439137840E+04  0.17887635300E+04  0.12699999809E+01 0.  1.
</event>
<event>
 5   0  0.5329891E-06  0.2243093E+04  0.7818609E-02  0.8500703E-01
        1   -1    0    0  501    0  0.00000000000E+00  0.00000000000E+00  0.20255176411E+04  0.20255176411E+04  0.50400001928E-02 0.  1.
       -1   -1    0    0    0  501  0.00000000000E+00  0.00000000000E+00 -0.62101011183E+03  0.62101011185E+03  0.50400001928E-02 0. -1.
    10030    2    1    2    0    0  0.00000000000E+00  0.00000000000E+00  0.14045075293E+04  0.26465277529E+04  0.22430933434E+04 0.  0.
        4    1    3    3  502    0  0.49307815787E+03 -0.65840748649E+03  0.16017646394E+04  0.18006326835E+04  0.12699999809E+01 0.  1.
       -4    1    3    3    0  502 -0.49307815787E+03  0.65840748649E+03 -0.19725711017E+03  0.84589506940E+03  0.12699999809E+01 0. -1.
</event>
<event>
 5   0  0.1480547E-05  0.2926916E+04  0.7818609E-02  0.8264914E-01
       -2   -1    0    0    0  501  0.00000000000E+00  0.00000000000E+00  0.14963438878E+04  0.14963438878E+04  0.25500000920E-02 0. -1.
        2   -1    0    0  501    0  0.00000000000E+00  0.00000000000E+00 -0.14312950282E+04  0.14312950282E+04  0.25500000920E-02 0.  1.
    10030    2    1    2    0    0  0.00000000000E+00  0.00000000000E+00  0.65048859590E+02  0.29276389159E+04  0.29269161703E+04 0.  0.
        1    1    3    3  502    0  0.11369070040E+04 -0.20770853363E+02  0.95401225122E+03  0.14842938859E+04  0.50400001928E-02 0. -1.
       -1    1    3    3    0  502 -0.11369070040E+04  0.20770853363E+02 -0.88896339163E+03  0.14433450301E+04  0.50400001928E-02 0.  1.
</event>
<event>
 5   0  0.1523029E-05  0.2984149E+04  0.7818609E-02  0.8248272E-01
        2   -1    0    0  501    0  0.00000000000E+00  0.00000000000E+00  0.21873798882E+04  0.21873798882E+04  0.25500000920E-02 0.  1.
       -2   -1    0    0    0  501  0.00000000000E+00  0.00000000000E+00 -0.10177868305E+04  0.10177868305E+04  0.25500000920E-02 0. -1.
    10030    2    1    2    0    0  0.00000000000E+00  0.00000000000E+00  0.11695930577E+04  0.32051667187E+04  0.29841490871E+04 0.  0.
        5    1    3    3  502    0 -0.64103342663E+02  0.14516099233E+04  0.22058949098E+03  0.14696810612E+04  0.46999998093E+01 0. -1.
       -5    1    3    3    0  502  0.64103342663E+02 -0.14516099233E+04  0.94900356670E+03  0.17354856576E+04  0.46999998093E+01 0.  1.
</event>
<event>
 5   0  0.5329891E-06  0.2370792E+04  0.7818609E-02  0.8450520E-01
        1   -1    0    0  501    0  0.00000000000E+00  0.00000000000E+00  0.13138629050E+04  0.13138629050E+04  0.50400001928E-02 0. -1.
       -1   -1    0    0    0  501  0.00000000000E+00  0.00000000000E+00 -0.10694901011E+04  0.10694901011E+04  0.50400001928E-02 0.  1.
    10030    2    1    2    0    0  0.00000000000E+00  0.00000000000E+00  0.24437280385E+03  0.23833530061E+04  0.23707917421E+04 0.  0.
        4    1    3    3  502    0 -0.10954764341E+04  0.41557001161E+03 -0.58752515486E+02  0.11731242573E+04  0.12699999809E+01 0.  1.
       -4    1    3    3    0  502  0.10954764341E+04 -0.41557001161E+03  0.30312531934E+03  0.12102287487E+04  0.12699999809E+01 0. -1.
</event>
<event>
 5   0  0.5730920E-06  0.2865364E+04  0.7818609E-02  0.8283258E-01
        1   -1    0    0  501    0  0.00000000000E+00  0.00000000000E+00  0.21047233887E+04  0.21047233887E+04  0.50400001928E-02 0.  1.
       -1   -1    0    0    0  501  0.00000000000E+00  0.00000000000E+00 -0.97522459524E+03  0.97522459526E+03  0.50400001928E-02 0. -1.
    10030    2    1    2    0    0  0.00000000000E+00  0.00000000000E+00  0.11294987935E+04  0.30799479840E+04  0.28653642106E+04 0.  0.
        1    1    3    3  502    0  0.47347992504E+03 -0.11268173762E+04 -0.23867329229E+03  0.12453375362E+04  0.50400001928E-02 0. -1.
       -1    1    3    3    0  502 -0.47347992504E+03  0.11268173762E+04  0.13681720858E+04  0.18346104478E+04  0.50400001928E-02 0.  1.
</event>
<event>
 5   0  0.5329891E-06  0.2989531E+04  0.7818609E-02  0.8246727E-01
       -1   -1    0    0    0  501  0.00000000000E+00  0.00000000000E+00  0.90495256939E+03  0.90495256941E+03  0.50400001928E-02 0. -1.
        1   -1    0    0  501    0  0.00000000000E+00  0.00000000000E+00 -0.24689950405E+04  0.24689950405E+04  0.50400001928E-02 0.  1.
    10030    2    1    2    0    0  0.00000000000E+00  0.00000000000E+00 -0.15640424711E+04  0.33739476099E+04  0.29895306693E+04 0.  0.
        4    1    3    3  502    0 -0.59384476019E+03 -0.11704466558E+04 -0.15893558295E+04  0.20612254945E+04  0.12699999809E+01 0.  1.
       -4    1    3    3    0  502  0.59384476019E+03  0.11704466558E+04  0.25313358469E+02  0.13127221154E+04  0.12699999809E+01 0. -1.
</event>
<event>
 5   0  0.1388724E-05  0.3049824E+04  0.7818609E-02  0.8229645E-01
        2   -1    0    0  501    0  0.00000000000E+00  0.00000000000E+00  0.18698984460E+04  0.18698984460E+04  0.25500000920E-02 0. -1.
       -2   -1    0    0    0  501  0.00000000000E+00  0.00000000000E+00 -0.12435735861E+04  0.12435735861E+04  0.25500000920E-02 0.  1.
    10030    2    1    2    0    0  0.00000000000E+00  0.00000000000E+00  0.62632485994E+03  0.31134720320E+04  0.30498238087E+04 0.  0.
        4    1    3    3  502    0  0.50060411218E+03 -0.38956154080E+02  0.17830842528E+04  0.18524343780E+04  0.12699999809E+01 0. -1.
       -4    1    3    3    0  502 -0.50060411218E+03  0.38956154080E+02 -0.11567593929E+04  0.12610376541E+04  0.12699999809E+01 0.  1.
</event>
<event>
 5   0  0.5730920E-06  0.2112553E+04  0.7818609E-02  0.8555734E-01
        1   -1    0    0  501    0  0.00000000000E+00  0.00000000000E+00  0.81469069494E+03  0.81469069495E+03  0.50400001928E-02 0. -1.
       -1   -1    0    0    0  501  0.00000000000E+00  0.00000000000E+00 -0.13695009649E+04  0.13695009649E+04  0.50400001928E-02 0.  1.
    10030    2    1    2    0    0  0.00000000000E+00  0.00000000000E+00 -0.55481026995E+03  0.21841916599E+04  0.21125526671E+04 0.  0.
        1    1    3    3  502    0  0.39886405988E+03 -0.29426169825E+03  0.68698356370E+03  0.84712980241E+03  0.50400001928E-02 0. -1.
       -1    1    3    3    0  502 -0.39886405988E+03  0.29426169825E+03 -0.12417938336E+04  0.13370618574E+04  0.50400001928E-02 0.  1.
</event>
<event>
 5   0  0.1388724E-05  0.3000539E+04  0.7818609E-02  0.8243577E-01
       -2   -1    0    0    0  501  0.00000000000E+00  0.00000000000E+00  0.95052141944E+03  0.95052141945E+03  0.25500000920E-02 0. -1.
        2   -1    0    0  501    0  0.00000000000E+00  0.00000000000E+00 -0.23679729289E+04  0.23679729289E+04  0.25500000920E-02 0.  1.
    10030    2    1    2    0    0  0.00000000000E+00  0.00000000000E+00 -0.14174515095E+04  0.33184943484E+04  0.30005392779E+04 0.  0.
        4    1    3    3  502    0  0.58899116835E+03 -0.12619688076E+04 -0.13258225691E+04  0.19228320169E+04  0.12699999809E+01 0.  1.
       -4    1    3    3    0  502 -0.58899116835E+03  0.12619688076E+04 -0.91628940408E+02  0.13956623314E+04  0.12699999809E+01 0. -1.
</event>
<event>
 5   0  0.4806125E-06  0.1557360E+04  0.7818609E-02  0.8847180E-01
        3   -1    0    0  501    0  0.00000000000E+00  0.00000000000E+00  0.53481054644E+03  0.53481055598E+03  0.10100000352E+00 0. -1.
       -3   -1    0    0    0  501  0.00000000000E+00  0.00000000000E+00 -0.11337525535E+04  0.11337525580E+04  0.10100000352E+00 0.  1.
    10030    2    1    2    0    0  0.00000000000E+00  0.00000000000E+00 -0.59894200710E+03  0.16685631140E+04  0.15573603750E+04 0.  0.
        4    1    3    3  502    0 -0.32949521336E+03  0.65272006545E+03 -0.12521236030E+02  0.73127899855E+03  0.12699999809E+01 0.  1.
       -4    1    3    3    0  502  0.32949521336E+03 -0.65272006545E+03 -0.58642077107E+03  0.93728411547E+03  0.12699999809E+01 0. -1.
</event>
<event>
 5   0  0.1423692E-05  0.2242156E+04  0.7818609E-02  0.8501084E-01
        2   -1    0    0  501    0  0.00000000000E+00  0.00000000000E+00  0.99377846056E+03  0.99377846056E+03  0.25500000920E-02 0. -1.
       -2   -1    0    0    0  501  0.00000000000E+00  0.00000000000E+00 -0.12646839377E+04  0.12646839377E+04  0.25500000920E-02 0.  1.
    10030    2    1    2    0    0  0.00000000000E+00  0.00000000000E+00 -0.27090547718E+03  0.22584623983E+04  0.22421557990E+04 0.  0.
        3    1    3    3  502    0 -0.88101121531E+03  0.12005248390E+03  0.55231783785E+03  0.10467322316E+04  0.10100000352E+00 0.  1.
       -3    1    3    3    0  502  0.88101121531E+03 -0.12005248390E+03 -0.82322331503E+03  0.12117301667E+04  0.10100000352E+00 0. -1.
</event>
<event>
 5   0  0.5730920E-06  0.3154095E+04  0.7818609E-02  0.8201047E-01
       -1   -1    0    0    0  501  0.00000000000E+00  0.00000000000E+00  0.21118388926E+04  0.21118388926E+04  0.50400001928E-02 0. -1.
        1   -1    0    0  501    0  0.00000000000E+00  0.00000000000E+00 -0.11776839260E+04  0.11776839260E+04  0.50400001928E-02 0.  1.
    10030    2    1    2    0    0  0.00000000000E+00  0.00000000000E+00  0.93415496661E+03  0.32895228186E+04  0.31540949371E+04 0.  0.
        1    1    3    3  502    0  0.86735428859E+03 -0.12876448911E+04  0.75600287249E+03  0.17268101143E+04  0.50400001928E-02 0. -1.
       -1    1    3    3    0  502 -0.86735428859E+03  0.12876448911E+04  0.17815209411E+03  0.15627127043E+04  0.50400001928E-02 0.  1.
</event>
<event>
 5   0  0.4806125E-06  0.2879525E+04  0.7818609E-02  0.8278996E-01
        3   -1    0    0  501    0  0.00000000000E+00  0.00000000000E+00  0.10087410738E+04  0.10087410789E+04  0.10100000352E+00 0.  1.
       -3   -1    0    0    0  501  0.00000000000E+00  0.00000000000E+00 -0.20549533969E+04  0.20549533994E+04  0.10100000352E+00 0. -1.
    10030    2    1    2    0    0  0.00000000000E+00  0.00000000000E+00 -0.10462123231E+04  0.30636944783E+04  0.28795248968E+04 0.  0.
        1    1    3    3  502    0 -0.84501075226E+03 -0.11289965496E+04 -0.21430240345E+03  0.14263947212E+04  0.50400001928E-02 0.  1.
       -1    1    3    3    0  502  0.84501075226E+03  0.11289965496E+04 -0.83190991964E+03  0.16372997572E+04  0.50400001928E-02 0. -1.
</event>
<event>
 5   0  0.1523029E-05  0.3020146E+04  0.7818609E-02  0.8238001E-01
       -2   -1    0    0    0  501  0.00000000000E+00  0.00000000000E+00  0.15462532118E+04  0.15462532118E+04  0.25500000920E-02 0.  1.
        2   -1    0    0  501    0  0.00000000000E+00  0.00000000000E+00 -0.14747389687E+04  0.14747389687E+04  0.25500000920E-02 0. -1.
    10030    2    1    2    0    0  0.00000000000E+00  0.00000000000E+00  0.71514243120E+02  0.30209921806E+04  0.30201456038E+04 0.  0.
        5    1    3    3  502    0  0.27674841359E+03 -0.12893281651E+04  0.77172213721E+03  0.15279181748E+04  0.46999998093E+01 0.  1.
       -5    1    3    3    0  502 -0.27674841359E+03  0.12893281651E+04 -0.70020789409E+03  0.14930740058E+04  0.46999998093E+01 0. -1.
</event>
<event>
 5   0  0.5730920E-06  0.3003206E+04  0.7818609E-02  0.8242816E-01
        1   -1    0    0  501    0  0.00000000000E+00  0.00000000000E+00  0.90743534906E+03  0.90743534908E+03  0.50400001928E-02 0.  1.
       -1   -1    0    0    0  501  0.00000000000E+00  0.00000000000E+00 -0.24848182706E+04  0.24848182706E+04  0.50400001928E-02 0. -1.
    10030    2    1    2    0    0  0.00000000000E+00  0.00000000000E+00 -0.15773829215E+04  0.33922536197E+04  0.30032062432E+04 0.  0.
        1    1    3    3  502    0 -0.60416486542E+03 -0.12878351192E+04 -0.24547889573E+03  0.14435353710E+04  0.50400001928E-02 0.  1.
       -1    1    3    3    0  502  0.60416486542E+03  0.12878351192E+04 -0.13319040258E+04  0.19487182487E+04  0.50400001928E-02 0. -1.
</event>
<event>
 5   0  0.7032692E-06  0.3009795E+04  0.7818609E-02  0.8240939E-01
       -1   -1    0    0    0  501  0.00000000000E+00  0.00000000000E+00  0.12178484373E+04  0.12178484373E+04  0.50400001928E-02 0. -1.
        1   -1    0    0  501    0  0.00000000000E+00  0.00000000000E+00 -0.18596051112E+04  0.18596051112E+04  0.50400001928E-02 0.  1.
    10030    2    1    2    0    0  0.00000000000E+00  0.00000000000E+00 -0.64175667393E+03  0.30774535485E+04  0.30097954606E+04 0.  0.
        5    1    3    3  502    0 -0.57763610876E+02 -0.19637086996E+03 -0.18452975654E+04  0.18566214876E+04  0.46999998093E+01 0.  1.
       -5    1    3    3    0  502  0.57763610876E+02  0.19637086996E+03  0.12035408915E+04  0.12208320609E+04  0.46999998093E+01 0. -1.
</event>
<event>
 5   0  0.5522695E-06  0.1885969E+04  0.7818609E-02  0.8661872E-01
        1   -1    0    0  501    0  0.00000000000E+00  0.00000000000E+00  0.21408446414E+04  0.21408446415E+04  0.50400001928E-02 0. -1.
       -1   -1    0    0    0  501  0.00000000000E+00  0.00000000000E+00 -0.41535938559E+03  0.41535938562E+03  0.50400001928E-02 0.  1.
    10030    2    1    2    0    0  0.00000000000E+00  0.00000000000E+00  0.17254852559E+04  0.25562040271E+04  0.18859691566E+04 0.  0.
        3    1    3    3  502    0 -0.65108769657E+03 -0.62902712130E+03  0.12203923311E+04  0.15195222143E+04  0.10100000352E+00 0. -1.
       -3    1    3    3    0  502  0.65108769657E+03  0.62902712130E+03  0.50509292480E+03  0.10366818127E+04  0.10100000352E+00 0.  1.
</event>
<event>
 5   0  0.1388724E-05  0.2988591E+04  0.7818609E-02  0.8246996E-01
        2   -1    0    0  501    0  0.00000000000E+00  0.00000000000E+00  0.18508971434E+04  0.18508971434E+04  0.25500000920E-02 0. -1.
       -2   -1    0    0    0  501  0.00000000000E+00  0.00000000000E+00 -0.12063983950E+04  0.12063983950E+04  0.25500000920E-02 0.  1.
    10030    2    1    2    0    0  0.00000000000E+00  0.00000000000E+00  0.64449874842E+03  0.30572955384E+04  0.29885912020E+04 0.  0.
        4    1    3    3  502    0 -0.13446541757E+03 -0.96398521987E+02  0.18414977564E+04  0.18489156885E+04  0.12699999809E+01 0. -1.
       -4    1    3    3    0  502  0.13446541757E+03  0.96398521987E+02 -0.11969990080E+04  0.12083798499E+04  0.12699999809E+01 0.  1.
</event>
<event>
 5   0  0.5392262E-06  0.2265280E+04  0.7818609E-02  0.8491738E-01
        1   -1    0    0  501    0  0.00000000000E+00  0.00000000000E+00  0.14432630602E+04  0.14432630603E+04  0.50400001928E-02 0. -1.
       -1   -1    0    0    0  501  0.00000000000E+00  0.00000000000E+00 -0.88887004677E+03  0.88887004678E+03  0.50400001928E-02 0.  1.
    10030    2    1    2    0    0  0.00000000000E+00  0.00000000000E+00  0.55439301347E+03  0.23321331070E+04  0.22652799420E+04 0.  0.
        2    1    3    3  502    0  0.36144429578E+03 -0.48133169135E+03  0.12649655516E+04  0.14008783041E+04  0.25500000920E-02 0. -1.
       -2    1    3    3    0  502 -0.36144429578E+03  0.48133169135E+03 -0.71057253815E+03  0.93125480295E+03  0.25500000920E-02 0.  1.
</event>
<event>
 5   0  0.1480547E-05  0.2878914E+04  0.7818609E-02  0.8279179E-01
       -2   -1    0    0    0  501  0.00000000000E+00  0.00000000000E+00  0.91457732347E+03  0.91457732347E+03  0.25500000920E-02 0.  1.
        2   -1    0    0  501    0  0.00000000000E+00  0.00000000000E+00 -0.22655680087E+04  0.22655680087E+04  0.25500000920E-02 0. -1.
    10030    2    1    2    0    0  0.00000000000E+00  0.00000000000E+00 -0.13509906852E+04  0.31801453322E+04  0.28789144659E+04 0.  0.
        1    1    3    3  502    0 -0.69617979007E+03 -0.73661509161E+03  0.45359411225E+03  0.11104124063E+04  0.50400001928E-02 0.  1.
       -1    1    3    3    0  502  0.69617979007E+03  0.73661509161E+03 -0.18045847975E+04  0.20697329259E+04  0.50400001928E-02 0. -1.
</event>
<event>
 5   0  0.1388724E-05  0.2900463E+04  0.7818609E-02  0.8272740E-01
        2   -1    0    0  501    0  0.00000000000E+00  0.00000000000E+00  0.16615749667E+04  0.16615749667E+04  0.25500000920E-02 0. -1.
       -2   -1    0    0    0  501  0.00000000000E+00  0.00000000000E+00 -0.12657700019E+04  0.12657700019E+04  0.25500000920E-02 0.  1.
    10030    2    1    2    0    0  0.00000000000E+00  0.00000000000E+00  0.39580496485E+03  0.29273449686E+04  0.29004632380E+04 0.  0.
        4    1    3    3  502    0 -0.84417364936E+03  0.17886241935E+02 -0.99210165596E+03  0.13027725729E+04  0.12699999809E+01 0.  1.
       -4    1    3    3    0  502  0.84417364936E+03 -0.17886241935E+02  0.13879066208E+04  0.16245723957E+04  0.12699999809E+01 0. -1.
</event>
<event>
 5   0  0.1388724E-05  0.2949580E+04  0.7818609E-02  0.8258277E-01
       -2   -1    0    0    0  501  0.00000000000E+00  0.00000000000E+00  0.18176163341E+04  0.18176163341E+04  0.25500000920E-02 0. -1.
        2   -1    0    0  501    0  0.00000000000E+00  0.00000000000E+00 -0.11966255816E+04  0.11966255816E+04  0.25500000920E-02 0.  1.
    10030    2    1    2    0    0  0.00000000000E+00  0.00000000000E+00  0.62099075252E+03  0.30142419157E+04  0.29495804468E+04 0.  0.
        4    1    3    3  502    0  0.24052369643E+03  0.98974380083E+03 -0.77945078000E+03  0.12825714683E+04  0.12699999809E+01 0.  1.
       -4    1    3    3    0  502 -0.24052369643E+03 -0.98974380083E+03  0.14004415325E+04  0.17316704475E+04  0.12699999809E+01 0. -1.
</event>
<event>
 5   0  0.1345931E-05  0.3080007E+04  0.7818609E-02  0.8221246E-01
       -2   -1    0    0    0  501  0.00000000000E+00  0.00000000000E+00  0.11455928126E+04  0.11455928126E+04  0.25500000920E-02 0.  1.
        2   -1    0    0  501    0  0.00000000000E+00  0.00000000000E+00 -0.20702040476E+04  0.20702040476E+04  0.25500000920E-02 0. -1.
    10030    2    1    2    0    0  0.00000000000E+00  0.00000000000E+00 -0.92461123499E+03  0.32157968602E+04  0.30800070634E+04 0.  0.
        2    1    3    3  502    0 -0.50820712651E+03  0.58772894999E+03 -0.18505537651E+04  0.20070498349E+04  0.25500000920E-02 0. -1.
       -2    1    3    3    0  502  0.50820712651E+03 -0.58772894999E+03  0.92594253015E+03  0.12087470253E+04  0.25500000920E-02 0.  1.
</event>
<event>
 5   0  0.1423692E-05  0.3002613E+04  0.7818609E-02  0.8242985E-01
       -2   -1    0    0    0  501  0.00000000000E+00  0.00000000000E+00  0.14939188583E+04  0.14939188583E+04  0.25500000920E-02 0.  1.
        2   -1    0    0  501    0  0.00000000000E+00  0.00000000000E+00 -0.15087308776E+04  0.15087308776E+04  0.25500000920E-02 0. -1.
    10030    2    1    2    0    0  0.00000000000E+00  0.00000000000E+00 -0.14812019275E+02  0.30026497359E+04  0.30026132020E+04 0.  0.
        3    1    3    3  502    0  0.94752595383E+03 -0.94493836815E+03 -0.68800781636E+03  0.15046822649E+04  0.10100000352E+00 0. -1.
       -3    1    3    3    0  502 -0.94752595383E+03  0.94493836815E+03  0.67319579709E+03  0.14979674710E+04  0.10100000352E+00 0.  1.
</event>
<event>
 5   0  0.5522695E-06  0.2176662E+04  0.7818609E-02  0.8528205E-01
        1   -1    0    0  501    0  0.00000000000E+00  0.00000000000E+00  0.10370259274E+04  0.10370259274E+04  0.50400001928E-02 0.  1.
       -1   -1    0    0    0  501  0.00000000000E+00  0.00000000000E+00 -0.11421747154E+04  0.11421747154E+04  0.50400001928E-02 0. -1.
    10030    2    1    2    0    0  0.00000000000E+00  0.00000000000E+00 -0.10514878800E+03  0.21792006429E+04  0.21766623933E+04 0.  0.
        3    1    3    3  502    0 -0.53997405406E+03  0.53156942293E+03 -0.83471952846E+03  0.11273396701E+04  0.10100000352E+00 0. -1.
       -3    1    3    3    0  502  0.53997405406E+03 -0.53156942293E+03  0.72957074046E+03  0.10518609727E+04  0.10100000352E+00 0.  1.
</event>
<event>
 5   0  0.5329891E-06  0.2964908E+04  0.7818609E-02  0.8253823E-01
       -1   -1    0    0    0  501  0.00000000000E+00  0.00000000000E+00  0.99202133614E+03  0.99202133615E+03  0.50400001928E-02 0. -1.
        1   -1    0    0  501    0  0.00000000000E+00  0.00000000000E+00 -0.22153459747E+04  0.22153459747E+04  0.50400001928E-02 0.  1.
    10030    2    1    2    0    0  0.00000000000E+00  0.00000000000E+00 -0.12233246386E+04  0.32073673109E+04  0.29649084127E+04 0.  0.
        4    1    3    3  502    0  0.62465971310E+03  0.36066936995E+03  0.78938890853E+03  0.10693075392E+04  0.12699999809E+01 0. -1.
       -4    1    3    3    0  502 -0.62465971310E+03 -0.36066936995E+03 -0.20127135471E+04  0.21380597717E+04  0.12699999809E+01 0.  1.
</event>
<event>
 5   0  0.1423692E-05  0.3029451E+04  0.7818609E-02  0.8235371E-01
        2   -1    0    0  501    0  0.00000000000E+00  0.00000000000E+00  0.20154550495E+04  0.20154550495E+04  0.25500000920E-02 0. -1.
       -2   -1    0    0    0  501  0.00000000000E+00  0.00000000000E+00 -0.11383999749E+04  0.11383999749E+04  0.25500000920E-02 0.  1.
    10030    2    1    2    0    0  0.00000000000E+00  0.00000000000E+00  0.87705507460E+03  0.31538550243E+04  0.30294514208E+04 0.  0.
        3    1    3    3  502    0  0.56571622610E+03 -0.10832931532E+04  0.13701699964E+04  0.18360078251E+04  0.10100000352E+00 0. -1.
       -3    1    3    3    0  502 -0.56571622610E+03  0.10832931532E+04 -0.49311492184E+03  0.13178471993E+04  0.10100000352E+00 0.  1.
</event>
<event>
 5   0  0.1345931E-05  0.2914671E+04  0.7818609E-02  0.8268526E-01
        2   -1    0    0  501    0  0.00000000000E+00  0.00000000000E+00  0.14336195369E+04  0.14336195369E+04  0.25500000920E-02 0. -1.
       -2   -1    0    0    0  501  0.00000000000E+00  0.00000000000E+00 -0.14814438340E+04  0.14814438340E+04  0.25500000920E-02 0.  1.
    10030    2    1    2    0    0  0.00000000000E+00  0.00000000000E+00 -0.47824297149E+02  0.29150633709E+04  0.29146710437E+04 0.  0.
        2    1    3    3  502    0  0.49901272795E+03  0.60805364398E+03 -0.12508958874E+04  0.14776614828E+04  0.25500000920E-02 0.  1.
       -2    1    3    3    0  502 -0.49901272795E+03 -0.60805364398E+03  0.12030715902E+04  0.14374018881E+04  0.25500000920E-02 0. -1.
</event>
<event>
 5   0  0.5730920E-06  0.2330512E+04  0.7818609E-02  0.8465987E-01
        1   -1    0    0  501    0  0.00000000000E+00  0.00000000000E+00  0.20321848259E+04  0.20321848259E+04  0.50400001928E-02 0.  1.
       -1   -1    0    0    0  501  0.00000000000E+00  0.00000000000E+00 -0.66815843968E+03  0.66815843970E+03  0.50400001928E-02 0. -1.
    10030    2    1    2    0    0  0.00000000000E+00  0.00000000000E+00  0.13640263862E+04  0.27003432656E+04  0.23305119115E+04 0.  0.
        1    1    3    3  502    0 -0.78158486600E+03  0.84841559942E+03  0.49113661149E+03  0.12537540043E+04  0.50400001928E-02 0. -1.
       -1    1    3    3    0  502  0.78158486600E+03 -0.84841559942E+03  0.87288977470E+03  0.14465892613E+04  0.50400001928E-02 0.  1.
</event>
<event>
 5   0  0.1480547E-05  0.3017173E+04  0.7818609E-02  0.8238844E-01
       -2   -1    0    0    0  501  0.00000000000E+00  0.00000000000E+00  0.84537530894E+03  0.84537530895E+03  0.25500000920E-02 0. -1.
        2   -1    0    0  501    0  0.00000000000E+00  0.00000000000E+00 -0.26920978968E+04  0.26920978968E+04  0.25500000920E-02 0.  1.
    10030    2    1    2    0    0  0.00000000000E+00  0.00000000000E+00 -0.18467225878E+04  0.35374732057E+04  0.30171729093E+04 0.  0.
        1    1    3    3  502    0  0.10529701820E+04 -0.10694489911E+04 -0.11025797582E+04  0.18622968270E+04  0.50400001928E-02 0.  1.
       -1    1    3    3    0  502 -0.10529701820E+04  0.10694489911E+04 -0.74414282962E+03  0.16751763787E+04  0.50400001928E-02 0. -1.
</event>
<event>
 5   0  0.5392262E-06  0.2144155E+04  0.7818609E-02  0.8542038E-01
       -1   -1    0    0    0  501  0.00000000000E+00  0.00000000000E+00  0.56936422958E+03  0.56936422960E+03  0.50400001928E-02 0. -1.
        1   -1    0    0  501    0  0.00000000000E+00  0.00000000000E+00 -0.20186550731E+04  0.20186550731E+04  0.50400001928E-02 0.  1.
    10030    2    1    2    0    0  0.00000000000E+00  0.00000000000E+00 -0.14492908435E+04  0.25880193027E+04  0.21441548363E+04 0.  0.
        2    1    3    3  502    0  0.72135516400E+03 -0.75218510989E+03 -0.42117318939E+03  0.11240651972E+04  0.25500000920E-02 0. -1.
       -2    1    3    3    0  502 -0.72135516400E+03  0.75218510989E+03 -0.10281176541E+04  0.14639541055E+04  0.25500000920E-02 0.  1.
</event>
<event>
 5   0  0.1523029E-05  0.3007559E+04  0.7818609E-02  0.8241576E-01
        2   -1    0    0  501    0  0.00000000000E+00  0.00000000000E+00  0.66222350377E+03  0.66222350378E+03  0.25500000920E-02 0. -1.
       -2   -1    0    0    0  501  0.00000000000E+00  0.00000000000E+00 -0.34147885365E+04  0.34147885365E+04  0.25500000920E-02 0.  1.
    10030    2    1    2    0    0  0.00000000000E+00  0.00000000000E+00 -0.27525650327E+04  0.40770120402E+04  0.30075592957E+04 0.  0.
        5    1    3    3  502    0 -0.11717503851E+04 -0.92654759750E+03 -0.16104570956E+04  0.21966072845E+04  0.46999998093E+01 0.  1.
       -5    1    3    3    0  502  0.11717503851E+04  0.92654759750E+03 -0.11421079371E+04  0.18804047558E+04  0.46999998093E+01 0. -1.
</event>
<event>
 5   0  0.5392262E-06  0.2880079E+04  0.7818609E-02  0.8278829E-01
       -1   -1    0    0    0  501  0.00000000000E+00  0.00000000000E+00  0.14622839094E+04  0.14622839094E+04  0.50400001928E-02 0.  1.
        1   -1    0    0  501    0  0.00000000000E+00  0.00000000000E+00 -0.14181336547E+04  0.14181336547E+04  0.50400001928E-02 0. -1.
    10030    2    1    2    0    0  0.00000000000E+00  0.00000000000E+00  0.44150254742E+02  0.28804175641E+04  0.28800791827E+04 0.  0.
        2    1    3    3  502    0  0.92783893325E+02  0.13853917880E+04 -0.35980054429E+03  0.14343554959E+04  0.25500000920E-02 0. -1.
       -2    1    3    3    0  502 -0.92783893325E+02 -0.13853917880E+04  0.40395079903E+03  0.14460620682E+04  0.25500000920E-02 0.  1.
</event>
<event>
 5   0  0.5522695E-06  0.2945360E+04  0.7818609E-02  0.8259508E-01
       -1   -1    0    0    0  501  0.00000000000E+00  0.00000000000E+00  0.18650931161E+04  0.18650931161E+04  0.50400001928E-02 0. -1.
        1   -1    0    0  501    0  0.00000000000E+00  0.00000000000E+00 -0.11628304744E+04  0.11628304744E+04  0.50400001928E-02 0.  1.
    10030    2    1    2    0    0  0.00000000000E+00  0.00000000000E+00  0.70226264169E+03  0.30279235905E+04  0.29453604961E+04 0.  0.
        3    1    3    3  502    0  0.11156144942E+04 -0.57714430368E+03 -0.43924771261E+03  0.13306501457E+04  0.10100000352E+00 0.  1.
       -3    1    3    3    0  502 -0.11156144942E+04  0.57714430368E+03  0.11415103543E+04  0.16972734447E+04  0.10100000352E+00 0. -1.
</event>
<event>
 5   0  0.4806125E-06  0.2934237E+04  0.7818609E-02  0.8262763E-01
        3   -1    0    0  501    0  0.00000000000E+00  0.00000000000E+00  0.12850859370E+04  0.12850859410E+04  0.10100000352E+00 0.  1.
       -3   -1    0    0    0  501  0.00000000000E+00  0.00000000000E+00 -0.16749361859E+04  0.16749361890E+04  0.10100000352E+00 0. -1.
    10030    2    1    2    0    0  0.00000000000E+00  0.00000000000E+00 -0.38985024890E+03  0.29600221300E+04  0.29342371740E+04 0.  0.
        2    1    3    3  502    0 -0.63477878776E+03  0.84054064854E+03  0.83531537830E+03  0.13443230536E+04  0.25500000920E-02 0.  1.
       -2    1    3    3    0  502  0.63477878776E+03 -0.84054064854E+03 -0.12251656272E+04  0.16156990763E+04  0.25500000920E-02 0. -1.
</event>
<event>
 5   0  0.1480547E-05  0.2964248E+04  0.7818609E-02  0.8254014E-01
        2   -1    0    0  501    0  0.00000000000E+00  0.00000000000E+00  0.94769398366E+03  0.94769398367E+03  0.25500000920E-02 0. -1.
       -2   -1    0    0    0  501  0.00000000000E+00  0.00000000000E+00 -0.23179337469E+04  0.23179337469E+04  0.25500000920E-02 0.  1.
    10030    2    1    2    0    0  0.00000000000E+00  0.00000000000E+00 -0.13702397632E+04  0.32656277306E+04  0.29642482126E+04 0.  0.
        1    1    3    3  502    0 -0.26951859852E+03 -0.41132800559E+03  0.85519685593E+03  0.98650527903E+03  0.50400001928E-02 0. -1.
       -1    1    3    3    0  502  0.26951859852E+03  0.41132800559E+03 -0.22254366192E+04  0.22791224515E+04  0.50400001928E-02 0.  1.
</event>
<event>
 5   0  0.5522695E-06  0.2972710E+04  0.7818609E-02  0.8251567E-01
       -1   -1    0    0    0  501  0.00000000000E+00  0.00000000000E+00  0.10882587381E+04  0.10882587381E+04  0.50400001928E-02 0.  1.
        1   -1    0    0  501    0  0.00000000000E+00  0.00000000000E+00 -0.20300784023E+04  0.20300784023E+04  0.50400001928E-02 0. -1.
    10030    2    1    2    0    0  0.00000000000E+00  0.00000000000E+00 -0.94181966422E+03  0.31183371404E+04  0.29727095790E+04 0.  0.
        3    1    3    3  502    0  0.47255007829E+03  0.11897841415E+04  0.32130937970E+03  0.13198975746E+04  0.10100000352E+00 0.  1.
       -3    1    3    3    0  502 -0.47255007829E+03 -0.11897841415E+04 -0.12631290439E+04  0.17984395657E+04  0.10100000352E+00 0. -1.
</event>
<event>
 5   0  0.1345931E-05  0.3016411E+04  0.7818609E-02  0.8239060E-01
       -2   -1    0    0    0  501  0.00000000000E+00  0.00000000000E+00  0.10559216563E+04  0.10559216563E+04  0.25500000920E-02 0. -1.
        2   -1    0    0  501    0  0.00000000000E+00  0.00000000000E+00 -0.21542158093E+04  0.21542158093E+04  0.25500000920E-02 0.  1.
    10030    2    1    2    0    0  0.00000000000E+00  0.00000000000E+00 -0.10982941530E+04  0.32101374656E+04  0.30164105326E+04 0.  0.
        2    1    3    3  502    0  0.14882978118E+04 -0.71832163142E+02 -0.79757653817E+03  0.16900646646E+04  0.25500000920E-02 0.  1.
       -2    1    3    3    0  502 -0.14882978118E+04  0.71832163142E+02 -0.30071761480E+03  0.15200728010E+04  0.25500000920E-02 0. -1.
</event>
<event>
 5   0  0.5329891E-06  0.3037266E+04  0.7818609E-02  0.8233169E-01
       -1   -1    0    0    0  501  0.00000000000E+00  0.00000000000E+00  0.99453108930E+03  0.99453108932E+03  0.50400001928E-02 0. -1.
        1   -1    0    0  501    0  0.00000000000E+00  0.00000000000E+00 -0.23189277952E+04  0.23189277952E+04  0.50400001928E-02 0.  1.
    10030    2    1    2    0    0  0.00000000000E+00  0.00000000000E+00 -0.13243967059E+04  0.33134588845E+04  0.30372657350E+04 0.  0.
        4    1    3    3  502    0  0.31382933158E+03 -0.16529476682E+03 -0.22731042259E+04  0.23006120151E+04  0.12699999809E+01 0.  1.
       -4    1    3    3    0  502 -0.31382933158E+03  0.16529476682E+03  0.94870752005E+03  0.10128468694E+04  0.12699999809E+01 0. -1.
</event>
<event>
 5   0  0.7032692E-06  0.1838297E+04  0.7818609E-02  0.8686194E-01
        1   -1    0    0  501    0  0.00000000000E+00  0.00000000000E+00  0.14846704876E+04  0.14846704876E+04  0.50400001928E-02 0. -1.
       -1   -1    0    0    0  501  0.00000000000E+00  0.00000000000E+00 -0.56903822732E+03  0.56903822734E+03  0.50400001928E-02 0.  1.
    10030    2    1    2    0    0  0.00000000000E+00  0.00000000000E+00  0.91563226029E+03  0.20537087150E+04  0.18382973236E+04 0.  0.
        5    1    3    3  502    0 -0.57796460861E+03  0.54929808907E+03 -0.52969310117E+02  0.79912409379E+03  0.46999998093E+01 0.  1.
       -5    1    3    3    0  502  0.57796460861E+03 -0.54929808907E+03  0.96860157040E+03  0.12545846212E+04  0.46999998093E+01 0. -1.
</event>
<event>
 5   0  0.1523029E-05  0.3041618E+04  0.7818609E-02  0.8231946E-01
        2   -1    0    0  501    0  0.00000000000E+00  0.00000000000E+00  0.18565869613E+04  0.18565869613E+04  0.25500000920E-02 0.  1.
       -2   -1    0    0    0  501  0.00000000000E+00  0.00000000000E+00 -0.12457586749E+04  0.12457586749E+04  0.25500000920E-02 0. -1.
    10030    2    1    2    0    0  0.00000000000E+00  0.00000000000E+00  0.61082828646E+03  0.31023456362E+04  0.30416175386E+04 0.  0.
        5    1    3    3  502    0 -0.68666046806E+03 -0.10430475046E+04 -0.57989408879E+03  0.13768623531E+04  0.46999998093E+01 0. -1.
       -5    1    3    3    0  502  0.68666046806E+03  0.10430475046E+04  0.11907223752E+04  0.17254832831E+04  0.46999998093E+01 0.  1.
</event>
<event>
 5   0  0.7032692E-06  0.2945192E+04  0.7818609E-02  0.8259557E-01
        1   -1    0    0  501    0  0.00000000000E+00  0.00000000000E+00  0.10788542809E+04  0.10788542809E+04  0.50400001928E-02 0.  1.
       -1   -1    0    0    0  501  0.00000000000E+00  0.00000000000E+00 -0.20100394216E+04  0.20100394216E+04  0.50400001928E-02 0. -1.
    10030    2    1    2    0    0  0.00000000000E+00  0.00000000000E+00 -0.93118514077E+03  0.30888937025E+04  0.29451924452E+04 0.  0.
        5    1    3    3  502    0  0.60346736748E+03 -0.57541341261E+03 -0.17385873968E+04  0.19282068575E+04  0.46999998093E+01 0. -1.
       -5    1    3    3    0  502 -0.60346736748E+03  0.57541341261E+03  0.80740225606E+03  0.11606868450E+04  0.46999998093E+01 0.  1.
</event>
<event>
 5   0  0.5392262E-06  0.2954699E+04  0.7818609E-02  0.8256786E-01
       -1   -1    0    0    0  501  0.00000000000E+00  0.00000000000E+00  0.14198431695E+04  0.14198431695E+04  0.50400001928E-02 0.  1.
        1   -1    0    0  501    0  0.00000000000E+00  0.00000000000E+00 -0.15371854191E+04  0.15371854191E+04  0.50400001928E-02 0. -1.
    10030    2    1    2    0    0  0.00000000000E+00  0.00000000000E+00 -0.11734224959E+03  0.29570285886E+04  0.29546994552E+04 0.  0.
        2    1    3    3  502    0  0.42068045154E+03  0.38138482748E+02  0.13581197987E+04  0.14222925064E+04  0.25500000920E-02 0.  1.
       -2    1    3    3    0  502 -0.42068045154E+03 -0.38138482748E+02 -0.14754620483E+04  0.15347360822E+04  0.25500000920E-02 0. -1.
</event>
<event>
 5   0  0.1480547E-05  0.2910388E+04  0.7818609E-02  0.8269793E-01
       -2   -1    0    0    0  501  0.00000000000E+00  0.00000000000E+00  0.11356713641E+04  0.11356713642E+04  0.25500000920E-02 0. -1.
        2   -1    0    0  501    0  0.00000000000E+00  0.00000000000E+00 -0.18646153627E+04  0.18646153627E+04  0.25500000920E-02 0.  1.
    10030    2    1    2    0    0  0.00000000000E+00  0.00000000000E+00 -0.72894399859E+03  0.30002867269E+04  0.29103884776E+04 0.  0.
        1    1    3    3  502    0 -0.10765822538E+04 -0.70707035030E+03 -0.10625994505E+04  0.16697590909E+04  0.50400001928E-02 0.  1.
       -1    1    3    3    0  502  0.10765822538E+04  0.70707035030E+03  0.33365545196E+03  0.13305276360E+04  0.50400001928E-02 0. -1.
</event>
<event>
 5   0  0.5329891E-06  0.2987296E+04  0.7818609E-02  0.8247368E-01
        1   -1    0    0  501    0  0.00000000000E+00  0.00000000000E+00  0.16547701854E+04  0.16547701854E+04  0.50400001928E-02 0.  1.
       -1   -1    0    0    0  501  0.00000000000E+00  0.00000000000E+00 -0.13482141152E+04  0.13482141152E+04  0.50400001928E-02 0. -1.
    10030    2    1    2    0    0  0.00000000000E+00  0.00000000000E+00  0.30655607012E+03  0.30029843006E+04  0.29872961162E+04 0.  0.
        4    1    3    3  502    0  0.93413829545E+03  0.10604111824E+03  0.13200300179E+04  0.16205986347E+04  0.12699999809E+01 0.  1.
       -4    1    3    3    0  502 -0.93413829545E+03 -0.10604111824E+03 -0.10134739477E+04  0.13823856659E+04  0.12699999809E+01 0. -1.
</event>
<event>
 5   0  0.1480547E-05  0.2968622E+04  0.7818609E-02  0.8252748E-01
       -2   -1    0    0    0  501  0.00000000000E+00  0.00000000000E+00  0.23894815875E+04  0.23894815875E+04  0.25500000920E-02 0.  1.
        2   -1    0    0  501    0  0.00000000000E+00  0.00000000000E+00 -0.92203202755E+03  0.92203202756E+03  0.25500000920E-02 0. -1.
    10030    2    1    2    0    0  0.00000000000E+00  0.00000000000E+00  0.14674495599E+04  0.33115136151E+04  0.29686216013E+04 0.  0.
        1    1    3    3  502    0 -0.16185005253E+03 -0.10409040915E+04 -0.43276637475E+03  0.11388430543E+04  0.50400001928E-02 0. -1.
       -1    1    3    3    0  502  0.16185005253E+03  0.10409040915E+04  0.19002159347E+04  0.21726705608E+04  0.50400001928E-02 0.  1.
</event>
<event>
 5   0  0.1480547E-05  0.3028975E+04  0.7818609E-02  0.8235505E-01
        2   -1    0    0  501    0  0.00000000000E+00  0.00000000000E+00  0.10222697706E+04  0.10222697706E+04  0.25500000920E-02 0. -1.
       -2   -1    0    0    0  501  0.00000000000E+00  0.00000000000E+00 -0.22437058690E+04  0.22437058690E+04  0.25500000920E-02 0.  1.
    10030    2    1    2    0    0  0.00000000000E+00  0.00000000000E+00 -0.12214360984E+04  0.32659756396E+04  0.30289751956E+04 0.  0.
        1    1    3    3  502    0 -0.83581274281E+03  0.67457720374E+02  0.74912696270E+03  0.11244219365E+04  0.50400001928E-02 0. -1.
       -1    1    3    3    0  502  0.83581274281E+03 -0.67457720374E+02 -0.19705630611E+04  0.21415537030E+04  0.50400001928E-02 0.  1.
</event>
<event>
 5   0  0.5329891E-06  0.2801831E+04  0.7818609E-02  0.8302700E-01
        1   -1    0    0  501    0  0.00000000000E+00  0.00000000000E+00  0.21395131251E+04  0.21395131251E+04  0.50400001928E-02 0. -1.
       -1   -1    0    0    0  501  0.00000000000E+00  0.00000000000E+00 -0.91729511266E+03  0.91729511267E+03  0.50400001928E-02 0.  1.
    10030    2    1    2    0    0  0.00000000000E+00  0.00000000000E+00  0.12222180124E+04  0.30568082378E+04  0.28018314961E+04 0.  0.
        4    1    3    3  502    0  0.19237752555E+03  0.10921527143E+03 -0.89811859788E+03  0.92496254876E+03  0.12699999809E+01 0.  1.
       -4    1    3    3    0  502 -0.19237752555E+03 -0.10921527143E+03  0.21203366103E+04  0.21318456890E+04  0.12699999809E+01 0. -1.
</event>
<event>
 5   0  0.5522695E-06  0.1478412E+04  0.7818609E-02  0.8898937E-01
        1   -1    0    0  501    0  0.00000000000E+00  0.00000000000E+00  0.63068843488E+03  0.63068843490E+03  0.50400001928E-02 0.  1.
       -1   -1    0    0    0  501  0.00000000000E+00  0.00000000000E+00 -0.86639499598E+03  0.86639499599E+03  0.50400001928E-02 0. -1.
    10030    2    1    2    0    0  0.00000000000E+00  0.00000000000E+00 -0.23570656110E+03  0.14970834309E+04  0.14784117208E+04 0.  0.
        3    1    3    3  502    0  0.50826602090E+03 -0.44831851076E+02 -0.65947385457E+03  0.83381653733E+03  0.10100000352E+00 0. -1.
       -3    1    3    3    0  502 -0.50826602090E+03  0.44831851076E+02  0.42376729347E+03  0.66326689356E+03  0.10100000352E+00 0.  1.
</event>
<event>
 5   0  0.1388724E-05  0.3061902E+04  0.7818609E-02  0.8226272E-01
       -2   -1    0    0    0  501  0.00000000000E+00  0.00000000000E+00  0.13106407737E+04  0.13106407737E+04  0.25500000920E-02 0.  1.
        2   -1    0    0  501    0  0.00000000000E+00  0.00000000000E+00 -0.17882941269E+04  0.17882941269E+04  0.25500000920E-02 0. -1.
    10030    2    1    2    0    0  0.00000000000E+00  0.00000000000E+00 -0.47765335318E+03  0.30989349006E+04  0.30619021526E+04 0.  0.
        4    1    3    3  502    0 -0.13522755870E+04 -0.70489811233E+03 -0.37566162855E+03  0.15705584624E+04  0.12699999809E+01 0. -1.
       -4    1    3    3    0  502  0.13522755870E+04  0.70489811233E+03 -0.10199172464E+03  0.15283764381E+04  0.12699999809E+01 0.  1.
</event>
<event>
 5   0  0.5329891E-06  0.3024555E+04  0.7818609E-02  0.8236754E-01
       -1   -1    0    0    0  501  0.00000000000E+00  0.00000000000E+00  0.10058125281E+04  0.10058125281E+04  0.50400001928E-02 0. -1.
        1   -1    0    0  501    0  0.00000000000E+00  0.00000000000E+00 -0.22737671949E+04  0.22737671949E+04  0.50400001928E-02 0.  1.
    10030    2    1    2    0    0  0.00000000000E+00  0.00000000000E+00 -0.12679546668E+04  0.32795797230E+04  0.30245551942E+04 0.  0.
        4    1    3    3  502    0 -0.14143421427E+04  0.47274876948E+03 -0.36154186890E+03  0.15344605670E+04  0.12699999809E+01 0.  1.
       -4    1    3    3    0  502  0.14143421427E+04 -0.47274876948E+03 -0.90641279790E+03  0.17451191561E+04  0.12699999809E+01 0. -1.
</event>
<event>
 5   0  0.5730920E-06  0.3124725E+04  0.7818609E-02  0.8208985E-01
        1   -1    0    0  501    0  0.00000000000E+00  0.00000000000E+00  0.20154509909E+04  0.20154509909E+04  0.50400001928E-02 0.  1.
       -1   -1    0    0    0  501  0.00000000000E+00  0.00000000000E+00 -0.12111314823E+04  0.12111314823E+04  0.50400001928E-02 0. -1.
    10030    2    1    2    0    0  0.00000000000E+00  0.00000000000E+00  0.80431950862E+03  0.32265824732E+04  0.31247247214E+04 0.  0.
        1    1    3    3  502    0  0.41160541529E+03  0.11335016451E+04 -0.62356403019E+03  0.13575997559E+04  0.50400001928E-02 0. -1.
       -1    1    3    3    0  502 -0.41160541529E+03 -0.11335016451E+04  0.14278835388E+04  0.18689827174E+04  0.50400001928E-02 0.  1.
</event>
<event>
 5   0  0.7032692E-06  0.2951225E+04  0.7818609E-02  0.8257798E-01
        1   -1    0    0  501    0  0.00000000000E+00  0.00000000000E+00  0.13659318534E+04  0.13659318534E+04  0.50400001928E-02 0.  1.
       -1   -1    0    0    0  501  0.00000000000E+00  0.00000000000E+00 -0.15941003067E+04  0.15941003067E+04  0.50400001928E-02 0. -1.
    10030    2    1    2    0    0  0.00000000000E+00  0.00000000000E+00 -0.22816845327E+03  0.29600321601E+04  0.29512250923E+04 0.  0.
        5    1    3    3  502    0 -0.51159461747E+03  0.42134272983E+03 -0.14364083307E+04  0.15819449204E+04  0.46999998093E+01 0. -1.
       -5    1    3    3    0  502  0.51159461747E+03 -0.42134272983E+03  0.12082398775E+04  0.13780872397E+04  0.46999998093E+01 0.  1.
</event>
<event>
 5   0  0.1388724E-05  0.3006410E+04  0.7818609E-02  0.8241903E-01
       -2   -1    0    0    0  501  0.00000000000E+00  0.00000000000E+00  0.95497344970E+03  0.95497344971E+03  0.25500000920E-02 0.  1.
        2   -1    0    0  501    0  0.00000000000E+00  0.00000000000E+00 -0.23661654962E+04  0.23661654962E+04  0.25500000920E-02 0. -1.
    10030    2    1    2    0    0  0.00000000000E+00  0.00000000000E+00 -0.14111920465E+04  0.33211389459E+04  0.30064099697E+04 0.  0.
        4    1    3    3  502    0 -0.20444826076E+03  0.78497403591E+03 -0.21036416150E+04  0.22546159286E+04  0.12699999809E+01 0. -1.
       -4    1    3    3    0  502  0.20444826076E+03 -0.78497403591E+03  0.69244956855E+03  0.10665230172E+04  0.12699999809E+01 0.  1.
</event>
<event>
 5   0  0.1345931E-05  0.2874255E+04  0.7818609E-02  0.8280579E-01
        2   -1    0    0  501    0  0.00000000000E+00  0.00000000000E+00  0.24377985032E+04  0.24377985032E+04  0.25500000920E-02 0. -1.
       -2   -1    0    0    0  501  0.00000000000E+00  0.00000000000E+00 -0.84721329818E+03  0.84721329818E+03  0.25500000920E-02 0.  1.
    10030    2    1    2    0    0  0.00000000000E+00  0.00000000000E+00  0.15905852050E+04  0.32850118013E+04  0.28742549018E+04 0.  0.
        2    1    3    3  502    0 -0.53045059072E+03  0.12695751237E+04  0.12694779393E+04  0.18721039133E+04  0.25500000920E-02 0.  1.
       -2    1    3    3    0  502  0.53045059072E+03 -0.12695751237E+04  0.32110726565E+03  0.14129078880E+04  0.25500000920E-02 0. -1.
</event>
<event>
 5   0  0.7032692E-06  0.1954572E+04  0.7818609E-02  0.8628159E-01
        1   -1    0    0  501    0  0.00000000000E+00  0.00000000000E+00  0.81463521754E+03  0.81463521756E+03  0.50400001928E-02 0. -1.
       -1   -1    0    0    0  501  0.00000000000E+00  0.00000000000E+00 -0.11724121718E+04  0.11724121718E+04  0.50400001928E-02 0.  1.
    10030    2    1    2    0    0  0.00000000000E+00  0.00000000000E+00 -0.35777695422E+03  0.19870473893E+04  0.19545723262E+04 0.  0.
        5    1    3    3  502    0 -0.39733424818E+03  0.74126172173E+03 -0.68487551356E+03  0.10846289706E+04  0.46999998093E+01 0. -1.
       -5    1    3    3    0  502  0.39733424818E+03 -0.74126172173E+03  0.32709855934E+03  0.90241841869E+03  0.46999998093E+01 0.  1.
</event>
<event>
 5   0  0.5730920E-06  0.1633178E+04  0.7818609E-02  0.8800421E-01
       -1   -1    0    0    0  501  0.00000000000E+00  0.00000000000E+00  0.12661118743E+04  0.12661118743E+04  0.50400001928E-02 0.  1.
        1   -1    0    0  501    0  0.00000000000E+00  0.00000000000E+00 -0.52666547462E+03  0.52666547465E+03  0.50400001928E-02 0. -1.
    10030    2    1    2    0    0  0.00000000000E+00  0.00000000000E+00  0.73944639963E+03  0.17927773489E+04  0.16331777750E+04 0.  0.
        1    1    3    3  502    0  0.15710190142E+02  0.42612596836E+03  0.11341889987E+04  0.12116991523E+04  0.50400001928E-02 0.  1.
       -1    1    3    3    0  502 -0.15710190142E+02 -0.42612596836E+03 -0.39474259907E+03  0.58107819657E+03  0.50400001928E-02 0. -1.
</event>
<event>
 5   0  0.1423692E-05  0.2926101E+04  0.7818609E-02  0.8265154E-01
        2   -1    0    0  501    0  0.00000000000E+00  0.00000000000E+00  0.90898911394E+03  0.90898911394E+03  0.25500000920E-02 0.  1.
       -2   -1    0    0    0  501  0.00000000000E+00  0.00000000000E+00 -0.23548325215E+04  0.23548325215E+04  0.25500000920E-02 0. -1.
    10030    2    1    2    0    0  0.00000000000E+00  0.00000000000E+00 -0.14458434076E+04  0.32638216354E+04  0.29261012472E+04 0.  0.
        3    1    3    3  502    0 -0.39079992580E+03 -0.13907095054E+04 -0.46439614855E+03  0.15173863395E+04  0.10100000352E+00 0. -1.
       -3    1    3    3    0  502  0.39079992580E+03  0.13907095054E+04 -0.98144725900E+03  0.17464352959E+04  0.10100000352E+00 0.  1.
</event>
<event>
 5   0  0.1388724E-05  0.3022775E+04  0.7818609E-02  0.8237257E-01
        2   -1    0    0  501    0  0.00000000000E+00  0.00000000000E+00  0.17317830465E+04  0.17317830465E+04  0.25500000920E-02 0. -1.
       -2   -1    0    0    0  501  0.00000000000E+00  0.00000000000E+00 -0.13190403216E+04  0.13190403216E+04  0.25500000920E-02 0.  1.
    10030    2    1    2    0    0  0.00000000000E+00  0.00000000000E+00  0.41274272483E+03  0.30508233681E+04  0.30227746635E+04 0.  0.
        4    1    3    3  502    0  0.53147137794E+03 -0.11300159388E+04 -0.65293495785E+03  0.14091570245E+04  0.12699999809E+01 0.  1.
       -4    1    3    3    0  502 -0.53147137794E+03  0.11300159388E+04  0.10656776827E+04  0.16416663436E+04  0.12699999809E+01 0. -1.
</event>
<event>
 5   0  0.1388724E-05  0.2509054E+04  0.7818609E-02  0.8399767E-01
       -2   -1    0    0    0  501  0.00000000000E+00  0.00000000000E+00  0.14874777703E+04  0.14874777703E+04  0.25500000920E-02 0.  1.
        2   -1    0    0  501    0  0.00000000000E+00  0.00000000000E+00 -0.10580582163E+04  0.10580582163E+04  0.25500000920E-02 0. -1.
    10030    2    1    2    0    0  0.00000000000E+00  0.00000000000E+00  0.42941955404E+03  0.25455359866E+04  0.25090540660E+04 0.  0.
        4    1    3    3  502    0  0.31612541426E+03  0.75514122345E+03 -0.74972408894E+03  0.11100726856E+04  0.12699999809E+01 0. -1.
       -4    1    3    3    0  502 -0.31612541426E+03 -0.75514122345E+03  0.11791436430E+04  0.14354633010E+04  0.12699999809E+01 0.  1.
</event>
<event>
 5   0  0.5522695E-06  0.3064306E+04  0.7818609E-02  0.8225603E-01
        1   -1    0    0  501    0  0.00000000000E+00  0.00000000000E+00  0.13792553010E+04  0.13792553010E+04  0.50400001928E-02 0. -1.
       -1   -1    0    0    0  501  0.00000000000E+00  0.00000000000E+00 -0.17020000183E+04  0.17020000183E+04  0.50400001928E-02 0.  1.
    10030    2    1    2    0    0  0.00000000000E+00  0.00000000000E+00 -0.32274471735E+03  0.30812553193E+04  0.30643058252E+04 0.  0.
        3    1    3    3  502    0  0.16284227318E+00 -0.24554866031E+03  0.13593414715E+04  0.13813411662E+04  0.10100000352E+00 0. -1.
       -3    1    3    3    0  502 -0.16284227318E+00  0.24554866031E+03 -0.16820861889E+04  0.16999141531E+04  0.10100000352E+00 0.  1.
</event>
<event>
 5   0  0.5522695E-06  0.2931032E+04  0.7818609E-02  0.8263704E-01
        1   -1    0    0  501    0  0.00000000000E+00  0.00000000000E+00  0.20172414564E+04  0.20172414564E+04  0.50400001928E-02 0.  1.
       -1   -1    0    0    0  501  0.00000000000E+00  0.00000000000E+00 -0.10646902420E+04  0.10646902420E+04  0.50400001928E-02 0. -1.
    10030    2    1    2    0    0  0.00000000000E+00  0.00000000000E+00  0.95255121439E+03  0.30819316985E+04  0.29310321012E+04 0.  0.
        3    1    3    3  502    0  0.11890444161E+04  0.53141880677E+01  0.13770492647E+04  0.18193733953E+04  0.10100000352E+00 0.  1.
       -3    1    3    3    0  502 -0.11890444161E+04 -0.53141880677E+01 -0.42449805026E+03  0.12625583032E+04  0.10100000352E+00 0. -1.
</event>
<event>
 5   0  0.5730920E-06  0.3029611E+04  0.7818609E-02  0.8235326E-01
        1   -1    0    0  501    0  0.00000000000E+00  0.00000000000E+00  0.11889557906E+04  0.11889557906E+04  0.50400001928E-02 0.  1.
       -1   -1    0    0    0  501  0.00000000000E+00  0.00000000000E+00 -0.19299584030E+04  0.19299584031E+04  0.50400001928E-02 0. -1.
    10030    2    1    2    0    0  0.00000000000E+00  0.00000000000E+00 -0.74100261247E+03  0.31189141936E+04  0.30296106805E+04 0.  0.
        1    1    3    3  502    0  0.43760839743E+02 -0.13299624792E+04  0.37465794413E+03  0.13824195392E+04  0.50400001928E-02 0.  1.
       -1    1    3    3    0  502 -0.43760839743E+02  0.13299624792E+04 -0.11156605566E+04  0.17364946544E+04  0.50400001928E-02 0. -1.
</event>
<event>
 5   0  0.5392262E-06  0.3062218E+04  0.7818609E-02  0.8226184E-01
       -1   -1    0    0    0  501  0.00000000000E+00  0.00000000000E+00  0.12636067363E+04  0.12636067363E+04  0.50400001928E-02 0. -1.
        1   -1    0    0  501    0  0.00000000000E+00  0.00000000000E+00 -0.18552402220E+04  0.18552402221E+04  0.50400001928E-02 0.  1.
    10030    2    1    2    0    0  0.00000000000E+00  0.00000000000E+00 -0.59163348575E+03  0.31188469584E+04  0.30622175246E+04 0.  0.
        2    1    3    3  502    0 -0.13549373495E+04  0.63370636036E+03 -0.62874878369E+03  0.16225794296E+04  0.25500000920E-02 0.  1.
       -2    1    3    3    0  502  0.13549373495E+04 -0.63370636036E+03  0.37115297934E+02  0.14962675288E+04  0.25500000920E-02 0. -1.
</event>
<event>
 5   0  0.1423692E-05  0.2995839E+04  0.7818609E-02  0.8244920E-01
       -2   -1    0    0    0  501  0.00000000000E+00  0.00000000000E+00  0.76662829503E+03  0.76662829503E+03  0.25500000920E-02 0. -1.
        2   -1    0    0  501    0  0.00000000000E+00  0.00000000000E+00 -0.29267931467E+04  0.29267931467E+04  0.25500000920E-02 0.  1.
    10030    2    1    2    0    0  0.00000000000E+00  0.00000000000E+00 -0.21601648517E+04  0.36934214417E+04  0.29958387406E+04 0.  0.
        3    1    3    3  502    0  0.41442805667E+03 -0.85206119679E+03 -0.25104034864E+04  0.26832600642E+04  0.10100000352E+00 0.  1.
       -3    1    3    3    0  502 -0.41442805667E+03  0.85206119679E+03  0.35023863474E+03  0.10101613776E+04  0.10100000352E+00 0. -1.
</event>
<event>
 5   0  0.1423692E-05  0.2960747E+04  0.7818609E-02  0.8255030E-01
        2   -1    0    0  501    0  0.00000000000E+00  0.00000000000E+00  0.18871846834E+04  0.18871846834E+04  0.25500000920E-02 0.  1.
       -2   -1    0    0    0  501  0.00000000000E+00  0.00000000000E+00 -0.11612563210E+04  0.11612563210E+04  0.25500000920E-02 0. -1.
    10030    2    1    2    0    0  0.00000000000E+00  0.00000000000E+00  0.72592836248E+03  0.30484410044E+04  0.29607466237E+04 0.  0.
        3    1    3    3  502    0 -0.11556260768E+04  0.46027535046E+03  0.11893449573E+04  0.17210073984E+04  0.10100000352E+00 0.  1.
       -3    1    3    3    0  502  0.11556260768E+04 -0.46027535046E+03 -0.46341659485E+03  0.13274336060E+04  0.10100000352E+00 0. -1.
</event>
<event>
 5   0  0.5522695E-06  0.3057676E+04  0.7818609E-02  0.8227450E-01
        1   -1    0    0  501    0  0.00000000000E+00  0.00000000000E+00  0.15326575349E+04  0.15326575349E+04  0.50400001928E-02 0.  1.
       -1   -1    0    0    0  501  0.00000000000E+00  0.00000000000E+00 -0.15250282876E+04  0.15250282876E+04  0.50400001928E-02 0. -1.
    10030    2    1    2    0    0  0.00000000000E+00  0.00000000000E+00  0.76292473787E+01  0.30576858225E+04  0.30576763046E+04 0.  0.
        3    1    3    3  502    0  0.51543881302E+03  0.26324454265E+03 -0.14112414503E+04  0.15253121977E+04  0.10100000352E+00 0. -1.
       -3    1    3    3    0  502 -0.51543881302E+03 -0.26324454265E+03  0.14188706977E+04  0.15323736248E+04  0.10100000352E+00 0.  1.
</event>
<event>
 5   0  0.1345931E-05  0.2572290E+04  0.7818609E-02  0.8377675E-01
        2   -1    0    0  501    0  0.00000000000E+00  0.00000000000E+00  0.12323175727E+04  0.12323175727E+04  0.25500000920E-02 0. -1.
       -2   -1    0    0    0  501  0.00000000000E+00  0.00000000000E+00 -0.13423235245E+04  0.13423235245E+04  0.25500000920E-02 0.  1.
    10030    2    1    2    0    0  0.00000000000E+00  0.00000000000E+00 -0.11000595185E+03  0.25746410972E+04  0.25722899273E+04 0.  0.
        2    1    3    3  502    0 -0.61024416675E+03 -0.18867461985E+03  0.10623384899E+04  0.12395802202E+04  0.25500000920E-02 0. -1.
       -2    1    3    3    0  502  0.61024416675E+03  0.18867461985E+03 -0.11723444418E+04  0.13350608770E+04  0.25500000920E-02 0.  1.
</event>
<event>
 5   0  0.1480547E-05  0.3052163E+04  0.7818609E-02  0.8228990E-01
        2   -1    0    0  501    0  0.00000000000E+00  0.00000000000E+00  0.26345808583E+04  0.26345808583E+04  0.25500000920E-02 0.  1.
       -2   -1    0    0    0  501  0.00000000000E+00  0.00000000000E+00 -0.88398301610E+03  0.88398301611E+03  0.25500000920E-02 0. -1.
    10030    2    1    2    0    0  0.00000000000E+00  0.00000000000E+00  0.17505978422E+04  0.35185638744E+04  0.30521629926E+04 0.  0.
        1    1    3    3  502    0 -0.16361531321E+03 -0.41270085074E+03  0.25584933465E+04  0.25967248924E+04  0.50400001928E-02 0.  1.
       -1    1    3    3    0  502  0.16361531321E+03  0.41270085074E+03 -0.80789550426E+03  0.92183898201E+03  0.50400001928E-02 0. -1.
</event>
<event>
 5   0  0.1388724E-05  0.2351942E+04  0.7818609E-02  0.8457718E-01
        2   -1    0    0  501    0  0.00000000000E+00  0.00000000000E+00  0.10046119827E+04  0.10046119827E+04  0.25500000920E-02 0. -1.
       -2   -1    0    0    0  501  0.00000000000E+00  0.00000000000E+00 -0.13765587419E+04  0.13765587419E+04  0.25500000920E-02 0.  1.
    10030    2    1    2    0    0  0.00000000000E+00  0.00000000000E+00 -0.37194675919E+03  0.23811707246E+04  0.23519416719E+04 0.  0.
        4    1    3    3  502    0 -0.28263205808E+03 -0.14478478751E+03  0.96038008716E+03  0.10115211514E+04  0.12699999809E+01 0. -1.
       -4    1    3    3    0  502  0.28263205808E+03  0.14478478751E+03 -0.13323268464E+04  0.13696495732E+04  0.12699999809E+01 0.  1.
</event>
<event>
 5   0  0.7032692E-06  0.2134545E+04  0.7818609E-02  0.8546177E-01
        1   -1    0    0  501    0  0.00000000000E+00  0.00000000000E+00  0.11362640958E+04  0.11362640958E+04  0.50400001928E-02 0. -1.
       -1   -1    0    0    0  501  0.00000000000E+00  0.00000000000E+00 -0.10024697342E+04  0.10024697342E+04  0.50400001928E-02 0.  1.
    10030    2    1    2    0    0  0.00000000000E+00  0.00000000000E+00  0.13379436161E+03  0.21387338301E+04  0.21345447910E+04 0.  0.
        5    1    3    3  502    0  0.66530891390E+02 -0.11866824109E+03 -0.99373574068E+03  0.10030161132E+04  0.46999998093E+01 0.  1.
       -5    1    3    3    0  502 -0.66530891390E+02  0.11866824109E+03  0.11275301023E+04  0.11357177169E+04  0.46999998093E+01 0. -1.
</event>
<event>
 5   0  0.1480547E-05  0.1795870E+04  0.7818609E-02  0.8708499E-01
       -2   -1    0    0    0  501  0.00000000000E+00  0.00000000000E+00  0.94637470935E+03  0.94637470935E+03  0.25500000920E-02 0.  1.
        2   -1    0    0  501    0  0.00000000000E+00  0.00000000000E+00 -0.85197485055E+03  0.85197485055E+03  0.25500000920E-02 0. -1.
    10030    2    1    2    0    0  0.00000000000E+00  0.00000000000E+00  0.94399858798E+02  0.17983495599E+04  0.17958702086E+04 0.  0.
        1    1    3    3  502    0 -0.37664445943E+03 -0.35875734017E+03  0.78013908607E+03  0.93764858640E+03  0.50400001928E-02 0.  1.
       -1    1    3    3    0  502  0.37664445943E+03  0.35875734017E+03 -0.68573922727E+03  0.86070097350E+03  0.50400001928E-02 0. -1.
</event>
<event>
 5   0  0.1423692E-05  0.3046532E+04  0.7818609E-02  0.8230567E-01
        2   -1    0    0  501    0  0.00000000000E+00  0.00000000000E+00  0.26979600288E+04  0.26979600288E+04  0.25500000920E-02 0. -1.
       -2   -1    0    0    0  501  0.00000000000E+00  0.00000000000E+00 -0.86003466762E+03  0.86003466763E+03  0.25500000920E-02 0.  1.
    10030    2    1    2    0    0  0.00000000000E+00  0.00000000000E+00  0.18379253612E+04  0.35579946964E+04  0.30465319015E+04 0.  0.
        3    1    3    3  502    0 -0.12723065286E+04  0.10595698294E+03  0.18893245343E+04  0.22802495458E+04  0.10100000352E+00 0. -1.
       -3    1    3    3    0  502  0.12723065286E+04 -0.10595698294E+03 -0.51399173087E+02  0.12777451507E+04  0.10100000352E+00 0.  1.
</event>
<event>
 5   0  0.5329891E-06  0.3009433E+04  0.7818609E-02  0.8241042E-01
        1   -1    0    0  501    0  0.00000000000E+00  0.00000000000E+00  0.90605555461E+03  0.90605555462E+03  0.50400001928E-02 0. -1.
       -1   -1    0    0    0  501  0.00000000000E+00  0.00000000000E+00 -0.24989329529E+04  0.24989329529E+04  0.50400001928E-02 0.  1.
    10030    2    1    2    0    0  0.00000000000E+00  0.00000000000E+00 -0.15928773983E+04  0.34049885076E+04  0.30094332241E+04 0.  0.
        4    1    3    3  502    0 -0.10156714727E+04 -0.26264820172E+03 -0.20169235538E+04  0.22734455905E+04  0.12699999809E+01 0.  1.
       -4    1    3    3    0  502  0.10156714727E+04  0.26264820172E+03  0.42404615547E+03  0.11315429171E+04  0.12699999809E+01 0. -1.
</event>
<event>
 5   0  0.1523029E-05  0.2995671E+04  0.7818609E-02  0.8244968E-01
       -2   -1    0    0    0  501  0.00000000000E+00  0.00000000000E+00  0.10482305379E+04  0.10482305379E+04  0.25500000920E-02 0.  1.
        2   -1    0    0  501    0  0.00000000000E+00  0.00000000000E+00 -0.21402837096E+04  0.21402837096E+04  0.25500000920E-02 0. -1.
    10030    2    1    2    0    0  0.00000000000E+00  0.00000000000E+00 -0.10920531717E+04  0.31885142475E+04  0.29956707057E+04 0.  0.
        5    1    3    3  502    0  0.68932091639E+03  0.13171326012E+04 -0.74080134039E+03  0.16609666856E+04  0.46999998093E+01 0.  1.
       -5    1    3    3    0  502 -0.68932091639E+03 -0.13171326012E+04 -0.35125183128E+03  0.15275475619E+04  0.46999998093E+01 0. -1.
</event>
<event>
 5   0  0.1345931E-05  0.3055218E+04  0.7818609E-02  0.8228136E-01
       -2   -1    0    0    0  501  0.00000000000E+00  0.00000000000E+00  0.12239865517E+04  0.12239865517E+04  0.25500000920E-02 0.  1.
        2   -1    0    0  501    0  0.00000000000E+00  0.00000000000E+00 -0.19065483266E+04  0.19065483266E+04  0.25500000920E-02 0. -1.
    10030    2    1    2    0    0  0.00000000000E+00  0.00000000000E+00 -0.68256177487E+03  0.31305348783E+04  0.30552181670E+04 0.  0.
        2    1    3    3  502    0  0.99268815211E+03 -0.88304219654E+03  0.43122520102E+03  0.13968351593E+04  0.25500000920E-02 0.  1.
       -2    1    3    3    0  502 -0.99268815211E+03  0.88304219654E+03 -0.11137869759E+04  0.17336997191E+04  0.25500000920E-02 0. -1.
</event>
<event>
 5   0  0.1345931E-05  0.2879652E+04  0.7818609E-02  0.8278958E-01
        2   -1    0    0  501    0  0.00000000000E+00  0.00000000000E+00  0.12880191850E+04  0.12880191850E+04  0.25500000920E-02 0. -1.
       -2   -1    0    0    0  501  0.00000000000E+00  0.00000000000E+00 -0.16095245684E+04  0.16095245684E+04  0.25500000920E-02 0.  1.
    10030    2    1    2    0    0  0.00000000000E+00  0.00000000000E+00 -0.32150538337E+03  0.28975437533E+04  0.28796517308E+04 0.  0.
        2    1    3    3  502    0  0.12804059252E+04 -0.66700462585E+01 -0.82333835448E+03  0.15222909934E+04  0.25500000920E-02 0.  1.
       -2    1    3    3    0  502 -0.12804059252E+04  0.66700462585E+01  0.50183297111E+03  0.13752527599E+04  0.25500000920E-02 0. -1.
</event>
<event>
 5   0  0.5522695E-06  0.3032433E+04  0.7818609E-02  0.8234530E-01
       -1   -1    0    0    0  501  0.00000000000E+00  0.00000000000E+00  0.15359214788E+04  0.15359214788E+04  0.50400001928E-02 0. -1.
        1   -1    0    0  501    0  0.00000000000E+00  0.00000000000E+00 -0.14967642615E+04  0.14967642615E+04  0.50400001928E-02 0.  1.
    10030    2    1    2    0    0  0.00000000000E+00  0.00000000000E+00  0.39157217347E+02  0.30326857403E+04  0.30324329361E+04 0.  0.
        3    1    3    3  502    0 -0.11297578357E+04  0.80618283809E+03  0.63006281350E+03  0.15242252769E+04  0.10100000352E+00 0. -1.
       -3    1    3    3    0  502  0.11297578357E+04 -0.80618283809E+03 -0.59090559615E+03  0.15084604633E+04  0.10100000352E+00 0.  1.
</event>
<event>
 5   0  0.5392262E-06  0.3002748E+04  0.7818609E-02  0.8242946E-01
        1   -1    0    0  501    0  0.00000000000E+00  0.00000000000E+00  0.14222648514E+04  0.14222648515E+04  0.50400001928E-02 0. -1.
       -1   -1    0    0    0  501  0.00000000000E+00  0.00000000000E+00 -0.15848838249E+04  0.15848838249E+04  0.50400001928E-02 0.  1.
    10030    2    1    2    0    0  0.00000000000E+00  0.00000000000E+00 -0.16261897350E+03  0.30071486764E+04  0.30027484462E+04 0.  0.
        2    1    3    3  502    0 -0.52859653222E+03  0.29991480177E+03 -0.14561874031E+04  0.15779242489E+04  0.25500000920E-02 0.  1.
       -2    1    3    3    0  502  0.52859653222E+03 -0.29991480177E+03  0.12935684296E+04  0.14292244275E+04  0.25500000920E-02 0. -1.
</event>
<event>
 5   0  0.1480547E-05  0.3000551E+04  0.7818609E-02  0.8243574E-01
        2   -1    0    0  501    0  0.00000000000E+00  0.00000000000E+00  0.27000714227E+04  0.27000714227E+04  0.25500000920E-02 0. -1.
       -2   -1    0    0    0  501  0.00000000000E+00  0.00000000000E+00 -0.83361716140E+03  0.83361716141E+03  0.25500000920E-02 0.  1.
    10030    2    1    2    0    0  0.00000000000E+00  0.00000000000E+00  0.18664542613E+04  0.35336885841E+04  0.30005505328E+04 0.  0.
        1    1    3    3  502    0 -0.93121143413E+03 -0.73146058535E+03 -0.15166908687E+03  0.11938144056E+04  0.50400001928E-02 0.  1.
       -1    1    3    3    0  502  0.93121143413E+03  0.73146058535E+03  0.20181233482E+04  0.23398741786E+04  0.50400001928E-02 0. -1.
</event>
<event>
 5   0  0.5392262E-06  0.1687423E+04  0.7818609E-02  0.8768570E-01
        1   -1    0    0  501    0  0.00000000000E+00  0.00000000000E+00  0.16274365273E+04  0.16274365273E+04  0.50400001928E-02 0. -1.
       -1   -1    0    0    0  501  0.00000000000E+00  0.00000000000E+00 -0.43740525409E+03  0.43740525412E+03  0.50400001928E-02 0.  1.
    10030    2    1    2    0    0  0.00000000000E+00  0.00000000000E+00  0.11900312732E+04  0.20648417814E+04  0.16874232282E+04 0.  0.
        2    1    3    3  502    0  0.10147980232E+03  0.69948472905E+03  0.31236020792E+02  0.70749750915E+03  0.25500000920E-02 0.  1.
       -2    1    3    3    0  502 -0.10147980232E+03 -0.69948472905E+03  0.11587952524E+04  0.13573442723E+04  0.25500000920E-02 0. -1.
</event>
<event>
 5   0  0.7032692E-06  0.3141916E+04  0.7818609E-02  0.8204328E-01
       -1   -1    0    0    0  501  0.00000000000E+00  0.00000000000E+00  0.16038739099E+04  0.16038739099E+04  0.50400001928E-02 0. -1.
        1   -1    0    0  501    0  0.00000000000E+00  0.00000000000E+00 -0.15387178753E+04  0.15387178753E+04  0.50400001928E-02 0.  1.
    10030    2    1    2    0    0  0.00000000000E+00  0.00000000000E+00  0.65156034623E+02  0.31425917853E+04  0.31419162656E+04 0.  0.
        5    1    3    3  502    0  0.98554304566E+03 -0.80125831804E+03  0.95721031713E+03  0.15904664939E+04  0.46999998093E+01 0. -1.
       -5    1    3    3    0  502 -0.98554304566E+03  0.80125831804E+03 -0.89205428250E+03  0.15521252913E+04  0.46999998093E+01 0.  1.
</event>
<event>
 5   0  0.1523029E-05  0.2992019E+04  0.7818609E-02  0.8246014E-01
       -2   -1    0    0    0  501  0.00000000000E+00  0.00000000000E+00  0.13549987966E+04  0.13549987966E+04  0.25500000920E-02 0.  1.
        2   -1    0    0  501    0  0.00000000000E+00  0.00000000000E+00 -0.16516947469E+04  0.16516947469E+04  0.25500000920E-02 0. -1.
    10030    2    1    2    0    0  0.00000000000E+00  0.00000000000E+00 -0.29669595037E+03  0.30066935435E+04  0.29920189801E+04 0.  0.
        5    1    3    3  502    0  0.56271865834E+03  0.36073228138E+03 -0.14932850990E+04  0.16360631236E+04  0.46999998093E+01 0. -1.
       -5    1    3    3    0  502 -0.56271865834E+03 -0.36073228138E+03  0.11965891487E+04  0.13706304199E+04  0.46999998093E+01 0.  1.
</event>
<event>
 5   0  0.5392262E-06  0.3001078E+04  0.7818609E-02  0.8243423E-01
       -1   -1    0    0    0  501  0.00000000000E+00  0.00000000000E+00  0.11796701615E+04  0.11796701615E+04  0.50400001928E-02 0. -1.
        1   -1    0    0  501    0  0.00000000000E+00  0.00000000000E+00 -0.19086834478E+04  0.19086834478E+04  0.50400001928E-02 0.  1.
    10030    2    1    2    0    0  0.00000000000E+00  0.00000000000E+00 -0.72901328628E+03  0.30883536094E+04  0.30010777472E+04 0.  0.
        2    1    3    3  502    0 -0.61233224217E+03  0.13027852537E+04  0.71387695914E+02  0.14412828991E+04  0.25500000920E-02 0. -1.
       -2    1    3    3    0  502  0.61233224217E+03 -0.13027852537E+04 -0.80040098220E+03  0.16470707102E+04  0.25500000920E-02 0.  1.
</event>
<event>
 5   0  0.5522695E-06  0.3054188E+04  0.7818609E-02  0.8228424E-01
        1   -1    0    0  501    0  0.00000000000E+00  0.00000000000E+00  0.20399307446E+04  0.20399307446E+04  0.50400001928E-02 0.  1.
       -1   -1    0    0    0  501  0.00000000000E+00  0.00000000000E+00 -0.11431838483E+04  0.11431838483E+04  0.50400001928E-02 0. -1.
    10030    2    1    2    0    0  0.00000000000E+00  0.00000000000E+00  0.89674689637E+03  0.31831145929E+04  0.30541878651E+04 0.  0.
        3    1    3    3  502    0 -0.55542284143E+03  0.22026089336E+03  0.19130468273E+04  0.20041850133E+04  0.10100000352E+00 0.  1.
       -3    1    3    3    0  502  0.55542284143E+03 -0.22026089336E+03 -0.10162999309E+04  0.11789295796E+04  0.10100000352E+00 0. -1.
</event>
<event>
 5   0  0.7032692E-06  0.2985941E+04  0.7818609E-02  0.8247757E-01
        1   -1    0    0  501    0  0.00000000000E+00  0.00000000000E+00  0.14713867002E+04  0.14713867002E+04  0.50400001928E-02 0.  1.
       -1   -1    0    0    0  501  0.00000000000E+00  0.00000000000E+00 -0.15148710496E+04  0.15148710496E+04  0.50400001928E-02 0. -1.
    10030    2    1    2    0    0  0.00000000000E+00  0.00000000000E+00 -0.43484349372E+02  0.29862577498E+04  0.29859411346E+04 0.  0.
        5    1    3    3  502    0  0.50688651988E+03 -0.95062405882E+03 -0.10554469443E+04  0.15081811521E+04  0.46999998093E+01 0. -1.
       -5    1    3    3    0  502 -0.50688651988E+03  0.95062405882E+03  0.10119625949E+04  0.14780765977E+04  0.46999998093E+01 0.  1.
</event>
<event>
 5   0  0.1345931E-05  0.2989911E+04  0.7818609E-02  0.8246618E-01
       -2   -1    0    0    0  501  0.00000000000E+00  0.00000000000E+00  0.13616675564E+04  0.13616675564E+04  0.25500000920E-02 0. -1.
        2   -1    0    0  501    0  0.00000000000E+00  0.00000000000E+00 -0.16412904383E+04  0.16412904383E+04  0.25500000920E-02 0.  1.
    10030    2    1    2    0    0  0.00000000000E+00  0.00000000000E+00 -0.27962288186E+03  0.30029579947E+04  0.29899109956E+04 0.  0.
        2    1    3    3  502    0 -0.28981346423E+03 -0.27273152468E+03  0.13074893733E+04  0.13667124021E+04  0.25500000920E-02 0. -1.
       -2    1    3    3    0  502  0.28981346423E+03  0.27273152468E+03 -0.15871122552E+04  0.16362455926E+04  0.25500000920E-02 0.  1.
</event>
<event>
 5   0  0.1480547E-05  0.2961681E+04  0.7818609E-02  0.8254759E-01
        2   -1    0    0  501    0  0.00000000000E+00  0.00000000000E+00  0.22742761968E+04  0.22742761968E+04  0.25500000920E-02 0.  1.
       -2   -1    0    0    0  501  0.00000000000E+00  0.00000000000E+00 -0.96421381171E+03  0.96421381171E+03  0.25500000920E-02 0. -1.
    10030    2    1    2    0    0  0.00000000000E+00  0.00000000000E+00  0.13100623851E+04  0.32384900085E+04  0.29616809556E+04 0.  0.
        1    1    3    3  502    0 -0.11538142463E+04 -0.88221117222E+03  0.33942979384E+03  0.14915751581E+04  0.50400001928E-02 0. -1.
       -1    1    3    3    0  502  0.11538142463E+04  0.88221117222E+03  0.97063259128E+03  0.17469148504E+04  0.50400001928E-02 0.  1.
</event>
<event>
 5   0  0.5522695E-06  0.2951463E+04  0.7818609E-02  0.8257728E-01
       -1   -1    0    0    0  501  0.00000000000E+00  0.00000000000E+00  0.26866483483E+04  0.26866483483E+04  0.50400001928E-02 0.  1.
        1   -1    0    0  501    0  0.00000000000E+00  0.00000000000E+00 -0.81059464223E+03  0.81059464225E+03  0.50400001928E-02 0. -1.
    10030    2    1    2    0    0  0.00000000000E+00  0.00000000000E+00  0.18760537060E+04  0.34972429905E+04  0.29514625234E+04 0.  0.
        3    1    3    3  502    0 -0.11998349499E+04  0.20731435188E+03 -0.49942087947E+02  0.12186375055E+04  0.10100000352E+00 0.  1.
       -3    1    3    3    0  502  0.11998349499E+04 -0.20731435188E+03  0.19259957940E+04  0.22786054850E+04  0.10100000352E+00 0. -1.
</event>
<event>
 5   0  0.1480547E-05  0.3000752E+04  0.7818609E-02  0.8243516E-01
        2   -1    0    0  501    0  0.00000000000E+00  0.00000000000E+00  0.21123428614E+04  0.21123428614E+04  0.25500000920E-02 0.  1.
       -2   -1    0    0    0  501  0.00000000000E+00  0.00000000000E+00 -0.10657022755E+04  0.10657022755E+04  0.25500000920E-02 0. -1.
    10030    2    1    2    0    0  0.00000000000E+00  0.00000000000E+00  0.10466405859E+04  0.31780451369E+04  0.30007523017E+04 0.  0.
        1    1    3    3  502    0 -0.16990295237E+03 -0.22974042036E+03  0.20832600641E+04  0.21027648867E+04  0.50400001928E-02 0.  1.
       -1    1    3    3    0  502  0.16990295237E+03  0.22974042036E+03 -0.10366194782E+04  0.10752802502E+04  0.50400001928E-02 0. -1.
</event>
<event>
 5   0  0.1480547E-05  0.2223147E+04  0.7818609E-02  0.8508855E-01
        2   -1    0    0  501    0  0.00000000000E+00  0.00000000000E+00  0.18229348059E+04  0.18229348059E+04  0.25500000920E-02 0. -1.
       -2   -1    0    0    0  501  0.00000000000E+00  0.00000000000E+00 -0.67780586150E+03  0.67780586150E+03  0.25500000920E-02 0.  1.
    10030    2    1    2    0    0  0.00000000000E+00  0.00000000000E+00  0.11451289444E+04  0.25007406674E+04  0.22231472255E+04 0.  0.
        1    1    3    3  502    0  0.60120195772E+03 -0.93327055322E+03  0.50934968660E+03  0.12214232775E+04  0.50400001928E-02 0. -1.
       -1    1    3    3    0  502 -0.60120195772E+03  0.93327055322E+03  0.63577925777E+03  0.12793173899E+04  0.50400001928E-02 0.  1.
</event>
<event>
 5   0  0.1523029E-05  0.2960080E+04  0.7818609E-02  0.8255223E-01
        2   -1    0    0  501    0  0.00000000000E+00  0.00000000000E+00  0.19865984969E+04  0.19865984969E+04  0.25500000920E-02 0. -1.
       -2   -1    0    0    0  501  0.00000000000E+00  0.00000000000E+00 -0.11026478773E+04  0.11026478773E+04  0.25500000920E-02 0.  1.
    10030    2    1    2    0    0  0.00000000000E+00  0.00000000000E+00  0.88395061956E+03  0.30892463742E+04  0.29600801446E+04 0.  0.
        5    1    3    3  502    0 -0.25742921420E+03  0.12954535774E+04 -0.25501947852E+03  0.13451865283E+04  0.46999998093E+01 0.  1.
       -5    1    3    3    0  502  0.25742921420E+03 -0.12954535774E+04  0.11389700981E+04  0.17440598459E+04  0.46999998093E+01 0. -1.
</event>
<event>
 5   0  0.1480547E-05  0.1839058E+04  0.7818609E-02  0.8685800E-01
        2   -1    0    0  501    0  0.00000000000E+00  0.00000000000E+00  0.14429121619E+04  0.14429121619E+04  0.25500000920E-02 0.  1.
       -2   -1    0    0    0  501  0.00000000000E+00  0.00000000000E+00 -0.58599100076E+03  0.58599100076E+03  0.25500000920E-02 0. -1.
    10030    2    1    2    0    0  0.00000000000E+00  0.00000000000E+00  0.85692116115E+03  0.20289031627E+04  0.18390579564E+04 0.  0.
        1    1    3    3  502    0 -0.15684307146E+02  0.69971765720E+02  0.14398228042E+04  0.14416073505E+04  0.50400001928E-02 0.  1.
       -1    1    3    3    0  502  0.15684307146E+02 -0.69971765720E+02 -0.58290164305E+03  0.58729581217E+03  0.50400001928E-02 0. -1.
</event>
<event>
 5   0  0.5730920E-06  0.1873828E+04  0.7818609E-02  0.8667995E-01
        1   -1    0    0  501    0  0.00000000000E+00  0.00000000000E+00  0.71571380139E+03  0.71571380140E+03  0.50400001928E-02 0. -1.
       -1   -1    0    0    0  501  0.00000000000E+00  0.00000000000E+00 -0.12264785738E+04  0.12264785738E+04  0.50400001928E-02 0.  1.
    10030    2    1    2    0    0  0.00000000000E+00  0.00000000000E+00 -0.51076477242E+03  0.19421923752E+04  0.18738277855E+04 0.  0.
        1    1    3    3  502    0 -0.31257262384E+03 -0.16758416981E+03  0.64344792848E+03  0.73471854192E+03  0.50400001928E-02 0. -1.
       -1    1    3    3    0  502  0.31257262384E+03  0.16758416981E+03 -0.11542127009E+04  0.12074738333E+04  0.50400001928E-02 0.  1.
</event>
<event>
 5   0  0.5730920E-06  0.1547553E+04  0.7818609E-02  0.8853433E-01
        1   -1    0    0  501    0  0.00000000000E+00  0.00000000000E+00  0.35164200251E+03  0.35164200255E+03  0.50400001928E-02 0. -1.
       -1   -1    0    0    0  501  0.00000000000E+00  0.00000000000E+00 -0.17026682931E+04  0.17026682931E+04  0.50400001928E-02 0.  1.
    10030    2    1    2    0    0  0.00000000000E+00  0.00000000000E+00 -0.13510262906E+04  0.20543102957E+04  0.15475525041E+04 0.  0.
        1    1    3    3  502    0  0.36461664589E+03 -0.35356351515E+03 -0.14504314772E+04  0.15367836308E+04  0.50400001928E-02 0.  1.
       -1    1    3    3    0  502 -0.36461664589E+03  0.35356351515E+03  0.99405186624E+02  0.51752666488E+03  0.50400001928E-02 0. -1.
</event>
<event>
 5   0  0.5730920E-06  0.2885327E+04  0.7818609E-02  0.8277257E-01
        1   -1    0    0  501    0  0.00000000000E+00  0.00000000000E+00  0.13386934442E+04  0.13386934442E+04  0.50400001928E-02 0.  1.
       -1   -1    0    0    0  501  0.00000000000E+00  0.00000000000E+00 -0.15547083559E+04  0.15547083559E+04  0.50400001928E-02 0. -1.
    10030    2    1    2    0    0  0.00000000000E+00  0.00000000000E+00 -0.21601491171E+03  0.28934018002E+04  0.28853269373E+04 0.  0.
        1    1    3    3  502    0 -0.50588628530E+03 -0.12423938706E+04  0.42434017182E+03  0.14069570160E+04  0.50400001928E-02 0.  1.
       -1    1    3    3    0  502  0.50588628530E+03  0.12423938706E+04 -0.64035508353E+03  0.14864447842E+04  0.50400001928E-02 0. -1.
</event>
<event>
 5   0  0.1523029E-05  0.2980511E+04  0.7818609E-02  0.8249318E-01
        2   -1    0    0  501    0  0.00000000000E+00  0.00000000000E+00  0.14309941510E+04  0.14309941510E+04  0.25500000920E-02 0. -1.
       -2   -1    0    0    0  501  0.00000000000E+00  0.00000000000E+00 -0.15519713883E+04  0.15519713883E+04  0.25500000920E-02 0.  1.
    10030    2    1    2    0    0  0.00000000000E+00  0.00000000000E+00 -0.12097723734E+03  0.29829655393E+04  0.29805113515E+04 0.  0.
        5    1    3    3  502    0  0.29147455574E+03  0.13853529817E+04  0.40538321837E+03  0.14725888578E+04  0.46999998093E+01 0. -1.
       -5    1    3    3    0  502 -0.29147455574E+03 -0.13853529817E+04 -0.52636045571E+03  0.15103766814E+04  0.46999998093E+01 0.  1.
</event>
<event>
 5   0  0.1480547E-05  0.2810218E+04  0.7818609E-02  0.8300103E-01
       -2   -1    0    0    0  501  0.00000000000E+00  0.00000000000E+00  0.10205007443E+04  0.10205007443E+04  0.25500000920E-02 0. -1.
        2   -1    0    0  501    0  0.00000000000E+00  0.00000000000E+00 -0.19346689502E+04  0.19346689502E+04  0.25500000920E-02 0.  1.
    10030    2    1    2    0    0  0.00000000000E+00  0.00000000000E+00 -0.91416820583E+03  0.29551696945E+04  0.28102178590E+04 0.  0.
        1    1    3    3  502    0 -0.95525774621E+02  0.13776150312E+04 -0.73005529714E+03  0.15620272356E+04  0.50400001928E-02 0.  1.
       -1    1    3    3    0  502  0.95525774621E+02 -0.13776150312E+04 -0.18411290869E+03  0.13931424589E+04  0.50400001928E-02 0. -1.
</event>
<event>
 5   0  0.7032692E-06  0.3011085E+04  0.7818609E-02  0.8240573E-01
       -1   -1    0    0    0  501  0.00000000000E+00  0.00000000000E+00  0.12612028353E+04  0.12612028353E+04  0.50400001928E-02 0.  1.
        1   -1    0    0  501    0  0.00000000000E+00  0.00000000000E+00 -0.17972192800E+04  0.17972192800E+04  0.50400001928E-02 0. -1.
    10030    2    1    2    0    0  0.00000000000E+00  0.00000000000E+00 -0.53601644472E+03  0.30584221153E+04  0.30110848886E+04 0.  0.
        5    1    3    3  502    0  0.30274192228E+03  0.72416083099E+03 -0.15729525264E+04  0.17579144805E+04  0.46999998093E+01 0. -1.
       -5    1    3    3    0  502 -0.30274192228E+03 -0.72416083099E+03  0.10369360817E+04  0.13005076348E+04  0.46999998093E+01 0.  1.
</event>
<event>
 5   0  0.5522695E-06  0.2844604E+04  0.7818609E-02  0.8289553E-01
       -1   -1    0    0    0  501  0.00000000000E+00  0.00000000000E+00  0.13666363490E+04  0.13666363490E+04  0.50400001928E-02 0. -1.
        1   -1    0    0  501    0  0.00000000000E+00  0.00000000000E+00 -0.14802347440E+04  0.14802347440E+04  0.50400001928E-02 0.  1.
    10030    2    1    2    0    0  0.00000000000E+00  0.00000000000E+00 -0.11359839504E+03  0.28468710930E+04  0.28446037378E+04 0.  0.
        3    1    3    3  502    0  0.49167214021E+03  0.13320092074E+04  0.26649360795E+02  0.14201057076E+04  0.10100000352E+00 0. -1.
       -3    1    3    3    0  502 -0.49167214021E+03 -0.13320092074E+04 -0.14024775584E+03  0.14267653855E+04  0.10100000352E+00 0.  1.
</event>
<event>
 5   0  0.1480547E-05  0.3033946E+04  0.7818609E-02  0.8234103E-01
        2   -1    0    0  501    0  0.00000000000E+00  0.00000000000E+00  0.25030420702E+04  0.25030420702E+04  0.25500000920E-02 0. -1.
       -2   -1    0    0    0  501  0.00000000000E+00  0.00000000000E+00 -0.91936383116E+03  0.91936383116E+03  0.25500000920E-02 0.  1.
    10030    2    1    2    0    0  0.00000000000E+00  0.00000000000E+00  0.15836782390E+04  0.34224059014E+04  0.30339455151E+04 0.  0.
        1    1    3    3  502    0 -0.11955729762E+04 -0.76644862441E+03  0.13933786688E+04  0.19895583304E+04  0.50400001928E-02 0. -1.
       -1    1    3    3    0  502  0.11955729762E+04  0.76644862441E+03  0.19029957026E+03  0.14328475710E+04  0.50400001928E-02 0.  1.
</event>
<event>
 5   0  0.5730920E-06  0.2964243E+04  0.7818609E-02  0.8254016E-01
        1   -1    0    0  501    0  0.00000000000E+00  0.00000000000E+00  0.13960896374E+04  0.13960896374E+04  0.50400001928E-02 0. -1.
       -1   -1    0    0    0  501  0.00000000000E+00  0.00000000000E+00 -0.15734550239E+04  0.15734550239E+04  0.50400001928E-02 0.  1.
    10030    2    1    2    0    0  0.00000000000E+00  0.00000000000E+00 -0.17736538651E+03  0.29695446614E+04  0.29642430763E+04 0.  0.
        1    1    3    3  502    0  0.92331066388E+03  0.90530331201E+03  0.63691071726E+03  0.14414339841E+04  0.50400001928E-02 0. -1.
       -1    1    3    3    0  502 -0.92331066388E+03 -0.90530331201E+03 -0.81427610377E+03  0.15281106773E+04  0.50400001928E-02 0.  1.
</event>
<event>
 5   0  0.5392262E-06  0.1957344E+04  0.7818609E-02  0.8626827E-01
        1   -1    0    0  501    0  0.00000000000E+00  0.00000000000E+00  0.11251089318E+04  0.11251089318E+04  0.50400001928E-02 0. -1.
       -1   -1    0    0    0  501  0.00000000000E+00  0.00000000000E+00 -0.85129445049E+03  0.85129445051E+03  0.50400001928E-02 0.  1.
    10030    2    1    2    0    0  0.00000000000E+00  0.00000000000E+00  0.27381448126E+03  0.19764033823E+04  0.19573441086E+04 0.  0.
        2    1    3    3  502    0 -0.30587013764E+03 -0.85490477186E+03 -0.23186159959E+03  0.93711179239E+03  0.25500000920E-02 0. -1.
       -2    1    3    3    0  502  0.30587013764E+03  0.85490477186E+03  0.50567608085E+03  0.10392915899E+04  0.25500000920E-02 0.  1.
</event>
<event>
 5   0  0.5329891E-06  0.2197212E+04  0.7818609E-02  0.8519589E-01
       -1   -1    0    0    0  501  0.00000000000E+00  0.00000000000E+00  0.70992489408E+03  0.70992489410E+03  0.50400001928E-02 0. -1.
        1   -1    0    0  501    0  0.00000000000E+00  0.00000000000E+00 -0.17000888862E+04  0.17000888862E+04  0.50400001928E-02 0.  1.
    10030    2    1    2    0    0  0.00000000000E+00  0.00000000000E+00 -0.99016399214E+03  0.24100137803E+04  0.21972122542E+04 0.  0.
        4    1    3    3  502    0 -0.93964139055E+03 -0.21755292863E+03 -0.10720281602E+04  0.14420475751E+04  0.12699999809E+01 0.  1.
       -4    1    3    3    0  502  0.93964139055E+03  0.21755292863E+03  0.81864168060E+02  0.96796620525E+03  0.12699999809E+01 0. -1.
</event>
<event>
 5   0  0.5329891E-06  0.2901317E+04  0.7818609E-02  0.8272486E-01
       -1   -1    0    0    0  501  0.00000000000E+00  0.00000000000E+00  0.26480629947E+04  0.26480629947E+04  0.50400001928E-02 0. -1.
        1   -1    0    0  501    0  0.00000000000E+00  0.00000000000E+00 -0.79469790012E+03  0.79469790014E+03  0.50400001928E-02 0.  1.
    10030    2    1    2    0    0  0.00000000000E+00  0.00000000000E+00  0.18533650946E+04  0.34427608949E+04  0.29013170122E+04 0.  0.
        4    1    3    3  502    0  0.11303563614E+04 -0.32464834388E+03  0.19344761121E+04  0.22639128720E+04  0.12699999809E+01 0. -1.
       -4    1    3    3    0  502 -0.11303563614E+04  0.32464834388E+03 -0.81111017527E+02  0.11788480228E+04  0.12699999809E+01 0.  1.
</event>
<event>
 5   0  0.5730920E-06  0.2272179E+04  0.7818609E-02  0.8488972E-01
       -1   -1    0    0    0  501  0.00000000000E+00  0.00000000000E+00  0.96872200909E+03  0.96872200910E+03  0.50400001928E-02 0.  1.
        1   -1    0    0  501    0  0.00000000000E+00  0.00000000000E+00 -0.13323738880E+04  0.13323738880E+04  0.50400001928E-02 0. -1.
    10030    2    1    2    0    0  0.00000000000E+00  0.00000000000E+00 -0.36365187888E+03  0.23010958971E+04  0.22721794908E+04 0.  0.
        1    1    3    3  502    0  0.57258433125E+03 -0.54998430113E+03  0.64114385639E+03  0.10204905646E+04  0.50400001928E-02 0.  1.
       -1    1    3    3    0  502 -0.57258433125E+03  0.54998430113E+03 -0.10047957353E+04  0.12806053324E+04  0.50400001928E-02 0. -1.
</event>
<event>
 5   0  0.5522695E-06  0.2984978E+04  0.7818609E-02  0.8248033E-01
       -1   -1    0    0    0  501  0.00000000000E+00  0.00000000000E+00  0.23577587463E+04  0.23577587463E+04  0.50400001928E-02 0.  1.
        1   -1    0    0  501    0  0.00000000000E+00  0.00000000000E+00 -0.94476320081E+03  0.94476320082E+03  0.50400001928E-02 0. -1.
    10030    2    1    2    0    0  0.00000000000E+00  0.00000000000E+00  0.14129955455E+04  0.33025219471E+04  0.29849781908E+04 0.  0.
        3    1    3    3  502    0 -0.78483247473E+03 -0.74478773240E+03 -0.43089856046E+03  0.11646219813E+04  0.10100000352E+00 0. -1.
       -3    1    3    3    0  502  0.78483247473E+03  0.74478773240E+03  0.18438941060E+04  0.21378999658E+04  0.10100000352E+00 0.  1.
</event>
<event>
 5   0  0.5329891E-06  0.3064058E+04  0.7818609E-02  0.8225672E-01
        1   -1    0    0  501    0  0.00000000000E+00  0.00000000000E+00  0.19193776602E+04  0.19193776602E+04  0.50400001928E-02 0. -1.
       -1   -1    0    0    0  501  0.00000000000E+00  0.00000000000E+00 -0.12228509615E+04  0.12228509615E+04  0.50400001928E-02 0.  1.
    10030    2    1    2    0    0  0.00000000000E+00  0.00000000000E+00  0.69652669875E+03  0.31422286218E+04  0.30640579742E+04 0.  0.
        4    1    3    3  502    0  0.10045267419E+04 -0.10897070869E+04  0.74620393884E+03  0.16593243931E+04  0.12699999809E+01 0.  1.
       -4    1    3    3    0  502 -0.10045267419E+04  0.10897070869E+04 -0.49677240093E+02  0.14829042287E+04  0.12699999809E+01 0. -1.
</event>
<event>
 5   0  0.1423692E-05  0.2848471E+04  0.7818609E-02  0.8288376E-01
       -2   -1    0    0    0  501  0.00000000000E+00  0.00000000000E+00  0.11494338687E+04  0.11494338687E+04  0.25500000920E-02 0. -1.
        2   -1    0    0  501    0  0.00000000000E+00  0.00000000000E+00 -0.17647355039E+04  0.17647355039E+04  0.25500000920E-02 0.  1.
    10030    2    1    2    0    0  0.00000000000E+00  0.00000000000E+00 -0.61530163524E+03  0.29141693726E+04  0.28484709986E+04 0.  0.
        3    1    3    3  502    0 -0.12253221066E+04  0.69888164416E+03 -0.50864309328E+03  0.14995224653E+04  0.10100000352E+00 0.  1.
       -3    1    3    3    0  502  0.12253221066E+04 -0.69888164416E+03 -0.10665854196E+03  0.14146469073E+04  0.10100000352E+00 0. -1.
</event>
<event>
 5   0  0.5392262E-06  0.3017283E+04  0.7818609E-02  0.8238813E-01
        1   -1    0    0  501    0  0.00000000000E+00  0.00000000000E+00  0.98201500397E+03  0.98201500398E+03  0.50400001928E-02 0.  1.
       -1   -1    0    0    0  501  0.00000000000E+00  0.00000000000E+00 -0.23176825396E+04  0.23176825396E+04  0.50400001928E-02 0. -1.
    10030    2    1    2    0    0  0.00000000000E+00  0.00000000000E+00 -0.13356675356E+04  0.32996975436E+04  0.30172829025E+04 0.  0.
        2    1    3    3  502    0  0.93682177750E+03 -0.11818158635E+04 -0.62307295457E+03  0.16317302733E+04  0.25500000920E-02 0. -1.
       -2    1    3    3    0  502 -0.93682177750E+03  0.11818158635E+04 -0.71259458106E+03  0.16679672703E+04  0.25500000920E-02 0.  1.
</event>
<event>
 5   0  0.5522695E-06  0.2980814E+04  0.7818609E-02  0.8249231E-01
       -1   -1    0    0    0  501  0.00000000000E+00  0.00000000000E+00  0.18898396130E+04  0.18898396131E+04  0.50400001928E-02 0.  1.
        1   -1    0    0  501    0  0.00000000000E+00  0.00000000000E+00 -0.11753976678E+04  0.11753976678E+04  0.50400001928E-02 0. -1.
    10030    2    1    2    0    0  0.00000000000E+00  0.00000000000E+00  0.71444194521E+03  0.30652372809E+04  0.29808140323E+04 0.  0.
        3    1    3    3  502    0 -0.71342448499E+02  0.88640136491E+03 -0.87269535665E+03  0.12459511709E+04  0.10100000352E+00 0. -1.
       -3    1    3    3    0  502  0.71342448499E+02 -0.88640136491E+03  0.15871373019E+04  0.18192861099E+04  0.10100000352E+00 0.  1.
</event>
<event>
 5   0  0.5392262E-06  0.3004746E+04  0.7818609E-02  0.8242377E-01
       -1   -1    0    0    0  501  0.00000000000E+00  0.00000000000E+00  0.11568446167E+04  0.11568446167E+04  0.50400001928E-02 0. -1.
        1   -1    0    0  501    0  0.00000000000E+00  0.00000000000E+00 -0.19511045913E+04  0.19511045913E+04  0.50400001928E-02 0.  1.
    10030    2    1    2    0    0  0.00000000000E+00  0.00000000000E+00 -0.79425997460E+03  0.31079492081E+04  0.30047461411E+04 0.  0.
        2    1    3    3  502    0 -0.14143225063E+03  0.17181798835E+03  0.11397018638E+04  0.11612255772E+04  0.25500000920E-02 0. -1.
       -2    1    3    3    0  502  0.14143225063E+03 -0.17181798835E+03 -0.19339618384E+04  0.19467236309E+04  0.25500000920E-02 0.  1.
</event>
<event>
 5   0  0.1480547E-05  0.3090744E+04  0.7818609E-02  0.8218283E-01
       -2   -1    0    0    0  501  0.00000000000E+00  0.00000000000E+00  0.15856903851E+04  0.15856903851E+04  0.25500000920E-02 0. -1.
        2   -1    0    0  501    0  0.00000000000E+00  0.00000000000E+00 -0.15060789350E+04  0.15060789350E+04  0.25500000920E-02 0.  1.
    10030    2    1    2    0    0  0.00000000000E+00  0.00000000000E+00  0.79611450135E+02  0.30917693201E+04  0.30907441735E+04 0.  0.
        1    1    3    3  502    0  0.64563889412E+03  0.95425994404E+03  0.10700566758E+04  0.15724130856E+04  0.50400001928E-02 0. -1.
       -1    1    3    3    0  502 -0.64563889412E+03 -0.95425994404E+03 -0.99044522564E+03  0.15193562345E+04  0.50400001928E-02 0.  1.
</event>
<event>
 5   0  0.5730920E-06  0.2978720E+04  0.7818609E-02  0.8249834E-01
        1   -1    0    0  501    0  0.00000000000E+00  0.00000000000E+00  0.16527983153E+04  0.16527983153E+04  0.50400001928E-02 0. -1.
       -1   -1    0    0    0  501  0.00000000000E+00  0.00000000000E+00 -0.13420832868E+04  0.13420832868E+04  0.50400001928E-02 0.  1.
    10030    2    1    2    0    0  0.00000000000E+00  0.00000000000E+00  0.31071502856E+03  0.29948816021E+04  0.29787198562E+04 0.  0.
        1    1    3    3  502    0  0.63254944498E+03  0.19158422090E+03  0.14972787503E+04  0.16366633649E+04  0.50400001928E-02 0. -1.
       -1    1    3    3    0  502 -0.63254944498E+03 -0.19158422090E+03 -0.11865637217E+04  0.13582182372E+04  0.50400001928E-02 0.  1.
</event>
<event>
 5   0  0.1345931E-05  0.3065999E+04  0.7818609E-02  0.8225132E-01
        2   -1    0    0  501    0  0.00000000000E+00  0.00000000000E+00  0.15190432259E+04  0.15190432259E+04  0.25500000920E-02 0. -1.
       -2   -1    0    0    0  501  0.00000000000E+00  0.00000000000E+00 -0.15470840986E+04  0.15470840986E+04  0.25500000920E-02 0.  1.
    10030    2    1    2    0    0  0.00000000000E+00  0.00000000000E+00 -0.28040872710E+02  0.30661273245E+04  0.30659990997E+04 0.  0.
        2    1    3    3  502    0 -0.20471827133E+03  0.80606909914E+03 -0.13018749995E+04  0.15448415703E+04  0.25500000920E-02 0.  1.
       -2    1    3    3    0  502  0.20471827133E+03 -0.80606909914E+03  0.12738341268E+04  0.15212857541E+04  0.25500000920E-02 0. -1.
</event>
<event>
 5   0  0.4806125E-06  0.3120349E+04  0.7818609E-02  0.8210175E-01
       -3   -1    0    0    0  501  0.00000000000E+00  0.00000000000E+00  0.82037384509E+03  0.82037385130E+03  0.10100000352E+00 0. -1.
        3   -1    0    0  501    0  0.00000000000E+00  0.00000000000E+00 -0.29671160744E+04  0.29671160762E+04  0.10100000352E+00 0.  1.
    10030    2    1    2    0    0  0.00000000000E+00  0.00000000000E+00 -0.21467422294E+04  0.37874899275E+04  0.31203489791E+04 0.  0.
        3    1    3    3  502    0  0.84779568299E+03 -0.34268273447E+03 -0.26077430706E+04  0.27634241276E+04  0.10100000352E+00 0.  1.
       -3    1    3    3    0  502 -0.84779568299E+03  0.34268273447E+03  0.46100084125E+03  0.10240657999E+04  0.10100000352E+00 0. -1.
</event>
<event>
 5   0  0.5329891E-06  0.3008143E+04  0.7818609E-02  0.8241409E-01
       -1   -1    0    0    0  501  0.00000000000E+00  0.00000000000E+00  0.14962172883E+04  0.14962172883E+04  0.50400001928E-02 0. -1.
        1   -1    0    0  501    0  0.00000000000E+00  0.00000000000E+00 -0.15119666754E+04  0.15119666754E+04  0.50400001928E-02 0.  1.
    10030    2    1    2    0    0  0.00000000000E+00  0.00000000000E+00 -0.15749387144E+02  0.30081839637E+04  0.30081427353E+04 0.  0.
        4    1    3    3  502    0 -0.40678888045E+03 -0.10556092508E+03 -0.14520581768E+04  0.15116530237E+04  0.12699999809E+01 0.  1.
       -4    1    3    3    0  502  0.40678888045E+03  0.10556092508E+03  0.14363087897E+04  0.14965309400E+04  0.12699999809E+01 0. -1.
</event>
<event>
 5   0  0.5522695E-06  0.1776655E+04  0.7818609E-02  0.8718813E-01
        1   -1    0    0  501    0  0.00000000000E+00  0.00000000000E+00  0.98757482333E+03  0.98757482334E+03  0.50400001928E-02 0. -1.
       -1   -1    0    0    0  501  0.00000000000E+00  0.00000000000E+00 -0.79905422194E+03  0.79905422195E+03  0.50400001928E-02 0.  1.
    10030    2    1    2    0    0  0.00000000000E+00  0.00000000000E+00  0.18852060139E+03  0.17866290453E+04  0.17766550955E+04 0.  0.
        3    1    3    3  502    0  0.59333449730E+03  0.23581385696E+03  0.71536168263E+03  0.95885157767E+03  0.10100000352E+00 0. -1.
       -3    1    3    3    0  502 -0.59333449730E+03 -0.23581385696E+03 -0.52684108124E+03  0.82777746762E+03  0.10100000352E+00 0.  1.
</event>
<event>
 5   0  0.1423692E-05  0.3106890E+04  0.7818609E-02  0.8213849E-01
        2   -1    0    0  501    0  0.00000000000E+00  0.00000000000E+00  0.16142634782E+04  0.16142634782E+04  0.25500000920E-02 0. -1.
       -2   -1    0    0    0  501  0.00000000000E+00  0.00000000000E+00 -0.14949181081E+04  0.14949181081E+04  0.25500000920E-02 0.  1.
    10030    2    1    2    0    0  0.00000000000E+00  0.00000000000E+00  0.11934537007E+03  0.31091815863E+04  0.31068902168E+04 0.  0.
        3    1    3    3  502    0  0.77462287080E+03 -0.33978646485E+02  0.14067696670E+04  0.16062988659E+04  0.10100000352E+00 0. -1.
       -3    1    3    3    0  502 -0.77462287080E+03  0.33978646485E+02 -0.12874242970E+04  0.15028827203E+04  0.10100000352E+00 0.  1.
</event>
<event>
 5   0  0.1388724E-05  0.2968479E+04  0.7818609E-02  0.8252790E-01
        2   -1    0    0  501    0  0.00000000000E+00  0.00000000000E+00  0.18974443904E+04  0.18974443904E+04  0.25500000920E-02 0. -1.
       -2   -1    0    0    0  501  0.00000000000E+00  0.00000000000E+00 -0.11610178645E+04  0.11610178645E+04  0.25500000920E-02 0.  1.
    10030    2    1    2    0    0  0.00000000000E+00  0.00000000000E+00  0.73642652584E+03  0.30584622549E+04  0.29684789601E+04 0.  0.
        4    1    3    3  502    0 -0.12204740869E+04  0.62669211206E+03 -0.21522523164E+03  0.13887489022E+04  0.12699999809E+01 0.  1.
       -4    1    3    3    0  502  0.12204740869E+04 -0.62669211206E+03  0.95165175748E+03  0.16697133528E+04  0.12699999809E+01 0. -1.
</event>
<event>
 5   0  0.5329891E-06  0.1706429E+04  0.7818609E-02  0.8757706E-01
       -1   -1    0    0    0  501  0.00000000000E+00  0.00000000000E+00  0.55462457951E+03  0.55462457954E+03  0.50400001928E-02 0.  1.
        1   -1    0    0  501    0  0.00000000000E+00  0.00000000000E+00 -0.13125537645E+04  0.13125537645E+04  0.50400001928E-02 0. -1.
    10030    2    1    2    0    0  0.00000000000E+00  0.00000000000E+00 -0.75792918496E+03  0.18671783440E+04  0.17064285273E+04 0.  0.
        4    1    3    3  502    0 -0.39765708152E+03  0.52540692589E+03  0.21411877007E+03  0.69284345480E+03  0.12699999809E+01 0.  1.
       -4    1    3    3    0  502  0.39765708152E+03 -0.52540692589E+03 -0.97204795503E+03  0.11743348892E+04  0.12699999809E+01 0. -1.
</event>
<event>
 5   0  0.1044754E-05  0.1517173E+04  0.7818609E-02  0.8873113E-01
        1   -1    0    0  501    0  0.00000000000E+00  0.00000000000E+00  0.86043295730E+03  0.86043295732E+03  0.50400001928E-02 0. -1.
       -1   -1    0    0    0  501  0.00000000000E+00  0.00000000000E+00 -0.66879505916E+03  0.66879505918E+03  0.50400001928E-02 0.  1.
    10030    2    1    2    0    0  0.00000000000E+00  0.00000000000E+00  0.19163789814E+03  0.15292280165E+04  0.15171727794E+04 0.  0.
        5    1    3    3  502    0  0.63155585787E+03 -0.24908860899E+03  0.43692081895E+03  0.80735978892E+03  0.46999998093E+01 0. -1.
       -5    1    3    3    0  502 -0.63155585787E+03  0.24908860899E+03 -0.24528292081E+03  0.72186822757E+03  0.46999998093E+01 0.  1.
</event>
<event>
 5   0  0.1423692E-05  0.2998751E+04  0.7818609E-02  0.8244088E-01
       -2   -1    0    0    0  501  0.00000000000E+00  0.00000000000E+00  0.13094658583E+04  0.13094658583E+04  0.25500000920E-02 0.  1.
        2   -1    0    0  501    0  0.00000000000E+00  0.00000000000E+00 -0.17168269269E+04  0.17168269269E+04  0.25500000920E-02 0. -1.
    10030    2    1    2    0    0  0.00000000000E+00  0.00000000000E+00 -0.40736106856E+03  0.30262927852E+04  0.29987505701E+04 0.  0.
        3    1    3    3  502    0  0.79703885143E+03 -0.12489363220E+04  0.28680498280E+02  0.14818689038E+04  0.10100000352E+00 0.  1.
       -3    1    3    3    0  502 -0.79703885143E+03  0.12489363220E+04 -0.43604156685E+03  0.15444238813E+04  0.10100000352E+00 0. -1.
</event>
<event>
 5   0  0.5329891E-06  0.3110232E+04  0.7818609E-02  0.8212935E-01
       -1   -1    0    0    0  501  0.00000000000E+00  0.00000000000E+00  0.14510251497E+04  0.14510251497E+04  0.50400001928E-02 0.  1.
        1   -1    0    0  501    0  0.00000000000E+00  0.00000000000E+00 -0.16666741204E+04  0.16666741204E+04  0.50400001928E-02 0. -1.
    10030    2    1    2    0    0  0.00000000000E+00  0.00000000000E+00 -0.21564897071E+03  0.31176992701E+04  0.31102321875E+04 0.  0.
        4    1    3    3  502    0  0.14050028818E+04  0.22306171297E+03  0.52185146057E+03  0.15152954119E+04  0.12699999809E+01 0.  1.
       -4    1    3    3    0  502 -0.14050028818E+04 -0.22306171297E+03 -0.73750043127E+03  0.16024038582E+04  0.12699999809E+01 0. -1.
</event>
<event>
 5   0  0.1423692E-05  0.3028285E+04  0.7818609E-02  0.8235700E-01
       -2   -1    0    0    0  501  0.00000000000E+00  0.00000000000E+00  0.99948895097E+03  0.99948895097E+03  0.25500000920E-02 0. -1.
        2   -1    0    0  501    0  0.00000000000E+00  0.00000000000E+00 -0.22938001574E+04  0.22938001574E+04  0.25500000920E-02 0.  1.
    10030    2    1    2    0    0  0.00000000000E+00  0.00000000000E+00 -0.12943112064E+04  0.32932891084E+04  0.30282852660E+04 0.  0.
        3    1    3    3  502    0 -0.14151734446E+04  0.32658568691E+03 -0.18161283457E+03  0.14636793778E+04  0.10100000352E+00 0. -1.
       -3    1    3    3    0  502  0.14151734446E+04 -0.32658568691E+03 -0.11126983718E+04  0.18296097305E+04  0.10100000352E+00 0.  1.
</event>
<event>
 5   0  0.4806125E-06  0.2421761E+04  0.7818609E-02  0.8431401E-01
       -3   -1    0    0    0  501  0.00000000000E+00  0.00000000000E+00  0.24182236411E+04  0.24182236432E+04  0.10100000352E+00 0. -1.
        3   -1    0    0  501    0  0.00000000000E+00  0.00000000000E+00 -0.60632601257E+03  0.60632602098E+03  0.10100000352E+00 0.  1.
    10030    2    1    2    0    0  0.00000000000E+00  0.00000000000E+00  0.18118976286E+04  0.30245496642E+04  0.24217612712E+04 0.  0.
        1    1    3    3  502    0  0.45624451375E+03  0.10374201651E+04  0.37339333550E+03  0.11932402266E+04  0.50400001928E-02 0.  1.
       -1    1    3    3    0  502 -0.45624451375E+03 -0.10374201651E+04  0.14385042931E+04  0.18313094377E+04  0.50400001928E-02 0. -1.
</event>
<event>
 5   0  0.5392262E-06  0.3161330E+04  0.7818609E-02  0.8199105E-01
        1   -1    0    0  501    0  0.00000000000E+00  0.00000000000E+00  0.20162890304E+04  0.20162890304E+04  0.50400001928E-02 0.  1.
       -1   -1    0    0    0  501  0.00000000000E+00  0.00000000000E+00 -0.12391588950E+04  0.12391588950E+04  0.50400001928E-02 0. -1.
    10030    2    1    2    0    0  0.00000000000E+00  0.00000000000E+00  0.77713013543E+03  0.32554479254E+04  0.31613304078E+04 0.  0.
        2    1    3    3  502    0 -0.10251136576E+03  0.92912464247E+03  0.17011587264E+04  0.19410621303E+04  0.25500000920E-02 0.  1.
       -2    1    3    3    0  502  0.10251136576E+03 -0.92912464247E+03 -0.92402859094E+03  0.13143857951E+04  0.25500000920E-02 0. -1.
</event>
<event>
 5   0  0.1523029E-05  0.3052425E+04  0.7818609E-02  0.8228917E-01
       -2   -1    0    0    0  501  0.00000000000E+00  0.00000000000E+00  0.10061762573E+04  0.10061762573E+04  0.25500000920E-02 0. -1.
        2   -1    0    0  501    0  0.00000000000E+00  0.00000000000E+00 -0.23150270622E+04  0.23150270622E+04  0.25500000920E-02 0.  1.
    10030    2    1    2    0    0  0.00000000000E+00  0.00000000000E+00 -0.13088508049E+04  0.33212033195E+04  0.30524254388E+04 0.  0.
        5    1    3    3  502    0 -0.23411386134E+03  0.12781400055E+04 -0.15254476973E+04  0.20038622560E+04  0.46999998093E+01 0.  1.
       -5    1    3    3    0  502  0.23411386134E+03 -0.12781400055E+04  0.21659689236E+03  0.13173410635E+04  0.46999998093E+01 0. -1.
</event>
<event>
 5   0  0.5730920E-06  0.1991617E+04  0.7818609E-02  0.8610550E-01
        1   -1    0    0  501    0  0.00000000000E+00  0.00000000000E+00  0.14056441285E+04  0.14056441285E+04  0.50400001928E-02 0.  1.
       -1   -1    0    0    0  501  0.00000000000E+00  0.00000000000E+00 -0.70546632976E+03  0.70546632978E+03  0.50400001928E-02 0. -1.
    10030    2    1    2    0    0  0.00000000000E+00  0.00000000000E+00  0.70017779875E+03  0.21111104583E+04  0.19916170358E+04 0.  0.
        1    1    3    3  502    0  0.92927755665E+03  0.13794999480E+03  0.52480333359E-01  0.93946100565E+03  0.50400001928E-02 0. -1.
       -1    1    3    3    0  502 -0.92927755665E+03 -0.13794999480E+03  0.70012531841E+03  0.11716494526E+04  0.50400001928E-02 0.  1.
</event>
<event>
 5   0  0.5730920E-06  0.3007930E+04  0.7818609E-02  0.8241470E-01
       -1   -1    0    0    0  501  0.00000000000E+00  0.00000000000E+00  0.15193504761E+04  0.15193504761E+04  0.50400001928E-02 0.  1.
        1   -1    0    0  501    0  0.00000000000E+00  0.00000000000E+00 -0.14887357608E+04  0.14887357608E+04  0.50400001928E-02 0. -1.
    10030    2    1    2    0    0  0.00000000000E+00  0.00000000000E+00  0.30614715324E+02  0.30080862369E+04  0.30079304426E+04 0.  0.
        1    1    3    3  502    0 -0.10579898914E+04  0.42302733692E+03 -0.96638326138E+03  0.14940519890E+04  0.50400001928E-02 0. -1.
       -1    1    3    3    0  502  0.10579898914E+04 -0.42302733692E+03  0.99699797671E+03  0.15140342478E+04  0.50400001928E-02 0.  1.
</event>
<event>
 5   0  0.1423692E-05  0.2916615E+04  0.7818609E-02  0.8267951E-01
        2   -1    0    0  501    0  0.00000000000E+00  0.00000000000E+00  0.28477632610E+04  0.28477632610E+04  0.25500000920E-02 0. -1.
       -2   -1    0    0    0  501  0.00000000000E+00  0.00000000000E+00 -0.74678291086E+03  0.74678291086E+03  0.25500000920E-02 0.  1.
    10030    2    1    2    0    0  0.00000000000E+00  0.00000000000E+00  0.21009803501E+04  0.35945461719E+04  0.29166151186E+04 0.  0.
        3    1    3    3  502    0  0.28724004299E+03 -0.11962390382E+03 -0.70539574777E+03  0.77097334054E+03  0.10100000352E+00 0.  1.
       -3    1    3    3    0  502 -0.28724004299E+03  0.11962390382E+03  0.28063760979E+04  0.28235728313E+04  0.10100000352E+00 0. -1.
</event>
<event>
 5   0  0.5329891E-06  0.3041237E+04  0.7818609E-02  0.8232053E-01
        1   -1    0    0  501    0  0.00000000000E+00  0.00000000000E+00  0.22681833698E+04  0.22681833698E+04  0.50400001928E-02 0. -1.
       -1   -1    0    0    0  501  0.00000000000E+00  0.00000000000E+00 -0.10194414184E+04  0.10194414184E+04  0.50400001928E-02 0.  1.
    10030    2    1    2    0    0  0.00000000000E+00  0.00000000000E+00  0.12487419513E+04  0.32876247882E+04  0.30412366378E+04 0.  0.
        4    1    3    3  502    0  0.10361214530E+04 -0.10042320346E+04  0.11430882766E+04  0.18408373274E+04  0.12699999809E+01 0. -1.
       -4    1    3    3    0  502 -0.10361214530E+04  0.10042320346E+04  0.10565367471E+03  0.14467874608E+04  0.12699999809E+01 0.  1.
</event>
<event>
 5   0  0.5730920E-06  0.2156384E+04  0.7818609E-02  0.8536805E-01
       -1   -1    0    0    0  501  0.00000000000E+00  0.00000000000E+00  0.51586067349E+03  0.51586067351E+03  0.50400001928E-02 0. -1.
        1   -1    0    0  501    0  0.00000000000E+00  0.00000000000E+00 -0.22535114940E+04  0.22535114940E+04  0.50400001928E-02 0.  1.
    10030    2    1    2    0    0  0.00000000000E+00  0.00000000000E+00 -0.17376508205E+04  0.27693721675E+04  0.21563839705E+04 0.  0.
        1    1    3    3  502    0 -0.43253910943E+03 -0.98432540102E+03 -0.97245690755E+03  0.14497099756E+04  0.50400001928E-02 0. -1.
       -1    1    3    3    0  502  0.43253910943E+03  0.98432540102E+03 -0.76519391292E+03  0.13196621919E+04  0.50400001928E-02 0.  1.
</event>
<event>
 5   0  0.1523029E-05  0.3116114E+04  0.7818609E-02  0.8211329E-01
       -2   -1    0    0    0  501  0.00000000000E+00  0.00000000000E+00  0.11631782618E+04  0.11631782618E+04  0.25500000920E-02 0.  1.
        2   -1    0    0  501    0  0.00000000000E+00  0.00000000000E+00 -0.20869905750E+04  0.20869905750E+04  0.25500000920E-02 0. -1.
    10030    2    1    2    0    0  0.00000000000E+00  0.00000000000E+00 -0.92381231322E+03  0.32501688369E+04  0.31161142916E+04 0.  0.
        5    1    3    3  502    0 -0.30148114507E+03 -0.15233128720E+04 -0.59444353274E+03  0.16627562029E+04  0.46999998093E+01 0.  1.
       -5    1    3    3    0  502  0.30148114507E+03  0.15233128720E+04 -0.32936878049E+03  0.15874126339E+04  0.46999998093E+01 0. -1.
</event>
<event>
 5   0  0.7032692E-06  0.3028184E+04  0.7818609E-02  0.8235728E-01
       -1   -1    0    0    0  501  0.00000000000E+00  0.00000000000E+00  0.13806791999E+04  0.13806791999E+04  0.50400001928E-02 0. -1.
        1   -1    0    0  501    0  0.00000000000E+00  0.00000000000E+00 -0.16603962101E+04  0.16603962101E+04  0.50400001928E-02 0.  1.
    10030    2    1    2    0    0  0.00000000000E+00  0.00000000000E+00 -0.27971701017E+03  0.30410754100E+04  0.30281839514E+04 0.  0.
        5    1    3    3  502    0  0.64352020086E+03 -0.13652196588E+04 -0.26082650132E+03  0.15316642973E+04  0.46999998093E+01 0. -1.
       -5    1    3    3    0  502 -0.64352020086E+03  0.13652196588E+04 -0.18890508845E+02  0.15094111127E+04  0.46999998093E+01 0.  1.
</event>
<event>
 5   0  0.1423692E-05  0.3131982E+04  0.7818609E-02  0.8207015E-01
        2   -1    0    0  501    0  0.00000000000E+00  0.00000000000E+00  0.32975751044E+04  0.32975751044E+04  0.25500000920E-02 0.  1.
       -2   -1    0    0    0  501  0.00000000000E+00  0.00000000000E+00 -0.74367619616E+03  0.74367619616E+03  0.25500000920E-02 0. -1.
    10030    2    1    2    0    0  0.00000000000E+00  0.00000000000E+00  0.25538989082E+04  0.40412513006E+04  0.31319821904E+04 0.  0.
        3    1    3    3  502    0 -0.10151746924E+04  0.11724483649E+04  0.15570205062E+04  0.21976186410E+04  0.10100000352E+00 0.  1.
       -3    1    3    3    0  502  0.10151746924E+04 -0.11724483649E+04  0.99687840206E+03  0.18436326595E+04  0.10100000352E+00 0. -1.
</event>
<event>
 5   0  0.5392262E-06  0.3033192E+04  0.7818609E-02  0.8234316E-01
       -1   -1    0    0    0  501  0.00000000000E+00  0.00000000000E+00  0.30558600837E+04  0.30558600837E+04  0.50400001928E-02 0. -1.
        1   -1    0    0  501    0  0.00000000000E+00  0.00000000000E+00 -0.75267280048E+03  0.75267280049E+03  0.50400001928E-02 0.  1.
    10030    2    1    2    0    0  0.00000000000E+00  0.00000000000E+00  0.23031872832E+04  0.38085328842E+04  0.30331915647E+04 0.  0.
        2    1    3    3  502    0 -0.13933308287E+04 -0.10048540415E+03  0.41025228146E+03  0.14559447274E+04  0.25500000920E-02 0. -1.
       -2    1    3    3    0  502  0.13933308287E+04  0.10048540415E+03  0.18929350017E+04  0.23525881568E+04  0.25500000920E-02 0.  1.
</event>
<event>
 5   0  0.5329891E-06  0.2443969E+04  0.7818609E-02  0.8423223E-01
        1   -1    0    0  501    0  0.00000000000E+00  0.00000000000E+00  0.99166707630E+03  0.99166707631E+03  0.50400001928E-02 0.  1.
       -1   -1    0    0    0  501  0.00000000000E+00  0.00000000000E+00 -0.15057935802E+04  0.15057935802E+04  0.50400001928E-02 0. -1.
    10030    2    1    2    0    0  0.00000000000E+00  0.00000000000E+00 -0.51412650394E+03  0.24974606566E+04  0.24439688355E+04 0.  0.
        4    1    3    3  502    0 -0.45008003703E+03 -0.20073448855E+03  0.88561415708E+03  0.10134990985E+04  0.12699999809E+01 0.  1.
       -4    1    3    3    0  502  0.45008003703E+03  0.20073448855E+03 -0.13997406610E+04  0.14839615580E+04  0.12699999809E+01 0. -1.
</event>
<event>
 5   0  0.5730920E-06  0.2939642E+04  0.7818609E-02  0.8261180E-01
        1   -1    0    0  501    0  0.00000000000E+00  0.00000000000E+00  0.27044126896E+04  0.27044126896E+04  0.50400001928E-02 0. -1.
       -1   -1    0    0    0  501  0.00000000000E+00  0.00000000000E+00 -0.79883292271E+03  0.79883292273E+03  0.50400001928E-02 0.  1.
    10030    2    1    2    0    0  0.00000000000E+00  0.00000000000E+00  0.19055797669E+04  0.35032456123E+04  0.29396420824E+04 0.  0.
        1    1    3    3  502    0 -0.93692026581E+03  0.87294372653E+03  0.18125876766E+04  0.22193071936E+04  0.50400001928E-02 0. -1.
       -1    1    3    3    0  502  0.93692026581E+03 -0.87294372653E+03  0.92992090258E+02  0.12839384187E+04  0.50400001928E-02 0.  1.
</event>
<event>
 5   0  0.5329891E-06  0.3032797E+04  0.7818609E-02  0.8234427E-01
        1   -1    0    0  501    0  0.00000000000E+00  0.00000000000E+00  0.10708039570E+04  0.10708039570E+04  0.50400001928E-02 0. -1.
       -1   -1    0    0    0  501  0.00000000000E+00  0.00000000000E+00 -0.21474191591E+04  0.21474191591E+04  0.50400001928E-02 0.  1.
    10030    2    1    2    0    0  0.00000000000E+00  0.00000000000E+00 -0.10766152021E+04  0.32182231161E+04  0.30327973443E+04 0.  0.
        4    1    3    3  502    0 -0.11270209799E+03 -0.35124864160E+03 -0.20990806645E+04  0.21312481367E+04  0.12699999809E+01 0.  1.
       -4    1    3    3    0  502  0.11270209799E+03  0.35124864160E+03  0.10224654624E+04  0.10869749794E+04  0.12699999809E+01 0. -1.
</event>
<event>
 5   0  0.1345931E-05  0.2367535E+04  0.7818609E-02  0.8451759E-01
        2   -1    0    0  501    0  0.00000000000E+00  0.00000000000E+00  0.10689826141E+04  0.10689826141E+04  0.25500000920E-02 0.  1.
       -2   -1    0    0    0  501  0.00000000000E+00  0.00000000000E+00 -0.13108775397E+04  0.13108775397E+04  0.25500000920E-02 0. -1.
    10030    2    1    2    0    0  0.00000000000E+00  0.00000000000E+00 -0.24189492557E+03  0.23798601538E+04  0.23675348353E+04 0.  0.
        2    1    3    3  502    0 -0.20269228226E+03  0.41298451168E+03  0.97544840386E+03  0.10784896647E+04  0.25500000920E-02 0.  1.
       -2    1    3    3    0  502  0.20269228226E+03 -0.41298451168E+03 -0.12173433294E+04  0.13013704891E+04  0.25500000920E-02 0. -1.
</event>
<event>
 5   0  0.1480547E-05  0.2495523E+04  0.7818609E-02  0.8404582E-01
       -2   -1    0    0    0  501  0.00000000000E+00  0.00000000000E+00  0.70586987676E+03  0.70586987676E+03  0.25500000920E-02 0.  1.
        2   -1    0    0  501    0  0.00000000000E+00  0.00000000000E+00 -0.22056589559E+04  0.22056589559E+04  0.25500000920E-02 0. -1.
    10030    2    1    2    0    0  0.00000000000E+00  0.00000000000E+00 -0.14997890791E+04  0.29115288326E+04  0.24955225628E+04 0.  0.
        1    1    3    3  502    0 -0.99404173999E+03  0.72192822781E+03 -0.49532670757E+03  0.13246312295E+04  0.50400001928E-02 0.  1.
       -1    1    3    3    0  502  0.99404173999E+03 -0.72192822781E+03 -0.10044623716E+04  0.15868976031E+04  0.50400001928E-02 0. -1.
</event>
<event>
 5   0  0.1423692E-05  0.3166597E+04  0.7818609E-02  0.8197695E-01
       -2   -1    0    0    0  501  0.00000000000E+00  0.00000000000E+00  0.16357934260E+04  0.16357934260E+04  0.25500000920E-02 0. -1.
        2   -1    0    0  501    0  0.00000000000E+00  0.00000000000E+00 -0.15324885292E+04  0.15324885292E+04  0.25500000920E-02 0.  1.
    10030    2    1    2    0    0  0.00000000000E+00  0.00000000000E+00  0.10330489680E+03  0.31682819551E+04  0.31665973292E+04 0.  0.
        3    1    3    3  502    0 -0.11593496003E+04 -0.31485077488E+03  0.10835168420E+04  0.16177859139E+04  0.10100000352E+00 0. -1.
       -3    1    3    3    0  502  0.11593496003E+04  0.31485077488E+03 -0.98021194520E+03  0.15504960412E+04  0.10100000352E+00 0.  1.
</event>
<event>
 5   0  0.1480547E-05  0.1654352E+04  0.7818609E-02  0.8787836E-01
       -2   -1    0    0    0  501  0.00000000000E+00  0.00000000000E+00  0.36399675564E+03  0.36399675565E+03  0.25500000920E-02 0.  1.
        2   -1    0    0  501    0  0.00000000000E+00  0.00000000000E+00 -0.18797428736E+04  0.18797428736E+04  0.25500000920E-02 0. -1.
    10030    2    1    2    0    0  0.00000000000E+00  0.00000000000E+00 -0.15157461179E+04  0.22437396292E+04  0.16543522085E+04 0.  0.
        1    1    3    3  502    0  0.58328854976E+02  0.24404324351E+03  0.31113630726E+03  0.39970634440E+03  0.50400001928E-02 0.  1.
       -1    1    3    3    0  502 -0.58328854976E+02 -0.24404324351E+03 -0.18268824252E+04  0.18440332848E+04  0.50400001928E-02 0. -1.
</event>
<event>
 5   0  0.1388724E-05  0.3000892E+04  0.7818609E-02  0.8243476E-01
       -2   -1    0    0    0  501  0.00000000000E+00  0.00000000000E+00  0.15889861503E+04  0.15889861503E+04  0.25500000920E-02 0. -1.
        2   -1    0    0  501    0  0.00000000000E+00  0.00000000000E+00 -0.14168394784E+04  0.14168394784E+04  0.25500000920E-02 0.  1.
    10030    2    1    2    0    0  0.00000000000E+00  0.00000000000E+00  0.17214667198E+03  0.30058256287E+04  0.30008920730E+04 0.  0.
        4    1    3    3  502    0  0.15519355177E+03  0.14739836240E+04 -0.14802853796E+03  0.14895055634E+04  0.12699999809E+01 0.  1.
       -4    1    3    3    0  502 -0.15519355177E+03 -0.14739836240E+04  0.32017520994E+03  0.15163200653E+04  0.12699999809E+01 0. -1.
</event>
<event>
 5   0  0.5522695E-06  0.2791644E+04  0.7818609E-02  0.8305867E-01
        1   -1    0    0  501    0  0.00000000000E+00  0.00000000000E+00  0.11730124872E+04  0.11730124872E+04  0.50400001928E-02 0.  1.
       -1   -1    0    0    0  501  0.00000000000E+00  0.00000000000E+00 -0.16609536384E+04  0.16609536384E+04  0.50400001928E-02 0. -1.
    10030    2    1    2    0    0  0.00000000000E+00  0.00000000000E+00 -0.48794115124E+03  0.28339661256E+04  0.27916442170E+04 0.  0.
        3    1    3    3  502    0 -0.24239922371E+03 -0.93588252333E+03 -0.12660538516E+04  0.15929613449E+04  0.10100000352E+00 0. -1.
       -3    1    3    3    0  502  0.24239922371E+03  0.93588252333E+03  0.77811270035E+03  0.12410047807E+04  0.10100000352E+00 0.  1.
</event>
<event>
 5   0  0.5730920E-06  0.2927028E+04  0.7818609E-02  0.8264881E-01
        1   -1    0    0  501    0  0.00000000000E+00  0.00000000000E+00  0.17988891652E+04  0.17988891652E+04  0.50400001928E-02 0.  1.
       -1   -1    0    0    0  501  0.00000000000E+00  0.00000000000E+00 -0.11906640143E+04  0.11906640143E+04  0.50400001928E-02 0. -1.
    10030    2    1    2    0    0  0.00000000000E+00  0.00000000000E+00  0.60822515095E+03  0.29895531795E+04  0.29270275671E+04 0.  0.
        1    1    3    3  502    0 -0.12186227672E+04 -0.65228730290E+03 -0.18715318265E+03  0.13948284798E+04  0.50400001928E-02 0. -1.
       -1    1    3    3    0  502  0.12186227672E+04  0.65228730290E+03  0.79537833360E+03  0.15947246997E+04  0.50400001928E-02 0.  1.
</event>
<event>
 5   0  0.4806125E-06  0.2898348E+04  0.7818609E-02  0.8273369E-01
       -3   -1    0    0    0  501  0.00000000000E+00  0.00000000000E+00  0.15098066386E+04  0.15098066420E+04  0.10100000352E+00 0.  1.
        3   -1    0    0  501    0  0.00000000000E+00  0.00000000000E+00 -0.13909764877E+04  0.13909764914E+04  0.10100000352E+00 0. -1.
    10030    2    1    2    0    0  0.00000000000E+00  0.00000000000E+00  0.11883015089E+03  0.29007831333E+04  0.28983481816E+04 0.  0.
        5    1    3    3  502    0 -0.11997336017E+03 -0.10554624514E+04  0.10459860118E+04  0.14908062988E+04  0.46999998093E+01 0.  1.
       -5    1    3    3    0  502  0.11997336017E+03  0.10554624514E+04 -0.92715586094E+03  0.14099768346E+04  0.46999998093E+01 0. -1.
</event>
<event>
 5   0  0.5730920E-06  0.2980419E+04  0.7818609E-02  0.8249345E-01
        1   -1    0    0  501    0  0.00000000000E+00  0.00000000000E+00  0.13640411098E+04  0.13640411098E+04  0.50400001928E-02 0.  1.
       -1   -1    0    0    0  501  0.00000000000E+00  0.00000000000E+00 -0.16280474992E+04  0.16280474992E+04  0.50400001928E-02 0. -1.
    10030    2    1    2    0    0  0.00000000000E+00  0.00000000000E+00 -0.26400638944E+03  0.29920886090E+04  0.29804185731E+04 0.  0.
        1    1    3    3  502    0 -0.10980242808E+03  0.49512231452E+03  0.12747404736E+04  0.13719205351E+04  0.50400001928E-02 0.  1.
       -1    1    3    3    0  502  0.10980242808E+03 -0.49512231452E+03 -0.15387468630E+04  0.16201680740E+04  0.50400001928E-02 0. -1.
</event>
<event>
 5   0  0.5329891E-06  0.2933245E+04  0.7818609E-02  0.8263054E-01
        1   -1    0    0  501    0  0.00000000000E+00  0.00000000000E+00  0.13484636951E+04  0.13484636951E+04  0.50400001928E-02 0. -1.
       -1   -1    0    0    0  501  0.00000000000E+00  0.00000000000E+00 -0.15951344938E+04  0.15951344938E+04  0.50400001928E-02 0.  1.
    10030    2    1    2    0    0  0.00000000000E+00  0.00000000000E+00 -0.24667079870E+03  0.29435981889E+04  0.29332445883E+04 0.  0.
        4    1    3    3  502    0 -0.11003259923E+04  0.95661089811E+03 -0.28250686262E+03  0.14851375155E+04  0.12699999809E+01 0.  1.
       -4    1    3    3    0  502  0.11003259923E+04 -0.95661089811E+03  0.35836063923E+02  0.14584606734E+04  0.12699999809E+01 0. -1.
</event>
<event>
 5   0  0.5522695E-06  0.2893571E+04  0.7818609E-02  0.8274793E-01
        1   -1    0    0  501    0  0.00000000000E+00  0.00000000000E+00  0.25289755730E+04  0.25289755730E+04  0.50400001928E-02 0.  1.
       -1   -1    0    0    0  501  0.00000000000E+00  0.00000000000E+00 -0.82768208944E+03  0.82768208945E+03  0.50400001928E-02 0. -1.
    10030    2    1    2    0    0  0.00000000000E+00  0.00000000000E+00  0.17012934836E+04  0.33566576625E+04  0.28935706568E+04 0.  0.
        3    1    3    3  502    0  0.92266809301E+03  0.24256329552E+03 -0.41109842067E+03  0.10388239908E+04  0.10100000352E+00 0. -1.
       -3    1    3    3    0  502 -0.92266809301E+03 -0.24256329552E+03  0.21123919042E+04  0.23178336717E+04  0.10100000352E+00 0.  1.
</event>
<event>
 5   0  0.1388724E-05  0.3080312E+04  0.7818609E-02  0.8221162E-01
        2   -1    0    0  501    0  0.00000000000E+00  0.00000000000E+00  0.14812172637E+04  0.14812172637E+04  0.25500000920E-02 0.  1.
       -2   -1    0    0    0  501  0.00000000000E+00  0.00000000000E+00 -0.16014400503E+04  0.16014400503E+04  0.25500000920E-02 0. -1.
    10030    2    1    2    0    0  0.00000000000E+00  0.00000000000E+00 -0.12022278658E+03  0.30826573140E+04  0.30803120941E+04 0.  0.
        4    1    3    3  502    0  0.16317399941E+03 -0.91022491519E+03  0.11724690867E+04  0.14932583576E+04  0.12699999809E+01 0.  1.
       -4    1    3    3    0  502 -0.16317399941E+03  0.91022491519E+03 -0.12926918733E+04  0.15893989564E+04  0.12699999809E+01 0. -1.
</event>
<event>
 5   0  0.5392262E-06  0.3020697E+04  0.7818609E-02  0.8237845E-01
        1   -1    0    0  501    0  0.00000000000E+00  0.00000000000E+00  0.12313010265E+04  0.12313010265E+04  0.50400001928E-02 0. -1.
       -1   -1    0    0    0  501  0.00000000000E+00  0.00000000000E+00 -0.18526359015E+04  0.18526359015E+04  0.50400001928E-02 0.  1.
    10030    2    1    2    0    0  0.00000000000E+00  0.00000000000E+00 -0.62133487504E+03  0.30839369281E+04  0.30206969311E+04 0.  0.
        2    1    3    3  502    0 -0.88178537025E+03  0.11116896368E+04  0.21761438532E+03  0.14355331095E+04  0.25500000920E-02 0. -1.
       -2    1    3    3    0  502  0.88178537025E+03 -0.11116896368E+04 -0.83894926036E+03  0.16484038186E+04  0.25500000920E-02 0.  1.
</event>
<event>
 5   0  0.5522695E-06  0.3006149E+04  0.7818609E-02  0.8241977E-01
        1   -1    0    0  501    0  0.00000000000E+00  0.00000000000E+00  0.13382580014E+04  0.13382580014E+04  0.50400001928E-02 0. -1.
       -1   -1    0    0    0  501  0.00000000000E+00  0.00000000000E+00 -0.16881895552E+04  0.16881895552E+04  0.50400001928E-02 0.  1.
    10030    2    1    2    0    0  0.00000000000E+00  0.00000000000E+00 -0.34993155373E+03  0.30264475566E+04  0.30061491514E+04 0.  0.
        3    1    3    3  502    0  0.47017719068E+03 -0.20101256594E+03  0.12479996297E+04  0.13486940826E+04  0.10100000352E+00 0. -1.
       -3    1    3    3    0  502 -0.47017719068E+03  0.20101256594E+03 -0.15979311835E+04  0.16777534740E+04  0.10100000352E+00 0.  1.
</event>
<event>
 5   0  0.1523029E-05  0.3002553E+04  0.7818609E-02  0.8243002E-01
       -2   -1    0    0    0  501  0.00000000000E+00  0.00000000000E+00  0.12924296193E+04  0.12924296193E+04  0.25500000920E-02 0. -1.
        2   -1    0    0  501    0  0.00000000000E+00  0.00000000000E+00 -0.17438716087E+04  0.17438716087E+04  0.25500000920E-02 0.  1.
    10030    2    1    2    0    0  0.00000000000E+00  0.00000000000E+00 -0.45144198944E+03  0.30363012280E+04  0.30025531265E+04 0.  0.
        5    1    3    3  502    0 -0.19266830932E+03 -0.14284304750E+04 -0.65029063648E+03  0.15812762887E+04  0.46999998093E+01 0.  1.
       -5    1    3    3    0  502  0.19266830932E+03  0.14284304750E+04  0.19884864704E+03  0.14550249393E+04  0.46999998093E+01 0. -1.
</event>
<event>
 5   0  0.5392262E-06  0.2954733E+04  0.7818609E-02  0.8256776E-01
       -1   -1    0    0    0  501  0.00000000000E+00  0.00000000000E+00  0.12759984973E+04  0.12759984973E+04  0.50400001928E-02 0. -1.
        1   -1    0    0  501    0  0.00000000000E+00  0.00000000000E+00 -0.17105132947E+04  0.17105132947E+04  0.50400001928E-02 0.  1.
    10030    2    1    2    0    0  0.00000000000E+00  0.00000000000E+00 -0.43451479738E+03  0.29865117920E+04  0.29547334186E+04 0.  0.
        2    1    3    3  502    0  0.93790242422E+03 -0.50039214759E+03  0.81971974026E+03  0.13423835932E+04  0.25500000920E-02 0. -1.
       -2    1    3    3    0  502 -0.93790242422E+03  0.50039214759E+03 -0.12542345376E+04  0.16441281988E+04  0.25500000920E-02 0.  1.
</event>
<event>
 5   0  0.7032692E-06  0.3020923E+04  0.7818609E-02  0.8237781E-01
       -1   -1    0    0    0  501  0.00000000000E+00  0.00000000000E+00  0.12391152946E+04  0.12391152946E+04  0.50400001928E-02 0.  1.
        1   -1    0    0  501    0  0.00000000000E+00  0.00000000000E+00 -0.18412283526E+04  0.18412283526E+04  0.50400001928E-02 0. -1.
    10030    2    1    2    0    0  0.00000000000E+00  0.00000000000E+00 -0.60211305803E+03  0.30803436472E+04  0.30209231785E+04 0.  0.
        5    1    3    3  502    0 -0.19853709132E+03  0.14181112143E+04 -0.79115152039E+03  0.16359704188E+04  0.46999998093E+01 0. -1.
       -5    1    3    3    0  502  0.19853709132E+03 -0.14181112143E+04  0.18903846236E+03  0.14443732285E+04  0.46999998093E+01 0.  1.
</event>
<event>
 5   0  0.7032692E-06  0.2454667E+04  0.7818609E-02  0.8419316E-01
        1   -1    0    0  501    0  0.00000000000E+00  0.00000000000E+00  0.11329670355E+04  0.11329670356E+04  0.50400001928E-02 0. -1.
       -1   -1    0    0    0  501  0.00000000000E+00  0.00000000000E+00 -0.13295597842E+04  0.13295597842E+04  0.50400001928E-02 0.  1.
    10030    2    1    2    0    0  0.00000000000E+00  0.00000000000E+00 -0.19659274864E+03  0.24625268198E+04  0.24546669080E+04 0.  0.
        5    1    3    3  502    0  0.74431046176E+03 -0.34132385552E+02 -0.10766946992E+04  0.13093726164E+04  0.46999998093E+01 0.  1.
       -5    1    3    3    0  502 -0.74431046176E+03  0.34132385552E+02  0.88010195060E+03  0.11531542033E+04  0.46999998093E+01 0. -1.
</event>
<event>
 5   0  0.1345931E-05  0.2991686E+04  0.7818609E-02  0.8246109E-01
        2   -1    0    0  501    0  0.00000000000E+00  0.00000000000E+00  0.16404700868E+04  0.16404700868E+04  0.25500000920E-02 0. -1.
       -2   -1    0    0    0  501  0.00000000000E+00  0.00000000000E+00 -0.13639664706E+04  0.13639664706E+04  0.25500000920E-02 0.  1.
    10030    2    1    2    0    0  0.00000000000E+00  0.00000000000E+00  0.27650361620E+03  0.30044365575E+04  0.29916859424E+04 0.  0.
        2    1    3    3  502    0  0.93695157638E+03 -0.47409754714E+03  0.12081088030E+04  0.16006791123E+04  0.25500000920E-02 0. -1.
       -2    1    3    3    0  502 -0.93695157638E+03  0.47409754714E+03 -0.93160518683E+03  0.14037574451E+04  0.25500000920E-02 0.  1.
</event>
<event>
 5   0  0.1345931E-05  0.2904772E+04  0.7818609E-02  0.8271459E-01
        2   -1    0    0  501    0  0.00000000000E+00  0.00000000000E+00  0.17877029850E+04  0.17877029850E+04  0.25500000920E-02 0.  1.
       -2   -1    0    0    0  501  0.00000000000E+00  0.00000000000E+00 -0.11799641999E+04  0.11799641999E+04  0.25500000920E-02 0. -1.
    10030    2    1    2    0    0  0.00000000000E+00  0.00000000000E+00  0.60773878514E+03  0.29676671849E+04  0.29047722956E+04 0.  0.
        2    1    3    3  502    0  0.58217641444E+03 -0.93192732864E+02 -0.10522027400E+04  0.12061280483E+04  0.25500000920E-02 0. -1.
       -2    1    3    3    0  502 -0.58217641444E+03  0.93192732864E+02  0.16599415251E+04  0.17615391366E+04  0.25500000920E-02 0.  1.
</event>
<event>
 5   0  0.1423692E-05  0.2892183E+04  0.7818609E-02  0.8275207E-01
       -2   -1    0    0    0  501  0.00000000000E+00  0.00000000000E+00  0.76755732960E+03  0.76755732961E+03  0.25500000920E-02 0. -1.
        2   -1    0    0  501    0  0.00000000000E+00  0.00000000000E+00 -0.27244626932E+04  0.27244626932E+04  0.25500000920E-02 0.  1.
    10030    2    1    2    0    0  0.00000000000E+00  0.00000000000E+00 -0.19569053636E+04  0.34920200228E+04  0.28921834723E+04 0.  0.
        3    1    3    3  502    0  0.10833305158E+04  0.71411146482E+03 -0.20758610108E+03  0.13140213812E+04  0.10100000352E+00 0. -1.
       -3    1    3    3    0  502 -0.10833305158E+04 -0.71411146482E+03 -0.17493192625E+04  0.21779986416E+04  0.10100000352E+00 0.  1.
</event>
<event>
 5   0  0.1388724E-05  0.3019835E+04  0.7818609E-02  0.8238089E-01
        2   -1    0    0  501    0  0.00000000000E+00  0.00000000000E+00  0.19490799996E+04  0.19490799996E+04  0.25500000920E-02 0. -1.
       -2   -1    0    0    0  501  0.00000000000E+00  0.00000000000E+00 -0.11697061661E+04  0.11697061661E+04  0.25500000920E-02 0.  1.
    10030    2    1    2    0    0  0.00000000000E+00  0.00000000000E+00  0.77937383349E+03  0.31187861658E+04  0.30198350246E+04 0.  0.
        4    1    3    3  502    0  0.91129648312E+03 -0.11969827370E+04  0.52283109392E+03  0.15926653505E+04  0.12699999809E+01 0. -1.
       -4    1    3    3    0  502 -0.91129648312E+03  0.11969827370E+04  0.25654273957E+03  0.15261208153E+04  0.12699999809E+01 0.  1.
</event>
<event>
 5   0  0.5730920E-06  0.2566663E+04  0.7818609E-02  0.8379614E-01
       -1   -1    0    0    0  501  0.00000000000E+00  0.00000000000E+00  0.35251510135E+04  0.35251510135E+04  0.50400001928E-02 0. -1.
        1   -1    0    0  501    0  0.00000000000E+00  0.00000000000E+00 -0.46719677571E+03  0.46719677574E+03  0.50400001928E-02 0.  1.
    10030    2    1    2    0    0  0.00000000000E+00  0.00000000000E+00  0.30579542378E+04  0.39923477893E+04  0.25666625703E+04 0.  0.
        1    1    3    3  502    0  0.32794393499E+03  0.77729779889E+03  0.30331988591E+04  0.31483383572E+04  0.50400001928E-02 0. -1.
       -1    1    3    3    0  502 -0.32794393499E+03 -0.77729779889E+03  0.24755378759E+02  0.84400943209E+03  0.50400001928E-02 0.  1.
</event>
<event>
 5   0  0.1388724E-05  0.2945649E+04  0.7818609E-02  0.8259424E-01
       -2   -1    0    0    0  501  0.00000000000E+00  0.00000000000E+00  0.12470661970E+04  0.12470661970E+04  0.25500000920E-02 0. -1.
        2   -1    0    0  501    0  0.00000000000E+00  0.00000000000E+00 -0.17394527272E+04  0.17394527272E+04  0.25500000920E-02 0.  1.
    10030    2    1    2    0    0  0.00000000000E+00  0.00000000000E+00 -0.49238653019E+03  0.29865189242E+04  0.29456494682E+04 0.  0.
        4    1    3    3  502    0 -0.26232088950E+03  0.13679308167E+04  0.23915950607E+03  0.14132394880E+04  0.12699999809E+01 0. -1.
       -4    1    3    3    0  502  0.26232088950E+03 -0.13679308167E+04 -0.73154603626E+03  0.15732794362E+04  0.12699999809E+01 0.  1.
</event>
<event>
 5   0  0.5329891E-06  0.3011382E+04  0.7818609E-02  0.8240488E-01
       -1   -1    0    0    0  501  0.00000000000E+00  0.00000000000E+00  0.15011061247E+04  0.15011061247E+04  0.50400001928E-02 0. -1.
        1   -1    0    0  501    0  0.00000000000E+00  0.00000000000E+00 -0.15102896825E+04  0.15102896825E+04  0.50400001928E-02 0.  1.
    10030    2    1    2    0    0  0.00000000000E+00  0.00000000000E+00 -0.91835577425E+01  0.30113958072E+04  0.30113818040E+04 0.  0.
        4    1    3    3  502    0  0.66762335844E+03  0.40877928354E+03 -0.12907867148E+04  0.15096202858E+04  0.12699999809E+01 0.  1.
       -4    1    3    3    0  502 -0.66762335844E+03 -0.40877928354E+03  0.12816031571E+04  0.15017755213E+04  0.12699999809E+01 0. -1.
</event>
<event>
 5   0  0.1388724E-05  0.3094377E+04  0.7818609E-02  0.8217283E-01
       -2   -1    0    0    0  501  0.00000000000E+00  0.00000000000E+00  0.12137131695E+04  0.12137131695E+04  0.25500000920E-02 0.  1.
        2   -1    0    0  501    0  0.00000000000E+00  0.00000000000E+00 -0.19722885970E+04  0.19722885970E+04  0.25500000920E-02 0. -1.
    10030    2    1    2    0    0  0.00000000000E+00  0.00000000000E+00 -0.75857542748E+03  0.31860017665E+04  0.30943772519E+04 0.  0.
        4    1    3    3  502    0  0.12130258811E+04  0.77280305791E+03 -0.96637732855E+03  0.17327847842E+04  0.12699999809E+01 0. -1.
       -4    1    3    3    0  502 -0.12130258811E+04 -0.77280305791E+03  0.20780190107E+03  0.14532169822E+04  0.12699999809E+01 0.  1.
</event>
<event>
 5   0  0.5522695E-06  0.2085802E+04  0.7818609E-02  0.8567524E-01
       -1   -1    0    0    0  501  0.00000000000E+00  0.00000000000E+00  0.72838454235E+03  0.72838454236E+03  0.50400001928E-02 0.  1.
        1   -1    0    0  501    0  0.00000000000E+00  0.00000000000E+00 -0.14932253212E+04  0.14932253212E+04  0.50400001928E-02 0. -1.
    10030    2    1    2    0    0  0.00000000000E+00  0.00000000000E+00 -0.76484077881E+03  0.22216098635E+04  0.20858017568E+04 0.  0.
        3    1    3    3  502    0 -0.65967586750E+03 -0.64602805890E+03  0.13404051935E+03  0.93300127228E+03  0.10100000352E+00 0.  1.
       -3    1    3    3    0  502  0.65967586750E+03  0.64602805890E+03 -0.89888129816E+03  0.12886085912E+04  0.10100000352E+00 0. -1.
</event>
<event>
 5   0  0.1423692E-05  0.3003444E+04  0.7818609E-02  0.8242748E-01
        2   -1    0    0  501    0  0.00000000000E+00  0.00000000000E+00  0.19148758797E+04  0.19148758797E+04  0.25500000920E-02 0. -1.
       -2   -1    0    0    0  501  0.00000000000E+00  0.00000000000E+00 -0.11777105618E+04  0.11777105618E+04  0.25500000920E-02 0.  1.
    10030    2    1    2    0    0  0.00000000000E+00  0.00000000000E+00  0.73716531798E+03  0.30925864415E+04  0.30034443880E+04 0.  0.
        3    1    3    3  502    0 -0.45767985053E+03 -0.88790356324E+03 -0.78600309054E+03  0.12710800336E+04  0.10100000352E+00 0.  1.
       -3    1    3    3    0  502  0.45767985053E+03  0.88790356324E+03  0.15231684085E+04  0.18215064079E+04  0.10100000352E+00 0. -1.
</event>
<event>
 5   0  0.7032692E-06  0.2897973E+04  0.7818609E-02  0.8273481E-01
        1   -1    0    0  501    0  0.00000000000E+00  0.00000000000E+00  0.14347525178E+04  0.14347525178E+04  0.50400001928E-02 0.  1.
       -1   -1    0    0    0  501  0.00000000000E+00  0.00000000000E+00 -0.14633621231E+04  0.14633621231E+04  0.50400001928E-02 0. -1.
    10030    2    1    2    0    0  0.00000000000E+00  0.00000000000E+00 -0.28609605318E+02  0.28981146409E+04  0.28979734233E+04 0.  0.
        5    1    3    3  502    0 -0.13911661839E+04  0.30868692396E+03 -0.27682365598E+03  0.14516488538E+04  0.46999998093E+01 0. -1.
       -5    1    3    3    0  502  0.13911661839E+04 -0.30868692396E+03  0.24821405066E+03  0.14464657871E+04  0.46999998093E+01 0.  1.
</event>
<event>
 5   0  0.1480547E-05  0.2880245E+04  0.7818609E-02  0.8278779E-01
       -2   -1    0    0    0  501  0.00000000000E+00  0.00000000000E+00  0.81297653354E+03  0.81297653354E+03  0.25500000920E-02 0. -1.
        2   -1    0    0  501    0  0.00000000000E+00  0.00000000000E+00 -0.25510618069E+04  0.25510618069E+04  0.25500000920E-02 0.  1.
    10030    2    1    2    0    0  0.00000000000E+00  0.00000000000E+00 -0.17380852733E+04  0.33640383404E+04  0.28802453955E+04 0.  0.
        1    1    3    3  502    0  0.10229454648E+04 -0.73038802148E+03 -0.48076242773E+02  0.12578534935E+04  0.50400001928E-02 0. -1.
       -1    1    3    3    0  502 -0.10229454648E+04  0.73038802148E+03 -0.16900090306E+04  0.21061848469E+04  0.50400001928E-02 0.  1.
</event>
<event>
 5   0  0.1423692E-05  0.2952644E+04  0.7818609E-02  0.8257384E-01
       -2   -1    0    0    0  501  0.00000000000E+00  0.00000000000E+00  0.95484830309E+03  0.95484830309E+03  0.25500000920E-02 0.  1.
        2   -1    0    0  501    0  0.00000000000E+00  0.00000000000E+00 -0.22825892057E+04  0.22825892057E+04  0.25500000920E-02 0. -1.
    10030    2    1    2    0    0  0.00000000000E+00  0.00000000000E+00 -0.13277409026E+04  0.32374375088E+04  0.29526438524E+04 0.  0.
        3    1    3    3  502    0  0.11625766511E+04  0.59432802466E+03  0.91582342235E+02  0.13088917473E+04  0.10100000352E+00 0. -1.
       -3    1    3    3    0  502 -0.11625766511E+04 -0.59432802466E+03 -0.14193232448E+04  0.19285457615E+04  0.10100000352E+00 0.  1.
</event>
<event>
 5   0  0.4806125E-06  0.2998298E+04  0.7818609E-02  0.8244217E-01
        3   -1    0    0  501    0  0.00000000000E+00  0.00000000000E+00  0.26787411880E+04  0.26787411899E+04  0.10100000352E+00 0. -1.
       -3   -1    0    0    0  501  0.00000000000E+00  0.00000000000E+00 -0.83899398629E+03  0.83899399237E+03  0.10100000352E+00 0.  1.
    10030    2    1    2    0    0  0.00000000000E+00  0.00000000000E+00  0.18397472017E+04  0.35177351823E+04  0.29982980249E+04 0.  0.
        5    1    3    3  502    0  0.46119034802E+03  0.11586120852E+04  0.18960994533E+04  0.22694258587E+04  0.46999998093E+01 0. -1.
       -5    1    3    3    0  502 -0.46119034802E+03 -0.11586120852E+04 -0.56352251631E+02  0.12483093236E+04  0.46999998093E+01 0.  1.
</event>
<event>
 5   0  0.5329891E-06  0.3025041E+04  0.7818609E-02  0.8236616E-01
        1   -1    0    0  501    0  0.00000000000E+00  0.00000000000E+00  0.13308750840E+04  0.13308750841E+04  0.50400001928E-02 0.  1.
       -1   -1    0    0    0  501  0.00000000000E+00  0.00000000000E+00 -0.17189584636E+04  0.17189584637E+04  0.50400001928E-02 0. -1.
    10030    2    1    2    0    0  0.00000000000E+00  0.00000000000E+00 -0.38808337960E+03  0.30498335477E+04  0.30250414806E+04 0.  0.
        4    1    3    3  502    0 -0.14256255794E+04  0.47414856221E+02  0.31313272938E+03  0.14603801493E+04  0.12699999809E+01 0.  1.
       -4    1    3    3    0  502  0.14256255794E+04 -0.47414856221E+02 -0.70121610899E+03  0.15894533984E+04  0.12699999809E+01 0. -1.
</event>
<event>
 5   0  0.5392262E-06  0.3000049E+04  0.7818609E-02  0.8243717E-01
       -1   -1    0    0    0  501  0.00000000000E+00  0.00000000000E+00  0.11690728928E+04  0.11690728928E+04  0.50400001928E-02 0.  1.
        1   -1    0    0  501    0  0.00000000000E+00  0.00000000000E+00 -0.19246647379E+04  0.19246647379E+04  0.50400001928E-02 0. -1.
    10030    2    1    2    0    0  0.00000000000E+00  0.00000000000E+00 -0.75559184511E+03  0.30937376307E+04  0.30000489149E+04 0.  0.
        2    1    3    3  502    0  0.43097045889E+03  0.89951104311E+02 -0.18565390745E+04  0.19080262243E+04  0.25500000920E-02 0. -1.
       -2    1    3    3    0  502 -0.43097045889E+03 -0.89951104311E+02  0.11009472293E+04  0.11857114065E+04  0.25500000920E-02 0.  1.
</event>
<event>
 5   0  0.1388724E-05  0.3008249E+04  0.7818609E-02  0.8241379E-01
       -2   -1    0    0    0  501  0.00000000000E+00  0.00000000000E+00  0.15360964722E+04  0.15360964722E+04  0.25500000920E-02 0.  1.
        2   -1    0    0  501    0  0.00000000000E+00  0.00000000000E+00 -0.14728178821E+04  0.14728178821E+04  0.25500000920E-02 0. -1.
    10030    2    1    2    0    0  0.00000000000E+00  0.00000000000E+00  0.63278590034E+02  0.30089143543E+04  0.30082488946E+04 0.  0.
        4    1    3    3  502    0 -0.46790991921E+03  0.92315414360E+03  0.11233180771E+04  0.15274155887E+04  0.12699999809E+01 0.  1.
       -4    1    3    3    0  502  0.46790991921E+03 -0.92315414360E+03 -0.10600394871E+04  0.14814987656E+04  0.12699999809E+01 0. -1.
</event>
<event>
 5   0  0.1480547E-05  0.2890952E+04  0.7818609E-02  0.8275575E-01
        2   -1    0    0  501    0  0.00000000000E+00  0.00000000000E+00  0.24135248997E+04  0.24135248997E+04  0.25500000920E-02 0. -1.
       -2   -1    0    0    0  501  0.00000000000E+00  0.00000000000E+00 -0.86570510003E+03  0.86570510003E+03  0.25500000920E-02 0.  1.
    10030    2    1    2    0    0  0.00000000000E+00  0.00000000000E+00  0.15478197996E+04  0.32792299997E+04  0.28909519641E+04 0.  0.
        1    1    3    3  502    0  0.13411483409E+04  0.18481687558E+03  0.19935778884E+03  0.13684223316E+04  0.50400001928E-02 0.  1.
       -1    1    3    3    0  502 -0.13411483409E+04 -0.18481687558E+03  0.13484620108E+04  0.19108076681E+04  0.50400001928E-02 0. -1.
</event>
<event>
 5   0  0.5730920E-06  0.2932230E+04  0.7818609E-02  0.8263352E-01
       -1   -1    0    0    0  501  0.00000000000E+00  0.00000000000E+00  0.11658735852E+04  0.11658735852E+04  0.50400001928E-02 0.  1.
        1   -1    0    0  501    0  0.00000000000E+00  0.00000000000E+00 -0.18436756462E+04  0.18436756462E+04  0.50400001928E-02 0. -1.
    10030    2    1    2    0    0  0.00000000000E+00  0.00000000000E+00 -0.67780206103E+03  0.30095492314E+04  0.29322296879E+04 0.  0.
        1    1    3    3  502    0 -0.68767110261E+03  0.66661705847E+03  0.80042521307E+03  0.12481788212E+04  0.50400001928E-02 0.  1.
       -1    1    3    3    0  502  0.68767110261E+03 -0.66661705847E+03 -0.14782272741E+04  0.17613704102E+04  0.50400001928E-02 0. -1.
</event>
<event>
 5   0  0.1523029E-05  0.2958606E+04  0.7818609E-02  0.8255651E-01
       -2   -1    0    0    0  501  0.00000000000E+00  0.00000000000E+00  0.27836094466E+04  0.27836094466E+04  0.25500000920E-02 0.  1.
        2   -1    0    0  501    0  0.00000000000E+00  0.00000000000E+00 -0.78615102472E+03  0.78615102472E+03  0.25500000920E-02 0. -1.
    10030    2    1    2    0    0  0.00000000000E+00  0.00000000000E+00  0.19974584218E+04  0.35697604713E+04  0.29586060359E+04 0.  0.
        5    1    3    3  502    0  0.12514564409E+04 -0.31233047600E+02  0.19496984587E+04  0.23169947986E+04  0.46999998093E+01 0.  1.
       -5    1    3    3    0  502 -0.12514564409E+04  0.31233047600E+02  0.47759963155E+02  0.12527656727E+04  0.46999998093E+01 0. -1.
</event>
<event>
 5   0  0.5329891E-06  0.2538565E+04  0.7818609E-02  0.8389374E-01
       -1   -1    0    0    0  501  0.00000000000E+00  0.00000000000E+00  0.86133891419E+03  0.86133891420E+03  0.50400001928E-02 0. -1.
        1   -1    0    0  501    0  0.00000000000E+00  0.00000000000E+00 -0.18704346378E+04  0.18704346378E+04  0.50400001928E-02 0.  1.
    10030    2    1    2    0    0  0.00000000000E+00  0.00000000000E+00 -0.10090957236E+04  0.27317735520E+04  0.25385650592E+04 0.  0.
        4    1    3    3  502    0 -0.72245801411E+03  0.70400630975E+03 -0.13335754383E+04  0.16721230603E+04  0.12699999809E+01 0.  1.
       -4    1    3    3    0  502  0.72245801411E+03 -0.70400630975E+03  0.32447971472E+03  0.10596504917E+04  0.12699999809E+01 0. -1.
</event>
<event>
 5   0  0.5522695E-06  0.3046250E+04  0.7818609E-02  0.8230646E-01
       -1   -1    0    0    0  501  0.00000000000E+00  0.00000000000E+00  0.20707350397E+04  0.20707350397E+04  0.50400001928E-02 0. -1.
        1   -1    0    0  501    0  0.00000000000E+00  0.00000000000E+00 -0.11203313563E+04  0.11203313563E+04  0.50400001928E-02 0.  1.
    10030    2    1    2    0    0  0.00000000000E+00  0.00000000000E+00  0.95040368347E+03  0.31910663960E+04  0.30462497570E+04 0.  0.
        3    1    3    3  502    0  0.32559941736E+03  0.14276030311E+04  0.35929258339E+02  0.14647034911E+04  0.10100000352E+00 0.  1.
       -3    1    3    3    0  502 -0.32559941736E+03 -0.14276030311E+04  0.91447442513E+03  0.17263629049E+04  0.10100000352E+00 0. -1.
</event>
<event>
 5   0  0.5392262E-06  0.2908243E+04  0.7818609E-02  0.8270429E-01
       -1   -1    0    0    0  501  0.00000000000E+00  0.00000000000E+00  0.16480281867E+04  0.16480281867E+04  0.50400001928E-02 0. -1.
        1   -1    0    0  501    0  0.00000000000E+00  0.00000000000E+00 -0.12830298482E+04  0.12830298482E+04  0.50400001928E-02 0.  1.
    10030    2    1    2    0    0  0.00000000000E+00  0.00000000000E+00  0.36499833857E+03  0.29310580349E+04  0.29082430120E+04 0.  0.
        2    1    3    3  502    0 -0.11569915820E+04 -0.84500264743E+03  0.43306644886E+03  0.14967316206E+04  0.25500000920E-02 0. -1.
       -2    1    3    3    0  502  0.11569915820E+04  0.84500264743E+03 -0.68068110286E+02  0.14343264143E+04  0.25500000920E-02 0.  1.
</event>
<event>
 5   0  0.1388724E-05  0.3002706E+04  0.7818609E-02  0.8242959E-01
        2   -1    0    0  501    0  0.00000000000E+00  0.00000000000E+00  0.12253827456E+04  0.12253827456E+04  0.25500000920E-02 0.  1.
       -2   -1    0    0    0  501  0.00000000000E+00  0.00000000000E+00 -0.18394748112E+04  0.18394748112E+04  0.25500000920E-02 0. -1.
    10030    2    1    2    0    0  0.00000000000E+00  0.00000000000E+00 -0.61409206558E+03  0.30648575568E+04  0.30027059094E+04 0.  0.
        4    1    3    3  502    0 -0.37862743115E+03 -0.59993734507E+03  0.10435103835E+04  0.12618237131E+04  0.12699999809E+01 0.  1.
       -4    1    3    3    0  502  0.37862743115E+03  0.59993734507E+03 -0.16576024490E+04  0.18030338437E+04  0.12699999809E+01 0. -1.
</event>
<event>
 5   0  0.5730920E-06  0.3010485E+04  0.7818609E-02  0.8240743E-01
        1   -1    0    0  501    0  0.00000000000E+00  0.00000000000E+00  0.18036244643E+04  0.18036244643E+04  0.50400001928E-02 0. -1.
       -1   -1    0    0    0  501  0.00000000000E+00  0.00000000000E+00 -0.12562228463E+04  0.12562228463E+04  0.50400001928E-02 0.  1.
    10030    2    1    2    0    0  0.00000000000E+00  0.00000000000E+00  0.54740161800E+03  0.30598473106E+04  0.30104845179E+04 0.  0.
        1    1    3    3  502    0  0.11992807229E+04  0.40682266209E+03  0.11006603435E+04  0.16778653469E+04  0.50400001928E-02 0. -1.
       -1    1    3    3    0  502 -0.11992807229E+04 -0.40682266209E+03 -0.55325872546E+03  0.13819819637E+04  0.50400001928E-02 0.  1.
</event>
<event>
 5   0  0.5522695E-06  0.2835357E+04  0.7818609E-02  0.8292375E-01
        1   -1    0    0  501    0  0.00000000000E+00  0.00000000000E+00  0.10730946148E+04  0.10730946148E+04  0.50400001928E-02 0. -1.
       -1   -1    0    0    0  501  0.00000000000E+00  0.00000000000E+00 -0.18729122352E+04  0.18729122352E+04  0.50400001928E-02 0.  1.
    10030    2    1    2    0    0  0.00000000000E+00  0.00000000000E+00 -0.79981762039E+03  0.29460068501E+04  0.28353567914E+04 0.  0.
        3    1    3    3  502    0 -0.11085337043E+04  0.18481519300E+03  0.49799668816E+03  0.12292291653E+04  0.10100000352E+00 0. -1.
       -3    1    3    3    0  502  0.11085337043E+04 -0.18481519300E+03 -0.12978143086E+04  0.17167776848E+04  0.10100000352E+00 0.  1.
</event>
<event>
 5   0  0.1345931E-05  0.2973137E+04  0.7818609E-02  0.8251444E-01
        2   -1    0    0  501    0  0.00000000000E+00  0.00000000000E+00  0.16444303697E+04  0.16444303697E+04  0.25500000920E-02 0. -1.
       -2   -1    0    0    0  501  0.00000000000E+00  0.00000000000E+00 -0.13438613224E+04  0.13438613224E+04  0.25500000920E-02 0.  1.
    10030    2    1    2    0    0  0.00000000000E+00  0.00000000000E+00  0.30056904729E+03  0.29882916920E+04  0.29731373134E+04 0.  0.
        2    1    3    3  502    0 -0.11816651337E+04 -0.56817929544E+03  0.85437363824E+03  0.15649647005E+04  0.25500000920E-02 0. -1.
       -2    1    3    3    0  502  0.11816651337E+04  0.56817929544E+03 -0.55380459095E+03  0.14233269916E+04  0.25500000920E-02 0.  1.
</event>
<event>
 5   0  0.1388724E-05  0.3058458E+04  0.7818609E-02  0.8227232E-01
        2   -1    0    0  501    0  0.00000000000E+00  0.00000000000E+00  0.10033804994E+04  0.10033804994E+04  0.25500000920E-02 0. -1.
       -2   -1    0    0    0  501  0.00000000000E+00  0.00000000000E+00 -0.23306624778E+04  0.23306624779E+04  0.25500000920E-02 0.  1.
    10030    2    1    2    0    0  0.00000000000E+00  0.00000000000E+00 -0.13272819784E+04  0.33340429773E+04  0.30584579651E+04 0.  0.
        4    1    3    3  502    0  0.17452843264E+03  0.10343458151E+04 -0.18766541722E+04  0.21499218436E+04  0.12699999809E+01 0.  1.
       -4    1    3    3    0  502 -0.17452843264E+03 -0.10343458151E+04  0.54937219375E+03  0.11841211336E+04  0.12699999809E+01 0. -1.
</event>
<event>
 5   0  0.7032692E-06  0.3132363E+04  0.7818609E-02  0.8206912E-01
       -1   -1    0    0    0  501  0.00000000000E+00  0.00000000000E+00  0.11268465379E+04  0.11268465379E+04  0.50400001928E-02 0.  1.
        1   -1    0    0  501    0  0.00000000000E+00  0.00000000000E+00 -0.21768039269E+04  0.21768039269E+04  0.50400001928E-02 0. -1.
    10030    2    1    2    0    0  0.00000000000E+00  0.00000000000E+00 -0.10499573891E+04  0.33036504648E+04  0.31323626665E+04 0.  0.
        5    1    3    3  502    0  0.10634114088E+04  0.57892380172E+03 -0.15727338103E+04  0.19848199718E+04  0.46999998093E+01 0. -1.
       -5    1    3    3    0  502 -0.10634114088E+04 -0.57892380172E+03  0.52277642123E+03  0.13188304930E+04  0.46999998093E+01 0.  1.
</event>
<event>
 5   0  0.1388724E-05  0.2656421E+04  0.7818609E-02  0.8349285E-01
       -2   -1    0    0    0  501  0.00000000000E+00  0.00000000000E+00  0.12481331630E+04  0.12481331630E+04  0.25500000920E-02 0.  1.
        2   -1    0    0  501    0  0.00000000000E+00  0.00000000000E+00 -0.14134254103E+04  0.14134254103E+04  0.25500000920E-02 0. -1.
    10030    2    1    2    0    0  0.00000000000E+00  0.00000000000E+00 -0.16529224729E+03  0.26615585732E+04  0.26564209967E+04 0.  0.
        4    1    3    3  502    0 -0.19392257738E+02 -0.10679664533E+04 -0.87361139264E+03  0.13799010411E+04  0.12699999809E+01 0. -1.
       -4    1    3    3    0  502  0.19392257738E+02  0.10679664533E+04  0.70831914535E+03  0.12816575321E+04  0.12699999809E+01 0.  1.
</event>
<event>
 5   0  0.5392262E-06  0.3085173E+04  0.7818609E-02  0.8219819E-01
       -1   -1    0    0    0  501  0.00000000000E+00  0.00000000000E+00  0.15613246441E+04  0.15613246441E+04  0.50400001928E-02 0. -1.
        1   -1    0    0  501    0  0.00000000000E+00  0.00000000000E+00 -0.15240734828E+04  0.15240734828E+04  0.50400001928E-02 0.  1.
    10030    2    1    2    0    0  0.00000000000E+00  0.00000000000E+00  0.37251161299E+02  0.30853981269E+04  0.30851732452E+04 0.  0.
        2    1    3    3  502    0 -0.87665431254E+02 -0.14971269567E+04 -0.34264739215E+03  0.15383372802E+04  0.25500000920E-02 0.  1.
       -2    1    3    3    0  502  0.87665431254E+02  0.14971269567E+04  0.37989855345E+03  0.15470608467E+04  0.25500000920E-02 0. -1.
</event>
<event>
 5   0  0.1523029E-05  0.2995409E+04  0.7818609E-02  0.8245043E-01
        2   -1    0    0  501    0  0.00000000000E+00  0.00000000000E+00  0.21892194431E+04  0.21892194431E+04  0.25500000920E-02 0.  1.
       -2   -1    0    0    0  501  0.00000000000E+00  0.00000000000E+00 -0.10246201663E+04  0.10246201663E+04  0.25500000920E-02 0. -1.
    10030    2    1    2    0    0  0.00000000000E+00  0.00000000000E+00  0.11645992768E+04  0.32138396094E+04  0.29954087466E+04 0.  0.
        5    1    3    3  502    0 -0.28086831815E+03 -0.13932386671E+04  0.10890724654E+04  0.17905591083E+04  0.46999998093E+01 0. -1.
       -5    1    3    3    0  502  0.28086831815E+03  0.13932386671E+04  0.75526811457E+02  0.14232805011E+04  0.46999998093E+01 0.  1.
</event>
<event>
 5   0  0.5329891E-06  0.3034234E+04  0.7818609E-02  0.8234022E-01
       -1   -1    0    0    0  501  0.00000000000E+00  0.00000000000E+00  0.11899695500E+04  0.11899695500E+04  0.50400001928E-02 0.  1.
        1   -1    0    0  501    0  0.00000000000E+00  0.00000000000E+00 -0.19342039124E+04  0.19342039124E+04  0.50400001928E-02 0. -1.
    10030    2    1    2    0    0  0.00000000000E+00  0.00000000000E+00 -0.74423436233E+03  0.31241734624E+04  0.30342338468E+04 0.  0.
        4    1    3    3  502    0  0.73824196027E+03 -0.12160698482E+01  0.99255208075E+03  0.12369979453E+04  0.12699999809E+01 0.  1.
       -4    1    3    3    0  502 -0.73824196027E+03  0.12160698482E+01 -0.17367864431E+04  0.18871755171E+04  0.12699999809E+01 0. -1.
</event>
<event>
 5   0  0.1480547E-05  0.3094244E+04  0.7818609E-02  0.8217319E-01
        2   -1    0    0  501    0  0.00000000000E+00  0.00000000000E+00  0.13176644961E+04  0.13176644961E+04  0.25500000920E-02 0. -1.
       -2   -1    0    0    0  501  0.00000000000E+00  0.00000000000E+00 -0.18165375373E+04  0.18165375373E+04  0.25500000920E-02 0.  1.
    10030    2    1    2    0    0  0.00000000000E+00  0.00000000000E+00 -0.49887304117E+03  0.31342020335E+04  0.30942443464E+04 0.  0.
        1    1    3    3  502    0  0.66831367473E+03 -0.13129907765E+04  0.22888939309E+03  0.14909655600E+04  0.50400001928E-02 0. -1.
       -1    1    3    3    0  502 -0.66831367473E+03  0.13129907765E+04 -0.72776243426E+03  0.16432364734E+04  0.50400001928E-02 0.  1.
</event>
<event>
 5   0  0.4806125E-06  0.2187174E+04  0.7818609E-02  0.8523786E-01
        4   -1    0    0  501    0  0.00000000000E+00  0.00000000000E+00  0.70070311346E+03  0.70070426437E+03  0.12699999809E+01 0. -1.
       -4   -1    0    0    0  501  0.00000000000E+00  0.00000000000E+00 -0.17067571738E+04  0.17067576463E+04  0.12699999809E+01 0.  1.
    10030    2    1    2    0    0  0.00000000000E+00  0.00000000000E+00 -0.10060540603E+04  0.24074619107E+04  0.21871735365E+04 0.  0.
        5    1    3    3  502    0  0.10126374082E+04  0.61092396839E+02 -0.95249645546E+03  0.13915596966E+04  0.46999998093E+01 0.  1.
       -5    1    3    3    0  502 -0.10126374082E+04 -0.61092396839E+02 -0.53557604863E+02  0.10159022141E+04  0.46999998093E+01 0. -1.
</event>
<event>
 5   0  0.1345931E-05  0.2846125E+04  0.7818609E-02  0.8289090E-01
        2   -1    0    0  501    0  0.00000000000E+00  0.00000000000E+00  0.22410334855E+04  0.22410334855E+04  0.25500000920E-02 0. -1.
       -2   -1    0    0    0  501  0.00000000000E+00  0.00000000000E+00 -0.90364834668E+03  0.90364834669E+03  0.25500000920E-02 0.  1.
    10030    2    1    2    0    0  0.00000000000E+00  0.00000000000E+00  0.13373851389E+04  0.31446818322E+04  0.28461245258E+04 0.  0.
        2    1    3    3  502    0  0.42889117182E+03 -0.10173045236E+04 -0.32341256527E+03  0.11504137597E+04  0.25500000920E-02 0.  1.
       -2    1    3    3    0  502 -0.42889117182E+03  0.10173045236E+04  0.16607977041E+04  0.19942680725E+04  0.25500000920E-02 0. -1.
</event>
<event>
 5   0  0.1388724E-05  0.3083970E+04  0.7818609E-02  0.8220151E-01
       -2   -1    0    0    0  501  0.00000000000E+00  0.00000000000E+00  0.26895358091E+04  0.26895358091E+04  0.25500000920E-02 0.  1.
        2   -1    0    0  501    0  0.00000000000E+00  0.00000000000E+00 -0.88406254269E+03  0.88406254270E+03  0.25500000920E-02 0. -1.
    10030    2    1    2    0    0  0.00000000000E+00  0.00000000000E+00  0.18054732664E+04  0.35735983518E+04  0.30839700816E+04 0.  0.
        4    1    3    3  502    0 -0.66376499729E+03  0.13460331125E+04  0.13129578802E+04  0.19940534395E+04  0.12699999809E+01 0.  1.
       -4    1    3    3    0  502  0.66376499729E+03 -0.13460331125E+04  0.49251538619E+03  0.15795449123E+04  0.12699999809E+01 0. -1.
</event>
<event>
 5   0  0.1523029E-05  0.2972023E+04  0.7818609E-02  0.8251765E-01
        2   -1    0    0  501    0  0.00000000000E+00  0.00000000000E+00  0.25384259080E+04  0.25384259080E+04  0.25500000920E-02 0. -1.
       -2   -1    0    0    0  501  0.00000000000E+00  0.00000000000E+00 -0.86992108345E+03  0.86992108345E+03  0.25500000920E-02 0.  1.
    10030    2    1    2    0    0  0.00000000000E+00  0.00000000000E+00  0.16685048245E+04  0.34083469914E+04  0.29720230256E+04 0.  0.
        5    1    3    3  502    0 -0.35358962811E+03 -0.43267617355E+02  0.24887268486E+04  0.25140964836E+04  0.46999998093E+01 0. -1.
       -5    1    3    3    0  502  0.35358962811E+03  0.43267617355E+02 -0.82022202413E+03  0.89425050779E+03  0.46999998093E+01 0.  1.
</event>
<event>
 5   0  0.5329891E-06  0.3132452E+04  0.7818609E-02  0.8206888E-01
        1   -1    0    0  501    0  0.00000000000E+00  0.00000000000E+00  0.19227992081E+04  0.19227992081E+04  0.50400001928E-02 0.  1.
       -1   -1    0    0    0  501  0.00000000000E+00  0.00000000000E+00 -0.12757775763E+04  0.12757775763E+04  0.50400001928E-02 0. -1.
    10030    2    1    2    0    0  0.00000000000E+00  0.00000000000E+00  0.64702163183E+03  0.31985767844E+04  0.31324521471E+04 0.  0.
        4    1    3    3  502    0 -0.81373534477E+03  0.65154019945E+03  0.15171143483E+04  0.18407355599E+04  0.12699999809E+01 0.  1.
       -4    1    3    3    0  502  0.81373534477E+03 -0.65154019945E+03 -0.87009271647E+03  0.13578412245E+04  0.12699999809E+01 0. -1.
</event>
<event>
 5   0  0.5392262E-06  0.3049337E+04  0.7818609E-02  0.8229781E-01
        1   -1    0    0  501    0  0.00000000000E+00  0.00000000000E+00  0.20951410422E+04  0.20951410422E+04  0.50400001928E-02 0.  1.
       -1   -1    0    0    0  501  0.00000000000E+00  0.00000000000E+00 -0.11095259510E+04  0.11095259510E+04  0.50400001928E-02 0. -1.
    10030    2    1    2    0    0  0.00000000000E+00  0.00000000000E+00  0.98561509120E+03  0.32046669932E+04  0.30493365556E+04 0.  0.
        2    1    3    3  502    0  0.12810260915E+04 -0.75866629921E+03  0.14741619825E+03  0.14961062583E+04  0.25500000920E-02 0. -1.
       -2    1    3    3    0  502 -0.12810260915E+04  0.75866629921E+03  0.83819889295E+03  0.17085607349E+04  0.25500000920E-02 0.  1.
</event>
<event>
 5   0  0.1523029E-05  0.2953738E+04  0.7818609E-02  0.8257066E-01
       -2   -1    0    0    0  501  0.00000000000E+00  0.00000000000E+00  0.16712401211E+04  0.16712401211E+04  0.25500000920E-02 0.  1.
        2   -1    0    0  501    0  0.00000000000E+00  0.00000000000E+00 -0.13051043355E+04  0.13051043355E+04  0.25500000920E-02 0. -1.
    10030    2    1    2    0    0  0.00000000000E+00  0.00000000000E+00  0.36613578558E+03  0.29763444567E+04  0.29537384636E+04 0.  0.
        5    1    3    3  502    0  0.46478706754E+03  0.11938656623E+04  0.92338690687E+03  0.15792427639E+04  0.46999998093E+01 0.  1.
       -5    1    3    3    0  502 -0.46478706754E+03 -0.11938656623E+04 -0.55725112129E+03  0.13971016927E+04  0.46999998093E+01 0. -1.
</event>
<event>
 5   0  0.5522695E-06  0.2930882E+04  0.7818609E-02  0.8263748E-01
       -1   -1    0    0    0  501  0.00000000000E+00  0.00000000000E+00  0.96472666105E+03  0.96472666106E+03  0.50400001928E-02 0. -1.
        1   -1    0    0  501    0  0.00000000000E+00  0.00000000000E+00 -0.22260366712E+04  0.22260366712E+04  0.50400001928E-02 0.  1.
    10030    2    1    2    0    0  0.00000000000E+00  0.00000000000E+00 -0.12613100101E+04  0.31907633322E+04  0.29308817275E+04 0.  0.
        3    1    3    3  502    0 -0.97277930327E+03  0.12527642928E+03  0.55470786732E+03  0.11268072528E+04  0.10100000352E+00 0. -1.
       -3    1    3    3    0  502  0.97277930327E+03 -0.12527642928E+03 -0.18160178775E+04  0.20639560795E+04  0.10100000352E+00 0.  1.
</event>
<event>
 5   0  0.1480547E-05  0.3024700E+04  0.7818609E-02  0.8236713E-01
        2   -1    0    0  501    0  0.00000000000E+00  0.00000000000E+00  0.14819585746E+04  0.14819585746E+04  0.25500000920E-02 0. -1.
       -2   -1    0    0    0  501  0.00000000000E+00  0.00000000000E+00 -0.15433650833E+04  0.15433650833E+04  0.25500000920E-02 0.  1.
    10030    2    1    2    0    0  0.00000000000E+00  0.00000000000E+00 -0.61406508763E+02  0.30253236579E+04  0.30247003944E+04 0.  0.
        1    1    3    3  502    0  0.12072893167E+03  0.14718789220E+04 -0.35665394710E+03  0.15192778133E+04  0.50400001928E-02 0.  1.
       -1    1    3    3    0  502 -0.12072893167E+03 -0.14718789220E+04  0.29524743833E+03  0.15060458446E+04  0.50400001928E-02 0. -1.
</event>
<event>
 5   0  0.5730920E-06  0.3012991E+04  0.7818609E-02  0.8240031E-01
        1   -1    0    0  501    0  0.00000000000E+00  0.00000000000E+00  0.25148920196E+04  0.25148920196E+04  0.50400001928E-02 0.  1.
       -1   -1    0    0    0  501  0.00000000000E+00  0.00000000000E+00 -0.90243581520E+03  0.90243581522E+03  0.50400001928E-02 0. -1.
    10030    2    1    2    0    0  0.00000000000E+00  0.00000000000E+00  0.16124562044E+04  0.34173278348E+04  0.30129909591E+04 0.  0.
        1    1    3    3  502    0 -0.17631443907E+02  0.14134404192E+04  0.21535136489E+03  0.14298604466E+04  0.50400001928E-02 0. -1.
       -1    1    3    3    0  502  0.17631443907E+02 -0.14134404192E+04  0.13971048395E+04  0.19874673882E+04  0.50400001928E-02 0.  1.
</event>
<event>
 5   0  0.1480547E-05  0.3066842E+04  0.7818609E-02  0.8224897E-01
       -2   -1    0    0    0  501  0.00000000000E+00  0.00000000000E+00  0.11320996831E+04  0.11320996831E+04  0.25500000920E-02 0. -1.
        2   -1    0    0  501    0  0.00000000000E+00  0.00000000000E+00 -0.20770076988E+04  0.20770076988E+04  0.25500000920E-02 0.  1.
    10030    2    1    2    0    0  0.00000000000E+00  0.00000000000E+00 -0.94490801570E+03  0.32091073820E+04  0.30668418660E+04 0.  0.
        1    1    3    3  502    0 -0.19628661780E+02 -0.62150188727E+03 -0.19391641362E+04  0.20364202483E+04  0.50400001928E-02 0.  1.
       -1    1    3    3    0  502  0.19628661780E+02  0.62150188727E+03  0.99425612054E+03  0.11726871337E+04  0.50400001928E-02 0. -1.
</event>
<event>
 5   0  0.1480547E-05  0.2532471E+04  0.7818609E-02  0.8391508E-01
       -2   -1    0    0    0  501  0.00000000000E+00  0.00000000000E+00  0.12798457034E+04  0.12798457034E+04  0.25500000920E-02 0. -1.
        2   -1    0    0  501    0  0.00000000000E+00  0.00000000000E+00 -0.12527698984E+04  0.12527698984E+04  0.25500000920E-02 0.  1.
    10030    2    1    2    0    0  0.00000000000E+00  0.00000000000E+00  0.27075805022E+02  0.25326156019E+04  0.25324708661E+04 0.  0.
        1    1    3    3  502    0  0.44564812760E+03  0.11823789860E+04 -0.68502458664E+02  0.12654307200E+04  0.50400001928E-02 0. -1.
       -1    1    3    3    0  502 -0.44564812760E+03 -0.11823789860E+04  0.95578263686E+02  0.12671848819E+04  0.50400001928E-02 0.  1.
</event>
<event>
 5   0  0.1523029E-05  0.2984667E+04  0.7818609E-02  0.8248123E-01
        2   -1    0    0  501    0  0.00000000000E+00  0.00000000000E+00  0.10303033697E+04  0.10303033697E+04  0.25500000920E-02 0.  1.
       -2   -1    0    0    0  501  0.00000000000E+00  0.00000000000E+00 -0.21615571308E+04  0.21615571308E+04  0.25500000920E-02 0. -1.
    10030    2    1    2    0    0  0.00000000000E+00  0.00000000000E+00 -0.11312537611E+04  0.31918605006E+04  0.29846672148E+04 0.  0.
        5    1    3    3  502    0 -0.12483876132E+04 -0.73110238303E+03 -0.95717918572E+03  0.17347035512E+04  0.46999998093E+01 0. -1.
       -5    1    3    3    0  502  0.12483876132E+04  0.73110238303E+03 -0.17407457537E+03  0.14571569493E+04  0.46999998093E+01 0.  1.
</event>
<event>
 5   0  0.1423692E-05  0.3137439E+04  0.7818609E-02  0.8205538E-01
       -2   -1    0    0    0  501  0.00000000000E+00  0.00000000000E+00  0.13506380494E+04  0.13506380494E+04  0.25500000920E-02 0.  1.
        2   -1    0    0  501    0  0.00000000000E+00  0.00000000000E+00 -0.18220135270E+04  0.18220135271E+04  0.25500000920E-02 0. -1.
    10030    2    1    2    0    0  0.00000000000E+00  0.00000000000E+00 -0.47137547768E+03  0.31726515764E+04  0.31374389531E+04 0.  0.
        3    1    3    3  502    0 -0.63082348041E+03 -0.74049925523E+02  0.12147954659E+04  0.13708208085E+04  0.10100000352E+00 0.  1.
       -3    1    3    3    0  502  0.63082348041E+03  0.74049925523E+02 -0.16861709436E+04  0.18018307679E+04  0.10100000352E+00 0. -1.
</event>
<event>
 5   0  0.5392262E-06  0.2838350E+04  0.7818609E-02  0.8291460E-01
       -1   -1    0    0    0  501  0.00000000000E+00  0.00000000000E+00  0.25783869854E+04  0.25783869854E+04  0.50400001928E-02 0. -1.
        1   -1    0    0  501    0  0.00000000000E+00  0.00000000000E+00 -0.78113097762E+03  0.78113097763E+03  0.50400001928E-02 0.  1.
    10030    2    1    2    0    0  0.00000000000E+00  0.00000000000E+00  0.17972560078E+04  0.33595179631E+04  0.28383501874E+04 0.  0.
        2    1    3    3  502    0  0.11024894380E+04 -0.89350945062E+03  0.91601739072E+03  0.16890618578E+04  0.25500000920E-02 0.  1.
       -2    1    3    3    0  502 -0.11024894380E+04  0.89350945062E+03  0.88123861708E+03  0.16704561053E+04  0.25500000920E-02 0. -1.
</event>
<event>
 5   0  0.5522695E-06  0.2944786E+04  0.7818609E-02  0.8259676E-01
        1   -1    0    0  501    0  0.00000000000E+00  0.00000000000E+00  0.13141191775E+04  0.13141191775E+04  0.50400001928E-02 0.  1.
       -1   -1    0    0    0  501  0.00000000000E+00  0.00000000000E+00 -0.16497294455E+04  0.16497294455E+04  0.50400001928E-02 0. -1.
    10030    2    1    2    0    0  0.00000000000E+00  0.00000000000E+00 -0.33561026803E+03  0.29638486230E+04  0.29447859698E+04 0.  0.
        3    1    3    3  502    0  0.35208132779E+03  0.35781076212E+03  0.12253340737E+04  0.13241727248E+04  0.10100000352E+00 0.  1.
       -3    1    3    3    0  502 -0.35208132779E+03 -0.35781076212E+03 -0.15609443417E+04  0.16396758982E+04  0.10100000352E+00 0. -1.
</event>
<event>
 5   0  0.5392262E-06  0.1606248E+04  0.7818609E-02  0.8816719E-01
        1   -1    0    0  501    0  0.00000000000E+00  0.00000000000E+00  0.99542402518E+03  0.99542402519E+03  0.50400001928E-02 0.  1.
       -1   -1    0    0    0  501  0.00000000000E+00  0.00000000000E+00 -0.64797294841E+03  0.64797294843E+03  0.50400001928E-02 0. -1.
    10030    2    1    2    0    0  0.00000000000E+00  0.00000000000E+00  0.34745107676E+03  0.16433969736E+04  0.16062476030E+04 0.  0.
        2    1    3    3  502    0 -0.37329133282E+03 -0.59802938424E+03  0.56736037869E+03  0.90492174407E+03  0.25500000920E-02 0.  1.
       -2    1    3    3    0  502  0.37329133282E+03  0.59802938424E+03 -0.21990930192E+03  0.73847522955E+03  0.25500000920E-02 0. -1.
</event>
<event>
 5   0  0.5730920E-06  0.2482844E+04  0.7818609E-02  0.8409123E-01
       -1   -1    0    0    0  501  0.00000000000E+00  0.00000000000E+00  0.98519489152E+03  0.98519489153E+03  0.50400001928E-02 0.  1.
        1   -1    0    0  501    0  0.00000000000E+00  0.00000000000E+00 -0.15642875551E+04  0.15642875551E+04  0.50400001928E-02 0. -1.
    10030    2    1    2    0    0  0.00000000000E+00  0.00000000000E+00 -0.57909266355E+03  0.25494824466E+04  0.24828436182E+04 0.  0.
        1    1    3    3  502    0  0.93688166444E+03  0.31269573344E+02 -0.11252721664E+04  0.14645690451E+04  0.50400001928E-02 0. -1.
       -1    1    3    3    0  502 -0.93688166444E+03 -0.31269573344E+02  0.54617950286E+03  0.10849134015E+04  0.50400001928E-02 0.  1.
</event>
<event>
 5   0  0.1388724E-05  0.2992877E+04  0.7818609E-02  0.8245768E-01
        2   -1    0    0  501    0  0.00000000000E+00  0.00000000000E+00  0.19657785026E+04  0.19657785026E+04  0.25500000920E-02 0.  1.
       -2   -1    0    0    0  501  0.00000000000E+00  0.00000000000E+00 -0.11391562672E+04  0.11391562672E+04  0.25500000920E-02 0. -1.
    10030    2    1    2    0    0  0.00000000000E+00  0.00000000000E+00  0.82662223535E+03  0.31049347698E+04  0.29928774791E+04 0.  0.
        4    1    3    3  502    0 -0.23058218134E+03 -0.10071487076E+04 -0.70972121112E+03  0.12534841331E+04  0.12699999809E+01 0. -1.
       -4    1    3    3    0  502  0.23058218134E+03  0.10071487076E+04  0.15363434465E+04  0.18514506367E+04  0.12699999809E+01 0.  1.
</event>
<event>
 5   0  0.5522695E-06  0.2938715E+04  0.7818609E-02  0.8261451E-01
        1   -1    0    0  501    0  0.00000000000E+00  0.00000000000E+00  0.17366433692E+04  0.17366433692E+04  0.50400001928E-02 0.  1.
       -1   -1    0    0    0  501  0.00000000000E+00  0.00000000000E+00 -0.12432095162E+04  0.12432095162E+04  0.50400001928E-02 0. -1.
    10030    2    1    2    0    0  0.00000000000E+00  0.00000000000E+00  0.49343385300E+03  0.29798528854E+04  0.29387150681E+04 0.  0.
        3    1    3    3  502    0 -0.13981503058E+04  0.73797777323E+02  0.69876149702E+03  0.15647805052E+04  0.10100000352E+00 0.  1.
       -3    1    3    3    0  502  0.13981503058E+04 -0.73797777323E+02 -0.20532764402E+03  0.14150723802E+04  0.10100000352E+00 0. -1.
</event>
<event>
 5   0  0.1345931E-05  0.3010179E+04  0.7818609E-02  0.8240830E-01
       -2   -1    0    0    0  501  0.00000000000E+00  0.00000000000E+00  0.87537227145E+03  0.87537227145E+03  0.25500000920E-02 0. -1.
        2   -1    0    0  501    0  0.00000000000E+00  0.00000000000E+00 -0.25878074943E+04  0.25878074943E+04  0.25500000920E-02 0.  1.
    10030    2    1    2    0    0  0.00000000000E+00  0.00000000000E+00 -0.17124352228E+04  0.34631797657E+04  0.30101793464E+04 0.  0.
        2    1    3    3  502    0  0.12260272118E+03  0.29483714075E+03 -0.25483896234E+04  0.25683165769E+04  0.25500000920E-02 0.  1.
       -2    1    3    3    0  502 -0.12260272118E+03 -0.29483714075E+03  0.83595440056E+03  0.89486318878E+03  0.25500000920E-02 0. -1.
</event>
<event>
 5   0  0.7032692E-06  0.2618809E+04  0.7818609E-02  0.8361840E-01
        1   -1    0    0  501    0  0.00000000000E+00  0.00000000000E+00  0.14571555345E+04  0.14571555345E+04  0.50400001928E-02 0. -1.
       -1   -1    0    0    0  501  0.00000000000E+00  0.00000000000E+00 -0.11766351699E+04  0.11766351699E+04  0.50400001928E-02 0.  1.
    10030    2    1    2    0    0  0.00000000000E+00  0.00000000000E+00  0.28052036454E+03  0.26337907044E+04  0.26188092331E+04 0.  0.
        5    1    3    3  502    0  0.11694685767E+04 -0.58882019584E+03  0.12784513322E+03  0.13155730474E+04  0.46999998093E+01 0.  1.
       -5    1    3    3    0  502 -0.11694685767E+04  0.58882019584E+03  0.15267523133E+03  0.13182176570E+04  0.46999998093E+01 0. -1.
</event>
<event>
 5   0  0.1388724E-05  0.1643601E+04  0.7818609E-02  0.8794201E-01
        2   -1    0    0  501    0  0.00000000000E+00  0.00000000000E+00  0.20278510235E+04  0.20278510235E+04  0.25500000920E-02 0. -1.
       -2   -1    0    0    0  501  0.00000000000E+00  0.00000000000E+00 -0.33304040247E+03  0.33304040247E+03  0.25500000920E-02 0.  1.
    10030    2    1    2    0    0  0.00000000000E+00  0.00000000000E+00  0.16948106210E+04  0.23608914260E+04  0.16436013154E+04 0.  0.
        4    1    3    3  502    0  0.75006757785E+02  0.78067208899E+03  0.49473786015E+03  0.92727670487E+03  0.12699999809E+01 0. -1.
       -4    1    3    3    0  502 -0.75006757785E+02 -0.78067208899E+03  0.12000727609E+04  0.14336147211E+04  0.12699999809E+01 0.  1.
</event>
<event>
 5   0  0.1480547E-05  0.1963739E+04  0.7818609E-02  0.8623764E-01
        2   -1    0    0  501    0  0.00000000000E+00  0.00000000000E+00  0.13856562101E+04  0.13856562101E+04  0.25500000920E-02 0. -1.
       -2   -1    0    0    0  501  0.00000000000E+00  0.00000000000E+00 -0.69574788721E+03  0.69574788722E+03  0.25500000920E-02 0.  1.
    10030    2    1    2    0    0  0.00000000000E+00  0.00000000000E+00  0.68990832290E+03  0.20814040973E+04  0.19637386594E+04 0.  0.
        1    1    3    3  502    0 -0.22266372856E+03  0.82377434136E+03 -0.16982627031E+03  0.87007141294E+03  0.50400001928E-02 0.  1.
       -1    1    3    3    0  502  0.22266372856E+03 -0.82377434136E+03  0.85973459321E+03  0.12113326844E+04  0.50400001928E-02 0. -1.
</event>
<event>
 5   0  0.1480547E-05  0.2974136E+04  0.7818609E-02  0.8251155E-01
       -2   -1    0    0    0  501  0.00000000000E+00  0.00000000000E+00  0.19339860660E+04  0.19339860660E+04  0.25500000920E-02 0. -1.
        2   -1    0    0  501    0  0.00000000000E+00  0.00000000000E+00 -0.11434268755E+04  0.11434268755E+04  0.25500000920E-02 0.  1.
    10030    2    1    2    0    0  0.00000000000E+00  0.00000000000E+00  0.79055919050E+03  0.30774129416E+04  0.29741362745E+04 0.  0.
        1    1    3    3  502    0 -0.70005761554E+03  0.27509751423E+03  0.17226394521E+04  0.18796930572E+04  0.50400001928E-02 0. -1.
       -1    1    3    3    0  502  0.70005761554E+03 -0.27509751423E+03 -0.93208026158E+03  0.11977198844E+04  0.50400001928E-02 0.  1.
</event>
<event>
 5   0  0.5329891E-06  0.2459650E+04  0.7818609E-02  0.8417503E-01
       -1   -1    0    0    0  501  0.00000000000E+00  0.00000000000E+00  0.13822125682E+04  0.13822125682E+04  0.50400001928E-02 0. -1.
        1   -1    0    0  501    0  0.00000000000E+00  0.00000000000E+00 -0.10942381979E+04  0.10942381979E+04  0.50400001928E-02 0.  1.
    10030    2    1    2    0    0  0.00000000000E+00  0.00000000000E+00  0.28797437032E+03  0.24764507661E+04  0.24596502107E+04 0.  0.
        4    1    3    3  502    0 -0.61616622921E+03 -0.72518349500E+02 -0.92512665857E+03  0.11139033532E+04  0.12699999809E+01 0.  1.
       -4    1    3    3    0  502  0.61616622921E+03  0.72518349500E+02  0.12131010289E+04  0.13625474128E+04  0.12699999809E+01 0. -1.
</event>
<event>
 5   0  0.1388724E-05  0.3028126E+04  0.7818609E-02  0.8235745E-01
        2   -1    0    0  501    0  0.00000000000E+00  0.00000000000E+00  0.11600217791E+04  0.11600217791E+04  0.25500000920E-02 0.  1.
       -2   -1    0    0    0  501  0.00000000000E+00  0.00000000000E+00 -0.19761580384E+04  0.19761580384E+04  0.25500000920E-02 0. -1.
    10030    2    1    2    0    0  0.00000000000E+00  0.00000000000E+00 -0.81613625925E+03  0.31361798175E+04  0.30281257329E+04 0.  0.
        4    1    3    3  502    0 -0.73722252184E+03  0.10577229054E+04  0.41405188970E+03  0.13541474704E+04  0.12699999809E+01 0.  1.
       -4    1    3    3    0  502  0.73722252184E+03 -0.10577229054E+04 -0.12301881489E+04  0.17820323471E+04  0.12699999809E+01 0. -1.
</event>
<event>
 5   0  0.1388724E-05  0.3098234E+04  0.7818609E-02  0.8216223E-01
        2   -1    0    0  501    0  0.00000000000E+00  0.00000000000E+00  0.15013490349E+04  0.15013490349E+04  0.25500000920E-02 0. -1.
       -2   -1    0    0    0  501  0.00000000000E+00  0.00000000000E+00 -0.15984047386E+04  0.15984047386E+04  0.25500000920E-02 0.  1.
    10030    2    1    2    0    0  0.00000000000E+00  0.00000000000E+00 -0.97055703663E+02  0.30997537736E+04  0.30982339562E+04 0.  0.
        4    1    3    3  502    0  0.84891488717E+03 -0.12386107155E+04 -0.42943604382E+03  0.15618034188E+04  0.12699999809E+01 0.  1.
       -4    1    3    3    0  502 -0.84891488717E+03  0.12386107155E+04  0.33238034015E+03  0.15379503548E+04  0.12699999809E+01 0. -1.
</event>
<event>
 5   0  0.5392262E-06  0.2730274E+04  0.7818609E-02  0.8325248E-01
        1   -1    0    0  501    0  0.00000000000E+00  0.00000000000E+00  0.15631172413E+04  0.15631172413E+04  0.50400001928E-02 0. -1.
       -1   -1    0    0    0  501  0.00000000000E+00  0.00000000000E+00 -0.11922323994E+04  0.11922323994E+04  0.50400001928E-02 0.  1.
    10030    2    1    2    0    0  0.00000000000E+00  0.00000000000E+00  0.37088484193E+03  0.27553496407E+04  0.27302739930E+04 0.  0.
        2    1    3    3  502    0 -0.69209047956E+03  0.93894984231E+03  0.90116897385E+03  0.14740154537E+04  0.25500000920E-02 0. -1.
       -2    1    3    3    0  502  0.69209047956E+03 -0.93894984231E+03 -0.53028413192E+03  0.12813341870E+04  0.25500000920E-02 0.  1.
</event>
<event>
 5   0  0.1388724E-05  0.2996987E+04  0.7818609E-02  0.8244592E-01
       -2   -1    0    0    0  501  0.00000000000E+00  0.00000000000E+00  0.10088269585E+04  0.10088269585E+04  0.25500000920E-02 0. -1.
        2   -1    0    0  501    0  0.00000000000E+00  0.00000000000E+00 -0.22258359734E+04  0.22258359734E+04  0.25500000920E-02 0.  1.
    10030    2    1    2    0    0  0.00000000000E+00  0.00000000000E+00 -0.12170090149E+04  0.32346629318E+04  0.29969873774E+04 0.  0.
        4    1    3    3  502    0  0.11942977506E+04 -0.89997117339E+03 -0.71195176210E+03  0.16562524429E+04  0.12699999809E+01 0.  1.
       -4    1    3    3    0  502 -0.11942977506E+04  0.89997117339E+03 -0.50505725280E+03  0.15784104889E+04  0.12699999809E+01 0. -1.
</event>
<event>
 5   0  0.7032692E-06  0.1797615E+04  0.7818609E-02  0.8707569E-01
        1   -1    0    0  501    0  0.00000000000E+00  0.00000000000E+00  0.12848790947E+04  0.12848790947E+04  0.50400001928E-02 0.  1.
       -1   -1    0    0    0  501  0.00000000000E+00  0.00000000000E+00 -0.62874003079E+03  0.62874003081E+03  0.50400001928E-02 0. -1.
    10030    2    1    2    0    0  0.00000000000E+00  0.00000000000E+00  0.65613906386E+03  0.19136191255E+04  0.17976149994E+04 0.  0.
        5    1    3    3  502    0  0.52470497918E+03 -0.10479451849E+03 -0.44070822520E+03  0.69321211475E+03  0.46999998093E+01 0. -1.
       -5    1    3    3    0  502 -0.52470497918E+03  0.10479451849E+03  0.10968472891E+04  0.12204070107E+04  0.46999998093E+01 0.  1.
</event>
<event>
 5   0  0.7032692E-06  0.2562627E+04  0.7818609E-02  0.8381008E-01
        1   -1    0    0  501    0  0.00000000000E+00  0.00000000000E+00  0.10844815257E+04  0.10844815257E+04  0.50400001928E-02 0. -1.
       -1   -1    0    0    0  501  0.00000000000E+00  0.00000000000E+00 -0.15138705486E+04  0.15138705486E+04  0.50400001928E-02 0.  1.
    10030    2    1    2    0    0  0.00000000000E+00  0.00000000000E+00 -0.42938902287E+03  0.25983520743E+04  0.25626272786E+04 0.  0.
        5    1    3    3  502    0 -0.74578769591E+03  0.76642454193E+03  0.50093265071E+03  0.11809155247E+04  0.46999998093E+01 0. -1.
       -5    1    3    3    0  502  0.74578769591E+03 -0.76642454193E+03 -0.93032167359E+03  0.14174365496E+04  0.46999998093E+01 0.  1.
</event>
<event>
 5   0  0.7032692E-06  0.2974631E+04  0.7818609E-02  0.8251012E-01
       -1   -1    0    0    0  501  0.00000000000E+00  0.00000000000E+00  0.79628907360E+03  0.79628907361E+03  0.50400001928E-02 0.  1.
        1   -1    0    0  501    0  0.00000000000E+00  0.00000000000E+00 -0.27780209560E+04  0.27780209560E+04  0.50400001928E-02 0. -1.
    10030    2    1    2    0    0  0.00000000000E+00  0.00000000000E+00 -0.19817318824E+04  0.35743100296E+04  0.29746312266E+04 0.  0.
        5    1    3    3  502    0 -0.61767342797E+03  0.50635433771E+03  0.51673002557E+03  0.95128712188E+03  0.46999998093E+01 0.  1.
       -5    1    3    3    0  502  0.61767342797E+03 -0.50635433771E+03 -0.24984619080E+04  0.26230229078E+04  0.46999998093E+01 0. -1.
</event>
<event>
 5   0  0.5392262E-06  0.2981090E+04  0.7818609E-02  0.8249151E-01
       -1   -1    0    0    0  501  0.00000000000E+00  0.00000000000E+00  0.11089590382E+04  0.11089590382E+04  0.50400001928E-02 0. -1.
        1   -1    0    0  501    0  0.00000000000E+00  0.00000000000E+00 -0.20034321002E+04  0.20034321002E+04  0.50400001928E-02 0.  1.
    10030    2    1    2    0    0  0.00000000000E+00  0.00000000000E+00 -0.89447306199E+03  0.31123911383E+04  0.29810898241E+04 0.  0.
        2    1    3    3  502    0 -0.47300104616E+03  0.18102079016E+02  0.10284040737E+04  0.11321098064E+04  0.25500000920E-02 0. -1.
       -2    1    3    3    0  502  0.47300104616E+03 -0.18102079016E+02 -0.19228771357E+04  0.19802813320E+04  0.25500000920E-02 0.  1.
</event>
<event>
 5   0  0.1423692E-05  0.3057322E+04  0.7818609E-02  0.8227549E-01
        2   -1    0    0  501    0  0.00000000000E+00  0.00000000000E+00  0.14059574508E+04  0.14059574508E+04  0.25500000920E-02 0.  1.
       -2   -1    0    0    0  501  0.00000000000E+00  0.00000000000E+00 -0.16620737491E+04  0.16620737491E+04  0.25500000920E-02 0. -1.
    10030    2    1    2    0    0  0.00000000000E+00  0.00000000000E+00 -0.25611629828E+03  0.30680311999E+04  0.30573223391E+04 0.  0.
        3    1    3    3  502    0  0.14585957594E+04 -0.44566964019E+03 -0.24342644671E+02  0.15253575292E+04  0.10100000352E+00 0.  1.
       -3    1    3    3    0  502 -0.14585957594E+04  0.44566964019E+03 -0.23177365361E+03  0.15426736707E+04  0.10100000352E+00 0. -1.
</event>
<event>
 5   0  0.1523029E-05  0.2318343E+04  0.7818609E-02  0.8470724E-01
        2   -1    0    0  501    0  0.00000000000E+00  0.00000000000E+00  0.82902164260E+03  0.82902164261E+03  0.25500000920E-02 0.  1.
       -2   -1    0    0    0  501  0.00000000000E+00  0.00000000000E+00 -0.16208007680E+04  0.16208007680E+04  0.25500000920E-02 0. -1.
    10030    2    1    2    0    0  0.00000000000E+00  0.00000000000E+00 -0.79177912537E+03  0.24498224106E+04  0.23183433007E+04 0.  0.
        5    1    3    3  502    0 -0.44758657658E+03 -0.50207695580E+03  0.60170628506E+03  0.90248964347E+03  0.46999998093E+01 0.  1.
       -5    1    3    3    0  502  0.44758657658E+03  0.50207695580E+03 -0.13934854104E+04  0.15473327671E+04  0.46999998093E+01 0. -1.
</event>
<event>
 5   0  0.1345931E-05  0.3006030E+04  0.7818609E-02  0.8242011E-01
       -2   -1    0    0    0  501  0.00000000000E+00  0.00000000000E+00  0.14916297628E+04  0.14916297628E+04  0.25500000920E-02 0.  1.
        2   -1    0    0  501    0  0.00000000000E+00  0.00000000000E+00 -0.15144870498E+04  0.15144870498E+04  0.25500000920E-02 0. -1.
    10030    2    1    2    0    0  0.00000000000E+00  0.00000000000E+00 -0.22857286992E+02  0.30061168125E+04  0.30060299125E+04 0.  0.
        2    1    3    3  502    0  0.10925159387E+04  0.48138236606E+03  0.90168805486E+03  0.14961154391E+04  0.25500000920E-02 0.  1.
       -2    1    3    3    0  502 -0.10925159387E+04 -0.48138236606E+03 -0.92454534185E+03  0.15100013735E+04  0.25500000920E-02 0. -1.
</event>
<event>
 5   0  0.5392262E-06  0.3003746E+04  0.7818609E-02  0.8242662E-01
       -1   -1    0    0    0  501  0.00000000000E+00  0.00000000000E+00  0.13095800966E+04  0.13095800966E+04  0.50400001928E-02 0.  1.
        1   -1    0    0  501    0  0.00000000000E+00  0.00000000000E+00 -0.17224009860E+04  0.17224009860E+04  0.50400001928E-02 0. -1.
    10030    2    1    2    0    0  0.00000000000E+00  0.00000000000E+00 -0.41282088948E+03  0.30319810826E+04  0.30037456947E+04 0.  0.
        2    1    3    3  502    0 -0.93948898482E+03  0.11201721910E+04  0.14061882877E+03  0.14687405983E+04  0.25500000920E-02 0. -1.
       -2    1    3    3    0  502  0.93948898482E+03 -0.11201721910E+04 -0.55343971825E+03  0.15632404843E+04  0.25500000920E-02 0.  1.
</event>
<event>
 5   0  0.1480547E-05  0.3004848E+04  0.7818609E-02  0.8242348E-01
       -2   -1    0    0    0  501  0.00000000000E+00  0.00000000000E+00  0.14642438903E+04  0.14642438903E+04  0.25500000920E-02 0.  1.
        2   -1    0    0  501    0  0.00000000000E+00  0.00000000000E+00 -0.15416000574E+04  0.15416000574E+04  0.25500000920E-02 0. -1.
    10030    2    1    2    0    0  0.00000000000E+00  0.00000000000E+00 -0.77356167053E+02  0.30058439477E+04  0.30048483924E+04 0.  0.
        1    1    3    3  502    0  0.20777951095E+02 -0.85113667186E+03  0.11996387996E+04  0.14710535704E+04  0.50400001928E-02 0.  1.
       -1    1    3    3    0  502 -0.20777951095E+02  0.85113667186E+03 -0.12769949666E+04  0.15347903773E+04  0.50400001928E-02 0. -1.
</event>
<event>
 5   0  0.5392262E-06  0.3021444E+04  0.7818609E-02  0.8237634E-01
       -1   -1    0    0    0  501  0.00000000000E+00  0.00000000000E+00  0.12714124744E+04  0.12714124744E+04  0.50400001928E-02 0.  1.
        1   -1    0    0  501    0  0.00000000000E+00  0.00000000000E+00 -0.17950754612E+04  0.17950754612E+04  0.50400001928E-02 0. -1.
    10030    2    1    2    0    0  0.00000000000E+00  0.00000000000E+00 -0.52366298685E+03  0.30664879356E+04  0.30214442466E+04 0.  0.
        2    1    3    3  502    0 -0.75943238067E+03 -0.12876074008E+04 -0.48328380107E+03  0.15710612947E+04  0.25500000920E-02 0. -1.
       -2    1    3    3    0  502  0.75943238067E+03  0.12876074008E+04 -0.40379185786E+02  0.14954266408E+04  0.25500000920E-02 0.  1.
</event>
<event>
 5   0  0.5730920E-06  0.2929352E+04  0.7818609E-02  0.8264197E-01
        1   -1    0    0  501    0  0.00000000000E+00  0.00000000000E+00  0.17910606180E+04  0.17910606180E+04  0.50400001928E-02 0.  1.
       -1   -1    0    0    0  501  0.00000000000E+00  0.00000000000E+00 -0.11977687588E+04  0.11977687588E+04  0.50400001928E-02 0. -1.
    10030    2    1    2    0    0  0.00000000000E+00  0.00000000000E+00  0.59329185924E+03  0.29888293768E+04  0.29293524563E+04 0.  0.
        1    1    3    3  502    0 -0.11100524213E+04  0.27460338472E+03  0.12304625154E+04  0.16797801638E+04  0.50400001928E-02 0.  1.
       -1    1    3    3    0  502  0.11100524213E+04 -0.27460338472E+03 -0.63717065620E+03  0.13090492130E+04  0.50400001928E-02 0. -1.
</event>
<event>
 5   0  0.5522695E-06  0.1613565E+04  0.7818609E-02  0.8812258E-01
       -1   -1    0    0    0  501  0.00000000000E+00  0.00000000000E+00  0.44337915975E+03  0.44337915978E+03  0.50400001928E-02 0.  1.
        1   -1    0    0  501    0  0.00000000000E+00  0.00000000000E+00 -0.14680384220E+04  0.14680384220E+04  0.50400001928E-02 0. -1.
    10030    2    1    2    0    0  0.00000000000E+00  0.00000000000E+00 -0.10246592622E+04  0.19114175817E+04  0.16135645535E+04 0.  0.
        3    1    3    3  502    0 -0.50266128131E+03 -0.41589511395E+03 -0.10745567308E+04  0.12571035309E+04  0.10100000352E+00 0. -1.
       -3    1    3    3    0  502  0.50266128131E+03  0.41589511395E+03  0.49897468592E+02  0.65431405082E+03  0.10100000352E+00 0.  1.
</event>
<event>
 5   0  0.5392262E-06  0.3441529E+04  0.7818609E-02  0.8127788E-01
        1   -1    0    0  501    0  0.00000000000E+00  0.00000000000E+00  0.11224104989E+04  0.11224104989E+04  0.50400001928E-02 0.  1.
       -1   -1    0    0    0  501  0.00000000000E+00  0.00000000000E+00 -0.26380987887E+04  0.26380987887E+04  0.50400001928E-02 0. -1.
    10030    2    1    2    0    0  0.00000000000E+00  0.00000000000E+00 -0.15156882897E+04  0.37605092876E+04  0.34415286009E+04 0.  0.
        2    1    3    3  502    0 -0.48693822345E+03  0.38703133222E+03  0.99527053296E+03  0.11736547701E+04  0.25500000920E-02 0.  1.
       -2    1    3    3    0  502  0.48693822345E+03 -0.38703133222E+03 -0.25109588227E+04  0.25868545175E+04  0.25500000920E-02 0. -1.
</event>
<event>
 5   0  0.5522695E-06  0.2928057E+04  0.7818609E-02  0.8264578E-01
       -1   -1    0    0    0  501  0.00000000000E+00  0.00000000000E+00  0.21829244351E+04  0.21829244351E+04  0.50400001928E-02 0.  1.
        1   -1    0    0  501    0  0.00000000000E+00  0.00000000000E+00 -0.98188454886E+03  0.98188454887E+03  0.50400001928E-02 0. -1.
    10030    2    1    2    0    0  0.00000000000E+00  0.00000000000E+00  0.12010398863E+04  0.31648089840E+04  0.29280572223E+04 0.  0.
        3    1    3    3  502    0 -0.92806988984E+02  0.14566422534E+04  0.47747323950E+03  0.15357084672E+04  0.10100000352E+00 0. -1.
       -3    1    3    3    0  502  0.92806988984E+02 -0.14566422534E+04  0.72356664678E+03  0.16291005169E+04  0.10100000352E+00 0.  1.
</event>
<event>
 5   0  0.5329891E-06  0.2933568E+04  0.7818609E-02  0.8262960E-01
       -1   -1    0    0    0  501  0.00000000000E+00  0.00000000000E+00  0.15316860736E+04  0.15316860736E+04  0.50400001928E-02 0.  1.
        1   -1    0    0  501    0  0.00000000000E+00  0.00000000000E+00 -0.14046317389E+04  0.14046317390E+04  0.50400001928E-02 0. -1.
    10030    2    1    2    0    0  0.00000000000E+00  0.00000000000E+00  0.12705433462E+03  0.29363178125E+04  0.29335677071E+04 0.  0.
        4    1    3    3  502    0  0.88327950633E+03 -0.53430912044E+03  0.11065137698E+04  0.15132888878E+04  0.12699999809E+01 0.  1.
       -4    1    3    3    0  502 -0.88327950633E+03  0.53430912044E+03 -0.97945943515E+03  0.14230289247E+04  0.12699999809E+01 0. -1.
</event>
<event>
 5   0  0.5896849E-06  0.1549554E+04  0.7818609E-02  0.8852153E-01
        1   -1    0    0  501    0  0.00000000000E+00  0.00000000000E+00  0.71756187477E+03  0.71756187479E+03  0.50400001928E-02 0.  1.
       -1   -1    0    0    0  501  0.00000000000E+00  0.00000000000E+00 -0.83655411281E+03  0.83655411282E+03  0.50400001928E-02 0. -1.
    10030    2    1    2    0    0  0.00000000000E+00  0.00000000000E+00 -0.11899223804E+03  0.15541159876E+04  0.15495539198E+04 0.  0.
        2    1    3    3  502    0 -0.98518810004E+02 -0.23556975346E+03 -0.79314152969E+03  0.83323019076E+03  0.25500000920E-02 0. -1.
       -2    1    3    3    0  502  0.98518810004E+02  0.23556975346E+03  0.67414929165E+03  0.72088579685E+03  0.25500000920E-02 0.  1.
</event>
<event>
 5   0  0.1345931E-05  0.2951372E+04  0.7818609E-02  0.8257755E-01
        2   -1    0    0  501    0  0.00000000000E+00  0.00000000000E+00  0.12618074941E+04  0.12618074941E+04  0.25500000920E-02 0. -1.
       -2   -1    0    0    0  501  0.00000000000E+00  0.00000000000E+00 -0.17258167810E+04  0.17258167810E+04  0.25500000920E-02 0.  1.
    10030    2    1    2    0    0  0.00000000000E+00  0.00000000000E+00 -0.46400928693E+03  0.29876242751E+04  0.29513715779E+04 0.  0.
        2    1    3    3  502    0 -0.60956963731E+02 -0.55012394083E+03 -0.16167610570E+04  0.17088792868E+04  0.25500000920E-02 0.  1.
       -2    1    3    3    0  502  0.60956963731E+02  0.55012394083E+03  0.11527517700E+04  0.12787449883E+04  0.25500000920E-02 0. -1.
</event>
<event>
 5   0  0.5392262E-06  0.3000663E+04  0.7818609E-02  0.8243542E-01
        1   -1    0    0  501    0  0.00000000000E+00  0.00000000000E+00  0.22322687133E+04  0.22322687133E+04  0.50400001928E-02 0.  1.
       -1   -1    0    0    0  501  0.00000000000E+00  0.00000000000E+00 -0.10083888924E+04  0.10083888925E+04  0.50400001928E-02 0. -1.
    10030    2    1    2    0    0  0.00000000000E+00  0.00000000000E+00  0.12238798209E+04  0.32406576058E+04  0.30006632437E+04 0.  0.
        2    1    3    3  502    0  0.56874842258E+03 -0.13503163462E+04  0.96050093681E+03  0.17519677658E+04  0.25500000920E-02 0. -1.
       -2    1    3    3    0  502 -0.56874842258E+03  0.13503163462E+04  0.26337888405E+03  0.14886898399E+04  0.25500000920E-02 0.  1.
</event>
<event>
 5   0  0.7032692E-06  0.2983994E+04  0.7818609E-02  0.8248316E-01
        1   -1    0    0  501    0  0.00000000000E+00  0.00000000000E+00  0.14093922391E+04  0.14093922391E+04  0.50400001928E-02 0. -1.
       -1   -1    0    0    0  501  0.00000000000E+00  0.00000000000E+00 -0.15794436740E+04  0.15794436740E+04  0.50400001928E-02 0.  1.
    10030    2    1    2    0    0  0.00000000000E+00  0.00000000000E+00 -0.17005143496E+03  0.29888359131E+04  0.29839944076E+04 0.  0.
        5    1    3    3  502    0 -0.18415006254E+03  0.20078553343E+03 -0.15543098062E+04  0.15780136690E+04  0.46999998093E+01 0.  1.
       -5    1    3    3    0  502  0.18415006254E+03 -0.20078553343E+03  0.13842583712E+04  0.14108222441E+04  0.46999998093E+01 0. -1.
</event>
<event>
 5   0  0.1423692E-05  0.3052536E+04  0.7818609E-02  0.8228886E-01
        2   -1    0    0  501    0  0.00000000000E+00  0.00000000000E+00  0.14013985173E+04  0.14013985173E+04  0.25500000920E-02 0.  1.
       -2   -1    0    0    0  501  0.00000000000E+00  0.00000000000E+00 -0.16622633683E+04  0.16622633683E+04  0.25500000920E-02 0. -1.
    10030    2    1    2    0    0  0.00000000000E+00  0.00000000000E+00 -0.26086485098E+03  0.30636618856E+04  0.30525356146E+04 0.  0.
        3    1    3    3  502    0  0.67242579033E+03 -0.27929960225E+03  0.12158474296E+04  0.14171978315E+04  0.10100000352E+00 0.  1.
       -3    1    3    3    0  502 -0.67242579033E+03  0.27929960225E+03 -0.14767122806E+04  0.16464640540E+04  0.10100000352E+00 0. -1.
</event>
<event>
 5   0  0.1423692E-05  0.3076078E+04  0.7818609E-02  0.8222334E-01
       -2   -1    0    0    0  501  0.00000000000E+00  0.00000000000E+00  0.12434210256E+04  0.12434210256E+04  0.25500000920E-02 0. -1.
        2   -1    0    0  501    0  0.00000000000E+00  0.00000000000E+00 -0.19024643177E+04  0.19024643178E+04  0.25500000920E-02 0.  1.
    10030    2    1    2    0    0  0.00000000000E+00  0.00000000000E+00 -0.65904329212E+03  0.31458853434E+04  0.30760781090E+04 0.  0.
        3    1    3    3  502    0 -0.10496007185E+04  0.10478883760E+04  0.86945006207E+02  0.14856955143E+04  0.10100000352E+00 0. -1.
       -3    1    3    3    0  502  0.10496007185E+04 -0.10478883760E+04 -0.74598829833E+03  0.16601898290E+04  0.10100000352E+00 0.  1.
</event>
<event>
 5   0  0.1388724E-05  0.3087742E+04  0.7818609E-02  0.8219110E-01
        2   -1    0    0  501    0  0.00000000000E+00  0.00000000000E+00  0.14447030453E+04  0.14447030453E+04  0.25500000920E-02 0. -1.
       -2   -1    0    0    0  501  0.00000000000E+00  0.00000000000E+00 -0.16498464872E+04  0.16498464872E+04  0.25500000920E-02 0.  1.
    10030    2    1    2    0    0  0.00000000000E+00  0.00000000000E+00 -0.20514344186E+03  0.30945495325E+04  0.30877423755E+04 0.  0.
        4    1    3    3  502    0 -0.61045596436E+03 -0.14909449326E+03  0.13107325284E+04  0.14535842000E+04  0.12699999809E+01 0. -1.
       -4    1    3    3    0  502  0.61045596436E+03  0.14909449326E+03 -0.15158759703E+04  0.16409653325E+04  0.12699999809E+01 0.  1.
</event>
<event>
 5   0  0.1423692E-05  0.3171626E+04  0.7818609E-02  0.8196351E-01
       -2   -1    0    0    0  501  0.00000000000E+00  0.00000000000E+00  0.10693667498E+04  0.10693667498E+04  0.25500000920E-02 0. -1.
        2   -1    0    0  501    0  0.00000000000E+00  0.00000000000E+00 -0.23516744165E+04  0.23516744165E+04  0.25500000920E-02 0.  1.
    10030    2    1    2    0    0  0.00000000000E+00  0.00000000000E+00 -0.12823076667E+04  0.34210411662E+04  0.31716257202E+04 0.  0.
        3    1    3    3  502    0  0.96387216657E+03 -0.33538423513E+03  0.66808109429E+03  0.12197805120E+04  0.10100000352E+00 0. -1.
       -3    1    3    3    0  502 -0.96387216657E+03  0.33538423513E+03 -0.19503887610E+04  0.22012606542E+04  0.10100000352E+00 0.  1.
</event>
<event>
 5   0  0.1480547E-05  0.3013771E+04  0.7818609E-02  0.8239810E-01
       -2   -1    0    0    0  501  0.00000000000E+00  0.00000000000E+00  0.11491077033E+04  0.11491077033E+04  0.25500000920E-02 0.  1.
        2   -1    0    0  501    0  0.00000000000E+00  0.00000000000E+00 -0.19760578041E+04  0.19760578041E+04  0.25500000920E-02 0. -1.
    10030    2    1    2    0    0  0.00000000000E+00  0.00000000000E+00 -0.82695010082E+03  0.31251655074E+04  0.30137705585E+04 0.  0.
        1    1    3    3  502    0 -0.10782310128E+03  0.12710545026E+04 -0.12453085283E+04  0.17826942252E+04  0.50400001928E-02 0. -1.
       -1    1    3    3    0  502  0.10782310128E+03 -0.12710545026E+04  0.41835842743E+03  0.13424712823E+04  0.50400001928E-02 0.  1.
</event>
<event>
 5   0  0.1423692E-05  0.3015020E+04  0.7818609E-02  0.8239455E-01
       -2   -1    0    0    0  501  0.00000000000E+00  0.00000000000E+00  0.22401174017E+04  0.22401174017E+04  0.25500000920E-02 0. -1.
        2   -1    0    0  501    0  0.00000000000E+00  0.00000000000E+00 -0.10144945292E+04  0.10144945292E+04  0.25500000920E-02 0.  1.
    10030    2    1    2    0    0  0.00000000000E+00  0.00000000000E+00  0.12256228725E+04  0.32546119308E+04  0.30150202976E+04 0.  0.
        3    1    3    3  502    0 -0.65766306529E+03  0.70323781146E+03  0.18649560461E+04  0.20988390102E+04  0.10100000352E+00 0. -1.
       -3    1    3    3    0  502  0.65766306529E+03 -0.70323781146E+03 -0.63933317361E+03  0.11557729206E+04  0.10100000352E+00 0.  1.
</event>
<event>
 5   0  0.1523029E-05  0.2859529E+04  0.7818609E-02  0.8285022E-01
        2   -1    0    0  501    0  0.00000000000E+00  0.00000000000E+00  0.19184511713E+04  0.19184511713E+04  0.25500000920E-02 0.  1.
       -2   -1    0    0    0  501  0.00000000000E+00  0.00000000000E+00 -0.10655606487E+04  0.10655606487E+04  0.25500000920E-02 0. -1.
    10030    2    1    2    0    0  0.00000000000E+00  0.00000000000E+00  0.85289052267E+03  0.29840118200E+04  0.28595286846E+04 0.  0.
        5    1    3    3  502    0  0.11607726193E+04  0.83440998997E+03  0.40151204768E+03  0.14848794967E+04  0.46999998093E+01 0.  1.
       -5    1    3    3    0  502 -0.11607726193E+04 -0.83440998997E+03  0.45137847499E+03  0.14991323233E+04  0.46999998093E+01 0. -1.
</event>
<event>
 5   0  0.5522695E-06  0.3060364E+04  0.7818609E-02  0.8226701E-01
       -1   -1    0    0    0  501  0.00000000000E+00  0.00000000000E+00  0.12898909625E+04  0.12898909625E+04  0.50400001928E-02 0. -1.
        1   -1    0    0  501    0  0.00000000000E+00  0.00000000000E+00 -0.18152361150E+04  0.18152361150E+04  0.50400001928E-02 0.  1.
    10030    2    1    2    0    0  0.00000000000E+00  0.00000000000E+00 -0.52534515250E+03  0.31051270776E+04  0.30603638082E+04 0.  0.
        3    1    3    3  502    0  0.30688198781E+03  0.82648956508E+03 -0.15316438203E+04  0.17672561665E+04  0.10100000352E+00 0.  1.
       -3    1    3    3    0  502 -0.30688198781E+03 -0.82648956508E+03  0.10062986678E+04  0.13378709110E+04  0.10100000352E+00 0. -1.
</event>
<event>
 5   0  0.5730920E-06  0.3140854E+04  0.7818609E-02  0.8204615E-01
        1   -1    0    0  501    0  0.00000000000E+00  0.00000000000E+00  0.18898265453E+04  0.18898265453E+04  0.50400001928E-02 0.  1.
       -1   -1    0    0    0  501  0.00000000000E+00  0.00000000000E+00 -0.13050087889E+04  0.13050087890E+04  0.50400001928E-02 0. -1.
    10030    2    1    2    0    0  0.00000000000E+00  0.00000000000E+00  0.58481775635E+03  0.31948353343E+04  0.31408535472E+04 0.  0.
        1    1    3    3  502    0 -0.10360321614E+04 -0.11436677066E+04 -0.39781635768E+01  0.15431637271E+04  0.50400001928E-02 0.  1.
       -1    1    3    3    0  502  0.10360321614E+04  0.11436677066E+04  0.58879591992E+03  0.16516716072E+04  0.50400001928E-02 0. -1.
</event>
<event>
 5   0  0.5522695E-06  0.2980039E+04  0.7818609E-02  0.8249454E-01
       -1   -1    0    0    0  501  0.00000000000E+00  0.00000000000E+00  0.23226967046E+04  0.23226967046E+04  0.50400001928E-02 0. -1.
        1   -1    0    0  501    0  0.00000000000E+00  0.00000000000E+00 -0.95585344067E+03  0.95585344068E+03  0.50400001928E-02 0.  1.
    10030    2    1    2    0    0  0.00000000000E+00  0.00000000000E+00  0.13668432639E+04  0.32785501453E+04  0.29800386821E+04 0.  0.
        3    1    3    3  502    0  0.11710696219E+04 -0.71857129911E+03  0.13177238375E+04  0.19037187012E+04  0.10100000352E+00 0.  1.
       -3    1    3    3    0  502 -0.11710696219E+04  0.71857129911E+03  0.49119426430E+02  0.13748314441E+04  0.10100000352E+00 0. -1.
</event>
<event>
 5   0  0.5730920E-06  0.2178552E+04  0.7818609E-02  0.8527408E-01
       -1   -1    0    0    0  501  0.00000000000E+00  0.00000000000E+00  0.15570766426E+04  0.15570766426E+04  0.50400001928E-02 0.  1.
        1   -1    0    0  501    0  0.00000000000E+00  0.00000000000E+00 -0.76201942635E+03  0.76201942636E+03  0.50400001928E-02 0. -1.
    10030    2    1    2    0    0  0.00000000000E+00  0.00000000000E+00  0.79505721627E+03  0.23190960690E+04  0.21785524093E+04 0.  0.
        1    1    3    3  502    0 -0.59386138866E+03 -0.88804689671E+03  0.17115006367E+03  0.10819385306E+04  0.50400001928E-02 0. -1.
       -1    1    3    3    0  502  0.59386138866E+03  0.88804689671E+03  0.62390715259E+03  0.12371575384E+04  0.50400001928E-02 0.  1.
</event>
<event>
 5   0  0.5329891E-06  0.2968787E+04  0.7818609E-02  0.8252701E-01
       -1   -1    0    0    0  501  0.00000000000E+00  0.00000000000E+00  0.14687043766E+04  0.14687043766E+04  0.50400001928E-02 0. -1.
        1   -1    0    0  501    0  0.00000000000E+00  0.00000000000E+00 -0.15002498488E+04  0.15002498488E+04  0.50400001928E-02 0.  1.
    10030    2    1    2    0    0  0.00000000000E+00  0.00000000000E+00 -0.31545472224E+02  0.29689542255E+04  0.29687866336E+04 0.  0.
        4    1    3    3  502    0 -0.82433015876E+03  0.78401729005E+03  0.93781063224E+03  0.14743451823E+04  0.12699999809E+01 0. -1.
       -4    1    3    3    0  502  0.82433015876E+03 -0.78401729005E+03 -0.96935610446E+03  0.14946090432E+04  0.12699999809E+01 0.  1.
</event>
<event>
 5   0  0.1388724E-05  0.2969436E+04  0.7818609E-02  0.8252513E-01
        2   -1    0    0  501    0  0.00000000000E+00  0.00000000000E+00  0.16096364983E+04  0.16096364983E+04  0.25500000920E-02 0.  1.
       -2   -1    0    0    0  501  0.00000000000E+00  0.00000000000E+00 -0.13694941258E+04  0.13694941258E+04  0.25500000920E-02 0. -1.
    10030    2    1    2    0    0  0.00000000000E+00  0.00000000000E+00  0.24014237255E+03  0.29791306241E+04  0.29694361277E+04 0.  0.
        4    1    3    3  502    0  0.81518013837E+03 -0.77566855037E+03  0.10918436862E+04  0.15678981491E+04  0.12699999809E+01 0.  1.
       -4    1    3    3    0  502 -0.81518013837E+03  0.77566855037E+03 -0.85170131362E+03  0.14112324750E+04  0.12699999809E+01 0. -1.
</event>
<event>
 5   0  0.1423692E-05  0.2962775E+04  0.7818609E-02  0.8254441E-01
        2   -1    0    0  501    0  0.00000000000E+00  0.00000000000E+00  0.16228977155E+04  0.16228977155E+04  0.25500000920E-02 0.  1.
       -2   -1    0    0    0  501  0.00000000000E+00  0.00000000000E+00 -0.13522162326E+04  0.13522162326E+04  0.25500000920E-02 0. -1.
    10030    2    1    2    0    0  0.00000000000E+00  0.00000000000E+00  0.27068148296E+03  0.29751139481E+04  0.29627748039E+04 0.  0.
        3    1    3    3  502    0 -0.52016473317E+03 -0.10772331405E+04  0.10127681545E+04  0.15673869763E+04  0.10100000352E+00 0.  1.
       -3    1    3    3    0  502  0.52016473317E+03  0.10772331405E+04 -0.74208667151E+03  0.14077269717E+04  0.10100000352E+00 0. -1.
</event>
<event>
 5   0  0.5730920E-06  0.3000583E+04  0.7818609E-02  0.8243565E-01
        1   -1    0    0  501    0  0.00000000000E+00  0.00000000000E+00  0.13444632115E+04  0.13444632116E+04  0.50400001928E-02 0.  1.
       -1   -1    0    0    0  501  0.00000000000E+00  0.00000000000E+00 -0.16741803285E+04  0.16741803285E+04  0.50400001928E-02 0. -1.
    10030    2    1    2    0    0  0.00000000000E+00  0.00000000000E+00 -0.32971711692E+03  0.30186435400E+04  0.30005825175E+04 0.  0.
        1    1    3    3  502    0  0.13456388965E+04 -0.88276784833E+01 -0.83221553407E+03  0.15822151127E+04  0.50400001928E-02 0. -1.
       -1    1    3    3    0  502 -0.13456388965E+04  0.88276784833E+01  0.50249841715E+03  0.14364284273E+04  0.50400001928E-02 0.  1.
</event>
<event>
 5   0  0.1423692E-05  0.2821698E+04  0.7818609E-02  0.8296563E-01
       -2   -1    0    0    0  501  0.00000000000E+00  0.00000000000E+00  0.10516883610E+04  0.10516883610E+04  0.25500000920E-02 0.  1.
        2   -1    0    0  501    0  0.00000000000E+00  0.00000000000E+00 -0.18926662014E+04  0.18926662014E+04  0.25500000920E-02 0. -1.
    10030    2    1    2    0    0  0.00000000000E+00  0.00000000000E+00 -0.84097784042E+03  0.29443545624E+04  0.28216980811E+04 0.  0.
        3    1    3    3  502    0 -0.10764686149E+04 -0.86486752197E+03 -0.72240058758E+03  0.15584104493E+04  0.10100000352E+00 0. -1.
       -3    1    3    3    0  502  0.10764686149E+04  0.86486752197E+03 -0.11857725284E+03  0.13859441131E+04  0.10100000352E+00 0.  1.
</event>
<event>
 5   0  0.1480547E-05  0.3053619E+04  0.7818609E-02  0.8228583E-01
        2   -1    0    0  501    0  0.00000000000E+00  0.00000000000E+00  0.25186721076E+04  0.25186721076E+04  0.25500000920E-02 0. -1.
       -2   -1    0    0    0  501  0.00000000000E+00  0.00000000000E+00 -0.92554609798E+03  0.92554609798E+03  0.25500000920E-02 0.  1.
    10030    2    1    2    0    0  0.00000000000E+00  0.00000000000E+00  0.15931260096E+04  0.34442182056E+04  0.30536189293E+04 0.  0.
        1    1    3    3  502    0 -0.11690076365E+02  0.48834957982E+03 -0.83502748160E+03  0.96741555965E+03  0.50400001928E-02 0.  1.
       -1    1    3    3    0  502  0.11690076365E+02 -0.48834957982E+03  0.24281534912E+04  0.24768026459E+04  0.50400001928E-02 0. -1.
</event>
<event>
 5   0  0.1345931E-05  0.2957064E+04  0.7818609E-02  0.8256099E-01
       -2   -1    0    0    0  501  0.00000000000E+00  0.00000000000E+00  0.12354252252E+04  0.12354252252E+04  0.25500000920E-02 0.  1.
        2   -1    0    0  501    0  0.00000000000E+00  0.00000000000E+00 -0.17694770869E+04  0.17694770869E+04  0.25500000920E-02 0. -1.
    10030    2    1    2    0    0  0.00000000000E+00  0.00000000000E+00 -0.53405186173E+03  0.30049023122E+04  0.29570638334E+04 0.  0.
        2    1    3    3  502    0  0.35233143521E+03 -0.21006628578E+03 -0.17104960083E+04  0.17589945649E+04  0.25500000920E-02 0. -1.
       -2    1    3    3    0  502 -0.35233143521E+03  0.21006628578E+03  0.11764441466E+04  0.12459077473E+04  0.25500000920E-02 0.  1.
</event>
<event>
 5   0  0.5392262E-06  0.1984217E+04  0.7818609E-02  0.8614035E-01
       -1   -1    0    0    0  501  0.00000000000E+00  0.00000000000E+00  0.16782918131E+04  0.16782918131E+04  0.50400001928E-02 0. -1.
        1   -1    0    0  501    0  0.00000000000E+00  0.00000000000E+00 -0.58647701254E+03  0.58647701256E+03  0.50400001928E-02 0.  1.
    10030    2    1    2    0    0  0.00000000000E+00  0.00000000000E+00  0.10918148005E+04  0.22647688256E+04  0.19842172953E+04 0.  0.
        2    1    3    3  502    0  0.32493700579E+03  0.52743959148E+02  0.16141386506E+04  0.16473644303E+04  0.25500000920E-02 0. -1.
       -2    1    3    3    0  502 -0.32493700579E+03 -0.52743959148E+02 -0.52232385008E+03  0.61740439529E+03  0.25500000920E-02 0.  1.
</event>
<event>
 5   0  0.5329891E-06  0.3011712E+04  0.7818609E-02  0.8240394E-01
       -1   -1    0    0    0  501  0.00000000000E+00  0.00000000000E+00  0.14093008042E+04  0.14093008043E+04  0.50400001928E-02 0. -1.
        1   -1    0    0  501    0  0.00000000000E+00  0.00000000000E+00 -0.16090262342E+04  0.16090262342E+04  0.50400001928E-02 0.  1.
    10030    2    1    2    0    0  0.00000000000E+00  0.00000000000E+00 -0.19972542997E+03  0.30183270385E+04  0.30117117830E+04 0.  0.
        4    1    3    3  502    0  0.78563094260E+03  0.10131823854E+04 -0.89143672045E+03  0.15615426871E+04  0.12699999809E+01 0.  1.
       -4    1    3    3    0  502 -0.78563094260E+03 -0.10131823854E+04  0.69171129048E+03  0.14567843514E+04  0.12699999809E+01 0. -1.
</event>
<event>
 5   0  0.1523029E-05  0.2372524E+04  0.7818609E-02  0.8449862E-01
        2   -1    0    0  501    0  0.00000000000E+00  0.00000000000E+00  0.19829567045E+04  0.19829567045E+04  0.25500000920E-02 0. -1.
       -2   -1    0    0    0  501  0.00000000000E+00  0.00000000000E+00 -0.70965642856E+03  0.70965642857E+03  0.25500000920E-02 0.  1.
    10030    2    1    2    0    0  0.00000000000E+00  0.00000000000E+00  0.12733002759E+04  0.26926131330E+04  0.23725243711E+04 0.  0.
        5    1    3    3  502    0 -0.85780403784E+03  0.71701461024E+03  0.18659069507E+03  0.11334795526E+04  0.46999998093E+01 0.  1.
       -5    1    3    3    0  502  0.85780403784E+03 -0.71701461024E+03  0.10867095808E+04  0.15591335805E+04  0.46999998093E+01 0. -1.
</event>
<event>
 5   0  0.4806125E-06  0.2387188E+04  0.7818609E-02  0.8444316E-01
       -4   -1    0    0    0  501  0.00000000000E+00  0.00000000000E+00  0.13962766615E+04  0.13962772391E+04  0.12699999809E+01 0.  1.
        4   -1    0    0  501    0  0.00000000000E+00  0.00000000000E+00 -0.10203310417E+04  0.10203318321E+04  0.12699999809E+01 0. -1.
    10030    2    1    2    0    0  0.00000000000E+00  0.00000000000E+00  0.37594561978E+03  0.24166090712E+04  0.23871875280E+04 0.  0.
        5    1    3    3  502    0 -0.80021718728E+03  0.69806808729E+03 -0.36371854080E+03  0.11224793398E+04  0.46999998093E+01 0. -1.
       -5    1    3    3    0  502  0.80021718728E+03 -0.69806808729E+03  0.73966416059E+03  0.12941297314E+04  0.46999998093E+01 0.  1.
</event>
<event>
 5   0  0.7032692E-06  0.3118594E+04  0.7818609E-02  0.8210653E-01
       -1   -1    0    0    0  501  0.00000000000E+00  0.00000000000E+00  0.17419744601E+04  0.17419744601E+04  0.50400001928E-02 0. -1.
        1   -1    0    0  501    0  0.00000000000E+00  0.00000000000E+00 -0.13957767128E+04  0.13957767128E+04  0.50400001928E-02 0.  1.
    10030    2    1    2    0    0  0.00000000000E+00  0.00000000000E+00  0.34619774732E+03  0.31377511729E+04  0.31185941613E+04 0.  0.
        5    1    3    3  502    0 -0.10546400071E+04 -0.58688348733E+03 -0.82022836012E+03  0.14592787345E+04  0.46999998093E+01 0.  1.
       -5    1    3    3    0  502  0.10546400071E+04  0.58688348733E+03  0.11664261074E+04  0.16784724384E+04  0.46999998093E+01 0. -1.
</event>
<event>
 5   0  0.5329891E-06  0.2938956E+04  0.7818609E-02  0.8261381E-01
       -1   -1    0    0    0  501  0.00000000000E+00  0.00000000000E+00  0.13130146309E+04  0.13130146309E+04  0.50400001928E-02 0.  1.
        1   -1    0    0  501    0  0.00000000000E+00  0.00000000000E+00 -0.16445855426E+04  0.16445855426E+04  0.50400001928E-02 0. -1.
    10030    2    1    2    0    0  0.00000000000E+00  0.00000000000E+00 -0.33157091177E+03  0.29576001735E+04  0.29389555146E+04 0.  0.
        4    1    3    3  502    0 -0.11399266658E+04  0.41804089491E+03  0.66721711281E+03  0.13854137583E+04  0.12699999809E+01 0.  1.
       -4    1    3    3    0  502  0.11399266658E+04 -0.41804089491E+03 -0.99878802458E+03  0.15721864152E+04  0.12699999809E+01 0. -1.
</event>
<event>
 5   0  0.5522695E-06  0.3084493E+04  0.7818609E-02  0.8220007E-01
       -1   -1    0    0    0  501  0.00000000000E+00  0.00000000000E+00  0.11501624215E+04  0.11501624216E+04  0.50400001928E-02 0. -1.
        1   -1    0    0  501    0  0.00000000000E+00  0.00000000000E+00 -0.20679893471E+04  0.20679893472E+04  0.50400001928E-02 0.  1.
    10030    2    1    2    0    0  0.00000000000E+00  0.00000000000E+00 -0.91782692560E+03  0.32181517687E+04  0.30844925905E+04 0.  0.
        3    1    3    3  502    0 -0.12119307505E+04 -0.93926038297E+03 -0.63204826234E+03  0.16584544694E+04  0.10100000352E+00 0.  1.
       -3    1    3    3    0  502  0.12119307505E+04  0.93926038297E+03 -0.28577866326E+03  0.15596972993E+04  0.10100000352E+00 0. -1.
</event>
<event>
 5   0  0.7032692E-06  0.2925635E+04  0.7818609E-02  0.8265291E-01
        1   -1    0    0  501    0  0.00000000000E+00  0.00000000000E+00  0.20633888028E+04  0.20633888028E+04  0.50400001928E-02 0. -1.
       -1   -1    0    0    0  501  0.00000000000E+00  0.00000000000E+00 -0.10370488266E+04  0.10370488266E+04  0.50400001928E-02 0.  1.
    10030    2    1    2    0    0  0.00000000000E+00  0.00000000000E+00  0.10263399762E+04  0.31004376295E+04  0.29256349307E+04 0.  0.
        5    1    3    3  502    0  0.14230277309E+04 -0.32546291200E+03  0.41331255052E+03  0.15171629393E+04  0.46999998093E+01 0. -1.
       -5    1    3    3    0  502 -0.14230277309E+04  0.32546291200E+03  0.61302742569E+03  0.15832746902E+04  0.46999998093E+01 0.  1.
</event>
<event>
 5   0  0.5730920E-06  0.3163839E+04  0.7818609E-02  0.8198433E-01
       -1   -1    0    0    0  501  0.00000000000E+00  0.00000000000E+00  0.11912647138E+04  0.11912647139E+04  0.50400001928E-02 0. -1.
        1   -1    0    0  501    0  0.00000000000E+00  0.00000000000E+00 -0.21006832241E+04  0.21006832241E+04  0.50400001928E-02 0.  1.
    10030    2    1    2    0    0  0.00000000000E+00  0.00000000000E+00 -0.90941851021E+03  0.32919479379E+04  0.31638393131E+04 0.  0.
        1    1    3    3  502    0  0.25569126017E+03  0.13584952216E+04  0.34557855852E+03  0.14248901107E+04  0.50400001928E-02 0. -1.
       -1    1    3    3    0  502 -0.25569126017E+03 -0.13584952216E+04 -0.12549970687E+04  0.18670578272E+04  0.50400001928E-02 0.  1.
</event>
<event>
 5   0  0.1480547E-05  0.3018323E+04  0.7818609E-02  0.8238518E-01
        2   -1    0    0  501    0  0.00000000000E+00  0.00000000000E+00  0.20765946104E+04  0.20765946104E+04  0.25500000920E-02 0.  1.
       -2   -1    0    0    0  501  0.00000000000E+00  0.00000000000E+00 -0.10967805897E+04  0.10967805897E+04  0.25500000920E-02 0. -1.
    10030    2    1    2    0    0  0.00000000000E+00  0.00000000000E+00  0.97981402065E+03  0.31733752001E+04  0.30183231513E+04 0.  0.
        1    1    3    3  502    0  0.68983373724E+03  0.11680065694E+04 -0.20547625097E+03  0.13719804740E+04  0.50400001928E-02 0. -1.
       -1    1    3    3    0  502 -0.68983373724E+03 -0.11680065694E+04  0.11852902716E+04  0.18013947261E+04  0.50400001928E-02 0.  1.
</event>
<event>
 5   0  0.5730920E-06  0.2971815E+04  0.7818609E-02  0.8251825E-01
       -1   -1    0    0    0  501  0.00000000000E+00  0.00000000000E+00  0.10308003621E+04  0.10308003621E+04  0.50400001928E-02 0.  1.
        1   -1    0    0  501    0  0.00000000000E+00  0.00000000000E+00 -0.21419485890E+04  0.21419485890E+04  0.50400001928E-02 0. -1.
    10030    2    1    2    0    0  0.00000000000E+00  0.00000000000E+00 -0.11111482269E+04  0.31727489511E+04  0.29718151902E+04 0.  0.
        1    1    3    3  502    0  0.16710272670E+03  0.47263363824E+03 -0.20489414781E+04  0.21093759878E+04  0.50400001928E-02 0. -1.
       -1    1    3    3    0  502 -0.16710272670E+03 -0.47263363824E+03  0.93779325117E+03  0.10633729634E+04  0.50400001928E-02 0.  1.
</event>
<event>
 5   0  0.1388724E-05  0.2939316E+04  0.7818609E-02  0.8261275E-01
        2   -1    0    0  501    0  0.00000000000E+00  0.00000000000E+00  0.17508840674E+04  0.17508840674E+04  0.25500000920E-02 0.  1.
       -2   -1    0    0    0  501  0.00000000000E+00  0.00000000000E+00 -0.12336025686E+04  0.12336025686E+04  0.25500000920E-02 0. -1.
    10030    2    1    2    0    0  0.00000000000E+00  0.00000000000E+00  0.51728149889E+03  0.29844866360E+04  0.29393163034E+04 0.  0.
        4    1    3    3  502    0  0.42884123550E+03  0.12578795000E+04 -0.37847944452E+03  0.13818154525E+04  0.12699999809E+01 0. -1.
       -4    1    3    3    0  502 -0.42884123550E+03 -0.12578795000E+04  0.89576094341E+03  0.16026711835E+04  0.12699999809E+01 0.  1.
</event>
<event>
 5   0  0.1523029E-05  0.2842371E+04  0.7818609E-02  0.8290233E-01
       -2   -1    0    0    0  501  0.00000000000E+00  0.00000000000E+00  0.10761712531E+04  0.10761712532E+04  0.25500000920E-02 0.  1.
        2   -1    0    0  501    0  0.00000000000E+00  0.00000000000E+00 -0.18768097672E+04  0.18768097672E+04  0.25500000920E-02 0. -1.
    10030    2    1    2    0    0  0.00000000000E+00  0.00000000000E+00 -0.80063851408E+03  0.29529810204E+04  0.28423713474E+04 0.  0.
        5    1    3    3  502    0 -0.80755039415E+03  0.39079450747E+03 -0.15454315454E+04  0.17869635524E+04  0.46999998093E+01 0. -1.
       -5    1    3    3    0  502  0.80755039415E+03 -0.39079450747E+03  0.74479303130E+03  0.11660174680E+04  0.46999998093E+01 0.  1.
</event>
<event>
 5   0  0.5392262E-06  0.2044853E+04  0.7818609E-02  0.8585933E-01
        1   -1    0    0  501    0  0.00000000000E+00  0.00000000000E+00  0.14825199510E+04  0.14825199510E+04  0.50400001928E-02 0.  1.
       -1   -1    0    0    0  501  0.00000000000E+00  0.00000000000E+00 -0.70512079337E+03  0.70512079339E+03  0.50400001928E-02 0. -1.
    10030    2    1    2    0    0  0.00000000000E+00  0.00000000000E+00  0.77739915759E+03  0.21876407444E+04  0.20448527028E+04 0.  0.
        2    1    3    3  502    0  0.95923959279E+03 -0.26486473518E+03  0.13766192970E+03  0.10046117316E+04  0.25500000920E-02 0.  1.
       -2    1    3    3    0  502 -0.95923959279E+03  0.26486473518E+03  0.63973722789E+03  0.11830290128E+04  0.25500000920E-02 0. -1.
</event>
<event>
 5   0  0.5730920E-06  0.3011846E+04  0.7818609E-02  0.8240356E-01
        1   -1    0    0  501    0  0.00000000000E+00  0.00000000000E+00  0.21446953886E+04  0.21446953886E+04  0.50400001928E-02 0.  1.
       -1   -1    0    0    0  501  0.00000000000E+00  0.00000000000E+00 -0.10574016942E+04  0.10574016942E+04  0.50400001928E-02 0. -1.
    10030    2    1    2    0    0  0.00000000000E+00  0.00000000000E+00  0.10872936944E+04  0.32020970828E+04  0.30118463025E+04 0.  0.
        1    1    3    3  502    0 -0.52557946292E+03  0.82378610697E+02 -0.95416883196E+03  0.10924551099E+04  0.50400001928E-02 0. -1.
       -1    1    3    3    0  502  0.52557946292E+03 -0.82378610697E+02  0.20414625263E+04  0.21096419729E+04  0.50400001928E-02 0.  1.
</event>
<event>
 5   0  0.1345931E-05  0.3106840E+04  0.7818609E-02  0.8213863E-01
       -2   -1    0    0    0  501  0.00000000000E+00  0.00000000000E+00  0.14995232171E+04  0.14995232171E+04  0.25500000920E-02 0. -1.
        2   -1    0    0  501    0  0.00000000000E+00  0.00000000000E+00 -0.16092536309E+04  0.16092536309E+04  0.25500000920E-02 0.  1.
    10030    2    1    2    0    0  0.00000000000E+00  0.00000000000E+00 -0.10973041382E+03  0.31087768480E+04  0.31068396687E+04 0.  0.
        2    1    3    3  502    0  0.21718967885E+03  0.14241124560E+04 -0.63647244270E+03  0.15749173992E+04  0.25500000920E-02 0.  1.
       -2    1    3    3    0  502 -0.21718967885E+03 -0.14241124560E+04  0.52674202889E+03  0.15338594489E+04  0.25500000920E-02 0. -1.
</event>
<event>
 5   0  0.5522695E-06  0.1502866E+04  0.7818609E-02  0.8882549E-01
        1   -1    0    0  501    0  0.00000000000E+00  0.00000000000E+00  0.14757962675E+04  0.14757962675E+04  0.50400001928E-02 0. -1.
       -1   -1    0    0    0  501  0.00000000000E+00  0.00000000000E+00 -0.38260811554E+03  0.38260811557E+03  0.50400001928E-02 0.  1.
    10030    2    1    2    0    0  0.00000000000E+00  0.00000000000E+00  0.10931881520E+04  0.18584043831E+04  0.15028661003E+04 0.  0.
        3    1    3    3  502    0  0.84558342325E+02  0.46721090181E+03 -0.17361362918E+03  0.50554707245E+03  0.10100000352E+00 0.  1.
       -3    1    3    3    0  502 -0.84558342325E+02 -0.46721090181E+03  0.12668017812E+04  0.13528573106E+04  0.10100000352E+00 0. -1.
</event>
<event>
 5   0  0.5522695E-06  0.2559129E+04  0.7818609E-02  0.8382218E-01
        1   -1    0    0  501    0  0.00000000000E+00  0.00000000000E+00  0.16162656308E+04  0.16162656308E+04  0.50400001928E-02 0. -1.
       -1   -1    0    0    0  501  0.00000000000E+00  0.00000000000E+00 -0.10130047766E+04  0.10130047766E+04  0.50400001928E-02 0.  1.
    10030    2    1    2    0    0  0.00000000000E+00  0.00000000000E+00  0.60326085419E+03  0.26292704074E+04  0.25591286050E+04 0.  0.
        3    1    3    3  502    0  0.39578353899E+03 -0.12108047529E+04  0.17752205781E+03  0.12861597298E+04  0.10100000352E+00 0.  1.
       -3    1    3    3    0  502 -0.39578353899E+03  0.12108047529E+04  0.42573879637E+03  0.13431106776E+04  0.10100000352E+00 0. -1.
</event>
<event>
 5   0  0.1345931E-05  0.3014615E+04  0.7818609E-02  0.8239570E-01
       -2   -1    0    0    0  501  0.00000000000E+00  0.00000000000E+00  0.27032784918E+04  0.27032784918E+04  0.25500000920E-02 0. -1.
        2   -1    0    0  501    0  0.00000000000E+00  0.00000000000E+00 -0.84045220008E+03  0.84045220008E+03  0.25500000920E-02 0.  1.
    10030    2    1    2    0    0  0.00000000000E+00  0.00000000000E+00  0.18628262918E+04  0.35437306919E+04  0.30146153028E+04 0.  0.
        2    1    3    3  502    0  0.12124654390E+04 -0.41759958082E+03  0.18626082741E+04  0.22613649492E+04  0.25500000920E-02 0. -1.
       -2    1    3    3    0  502 -0.12124654390E+04  0.41759958082E+03  0.21801763241E+00  0.12823657427E+04  0.25500000920E-02 0.  1.
</event>
<event>
 5   0  0.7032692E-06  0.2876555E+04  0.7818609E-02  0.8279887E-01
       -1   -1    0    0    0  501  0.00000000000E+00  0.00000000000E+00  0.16652614048E+04  0.16652614048E+04  0.50400001928E-02 0.  1.
        1   -1    0    0  501    0  0.00000000000E+00  0.00000000000E+00 -0.12422330557E+04  0.12422330558E+04  0.50400001928E-02 0. -1.
    10030    2    1    2    0    0  0.00000000000E+00  0.00000000000E+00  0.42302834902E+03  0.29074944605E+04  0.28765554147E+04 0.  0.
        5    1    3    3  502    0  0.47738362420E+03  0.30545179693E+03  0.15476339512E+04  0.16481470996E+04  0.46999998093E+01 0.  1.
       -5    1    3    3    0  502 -0.47738362420E+03 -0.30545179693E+03 -0.11246056022E+04  0.12593473609E+04  0.46999998093E+01 0. -1.
</event>
<event>
 5   0  0.1423692E-05  0.2922529E+04  0.7818609E-02  0.8266206E-01
        2   -1    0    0  501    0  0.00000000000E+00  0.00000000000E+00  0.19735301530E+04  0.19735301530E+04  0.25500000920E-02 0.  1.
       -2   -1    0    0    0  501  0.00000000000E+00  0.00000000000E+00 -0.10819666775E+04  0.10819666775E+04  0.25500000920E-02 0. -1.
    10030    2    1    2    0    0  0.00000000000E+00  0.00000000000E+00  0.89156347547E+03  0.30554968304E+04  0.29225289477E+04 0.  0.
        3    1    3    3  502    0 -0.77172739144E+03  0.31503523315E+03 -0.80902591340E+03  0.11616080680E+04  0.10100000352E+00 0. -1.
       -3    1    3    3    0  502  0.77172739144E+03 -0.31503523315E+03  0.17005893889E+04  0.18938887625E+04  0.10100000352E+00 0.  1.
</event>
<event>
 5   0  0.1423692E-05  0.2632729E+04  0.7818609E-02  0.8357168E-01
       -2   -1    0    0    0  501  0.00000000000E+00  0.00000000000E+00  0.83845252511E+03  0.83845252511E+03  0.25500000920E-02 0. -1.
        2   -1    0    0  501    0  0.00000000000E+00  0.00000000000E+00 -0.20666829376E+04  0.20666829376E+04  0.25500000920E-02 0.  1.
    10030    2    1    2    0    0  0.00000000000E+00  0.00000000000E+00 -0.12282304125E+04  0.29051354628E+04  0.26327290234E+04 0.  0.
        3    1    3    3  502    0  0.12732451420E+04  0.55179502620E+02 -0.97778750754E+03  0.16063207616E+04  0.10100000352E+00 0.  1.
       -3    1    3    3    0  502 -0.12732451420E+04 -0.55179502620E+02 -0.25044290499E+03  0.12988147012E+04  0.10100000352E+00 0. -1.
</event>
<event>
 5   0  0.1345931E-05  0.2950844E+04  0.7818609E-02  0.8257909E-01
        2   -1    0    0  501    0  0.00000000000E+00  0.00000000000E+00  0.19325994986E+04  0.19325994986E+04  0.25500000920E-02 0. -1.
       -2   -1    0    0    0  501  0.00000000000E+00  0.00000000000E+00 -0.11263950066E+04  0.11263950066E+04  0.25500000920E-02 0.  1.
    10030    2    1    2    0    0  0.00000000000E+00  0.00000000000E+00  0.80620449201E+03  0.30589945052E+04  0.29508442351E+04 0.  0.
        2    1    3    3  502    0  0.12658750108E+04  0.18417182301E+03  0.11652425515E+04  0.17303609471E+04  0.25500000920E-02 0. -1.
       -2    1    3    3    0  502 -0.12658750108E+04 -0.18417182301E+03 -0.35903805950E+03  0.13286335581E+04  0.25500000920E-02 0.  1.
</event>
<event>
 5   0  0.5329891E-06  0.2296141E+04  0.7818609E-02  0.8479444E-01
        1   -1    0    0  501    0  0.00000000000E+00  0.00000000000E+00  0.98322530198E+03  0.98322530199E+03  0.50400001928E-02 0.  1.
       -1   -1    0    0    0  501  0.00000000000E+00  0.00000000000E+00 -0.13405534187E+04  0.13405534187E+04  0.50400001928E-02 0. -1.
    10030    2    1    2    0    0  0.00000000000E+00  0.00000000000E+00 -0.35732811671E+03  0.23237787207E+04  0.22961411454E+04 0.  0.
        4    1    3    3  502    0  0.30475483745E+03 -0.44008472936E+03  0.84919561144E+03  0.10038350857E+04  0.12699999809E+01 0.  1.
       -4    1    3    3    0  502 -0.30475483745E+03  0.44008472936E+03 -0.12065237281E+04  0.13199436350E+04  0.12699999809E+01 0. -1.
</event>
<event>
 5   0  0.1480547E-05  0.3008675E+04  0.7818609E-02  0.8241258E-01
        2   -1    0    0  501    0  0.00000000000E+00  0.00000000000E+00  0.20018803843E+04  0.20018803843E+04  0.25500000920E-02 0.  1.
       -2   -1    0    0    0  501  0.00000000000E+00  0.00000000000E+00 -0.11304528725E+04  0.11304528725E+04  0.25500000920E-02 0. -1.
    10030    2    1    2    0    0  0.00000000000E+00  0.00000000000E+00  0.87142751181E+03  0.31323332569E+04  0.30086750778E+04 0.  0.
        1    1    3    3  502    0  0.11225657368E+04 -0.29534708068E+03 -0.56050996218E+03  0.12890132464E+04  0.50400001928E-02 0. -1.
       -1    1    3    3    0  502 -0.11225657368E+04  0.29534708068E+03  0.14319374740E+04  0.18433200105E+04  0.50400001928E-02 0.  1.
</event>
<event>
 5   0  0.1345931E-05  0.2914389E+04  0.7818609E-02  0.8268609E-01
        2   -1    0    0  501    0  0.00000000000E+00  0.00000000000E+00  0.17536871215E+04  0.17536871215E+04  0.25500000920E-02 0. -1.
       -2   -1    0    0    0  501  0.00000000000E+00  0.00000000000E+00 -0.12108296343E+04  0.12108296343E+04  0.25500000920E-02 0.  1.
    10030    2    1    2    0    0  0.00000000000E+00  0.00000000000E+00  0.54285748725E+03  0.29645167558E+04  0.29143893604E+04 0.  0.
        2    1    3    3  502    0  0.33135334873E+03  0.41492777164E+02 -0.11713824184E+04  0.12180531443E+04  0.25500000920E-02 0.  1.
       -2    1    3    3    0  502 -0.33135334873E+03 -0.41492777164E+02  0.17142399056E+04  0.17464636115E+04  0.25500000920E-02 0. -1.
</event>
<event>
 5   0  0.1388724E-05  0.2934763E+04  0.7818609E-02  0.8262609E-01
        2   -1    0    0  501    0  0.00000000000E+00  0.00000000000E+00  0.25552461387E+04  0.25552461387E+04  0.25500000920E-02 0.  1.
       -2   -1    0    0    0  501  0.00000000000E+00  0.00000000000E+00 -0.84266213439E+03  0.84266213439E+03  0.25500000920E-02 0. -1.
    10030    2    1    2    0    0  0.00000000000E+00  0.00000000000E+00  0.17125840044E+04  0.33979082731E+04  0.29347634761E+04 0.  0.
        4    1    3    3  502    0  0.11654976895E+04  0.64440646461E+03  0.15696055597E+04  0.20584721961E+04  0.12699999809E+01 0.  1.
       -4    1    3    3    0  502 -0.11654976895E+04 -0.64440646461E+03  0.14297844461E+03  0.13394360770E+04  0.12699999809E+01 0. -1.
</event>
<event>
 5   0  0.1423692E-05  0.2784838E+04  0.7818609E-02  0.8307991E-01
       -2   -1    0    0    0  501  0.00000000000E+00  0.00000000000E+00  0.89318281127E+03  0.89318281127E+03  0.25500000920E-02 0. -1.
        2   -1    0    0  501    0  0.00000000000E+00  0.00000000000E+00 -0.21706980500E+04  0.21706980500E+04  0.25500000920E-02 0.  1.
    10030    2    1    2    0    0  0.00000000000E+00  0.00000000000E+00 -0.12775152388E+04  0.30638808613E+04  0.27848376518E+04 0.  0.
        3    1    3    3  502    0  0.92852621993E+02  0.12580043184E+04  0.99259957943E+01  0.12614654217E+04  0.10100000352E+00 0. -1.
       -3    1    3    3    0  502 -0.92852621993E+02 -0.12580043184E+04 -0.12874412346E+04  0.18024154397E+04  0.10100000352E+00 0.  1.
</event>
<event>
 5   0  0.5392262E-06  0.2488959E+04  0.7818609E-02  0.8406930E-01
       -1   -1    0    0    0  501  0.00000000000E+00  0.00000000000E+00  0.11204943841E+04  0.11204943841E+04  0.50400001928E-02 0. -1.
        1   -1    0    0  501    0  0.00000000000E+00  0.00000000000E+00 -0.13821836524E+04  0.13821836524E+04  0.50400001928E-02 0.  1.
    10030    2    1    2    0    0  0.00000000000E+00  0.00000000000E+00 -0.26168926830E+03  0.25026780364E+04  0.24889588347E+04 0.  0.
        2    1    3    3  502    0  0.58520332681E+03 -0.83778282756E+03 -0.84496067576E+03  0.13260096317E+04  0.25500000920E-02 0.  1.
       -2    1    3    3    0  502 -0.58520332681E+03  0.83778282756E+03  0.58327140746E+03  0.11766684047E+04  0.25500000920E-02 0. -1.
</event>
<event>
 5   0  0.1480547E-05  0.2331881E+04  0.7818609E-02  0.8465456E-01
        2   -1    0    0  501    0  0.00000000000E+00  0.00000000000E+00  0.16409460445E+04  0.16409460445E+04  0.25500000920E-02 0.  1.
       -2   -1    0    0    0  501  0.00000000000E+00  0.00000000000E+00 -0.82843526390E+03  0.82843526390E+03  0.25500000920E-02 0. -1.
    10030    2    1    2    0    0  0.00000000000E+00  0.00000000000E+00  0.81251078058E+03  0.24693813084E+04  0.23318812743E+04 0.  0.
        1    1    3    3  502    0  0.28669321143E+03 -0.10067725863E+04  0.94998382458E+03  0.14135958776E+04  0.50400001928E-02 0.  1.
       -1    1    3    3    0  502 -0.28669321143E+03  0.10067725863E+04 -0.13747304400E+03  0.10557854308E+04  0.50400001928E-02 0. -1.
</event>
<event>
 5   0  0.1388724E-05  0.2620708E+04  0.7818609E-02  0.8361201E-01
        2   -1    0    0  501    0  0.00000000000E+00  0.00000000000E+00  0.22727161187E+04  0.22727161187E+04  0.25500000920E-02 0. -1.
       -2   -1    0    0    0  501  0.00000000000E+00  0.00000000000E+00 -0.75549573256E+03  0.75549573257E+03  0.25500000920E-02 0.  1.
    10030    2    1    2    0    0  0.00000000000E+00  0.00000000000E+00  0.15172203861E+04  0.30282118512E+04  0.26207077891E+04 0.  0.
        4    1    3    3  502    0 -0.66648725775E+03 -0.70308065715E+03  0.17781317600E+04  0.20249152684E+04  0.12699999809E+01 0. -1.
       -4    1    3    3    0  502  0.66648725775E+03  0.70308065715E+03 -0.26091137394E+03  0.10032965828E+04  0.12699999809E+01 0.  1.
</event>
<event>
 5   0  0.5730920E-06  0.3009641E+04  0.7818609E-02  0.8240983E-01
       -1   -1    0    0    0  501  0.00000000000E+00  0.00000000000E+00  0.18056847825E+04  0.18056847825E+04  0.50400001928E-02 0.  1.
        1   -1    0    0  501    0  0.00000000000E+00  0.00000000000E+00 -0.12540866084E+04  0.12540866084E+04  0.50400001928E-02 0. -1.
    10030    2    1    2    0    0  0.00000000000E+00  0.00000000000E+00  0.55159817415E+03  0.30597713909E+04  0.30096412442E+04 0.  0.
        1    1    3    3  502    0 -0.87828197408E+03 -0.82328093454E+03  0.11937866584E+04  0.16953752708E+04  0.50400001928E-02 0.  1.
       -1    1    3    3    0  502  0.87828197408E+03  0.82328093454E+03 -0.64218848427E+03  0.13643961201E+04  0.50400001928E-02 0. -1.
</event>
<event>
 5   0  0.5392262E-06  0.2972481E+04  0.7818609E-02  0.8251633E-01
       -1   -1    0    0    0  501  0.00000000000E+00  0.00000000000E+00  0.14153626808E+04  0.14153626808E+04  0.50400001928E-02 0.  1.
        1   -1    0    0  501    0  0.00000000000E+00  0.00000000000E+00 -0.15606677487E+04  0.15606677487E+04  0.50400001928E-02 0. -1.
    10030    2    1    2    0    0  0.00000000000E+00  0.00000000000E+00 -0.14530506783E+03  0.29760304295E+04  0.29724810436E+04 0.  0.
        2    1    3    3  502    0 -0.12818675469E+04  0.22093414845E+03 -0.79247876060E+03  0.15231608227E+04  0.25500000920E-02 0. -1.
       -2    1    3    3    0  502  0.12818675469E+04 -0.22093414845E+03  0.64717369277E+03  0.14528696068E+04  0.25500000920E-02 0.  1.
</event>
<event>
 5   0  0.7032692E-06  0.2682432E+04  0.7818609E-02  0.8340728E-01
       -1   -1    0    0    0  501  0.00000000000E+00  0.00000000000E+00  0.72266249449E+03  0.72266249451E+03  0.50400001928E-02 0. -1.
        1   -1    0    0  501    0  0.00000000000E+00  0.00000000000E+00 -0.24892127126E+04  0.24892127126E+04  0.50400001928E-02 0.  1.
    10030    2    1    2    0    0  0.00000000000E+00  0.00000000000E+00 -0.17665502181E+04  0.32118752071E+04  0.26824322308E+04 0.  0.
        5    1    3    3  502    0  0.10976339907E+04  0.53674273617E+03 -0.22097947263E+03  0.12416711157E+04  0.46999998093E+01 0.  1.
       -5    1    3    3    0  502 -0.10976339907E+04 -0.53674273617E+03 -0.15455707454E+04  0.19702040913E+04  0.46999998093E+01 0. -1.
</event>
<event>
 5   0  0.5522695E-06  0.1768124E+04  0.7818609E-02  0.8723437E-01
        1   -1    0    0  501    0  0.00000000000E+00  0.00000000000E+00  0.14198610279E+04  0.14198610279E+04  0.50400001928E-02 0. -1.
       -1   -1    0    0    0  501  0.00000000000E+00  0.00000000000E+00 -0.55045244827E+03  0.55045244829E+03  0.50400001928E-02 0.  1.
    10030    2    1    2    0    0  0.00000000000E+00  0.00000000000E+00  0.86940857962E+03  0.19703134762E+04  0.17681244063E+04 0.  0.
        3    1    3    3  502    0  0.91502215039E+02 -0.42627287804E+02 -0.54400933477E+03  0.55329549749E+03  0.10100000352E+00 0.  1.
       -3    1    3    3    0  502 -0.91502215039E+02  0.42627287804E+02  0.14134179144E+04  0.14170179787E+04  0.10100000352E+00 0. -1.
</event>
<event>
 5   0  0.1388724E-05  0.2995862E+04  0.7818609E-02  0.8244914E-01
        2   -1    0    0  501    0  0.00000000000E+00  0.00000000000E+00  0.22084789634E+04  0.22084789634E+04  0.25500000920E-02 0.  1.
       -2   -1    0    0    0  501  0.00000000000E+00  0.00000000000E+00 -0.10159920816E+04  0.10159920816E+04  0.25500000920E-02 0. -1.
    10030    2    1    2    0    0  0.00000000000E+00  0.00000000000E+00  0.11924868817E+04  0.32244710450E+04  0.29958619056E+04 0.  0.
        4    1    3    3  502    0 -0.67746682238E+03  0.13243981826E+04  0.78514608097E+03  0.16820962585E+04  0.12699999809E+01 0.  1.
       -4    1    3    3    0  502  0.67746682238E+03 -0.13243981826E+04  0.40734080078E+03  0.15423747866E+04  0.12699999809E+01 0. -1.
</event>
<event>
 5   0  0.5730920E-06  0.3080222E+04  0.7818609E-02  0.8221187E-01
        1   -1    0    0  501    0  0.00000000000E+00  0.00000000000E+00  0.93547938887E+03  0.93547938888E+03  0.50400001928E-02 0.  1.
       -1   -1    0    0    0  501  0.00000000000E+00  0.00000000000E+00 -0.25355362329E+04  0.25355362329E+04  0.50400001928E-02 0. -1.
    10030    2    1    2    0    0  0.00000000000E+00  0.00000000000E+00 -0.16000568440E+04  0.34710156217E+04  0.30802219956E+04 0.  0.
        1    1    3    3  502    0  0.55156007630E+03  0.89144861512E+03  0.47141207977E+03  0.11494035410E+04  0.50400001928E-02 0.  1.
       -1    1    3    3    0  502 -0.55156007630E+03 -0.89144861512E+03 -0.20714689237E+04  0.23216120807E+04  0.50400001928E-02 0. -1.
</event>
<event>
 5   0  0.1523029E-05  0.3049210E+04  0.7818609E-02  0.8229817E-01
        2   -1    0    0  501    0  0.00000000000E+00  0.00000000000E+00  0.85664000819E+03  0.85664000820E+03  0.25500000920E-02 0. -1.
       -2   -1    0    0    0  501  0.00000000000E+00  0.00000000000E+00 -0.27134160632E+04  0.27134160632E+04  0.25500000920E-02 0.  1.
    10030    2    1    2    0    0  0.00000000000E+00  0.00000000000E+00 -0.18567760550E+04  0.35700560714E+04  0.30492102313E+04 0.  0.
        5    1    3    3  502    0 -0.14895080218E+03 -0.69405257804E+03 -0.25081200059E+04  0.26066421650E+04  0.46999998093E+01 0.  1.
       -5    1    3    3    0  502  0.14895080218E+03  0.69405257804E+03  0.65134395091E+03  0.96341390634E+03  0.46999998093E+01 0. -1.
</event>
<event>
 5   0  0.1523029E-05  0.2955522E+04  0.7818609E-02  0.8256547E-01
       -2   -1    0    0    0  501  0.00000000000E+00  0.00000000000E+00  0.91581920914E+03  0.91581920914E+03  0.25500000920E-02 0.  1.
        2   -1    0    0  501    0  0.00000000000E+00  0.00000000000E+00 -0.23845076388E+04  0.23845076388E+04  0.25500000920E-02 0. -1.
    10030    2    1    2    0    0  0.00000000000E+00  0.00000000000E+00 -0.14686884296E+04  0.33003268479E+04  0.29555222212E+04 0.  0.
        5    1    3    3  502    0  0.25059144089E+03 -0.11703527796E+04  0.23351095273E+03  0.12194552694E+04  0.46999998093E+01 0.  1.
       -5    1    3    3    0  502 -0.25059144089E+03  0.11703527796E+04 -0.17021993824E+04  0.20808715785E+04  0.46999998093E+01 0. -1.
</event>
<event>
 5   0  0.1523029E-05  0.2953007E+04  0.7818609E-02  0.8257279E-01
        2   -1    0    0  501    0  0.00000000000E+00  0.00000000000E+00  0.16312222586E+04  0.16312222586E+04  0.25500000920E-02 0. -1.
       -2   -1    0    0    0  501  0.00000000000E+00  0.00000000000E+00 -0.13364596700E+04  0.13364596700E+04  0.25500000920E-02 0.  1.
    10030    2    1    2    0    0  0.00000000000E+00  0.00000000000E+00  0.29476258858E+03  0.29676819286E+04  0.29530071191E+04 0.  0.
        5    1    3    3  502    0 -0.51230819176E+03 -0.49350908461E+03 -0.11528914130E+04  0.13546924375E+04  0.46999998093E+01 0.  1.
       -5    1    3    3    0  502  0.51230819176E+03  0.49350908461E+03  0.14476540016E+04  0.16129894911E+04  0.46999998093E+01 0. -1.
</event>
<event>
 5   0  0.1345931E-05  0.2830626E+04  0.7818609E-02  0.8293823E-01
       -2   -1    0    0    0  501  0.00000000000E+00  0.00000000000E+00  0.13902890853E+04  0.13902890853E+04  0.25500000920E-02 0. -1.
        2   -1    0    0  501    0  0.00000000000E+00  0.00000000000E+00 -0.14407874495E+04  0.14407874495E+04  0.25500000920E-02 0.  1.
    10030    2    1    2    0    0  0.00000000000E+00  0.00000000000E+00 -0.50498364230E+02  0.28310765349E+04  0.28306261253E+04 0.  0.
        2    1    3    3  502    0 -0.28228580656E+03 -0.22275399360E+03 -0.13943374974E+04  0.14399589143E+04  0.25500000920E-02 0.  1.
       -2    1    3    3    0  502  0.28228580656E+03  0.22275399360E+03  0.13438391332E+04  0.13911176205E+04  0.25500000920E-02 0. -1.
</event>
<event>
 5   0  0.5329891E-06  0.2973730E+04  0.7818609E-02  0.8251272E-01
        1   -1    0    0  501    0  0.00000000000E+00  0.00000000000E+00  0.17241069547E+04  0.17241069547E+04  0.50400001928E-02 0. -1.
       -1   -1    0    0    0  501  0.00000000000E+00  0.00000000000E+00 -0.12822681161E+04  0.12822681162E+04  0.50400001928E-02 0.  1.
    10030    2    1    2    0    0  0.00000000000E+00  0.00000000000E+00  0.44183883852E+03  0.30063750708E+04  0.29737298982E+04 0.  0.
        4    1    3    3  502    0  0.89056013318E+03  0.83315681053E+03  0.10808558639E+04  0.16295700762E+04  0.12699999809E+01 0. -1.
       -4    1    3    3    0  502 -0.89056013318E+03 -0.83315681053E+03 -0.63901702537E+03  0.13768049947E+04  0.12699999809E+01 0.  1.
</event>
<event>
 5   0  0.1480547E-05  0.2991969E+04  0.7818609E-02  0.8246028E-01
        2   -1    0    0  501    0  0.00000000000E+00  0.00000000000E+00  0.15151444336E+04  0.15151444336E+04  0.25500000920E-02 0.  1.
       -2   -1    0    0    0  501  0.00000000000E+00  0.00000000000E+00 -0.14770670970E+04  0.14770670970E+04  0.25500000920E-02 0. -1.
    10030    2    1    2    0    0  0.00000000000E+00  0.00000000000E+00  0.38077336594E+02  0.29922115306E+04  0.29919692446E+04 0.  0.
        1    1    3    3  502    0  0.92175735528E+03 -0.11781903501E+04  0.48647672973E+01  0.14959253956E+04  0.50400001928E-02 0. -1.
       -1    1    3    3    0  502 -0.92175735528E+03  0.11781903501E+04  0.33212569297E+02  0.14962861351E+04  0.50400001928E-02 0.  1.
</event>
<event>
 5   0  0.1523029E-05  0.2910925E+04  0.7818609E-02  0.8269634E-01
        2   -1    0    0  501    0  0.00000000000E+00  0.00000000000E+00  0.21464483284E+04  0.21464483284E+04  0.25500000920E-02 0. -1.
       -2   -1    0    0    0  501  0.00000000000E+00  0.00000000000E+00 -0.98691921227E+03  0.98691921228E+03  0.25500000920E-02 0.  1.
    10030    2    1    2    0    0  0.00000000000E+00  0.00000000000E+00  0.11595291161E+04  0.31333675407E+04  0.29109250031E+04 0.  0.
        5    1    3    3  502    0  0.49302474748E+03  0.86665052602E+03 -0.56153765457E+03  0.11443352496E+04  0.46999998093E+01 0.  1.
       -5    1    3    3    0  502 -0.49302474748E+03 -0.86665052602E+03  0.17210667707E+04  0.19890322911E+04  0.46999998093E+01 0. -1.
</event>
<event>
 5   0  0.1388724E-05  0.2923984E+04  0.7818609E-02  0.8265777E-01
       -2   -1    0    0    0  501  0.00000000000E+00  0.00000000000E+00  0.14134011402E+04  0.14134011402E+04  0.25500000920E-02 0. -1.
        2   -1    0    0  501    0  0.00000000000E+00  0.00000000000E+00 -0.15122533178E+04  0.15122533178E+04  0.25500000920E-02 0.  1.
    10030    2    1    2    0    0  0.00000000000E+00  0.00000000000E+00 -0.98852177637E+02  0.29256544580E+04  0.29239839696E+04 0.  0.
        4    1    3    3  502    0  0.12626466172E+04 -0.10365712176E+03 -0.77949880377E+03  0.14874949670E+04  0.12699999809E+01 0.  1.
       -4    1    3    3    0  502 -0.12626466172E+04  0.10365712176E+03  0.68064662613E+03  0.14381594910E+04  0.12699999809E+01 0. -1.
</event>
<event>
 5   0  0.1423692E-05  0.3056294E+04  0.7818609E-02  0.8227836E-01
       -2   -1    0    0    0  501  0.00000000000E+00  0.00000000000E+00  0.17630352432E+04  0.17630352433E+04  0.25500000920E-02 0. -1.
        2   -1    0    0  501    0  0.00000000000E+00  0.00000000000E+00 -0.13245525311E+04  0.13245525311E+04  0.25500000920E-02 0.  1.
    10030    2    1    2    0    0  0.00000000000E+00  0.00000000000E+00  0.43848271212E+03  0.30875877744E+04  0.30562936992E+04 0.  0.
        3    1    3    3  502    0 -0.10660569807E+03  0.50267345955E+03  0.16731393069E+04  0.17502687029E+04  0.10100000352E+00 0. -1.
       -3    1    3    3    0  502  0.10660569807E+03 -0.50267345955E+03 -0.12346565948E+04  0.13373190715E+04  0.10100000352E+00 0.  1.
</event>
<event>
 5   0  0.1523029E-05  0.2933696E+04  0.7818609E-02  0.8262922E-01
        2   -1    0    0  501    0  0.00000000000E+00  0.00000000000E+00  0.17517971534E+04  0.17517971534E+04  0.25500000920E-02 0. -1.
       -2   -1    0    0    0  501  0.00000000000E+00  0.00000000000E+00 -0.12282487986E+04  0.12282487986E+04  0.25500000920E-02 0.  1.
    10030    2    1    2    0    0  0.00000000000E+00  0.00000000000E+00  0.52354835486E+03  0.29800459520E+04  0.29336957914E+04 0.  0.
        5    1    3    3  502    0  0.70515895391E+03  0.31192400631E+03  0.15293169937E+04  0.17127108026E+04  0.46999998093E+01 0. -1.
       -5    1    3    3    0  502 -0.70515895391E+03 -0.31192400631E+03 -0.10057686389E+04  0.12673351494E+04  0.46999998093E+01 0.  1.
</event>
<event>
 5   0  0.5329891E-06  0.2935164E+04  0.7818609E-02  0.8262491E-01
        1   -1    0    0  501    0  0.00000000000E+00  0.00000000000E+00  0.22961550439E+04  0.22961550439E+04  0.50400001928E-02 0. -1.
       -1   -1    0    0    0  501  0.00000000000E+00  0.00000000000E+00 -0.93800130797E+03  0.93800130799E+03  0.50400001928E-02 0.  1.
    10030    2    1    2    0    0  0.00000000000E+00  0.00000000000E+00  0.13581537359E+04  0.32341563519E+04  0.29351636646E+04 0.  0.
        4    1    3    3  502    0  0.48978952036E+03 -0.42412847686E+03  0.21300362320E+04  0.22263950013E+04  0.12699999809E+01 0. -1.
       -4    1    3    3    0  502 -0.48978952036E+03  0.42412847686E+03 -0.77188249608E+03  0.10077613506E+04  0.12699999809E+01 0.  1.
</event>
<event>
 5   0  0.5522695E-06  0.3000987E+04  0.7818609E-02  0.8243449E-01
        1   -1    0    0  501    0  0.00000000000E+00  0.00000000000E+00  0.11298490473E+04  0.11298490473E+04  0.50400001928E-02 0.  1.
       -1   -1    0    0    0  501  0.00000000000E+00  0.00000000000E+00 -0.19927274444E+04  0.19927274444E+04  0.50400001928E-02 0. -1.
    10030    2    1    2    0    0  0.00000000000E+00  0.00000000000E+00 -0.86287839711E+03  0.31225764917E+04  0.30009873072E+04 0.  0.
        3    1    3    3  502    0  0.93689663377E+03 -0.11496563998E+04 -0.66870444064E+03  0.16268530294E+04  0.10100000352E+00 0. -1.
       -3    1    3    3    0  502 -0.93689663377E+03  0.11496563998E+04 -0.19417395647E+03  0.14957234623E+04  0.10100000352E+00 0.  1.
</event>
<event>
 5   0  0.7032692E-06  0.1621912E+04  0.7818609E-02  0.8807199E-01
       -1   -1    0    0    0  501  0.00000000000E+00  0.00000000000E+00  0.29312128288E+03  0.29312128293E+03  0.50400001928E-02 0.  1.
        1   -1    0    0  501    0  0.00000000000E+00  0.00000000000E+00 -0.22436087102E+04  0.22436087102E+04  0.50400001928E-02 0. -1.
    10030    2    1    2    0    0  0.00000000000E+00  0.00000000000E+00 -0.19504874273E+04  0.25367299931E+04  0.16219117898E+04 0.  0.
        5    1    3    3  502    0 -0.41167028818E+03 -0.34588411745E+03 -0.25782936355E+02  0.53832620100E+03  0.46999998093E+01 0.  1.
       -5    1    3    3    0  502  0.41167028818E+03  0.34588411745E+03 -0.19247044909E+04  0.19984037921E+04  0.46999998093E+01 0. -1.
</event>
<event>
 5   0  0.1480547E-05  0.3044888E+04  0.7818609E-02  0.8231028E-01
       -2   -1    0    0    0  501  0.00000000000E+00  0.00000000000E+00  0.13940265061E+04  0.13940265061E+04  0.25500000920E-02 0. -1.
        2   -1    0    0  501    0  0.00000000000E+00  0.00000000000E+00 -0.16626911200E+04  0.16626911200E+04  0.25500000920E-02 0.  1.
    10030    2    1    2    0    0  0.00000000000E+00  0.00000000000E+00 -0.26866461396E+03  0.30567176261E+04  0.30448878421E+04 0.  0.
        1    1    3    3  502    0  0.85823286514E+03 -0.12284921410E+04  0.13518589488E+03  0.15046700029E+04  0.50400001928E-02 0.  1.
       -1    1    3    3    0  502 -0.85823286514E+03  0.12284921410E+04 -0.40385050884E+03  0.15520476233E+04  0.50400001928E-02 0. -1.
</event>
<event>
 5   0  0.1523029E-05  0.2393535E+04  0.7818609E-02  0.8441928E-01
       -2   -1    0    0    0  501  0.00000000000E+00  0.00000000000E+00  0.13815890883E+04  0.13815890883E+04  0.25500000920E-02 0.  1.
        2   -1    0    0  501    0  0.00000000000E+00  0.00000000000E+00 -0.10366701248E+04  0.10366701248E+04  0.25500000920E-02 0. -1.
    10030    2    1    2    0    0  0.00000000000E+00  0.00000000000E+00  0.34491896345E+03  0.24182592131E+04  0.23935347356E+04 0.  0.
        5    1    3    3  502    0 -0.85282108044E+03 -0.80197503296E+03  0.42354682724E+03  0.12449424700E+04  0.46999998093E+01 0. -1.
       -5    1    3    3    0  502  0.85282108044E+03  0.80197503296E+03 -0.78627863794E+02  0.11733167431E+04  0.46999998093E+01 0.  1.
</event>
<event>
 5   0  0.7032692E-06  0.2968644E+04  0.7818609E-02  0.8252742E-01
        1   -1    0    0  501    0  0.00000000000E+00  0.00000000000E+00  0.19117309620E+04  0.19117309620E+04  0.50400001928E-02 0.  1.
       -1   -1    0    0    0  501  0.00000000000E+00  0.00000000000E+00 -0.11524692903E+04  0.11524692904E+04  0.50400001928E-02 0. -1.
    10030    2    1    2    0    0  0.00000000000E+00  0.00000000000E+00  0.75926167165E+03  0.30642002523E+04  0.29686436129E+04 0.  0.
        5    1    3    3  502    0 -0.58943324685E+03 -0.12754014710E+04  0.87369100543E+03  0.16545206338E+04  0.46999998093E+01 0.  1.
       -5    1    3    3    0  502  0.58943324685E+03  0.12754014710E+04 -0.11442933378E+03  0.14096796186E+04  0.46999998093E+01 0. -1.
</event>
<event>
 5   0  0.5730920E-06  0.2988615E+04  0.7818609E-02  0.8246989E-01
        1   -1    0    0  501    0  0.00000000000E+00  0.00000000000E+00  0.12275988206E+04  0.12275988206E+04  0.50400001928E-02 0. -1.
       -1   -1    0    0    0  501  0.00000000000E+00  0.00000000000E+00 -0.18189610867E+04  0.18189610867E+04  0.50400001928E-02 0.  1.
    10030    2    1    2    0    0  0.00000000000E+00  0.00000000000E+00 -0.59136226610E+03  0.30465599073E+04  0.29886147191E+04 0.  0.
        1    1    3    3  502    0 -0.77369825057E+03 -0.70555720333E+03  0.79107252265E+03  0.13123321555E+04  0.50400001928E-02 0. -1.
       -1    1    3    3    0  502  0.77369825057E+03  0.70555720333E+03 -0.13824347887E+04  0.17342277518E+04  0.50400001928E-02 0.  1.
</event>
<event>
 5   0  0.1345931E-05  0.2608822E+04  0.7818609E-02  0.8365211E-01
       -2   -1    0    0    0  501  0.00000000000E+00  0.00000000000E+00  0.14813936502E+04  0.14813936502E+04  0.25500000920E-02 0.  1.
        2   -1    0    0  501    0  0.00000000000E+00  0.00000000000E+00 -0.11485722437E+04  0.11485722437E+04  0.25500000920E-02 0. -1.
    10030    2    1    2    0    0  0.00000000000E+00  0.00000000000E+00  0.33282140648E+03  0.26299658939E+04  0.26088216716E+04 0.  0.
        2    1    3    3  502    0  0.63938429982E+02  0.10615527982E+04 -0.59502898960E+03  0.12186229789E+04  0.25500000920E-02 0. -1.
       -2    1    3    3    0  502 -0.63938429982E+02 -0.10615527982E+04  0.92785039608E+03  0.14113429150E+04  0.25500000920E-02 0.  1.
</event>
<event>
 5   0  0.5730920E-06  0.1640977E+04  0.7818609E-02  0.8795762E-01
        1   -1    0    0  501    0  0.00000000000E+00  0.00000000000E+00  0.13096983338E+04  0.13096983338E+04  0.50400001928E-02 0. -1.
       -1   -1    0    0    0  501  0.00000000000E+00  0.00000000000E+00 -0.51401241355E+03  0.51401241358E+03  0.50400001928E-02 0.  1.
    10030    2    1    2    0    0  0.00000000000E+00  0.00000000000E+00  0.79568592022E+03  0.18237107474E+04  0.16409767842E+04 0.  0.
        1    1    3    3  502    0 -0.15222456479E+03  0.28081423930E+03 -0.44207538865E+03  0.54539857388E+03  0.50400001928E-02 0.  1.
       -1    1    3    3    0  502  0.15222456479E+03 -0.28081423930E+03  0.12377613089E+04  0.12783121735E+04  0.50400001928E-02 0. -1.
</event>
<event>
 5   0  0.1388724E-05  0.3038149E+04  0.7818609E-02  0.8232920E-01
        2   -1    0    0  501    0  0.00000000000E+00  0.00000000000E+00  0.10081392398E+04  0.10081392398E+04  0.25500000920E-02 0. -1.
       -2   -1    0    0    0  501  0.00000000000E+00  0.00000000000E+00 -0.22889567231E+04  0.22889567231E+04  0.25500000920E-02 0.  1.
    10030    2    1    2    0    0  0.00000000000E+00  0.00000000000E+00 -0.12808174833E+04  0.32970959628E+04  0.30381488382E+04 0.  0.
        4    1    3    3  502    0  0.46329745149E+03 -0.94685313096E+03  0.54662366734E+03  0.11874234404E+04  0.12699999809E+01 0. -1.
       -4    1    3    3    0  502 -0.46329745149E+03  0.94685313096E+03 -0.18274411506E+04  0.21096725225E+04  0.12699999809E+01 0.  1.
</event>
<event>
 5   0  0.1480547E-05  0.2966733E+04  0.7818609E-02  0.8253295E-01
       -2   -1    0    0    0  501  0.00000000000E+00  0.00000000000E+00  0.15923523518E+04  0.15923523518E+04  0.25500000920E-02 0.  1.
        2   -1    0    0  501    0  0.00000000000E+00  0.00000000000E+00 -0.13818398138E+04  0.13818398138E+04  0.25500000920E-02 0. -1.
    10030    2    1    2    0    0  0.00000000000E+00  0.00000000000E+00  0.21051253800E+03  0.29741921656E+04  0.29667328005E+04 0.  0.
        1    1    3    3  502    0 -0.31081906136E+03  0.46541608671E+03 -0.12719354651E+04  0.13896188147E+04  0.50400001928E-02 0. -1.
       -1    1    3    3    0  502  0.31081906136E+03 -0.46541608671E+03  0.14824480031E+04  0.15845733510E+04  0.50400001928E-02 0.  1.
</event>
<event>
 5   0  0.4806125E-06  0.3074892E+04  0.7818609E-02  0.8222663E-01
       -4   -1    0    0    0  501  0.00000000000E+00  0.00000000000E+00  0.20468695583E+04  0.20468699523E+04  0.12699999809E+01 0.  1.
        4   -1    0    0  501    0  0.00000000000E+00  0.00000000000E+00 -0.11548063280E+04  0.11548070264E+04  0.12699999809E+01 0. -1.
    10030    2    1    2    0    0  0.00000000000E+00  0.00000000000E+00  0.89206323028E+03  0.32016769787E+04  0.30748916516E+04 0.  0.
        1    1    3    3  502    0 -0.11121809457E+04 -0.77310424701E+03 -0.31135534228E+03  0.13898124988E+04  0.50400001928E-02 0. -1.
       -1    1    3    3    0  502  0.11121809457E+04  0.77310424701E+03  0.12034185726E+04  0.18118644799E+04  0.50400001928E-02 0.  1.
</event>
<event>
 5   0  0.5730920E-06  0.1816580E+04  0.7818609E-02  0.8697532E-01
       -1   -1    0    0    0  501  0.00000000000E+00  0.00000000000E+00  0.92253947503E+03  0.92253947504E+03  0.50400001928E-02 0. -1.
        1   -1    0    0  501    0  0.00000000000E+00  0.00000000000E+00 -0.89426069055E+03  0.89426069056E+03  0.50400001928E-02 0.  1.
    10030    2    1    2    0    0  0.00000000000E+00  0.00000000000E+00  0.28278784483E+02  0.18168001656E+04  0.18165800704E+04 0.  0.
        1    1    3    3  502    0 -0.52578835627E+03  0.60207879176E+03 -0.41723469620E+03  0.90168567628E+03  0.50400001928E-02 0.  1.
       -1    1    3    3    0  502  0.52578835627E+03 -0.60207879176E+03  0.44551348068E+03  0.91511448932E+03  0.50400001928E-02 0. -1.
</event>
<event>
 5   0  0.1388724E-05  0.3020891E+04  0.7818609E-02  0.8237790E-01
        2   -1    0    0  501    0  0.00000000000E+00  0.00000000000E+00  0.13635076225E+04  0.13635076225E+04  0.25500000920E-02 0. -1.
       -2   -1    0    0    0  501  0.00000000000E+00  0.00000000000E+00 -0.16732179096E+04  0.16732179096E+04  0.25500000920E-02 0.  1.
    10030    2    1    2    0    0  0.00000000000E+00  0.00000000000E+00 -0.30971028710E+03  0.30367255321E+04  0.30208908446E+04 0.  0.
        4    1    3    3  502    0 -0.10968631659E+04 -0.78455248326E+03  0.52901395661E+03  0.14486161613E+04  0.12699999809E+01 0. -1.
       -4    1    3    3    0  502  0.10968631659E+04  0.78455248326E+03 -0.83872424371E+03  0.15881093708E+04  0.12699999809E+01 0.  1.
</event>
<event>
 5   0  0.5329891E-06  0.2416024E+04  0.7818609E-02  0.8433529E-01
       -1   -1    0    0    0  501  0.00000000000E+00  0.00000000000E+00  0.88431220571E+03  0.88431220573E+03  0.50400001928E-02 0. -1.
        1   -1    0    0  501    0  0.00000000000E+00  0.00000000000E+00 -0.16502007695E+04  0.16502007695E+04  0.50400001928E-02 0.  1.
    10030    2    1    2    0    0  0.00000000000E+00  0.00000000000E+00 -0.76588856381E+03  0.25345129753E+04  0.24160237436E+04 0.  0.
        4    1    3    3  502    0 -0.66299780313E+03 -0.66835510839E+03 -0.11770542514E+04  0.15072235937E+04  0.12699999809E+01 0.  1.
       -4    1    3    3    0  502  0.66299780313E+03  0.66835510839E+03  0.41116568758E+03  0.10272893815E+04  0.12699999809E+01 0. -1.
</event>
<event>
 5   0  0.1388724E-05  0.2259078E+04  0.7818609E-02  0.8494233E-01
        2   -1    0    0  501    0  0.00000000000E+00  0.00000000000E+00  0.13578726484E+04  0.13578726484E+04  0.25500000920E-02 0. -1.
       -2   -1    0    0    0  501  0.00000000000E+00  0.00000000000E+00 -0.93960095306E+03  0.93960095306E+03  0.25500000920E-02 0.  1.
    10030    2    1    2    0    0  0.00000000000E+00  0.00000000000E+00  0.41827169531E+03  0.22974736014E+04  0.22590780726E+04 0.  0.
        4    1    3    3  502    0  0.11269711882E+04 -0.74173066866E+02  0.19178365642E+03  0.11455777087E+04  0.12699999809E+01 0. -1.
       -4    1    3    3    0  502 -0.11269711882E+04  0.74173066866E+02  0.22648803889E+03  0.11518958927E+04  0.12699999809E+01 0.  1.
</event>
<event>
 5   0  0.5392262E-06  0.2518921E+04  0.7818609E-02  0.8396276E-01
       -1   -1    0    0    0  501  0.00000000000E+00  0.00000000000E+00  0.10654009991E+04  0.10654009991E+04  0.50400001928E-02 0.  1.
        1   -1    0    0  501    0  0.00000000000E+00  0.00000000000E+00 -0.14888667799E+04  0.14888667799E+04  0.50400001928E-02 0. -1.
    10030    2    1    2    0    0  0.00000000000E+00  0.00000000000E+00 -0.42346578079E+03  0.25542677790E+04  0.25189205266E+04 0.  0.
        2    1    3    3  502    0 -0.30712567181E+03 -0.11580003741E+04 -0.60570659683E+03  0.13424498226E+04  0.25500000920E-02 0.  1.
       -2    1    3    3    0  502  0.30712567181E+03  0.11580003741E+04  0.18224081605E+03  0.12118179565E+04  0.25500000920E-02 0. -1.
</event>
<event>
 5   0  0.1480547E-05  0.2970129E+04  0.7818609E-02  0.8252313E-01
        2   -1    0    0  501    0  0.00000000000E+00  0.00000000000E+00  0.21552494286E+04  0.21552494286E+04  0.25500000920E-02 0.  1.
       -2   -1    0    0    0  501  0.00000000000E+00  0.00000000000E+00 -0.10232765242E+04  0.10232765243E+04  0.25500000920E-02 0. -1.
    10030    2    1    2    0    0  0.00000000000E+00  0.00000000000E+00  0.11319729044E+04  0.31785259529E+04  0.29701287139E+04 0.  0.
        1    1    3    3  502    0  0.29888842078E+03  0.33999299255E+03  0.20796115389E+04  0.21283124009E+04  0.50400001928E-02 0.  1.
       -1    1    3    3    0  502 -0.29888842078E+03 -0.33999299255E+03 -0.94763863453E+03  0.10502135520E+04  0.50400001928E-02 0. -1.
</event>
<event>
 5   0  0.5522695E-06  0.2932431E+04  0.7818609E-02  0.8263293E-01
        1   -1    0    0  501    0  0.00000000000E+00  0.00000000000E+00  0.16601223337E+04  0.16601223337E+04  0.50400001928E-02 0. -1.
       -1   -1    0    0    0  501  0.00000000000E+00  0.00000000000E+00 -0.12949576813E+04  0.12949576813E+04  0.50400001928E-02 0.  1.
    10030    2    1    2    0    0  0.00000000000E+00  0.00000000000E+00  0.36516465246E+03  0.29550800150E+04  0.29324311879E+04 0.  0.
        3    1    3    3  502    0  0.96649810247E+03 -0.11009190798E+04  0.24343711046E+03  0.14850599447E+04  0.10100000352E+00 0.  1.
       -3    1    3    3    0  502 -0.96649810247E+03  0.11009190798E+04  0.12172754201E+03  0.14700200703E+04  0.10100000352E+00 0. -1.
</event>
<event>
 5   0  0.5730920E-06  0.2908011E+04  0.7818609E-02  0.8270498E-01
       -1   -1    0    0    0  501  0.00000000000E+00  0.00000000000E+00  0.12090752511E+04  0.12090752511E+04  0.50400001928E-02 0. -1.
        1   -1    0    0  501    0  0.00000000000E+00  0.00000000000E+00 -0.17485523968E+04  0.17485523968E+04  0.50400001928E-02 0.  1.
    10030    2    1    2    0    0  0.00000000000E+00  0.00000000000E+00 -0.53947714563E+03  0.29576276479E+04  0.29080106109E+04 0.  0.
        1    1    3    3  502    0  0.13086010806E+04  0.37659693430E+03 -0.78821029330E+03  0.15733840935E+04  0.50400001928E-02 0.  1.
       -1    1    3    3    0  502 -0.13086010806E+04 -0.37659693430E+03  0.24873314768E+03  0.13842435544E+04  0.50400001928E-02 0. -1.
</event>
<event>
 5   0  0.5522695E-06  0.2811108E+04  0.7818609E-02  0.8299828E-01
        1   -1    0    0  501    0  0.00000000000E+00  0.00000000000E+00  0.14674949701E+04  0.14674949701E+04  0.50400001928E-02 0.  1.
       -1   -1    0    0    0  501  0.00000000000E+00  0.00000000000E+00 -0.13462278275E+04  0.13462278275E+04  0.50400001928E-02 0. -1.
    10030    2    1    2    0    0  0.00000000000E+00  0.00000000000E+00  0.12126714258E+03  0.28137227976E+04  0.28111083690E+04 0.  0.
        3    1    3    3  502    0 -0.33874081531E+03 -0.13395853011E+04 -0.19718789145E+03  0.13957496887E+04  0.10100000352E+00 0. -1.
       -3    1    3    3    0  502  0.33874081531E+03  0.13395853011E+04  0.31845503403E+03  0.14179731089E+04  0.10100000352E+00 0.  1.
</event>
<event>
 5   0  0.1423692E-05  0.3097378E+04  0.7818609E-02  0.8216458E-01
        2   -1    0    0  501    0  0.00000000000E+00  0.00000000000E+00  0.25175982200E+04  0.25175982200E+04  0.25500000920E-02 0. -1.
       -2   -1    0    0    0  501  0.00000000000E+00  0.00000000000E+00 -0.95266891326E+03  0.95266891326E+03  0.25500000920E-02 0.  1.
    10030    2    1    2    0    0  0.00000000000E+00  0.00000000000E+00  0.15649293067E+04  0.34702671332E+04  0.30973779622E+04 0.  0.
        3    1    3    3  502    0  0.67229132023E+02  0.55497767777E+03  0.24006090522E+04  0.24648415387E+04  0.10100000352E+00 0. -1.
       -3    1    3    3    0  502 -0.67229132023E+02 -0.55497767777E+03 -0.83567974548E+03  0.10054255946E+04  0.10100000352E+00 0.  1.
</event>
<event>
 5   0  0.1345931E-05  0.3336844E+04  0.7818609E-02  0.8153583E-01
        2   -1    0    0  501    0  0.00000000000E+00  0.00000000000E+00  0.22577704317E+04  0.22577704317E+04  0.25500000920E-02 0.  1.
       -2   -1    0    0    0  501  0.00000000000E+00  0.00000000000E+00 -0.12329116231E+04  0.12329116231E+04  0.25500000920E-02 0. -1.
    10030    2    1    2    0    0  0.00000000000E+00  0.00000000000E+00  0.10248588087E+04  0.34906820548E+04  0.33368436628E+04 0.  0.
        2    1    3    3  502    0 -0.13283885374E+03 -0.12924790308E+04  0.16073365620E+04  0.20668040617E+04  0.25500000920E-02 0.  1.
       -2    1    3    3    0  502  0.13283885374E+03  0.12924790308E+04 -0.58247775328E+03  0.14238779931E+04  0.25500000920E-02 0. -1.
</event>
<event>
 5   0  0.5329891E-06  0.2991870E+04  0.7818609E-02  0.8246056E-01
       -1   -1    0    0    0  501  0.00000000000E+00  0.00000000000E+00  0.15882326202E+04  0.15882326203E+04  0.50400001928E-02 0.  1.
        1   -1    0    0  501    0  0.00000000000E+00  0.00000000000E+00 -0.14090011540E+04  0.14090011540E+04  0.50400001928E-02 0. -1.
    10030    2    1    2    0    0  0.00000000000E+00  0.00000000000E+00  0.17923146626E+03  0.29972337743E+04  0.29918700472E+04 0.  0.
        4    1    3    3  502    0 -0.62773456573E+03 -0.12061128381E+04 -0.53525014141E+03  0.14612505569E+04  0.12699999809E+01 0. -1.
       -4    1    3    3    0  502  0.62773456573E+03  0.12061128381E+04  0.71448160766E+03  0.15359832173E+04  0.12699999809E+01 0.  1.
</event>
<event>
 5   0  0.1388724E-05  0.2909644E+04  0.7818609E-02  0.8270014E-01
        2   -1    0    0  501    0  0.00000000000E+00  0.00000000000E+00  0.17256453689E+04  0.17256453689E+04  0.25500000920E-02 0. -1.
       -2   -1    0    0    0  501  0.00000000000E+00  0.00000000000E+00 -0.12265021206E+04  0.12265021206E+04  0.25500000920E-02 0.  1.
    10030    2    1    2    0    0  0.00000000000E+00  0.00000000000E+00  0.49914324825E+03  0.29521474895E+04  0.29096444486E+04 0.  0.
        4    1    3    3  502    0 -0.79891709227E+03  0.64608138182E+03 -0.79543307917E+03  0.12993864200E+04  0.12699999809E+01 0.  1.
       -4    1    3    3    0  502  0.79891709227E+03 -0.64608138182E+03  0.12945763274E+04  0.16527610694E+04  0.12699999809E+01 0. -1.
</event>
<event>
 5   0  0.1523029E-05  0.3008349E+04  0.7818609E-02  0.8241351E-01
        2   -1    0    0  501    0  0.00000000000E+00  0.00000000000E+00  0.25099967245E+04  0.25099967245E+04  0.25500000920E-02 0. -1.
       -2   -1    0    0    0  501  0.00000000000E+00  0.00000000000E+00 -0.90141179034E+03  0.90141179034E+03  0.25500000920E-02 0.  1.
    10030    2    1    2    0    0  0.00000000000E+00  0.00000000000E+00  0.16085849342E+04  0.34114085149E+04  0.30083488104E+04 0.  0.
        5    1    3    3  502    0 -0.60703046770E+03  0.38125959450E+03 -0.69525399361E+03  0.99862158636E+03  0.46999998093E+01 0.  1.
       -5    1    3    3    0  502  0.60703046770E+03 -0.38125959450E+03  0.23038389278E+04  0.24127869285E+04  0.46999998093E+01 0. -1.
</event>
<event>
 5   0  0.5329891E-06  0.2941145E+04  0.7818609E-02  0.8260740E-01
        1   -1    0    0  501    0  0.00000000000E+00  0.00000000000E+00  0.25143753175E+04  0.25143753175E+04  0.50400001928E-02 0.  1.
       -1   -1    0    0    0  501  0.00000000000E+00  0.00000000000E+00 -0.86008796282E+03  0.86008796284E+03  0.50400001928E-02 0. -1.
    10030    2    1    2    0    0  0.00000000000E+00  0.00000000000E+00  0.16542873546E+04  0.33744632803E+04  0.29411453175E+04 0.  0.
        4    1    3    3  502    0 -0.63909075203E+03 -0.44128180874E+03 -0.60560222828E+03  0.98484633109E+03  0.12699999809E+01 0. -1.
       -4    1    3    3    0  502  0.63909075203E+03  0.44128180874E+03  0.22598895829E+04  0.23896169492E+04  0.12699999809E+01 0.  1.
</event>
<event>
 5   0  0.1388724E-05  0.1619050E+04  0.7818609E-02  0.8808929E-01
       -2   -1    0    0    0  501  0.00000000000E+00  0.00000000000E+00  0.35784407058E+03  0.35784407059E+03  0.25500000920E-02 0.  1.
        2   -1    0    0  501    0  0.00000000000E+00  0.00000000000E+00 -0.18313311278E+04  0.18313311278E+04  0.25500000920E-02 0. -1.
    10030    2    1    2    0    0  0.00000000000E+00  0.00000000000E+00 -0.14734870572E+04  0.21891751984E+04  0.16190503208E+04 0.  0.
        4    1    3    3  502    0  0.59645181957E+03 -0.14107953297E+03 -0.21681004109E+02  0.61329429031E+03  0.12699999809E+01 0.  1.
       -4    1    3    3    0  502 -0.59645181957E+03  0.14107953297E+03 -0.14518060531E+04  0.15758809081E+04  0.12699999809E+01 0. -1.
</event>
<event>
 5   0  0.5730920E-06  0.2895361E+04  0.7818609E-02  0.8274259E-01
        1   -1    0    0  501    0  0.00000000000E+00  0.00000000000E+00  0.14117881622E+04  0.14117881622E+04  0.50400001928E-02 0. -1.
       -1   -1    0    0    0  501  0.00000000000E+00  0.00000000000E+00 -0.14844848834E+04  0.14844848834E+04  0.50400001928E-02 0.  1.
    10030    2    1    2    0    0  0.00000000000E+00  0.00000000000E+00 -0.72696721180E+02  0.28962730457E+04  0.28953605547E+04 0.  0.
        1    1    3    3  502    0  0.75902178318E+03  0.67694120414E+03  0.99422616489E+03  0.14222690070E+04  0.50400001928E-02 0. -1.
       -1    1    3    3    0  502 -0.75902178318E+03 -0.67694120414E+03 -0.10669228861E+04  0.14740040387E+04  0.50400001928E-02 0.  1.
</event>
<event>
 5   0  0.1480547E-05  0.2749805E+04  0.7818609E-02  0.8319024E-01
       -2   -1    0    0    0  501  0.00000000000E+00  0.00000000000E+00  0.11904022779E+04  0.11904022779E+04  0.25500000920E-02 0.  1.
        2   -1    0    0  501    0  0.00000000000E+00  0.00000000000E+00 -0.15879984090E+04  0.15879984090E+04  0.25500000920E-02 0. -1.
    10030    2    1    2    0    0  0.00000000000E+00  0.00000000000E+00 -0.39759613113E+03  0.27784006869E+04  0.27498050282E+04 0.  0.
        1    1    3    3  502    0 -0.16097357781E+03  0.67716584683E+03 -0.13968310562E+04  0.15606418797E+04  0.50400001928E-02 0. -1.
       -1    1    3    3    0  502  0.16097357781E+03 -0.67716584683E+03  0.99923492512E+03  0.12177588072E+04  0.50400001928E-02 0.  1.
</event>
<event>
 5   0  0.5329891E-06  0.2073191E+04  0.7818609E-02  0.8573146E-01
       -1   -1    0    0    0  501  0.00000000000E+00  0.00000000000E+00  0.11132728251E+04  0.11132728251E+04  0.50400001928E-02 0.  1.
        1   -1    0    0  501    0  0.00000000000E+00  0.00000000000E+00 -0.96519898324E+03  0.96519898325E+03  0.50400001928E-02 0. -1.
    10030    2    1    2    0    0  0.00000000000E+00  0.00000000000E+00  0.14807384185E+03  0.20784718084E+04  0.20731905835E+04 0.  0.
        4    1    3    3  502    0  0.50408332436E+03  0.23612478760E+03  0.95072048806E+03  0.11016923221E+04  0.12699999809E+01 0.  1.
       -4    1    3    3    0  502 -0.50408332436E+03 -0.23612478760E+03 -0.80264664621E+03  0.97677948627E+03  0.12699999809E+01 0. -1.
</event>
<event>
 5   0  0.1345931E-05  0.2952716E+04  0.7818609E-02  0.8257363E-01
        2   -1    0    0  501    0  0.00000000000E+00  0.00000000000E+00  0.20844705295E+04  0.20844705295E+04  0.25500000920E-02 0. -1.
       -2   -1    0    0    0  501  0.00000000000E+00  0.00000000000E+00 -0.10456532053E+04  0.10456532053E+04  0.25500000920E-02 0.  1.
    10030    2    1    2    0    0  0.00000000000E+00  0.00000000000E+00  0.10388173241E+04  0.31301237348E+04  0.29527162347E+04 0.  0.
        2    1    3    3  502    0  0.21364013296E+03 -0.14102554791E+04  0.92331366388E+03  0.16991088089E+04  0.25500000920E-02 0. -1.
       -2    1    3    3    0  502 -0.21364013296E+03  0.14102554791E+04  0.11550366027E+03  0.14310149259E+04  0.25500000920E-02 0.  1.
</event>
<event>
 5   0  0.1345931E-05  0.1638050E+04  0.7818609E-02  0.8797507E-01
       -2   -1    0    0    0  501  0.00000000000E+00  0.00000000000E+00  0.32868359686E+03  0.32868359687E+03  0.25500000920E-02 0. -1.
        2   -1    0    0  501    0  0.00000000000E+00  0.00000000000E+00 -0.20408755909E+04  0.20408755909E+04  0.25500000920E-02 0.  1.
    10030    2    1    2    0    0  0.00000000000E+00  0.00000000000E+00 -0.17121919940E+04  0.23695591877E+04  0.16380504632E+04 0.  0.
        2    1    3    3  502    0  0.47823552088E+03  0.65180691910E+03 -0.10460374281E+04  0.13220271458E+04  0.25500000920E-02 0. -1.
       -2    1    3    3    0  502 -0.47823552088E+03 -0.65180691910E+03 -0.66615456593E+03  0.10475320420E+04  0.25500000920E-02 0.  1.
</event>
<event>
 5   0  0.5329891E-06  0.2402616E+04  0.7818609E-02  0.8438525E-01
       -1   -1    0    0    0  501  0.00000000000E+00  0.00000000000E+00  0.80409846260E+03  0.80409846262E+03  0.50400001928E-02 0. -1.
        1   -1    0    0  501    0  0.00000000000E+00  0.00000000000E+00 -0.17947313321E+04  0.17947313321E+04  0.50400001928E-02 0.  1.
    10030    2    1    2    0    0  0.00000000000E+00  0.00000000000E+00 -0.99063286947E+03  0.25988297947E+04  0.24026158286E+04 0.  0.
        4    1    3    3  502    0 -0.21057768408E+03  0.90655999005E+03  0.32628417650E+03  0.98623372145E+03  0.12699999809E+01 0. -1.
       -4    1    3    3    0  502  0.21057768408E+03 -0.90655999005E+03 -0.13169170460E+04  0.16125960732E+04  0.12699999809E+01 0.  1.
</event>
<event>
 5   0  0.7032692E-06  0.2849169E+04  0.7818609E-02  0.8288164E-01
        1   -1    0    0  501    0  0.00000000000E+00  0.00000000000E+00  0.76371087559E+03  0.76371087560E+03  0.50400001928E-02 0.  1.
       -1   -1    0    0    0  501  0.00000000000E+00  0.00000000000E+00 -0.26573427643E+04  0.26573427644E+04  0.50400001928E-02 0. -1.
    10030    2    1    2    0    0  0.00000000000E+00  0.00000000000E+00 -0.18936318888E+04  0.34210536400E+04  0.28491694013E+04 0.  0.
        5    1    3    3  502    0 -0.47312067331E+03 -0.70360239520E+02  0.66439847432E+03  0.81868257432E+03  0.46999998093E+01 0.  1.
       -5    1    3    3    0  502  0.47312067331E+03  0.70360239520E+02 -0.25580303631E+04  0.26023710656E+04  0.46999998093E+01 0. -1.
</event>
<event>
 5   0  0.5392262E-06  0.2881798E+04  0.7818609E-02  0.8278314E-01
        1   -1    0    0  501    0  0.00000000000E+00  0.00000000000E+00  0.17203334487E+04  0.17203334487E+04  0.50400001928E-02 0. -1.
       -1   -1    0    0    0  501  0.00000000000E+00  0.00000000000E+00 -0.12068530692E+04  0.12068530692E+04  0.50400001928E-02 0.  1.
    10030    2    1    2    0    0  0.00000000000E+00  0.00000000000E+00  0.51348037945E+03  0.29271865179E+04  0.28817978434E+04 0.  0.
        2    1    3    3  502    0 -0.63944827147E+03 -0.79380159389E+03  0.12911981094E+04  0.16450555067E+04  0.25500000920E-02 0. -1.
       -2    1    3    3    0  502  0.63944827147E+03  0.79380159389E+03 -0.77771772995E+03  0.12821310112E+04  0.25500000920E-02 0.  1.
</event>
<event>
 5   0  0.1423692E-05  0.2974514E+04  0.7818609E-02  0.8251046E-01
        2   -1    0    0  501    0  0.00000000000E+00  0.00000000000E+00  0.21648717959E+04  0.21648717959E+04  0.25500000920E-02 0.  1.
       -2   -1    0    0    0  501  0.00000000000E+00  0.00000000000E+00 -0.10217386637E+04  0.10217386637E+04  0.25500000920E-02 0. -1.
    10030    2    1    2    0    0  0.00000000000E+00  0.00000000000E+00  0.11431331322E+04  0.31866104597E+04  0.29745138870E+04 0.  0.
        3    1    3    3  502    0  0.10451974886E+04 -0.99251941213E+02 -0.55694211075E+03  0.11884751840E+04  0.10100000352E+00 0. -1.
       -3    1    3    3    0  502 -0.10451974886E+04  0.99251941213E+02  0.17000752429E+04  0.19981352757E+04  0.10100000352E+00 0.  1.
</event>
<event>
 5   0  0.5392262E-06  0.2052711E+04  0.7818609E-02  0.8582366E-01
        1   -1    0    0  501    0  0.00000000000E+00  0.00000000000E+00  0.86215356231E+03  0.86215356233E+03  0.50400001928E-02 0.  1.
       -1   -1    0    0    0  501  0.00000000000E+00  0.00000000000E+00 -0.12218302986E+04  0.12218302986E+04  0.50400001928E-02 0. -1.
    10030    2    1    2    0    0  0.00000000000E+00  0.00000000000E+00 -0.35967673625E+03  0.20839838609E+04  0.20527107390E+04 0.  0.
        2    1    3    3  502    0 -0.27954726974E+03 -0.49145985419E+03  0.68978963449E+03  0.89190201488E+03  0.25500000920E-02 0.  1.
       -2    1    3    3    0  502  0.27954726974E+03  0.49145985419E+03 -0.10494663707E+04  0.11920818460E+04  0.25500000920E-02 0. -1.
</event>
<event>
 5   0  0.5730920E-06  0.3099365E+04  0.7818609E-02  0.8215912E-01
       -1   -1    0    0    0  501  0.00000000000E+00  0.00000000000E+00  0.16648890846E+04  0.16648890846E+04  0.50400001928E-02 0. -1.
        1   -1    0    0  501    0  0.00000000000E+00  0.00000000000E+00 -0.14424477580E+04  0.14424477580E+04  0.50400001928E-02 0.  1.
    10030    2    1    2    0    0  0.00000000000E+00  0.00000000000E+00  0.22244132654E+03  0.31073368426E+04  0.30993647913E+04 0.  0.
        1    1    3    3  502    0 -0.13457969266E+04  0.43541361192E+03  0.74590596989E+03  0.15991029039E+04  0.50400001928E-02 0.  1.
       -1    1    3    3    0  502  0.13457969266E+04 -0.43541361192E+03 -0.52346464334E+03  0.15082339388E+04  0.50400001928E-02 0. -1.
</event>
<event>
 5   0  0.1480547E-05  0.2870717E+04  0.7818609E-02  0.8281644E-01
        2   -1    0    0  501    0  0.00000000000E+00  0.00000000000E+00  0.24251903764E+04  0.24251903764E+04  0.25500000920E-02 0.  1.
       -2   -1    0    0    0  501  0.00000000000E+00  0.00000000000E+00 -0.84952260516E+03  0.84952260516E+03  0.25500000920E-02 0. -1.
    10030    2    1    2    0    0  0.00000000000E+00  0.00000000000E+00  0.15756677712E+04  0.32747129815E+04  0.28707170160E+04 0.  0.
        1    1    3    3  502    0 -0.10158009904E+04 -0.81648690426E+03  0.14739348756E+04  0.19674822831E+04  0.50400001928E-02 0.  1.
       -1    1    3    3    0  502  0.10158009904E+04  0.81648690426E+03  0.10173289563E+03  0.13072306984E+04  0.50400001928E-02 0. -1.
</event>
<event>
 5   0  0.4806125E-06  0.2555593E+04  0.7818609E-02  0.8383444E-01
        3   -1    0    0  501    0  0.00000000000E+00  0.00000000000E+00  0.13927860294E+04  0.13927860331E+04  0.10100000352E+00 0. -1.
       -3   -1    0    0    0  501  0.00000000000E+00  0.00000000000E+00 -0.11723005750E+04  0.11723005794E+04  0.10100000352E+00 0.  1.
    10030    2    1    2    0    0  0.00000000000E+00  0.00000000000E+00  0.22048545441E+03  0.25650866124E+04  0.25555929828E+04 0.  0.
        1    1    3    3  502    0 -0.98667458340E+03  0.27142318524E+03 -0.65782318957E+03  0.12165231719E+04  0.50400001928E-02 0.  1.
       -1    1    3    3    0  502  0.98667458340E+03 -0.27142318524E+03  0.87830864398E+03  0.13485634405E+04  0.50400001928E-02 0. -1.
</event>
<event>
 5   0  0.7032692E-06  0.2953822E+04  0.7818609E-02  0.8257042E-01
        1   -1    0    0  501    0  0.00000000000E+00  0.00000000000E+00  0.15649618716E+04  0.15649618716E+04  0.50400001928E-02 0. -1.
       -1   -1    0    0    0  501  0.00000000000E+00  0.00000000000E+00 -0.13938142042E+04  0.13938142042E+04  0.50400001928E-02 0.  1.
    10030    2    1    2    0    0  0.00000000000E+00  0.00000000000E+00  0.17114766748E+03  0.29587760758E+04  0.29538219890E+04 0.  0.
        5    1    3    3  502    0 -0.41220041271E+03 -0.47991032679E+03  0.14223610582E+04  0.15567132594E+04  0.46999998093E+01 0. -1.
       -5    1    3    3    0  502  0.41220041271E+03  0.47991032679E+03 -0.12512133907E+04  0.14020628164E+04  0.46999998093E+01 0.  1.
</event>
<event>
 5   0  0.1345931E-05  0.2951160E+04  0.7818609E-02  0.8257817E-01
        2   -1    0    0  501    0  0.00000000000E+00  0.00000000000E+00  0.71616398978E+03  0.71616398979E+03  0.25500000920E-02 0. -1.
       -2   -1    0    0    0  501  0.00000000000E+00  0.00000000000E+00 -0.30402754957E+04  0.30402754957E+04  0.25500000920E-02 0.  1.
    10030    2    1    2    0    0  0.00000000000E+00  0.00000000000E+00 -0.23241115060E+04  0.37564394855E+04  0.29511596562E+04 0.  0.
        2    1    3    3  502    0  0.11445351247E+03  0.10043063083E+04  0.20626656144E+03  0.10316378540E+04  0.25500000920E-02 0. -1.
       -2    1    3    3    0  502 -0.11445351247E+03 -0.10043063083E+04 -0.25303780674E+04  0.27248016316E+04  0.25500000920E-02 0.  1.
</event>
<event>
 5   0  0.1345931E-05  0.2958808E+04  0.7818609E-02  0.8255592E-01
        2   -1    0    0  501    0  0.00000000000E+00  0.00000000000E+00  0.34117448934E+04  0.34117448935E+04  0.25500000920E-02 0. -1.
       -2   -1    0    0    0  501  0.00000000000E+00  0.00000000000E+00 -0.64150038797E+03  0.64150038797E+03  0.25500000920E-02 0.  1.
    10030    2    1    2    0    0  0.00000000000E+00  0.00000000000E+00  0.27702445055E+04  0.40532452814E+04  0.29588076469E+04 0.  0.
        2    1    3    3  502    0  0.10378783329E+04  0.54097468787E+03  0.26246966123E+04  0.28738262566E+04  0.25500000920E-02 0. -1.
       -2    1    3    3    0  502 -0.10378783329E+04 -0.54097468787E+03  0.14554789322E+03  0.11794190248E+04  0.25500000920E-02 0.  1.
</event>
<event>
 5   0  0.5522695E-06  0.2966220E+04  0.7818609E-02  0.8253443E-01
       -1   -1    0    0    0  501  0.00000000000E+00  0.00000000000E+00  0.14569411624E+04  0.14569411624E+04  0.50400001928E-02 0. -1.
        1   -1    0    0  501    0  0.00000000000E+00  0.00000000000E+00 -0.15097484403E+04  0.15097484403E+04  0.50400001928E-02 0.  1.
    10030    2    1    2    0    0  0.00000000000E+00  0.00000000000E+00 -0.52807277849E+02  0.29666896027E+04  0.29662195789E+04 0.  0.
        3    1    3    3  502    0  0.76800583005E+03 -0.60730839947E+03  0.10877559112E+04  0.14635126852E+04  0.10100000352E+00 0. -1.
       -3    1    3    3    0  502 -0.76800583005E+03  0.60730839947E+03 -0.11405631891E+04  0.15031769176E+04  0.10100000352E+00 0.  1.
</event>
<event>
 5   0  0.1523029E-05  0.2963003E+04  0.7818609E-02  0.8254375E-01
       -2   -1    0    0    0  501  0.00000000000E+00  0.00000000000E+00  0.94875463434E+03  0.94875463434E+03  0.25500000920E-02 0.  1.
        2   -1    0    0  501    0  0.00000000000E+00  0.00000000000E+00 -0.23133982579E+04  0.23133982579E+04  0.25500000920E-02 0. -1.
    10030    2    1    2    0    0  0.00000000000E+00  0.00000000000E+00 -0.13646436236E+04  0.32621528923E+04  0.29630034210E+04 0.  0.
        5    1    3    3  502    0  0.11573768100E+04 -0.49379016940E+03  0.17859593381E+03  0.12709321026E+04  0.46999998093E+01 0.  1.
       -5    1    3    3    0  502 -0.11573768100E+04  0.49379016940E+03 -0.15432395574E+04  0.19912207897E+04  0.46999998093E+01 0. -1.
</event>
<event>
 5   0  0.5329891E-06  0.1534458E+04  0.7818609E-02  0.8861857E-01
        1   -1    0    0  501    0  0.00000000000E+00  0.00000000000E+00  0.77709625792E+03  0.77709625793E+03  0.50400001928E-02 0. -1.
       -1   -1    0    0    0  501  0.00000000000E+00  0.00000000000E+00 -0.75748692930E+03  0.75748692932E+03  0.50400001928E-02 0.  1.
    10030    2    1    2    0    0  0.00000000000E+00  0.00000000000E+00  0.19609328617E+02  0.15345831873E+04  0.15344578954E+04 0.  0.
        4    1    3    3  502    0  0.86809658126E+02  0.46469797719E+03  0.61413748070E+03  0.77501392558E+03  0.12699999809E+01 0. -1.
       -4    1    3    3    0  502 -0.86809658126E+02 -0.46469797719E+03 -0.59452815208E+03  0.75956926167E+03  0.12699999809E+01 0.  1.
</event>
<event>
 5   0  0.1345931E-05  0.2934457E+04  0.7818609E-02  0.8262699E-01
        2   -1    0    0  501    0  0.00000000000E+00  0.00000000000E+00  0.13045017294E+04  0.13045017294E+04  0.25500000920E-02 0. -1.
       -2   -1    0    0    0  501  0.00000000000E+00  0.00000000000E+00 -0.16502543835E+04  0.16502543835E+04  0.25500000920E-02 0.  1.
    10030    2    1    2    0    0  0.00000000000E+00  0.00000000000E+00 -0.34575265414E+03  0.29547561129E+04  0.29344571540E+04 0.  0.
        2    1    3    3  502    0  0.13579094508E+04 -0.13508466475E+02 -0.73229046667E+03  0.15428382556E+04  0.25500000920E-02 0.  1.
       -2    1    3    3    0  502 -0.13579094508E+04  0.13508466475E+02  0.38653781253E+03  0.14119178573E+04  0.25500000920E-02 0. -1.
</event>
<event>
 5   0  0.5522695E-06  0.2302078E+04  0.7818609E-02  0.8477102E-01
       -1   -1    0    0    0  501  0.00000000000E+00  0.00000000000E+00  0.51775571133E+03  0.51775571135E+03  0.50400001928E-02 0. -1.
        1   -1    0    0  501    0  0.00000000000E+00  0.00000000000E+00 -0.25589103729E+04  0.25589103729E+04  0.50400001928E-02 0.  1.
    10030    2    1    2    0    0  0.00000000000E+00  0.00000000000E+00 -0.20411546616E+04  0.30766660843E+04  0.23020777227E+04 0.  0.
        3    1    3    3  502    0 -0.69082239543E+01 -0.30909742432E+03 -0.25023773267E+04  0.25214046158E+04  0.10100000352E+00 0.  1.
       -3    1    3    3    0  502  0.69082239543E+01  0.30909742432E+03  0.46122266514E+03  0.55526146842E+03  0.10100000352E+00 0. -1.
</event>
<event>
 5   0  0.4806125E-06  0.3041190E+04  0.7818609E-02  0.8232066E-01
       -3   -1    0    0    0  501  0.00000000000E+00  0.00000000000E+00  0.20258185380E+04  0.20258185405E+04  0.10100000352E+00 0.  1.
        3   -1    0    0  501    0  0.00000000000E+00  0.00000000000E+00 -0.11413701200E+04  0.11413701245E+04  0.10100000352E+00 0. -1.
    10030    2    1    2    0    0  0.00000000000E+00  0.00000000000E+00  0.88444841798E+03  0.31671886650E+04  0.30411897402E+04 0.  0.
        1    1    3    3  502    0  0.12066509042E+04 -0.56734847567E+03  0.12034795368E+04  0.17961775227E+04  0.50400001928E-02 0.  1.
       -1    1    3    3    0  502 -0.12066509042E+04  0.56734847567E+03 -0.31903111885E+03  0.13710111423E+04  0.50400001928E-02 0. -1.
</event>
<event>
 5   0  0.5392262E-06  0.3049724E+04  0.7818609E-02  0.8229673E-01
       -1   -1    0    0    0  501  0.00000000000E+00  0.00000000000E+00  0.12641123477E+04  0.12641123477E+04  0.50400001928E-02 0.  1.
        1   -1    0    0  501    0  0.00000000000E+00  0.00000000000E+00 -0.18393968654E+04  0.18393968655E+04  0.50400001928E-02 0. -1.
    10030    2    1    2    0    0  0.00000000000E+00  0.00000000000E+00 -0.57528451775E+03  0.31035092132E+04  0.30497241121E+04 0.  0.
        2    1    3    3  502    0 -0.10004588869E+04  0.10361984420E+04 -0.79704925253E+03  0.16461812496E+04  0.25500000920E-02 0. -1.
       -2    1    3    3    0  502  0.10004588869E+04 -0.10361984420E+04  0.22176473479E+03  0.14573279635E+04  0.25500000920E-02 0.  1.
</event>
<event>
 5   0  0.7032692E-06  0.2897331E+04  0.7818609E-02  0.8273672E-01
        1   -1    0    0  501    0  0.00000000000E+00  0.00000000000E+00  0.15423155268E+04  0.15423155268E+04  0.50400001928E-02 0.  1.
       -1   -1    0    0    0  501  0.00000000000E+00  0.00000000000E+00 -0.13607015327E+04  0.13607015328E+04  0.50400001928E-02 0. -1.
    10030    2    1    2    0    0  0.00000000000E+00  0.00000000000E+00  0.18161399403E+03  0.29030170595E+04  0.28973305654E+04 0.  0.
        5    1    3    3  502    0 -0.12195665015E+03  0.23916939397E+03 -0.13355506769E+04  0.13622749811E+04  0.46999998093E+01 0. -1.
       -5    1    3    3    0  502  0.12195665015E+03 -0.23916939397E+03  0.15171646709E+04  0.15407420784E+04  0.46999998093E+01 0.  1.
</event>
<event>
 5   0  0.1345931E-05  0.3020041E+04  0.7818609E-02  0.8238031E-01
        2   -1    0    0  501    0  0.00000000000E+00  0.00000000000E+00  0.29762852137E+04  0.29762852137E+04  0.25500000920E-02 0. -1.
       -2   -1    0    0    0  501  0.00000000000E+00  0.00000000000E+00 -0.76610979827E+03  0.76610979827E+03  0.25500000920E-02 0.  1.
    10030    2    1    2    0    0  0.00000000000E+00  0.00000000000E+00  0.22101754154E+04  0.37423950120E+04  0.30200405723E+04 0.  0.
        2    1    3    3  502    0  0.11679553051E+04 -0.80692050153E+03  0.46727228009E+03  0.14945178735E+04  0.25500000920E-02 0. -1.
       -2    1    3    3    0  502 -0.11679553051E+04  0.80692050153E+03  0.17429031353E+04  0.22478771385E+04  0.25500000920E-02 0.  1.
</event>
<event>
 5   0  0.1345931E-05  0.2971894E+04  0.7818609E-02  0.8251803E-01
       -2   -1    0    0    0  501  0.00000000000E+00  0.00000000000E+00  0.90143591776E+03  0.90143591776E+03  0.25500000920E-02 0.  1.
        2   -1    0    0  501    0  0.00000000000E+00  0.00000000000E+00 -0.24494677123E+04  0.24494677123E+04  0.25500000920E-02 0. -1.
    10030    2    1    2    0    0  0.00000000000E+00  0.00000000000E+00 -0.15480317946E+04  0.33509036301E+04  0.29718937904E+04 0.  0.
        2    1    3    3  502    0 -0.73526501607E+03  0.42851816354E+02 -0.22291812568E+04  0.23477010026E+04  0.25500000920E-02 0. -1.
       -2    1    3    3    0  502  0.73526501607E+03 -0.42851816354E+02  0.68114946218E+03  0.10032026275E+04  0.25500000920E-02 0.  1.
</event>
<event>
 5   0  0.5329891E-06  0.2671144E+04  0.7818609E-02  0.8344429E-01
       -1   -1    0    0    0  501  0.00000000000E+00  0.00000000000E+00  0.93382635652E+03  0.93382635653E+03  0.50400001928E-02 0.  1.
        1   -1    0    0  501    0  0.00000000000E+00  0.00000000000E+00 -0.19101547468E+04  0.19101547468E+04  0.50400001928E-02 0. -1.
    10030    2    1    2    0    0  0.00000000000E+00  0.00000000000E+00 -0.97632839029E+03  0.28439811033E+04  0.26711442100E+04 0.  0.
        4    1    3    3  502    0 -0.70228723459E+03  0.95245734276E+03  0.17106707855E+03  0.11956788482E+04  0.12699999809E+01 0.  1.
       -4    1    3    3    0  502  0.70228723459E+03 -0.95245734276E+03 -0.11473954688E+04  0.16483022552E+04  0.12699999809E+01 0. -1.
</event>
<event>
 5   0  0.1388724E-05  0.3027949E+04  0.7818609E-02  0.8235795E-01
        2   -1    0    0  501    0  0.00000000000E+00  0.00000000000E+00  0.24629319790E+04  0.24629319790E+04  0.25500000920E-02 0.  1.
       -2   -1    0    0    0  501  0.00000000000E+00  0.00000000000E+00 -0.93064638500E+03  0.93064638501E+03  0.25500000920E-02 0. -1.
    10030    2    1    2    0    0  0.00000000000E+00  0.00000000000E+00  0.15322855940E+04  0.33935783640E+04  0.30279489710E+04 0.  0.
        4    1    3    3  502    0  0.27776890377E+03  0.56367777007E+03  0.23098651775E+04  0.23938184859E+04  0.12699999809E+01 0.  1.
       -4    1    3    3    0  502 -0.27776890377E+03 -0.56367777007E+03 -0.77757958347E+03  0.99975987813E+03  0.12699999809E+01 0. -1.
</event>
<event>
 5   0  0.4806125E-06  0.2906405E+04  0.7818609E-02  0.8270974E-01
        3   -1    0    0  501    0  0.00000000000E+00  0.00000000000E+00  0.10759098370E+04  0.10759098417E+04  0.10100000352E+00 0.  1.
       -3   -1    0    0    0  501  0.00000000000E+00  0.00000000000E+00 -0.19628009743E+04  0.19628009769E+04  0.10100000352E+00 0. -1.
    10030    2    1    2    0    0  0.00000000000E+00  0.00000000000E+00 -0.88689113739E+03  0.30387108186E+04  0.29064045743E+04 0.  0.
        1    1    3    3  502    0 -0.85464143800E+03 -0.40574269660E+03  0.70983604084E+03  0.11827537057E+04  0.50400001928E-02 0.  1.
       -1    1    3    3    0  502  0.85464143800E+03  0.40574269660E+03 -0.15967271782E+04  0.18559571129E+04  0.50400001928E-02 0. -1.
</event>
<event>
 5   0  0.5522695E-06  0.2950049E+04  0.7818609E-02  0.8258140E-01
        1   -1    0    0  501    0  0.00000000000E+00  0.00000000000E+00  0.19702950827E+04  0.19702950827E+04  0.50400001928E-02 0. -1.
       -1   -1    0    0    0  501  0.00000000000E+00  0.00000000000E+00 -0.11042494722E+04  0.11042494722E+04  0.50400001928E-02 0.  1.
    10030    2    1    2    0    0  0.00000000000E+00  0.00000000000E+00  0.86604561048E+03  0.30745445550E+04  0.29500490201E+04 0.  0.
        3    1    3    3  502    0 -0.35810888763E+03 -0.13308079661E+04  0.98095255448E+03  0.16916145372E+04  0.10100000352E+00 0. -1.
       -3    1    3    3    0  502  0.35810888763E+03  0.13308079661E+04 -0.11490694399E+03  0.13829300178E+04  0.10100000352E+00 0.  1.
</event>
<event>
 5   0  0.1345931E-05  0.2940957E+04  0.7818609E-02  0.8260795E-01
        2   -1    0    0  501    0  0.00000000000E+00  0.00000000000E+00  0.18310934275E+04  0.18310934275E+04  0.25500000920E-02 0. -1.
       -2   -1    0    0    0  501  0.00000000000E+00  0.00000000000E+00 -0.11808831752E+04  0.11808831752E+04  0.25500000920E-02 0.  1.
    10030    2    1    2    0    0  0.00000000000E+00  0.00000000000E+00  0.65021025231E+03  0.30119766027E+04  0.29409572732E+04 0.  0.
        2    1    3    3  502    0  0.21325729510E+03  0.12920313657E+04  0.10102012139E+04  0.16538833745E+04  0.25500000920E-02 0.  1.
       -2    1    3    3    0  502 -0.21325729510E+03 -0.12920313657E+04 -0.35999096159E+03  0.13580932282E+04  0.25500000920E-02 0. -1.
</event>
<event>
 5   0  0.5730920E-06  0.2834561E+04  0.7818609E-02  0.8292618E-01
       -1   -1    0    0    0  501  0.00000000000E+00  0.00000000000E+00  0.12516188744E+04  0.12516188744E+04  0.50400001928E-02 0. -1.
        1   -1    0    0  501    0  0.00000000000E+00  0.00000000000E+00 -0.16048686677E+04  0.16048686677E+04  0.50400001928E-02 0.  1.
    10030    2    1    2    0    0  0.00000000000E+00  0.00000000000E+00 -0.35324979334E+03  0.28564875421E+04  0.28345609293E+04 0.  0.
        1    1    3    3  502    0 -0.38069558724E+03  0.63598895606E+03  0.10407232149E+04  0.12776994531E+04  0.50400001928E-02 0. -1.
       -1    1    3    3    0  502  0.38069558724E+03 -0.63598895606E+03 -0.13939730082E+04  0.15787880890E+04  0.50400001928E-02 0.  1.
</event>
<event>
 5   0  0.1345931E-05  0.3051973E+04  0.7818609E-02  0.8229044E-01
       -2   -1    0    0    0  501  0.00000000000E+00  0.00000000000E+00  0.12250093573E+04  0.12250093573E+04  0.25500000920E-02 0.  1.
        2   -1    0    0  501    0  0.00000000000E+00  0.00000000000E+00 -0.19009113127E+04  0.19009113127E+04  0.25500000920E-02 0. -1.
    10030    2    1    2    0    0  0.00000000000E+00  0.00000000000E+00 -0.67590195536E+03  0.31259206700E+04  0.30519725723E+04 0.  0.
        2    1    3    3  502    0  0.11281974995E+04  0.10046925471E+04 -0.11733127049E+03  0.15152568559E+04  0.25500000920E-02 0.  1.
       -2    1    3    3    0  502 -0.11281974995E+04 -0.10046925471E+04 -0.55857068487E+03  0.16106638141E+04  0.25500000920E-02 0. -1.
</event>
<event>
 5   0  0.1345931E-05  0.3079108E+04  0.7818609E-02  0.8221495E-01
        2   -1    0    0  501    0  0.00000000000E+00  0.00000000000E+00  0.21970205612E+04  0.21970205612E+04  0.25500000920E-02 0.  1.
       -2   -1    0    0    0  501  0.00000000000E+00  0.00000000000E+00 -0.10788364199E+04  0.10788364199E+04  0.25500000920E-02 0. -1.
    10030    2    1    2    0    0  0.00000000000E+00  0.00000000000E+00  0.11181841413E+04  0.32758569811E+04  0.30791075309E+04 0.  0.
        2    1    3    3  502    0  0.11907458986E+04 -0.61118099126E+03  0.13684996440E+04  0.19142124424E+04  0.25500000920E-02 0.  1.
       -2    1    3    3    0  502 -0.11907458986E+04  0.61118099126E+03 -0.25031550268E+03  0.13616445387E+04  0.25500000920E-02 0. -1.
</event>
<event>
 5   0  0.5522695E-06  0.2010812E+04  0.7818609E-02  0.8601582E-01
       -1   -1    0    0    0  501  0.00000000000E+00  0.00000000000E+00  0.10377153492E+04  0.10377153492E+04  0.50400001928E-02 0. -1.
        1   -1    0    0  501    0  0.00000000000E+00  0.00000000000E+00 -0.97410241582E+03  0.97410241583E+03  0.50400001928E-02 0.  1.
    10030    2    1    2    0    0  0.00000000000E+00  0.00000000000E+00  0.63612933408E+02  0.20118177651E+04  0.20108118049E+04 0.  0.
        3    1    3    3  502    0  0.84912881456E+03  0.20818794047E+03 -0.46490847448E+03  0.99020293987E+03  0.10100000352E+00 0.  1.
       -3    1    3    3    0  502 -0.84912881456E+03 -0.20818794047E+03  0.52852140788E+03  0.10216148252E+04  0.10100000352E+00 0. -1.
</event>
<event>
 5   0  0.5730920E-06  0.2264114E+04  0.7818609E-02  0.8492207E-01
       -1   -1    0    0    0  501  0.00000000000E+00  0.00000000000E+00  0.67371355891E+03  0.67371355893E+03  0.50400001928E-02 0.  1.
        1   -1    0    0  501    0  0.00000000000E+00  0.00000000000E+00 -0.19022218151E+04  0.19022218151E+04  0.50400001928E-02 0. -1.
    10030    2    1    2    0    0  0.00000000000E+00  0.00000000000E+00 -0.12285082562E+04  0.25759353740E+04  0.22641136269E+04 0.  0.
        1    1    3    3  502    0  0.64788562183E+03 -0.84543204886E+03 -0.10505254921E+04  0.14960330671E+04  0.50400001928E-02 0. -1.
       -1    1    3    3    0  502 -0.64788562183E+03  0.84543204886E+03 -0.17798276406E+03  0.10799023069E+04  0.50400001928E-02 0.  1.
</event>
<event>
 5   0  0.5522695E-06  0.2987915E+04  0.7818609E-02  0.8247190E-01
       -1   -1    0    0    0  501  0.00000000000E+00  0.00000000000E+00  0.20172177206E+04  0.20172177206E+04  0.50400001928E-02 0. -1.
        1   -1    0    0  501    0  0.00000000000E+00  0.00000000000E+00 -0.11064292700E+04  0.11064292700E+04  0.50400001928E-02 0.  1.
    10030    2    1    2    0    0  0.00000000000E+00  0.00000000000E+00  0.91078845060E+03  0.31236469907E+04  0.29879148115E+04 0.  0.
        3    1    3    3  502    0 -0.10872261097E+03  0.12253164833E+04  0.13416596795E+04  0.18202394886E+04  0.10100000352E+00 0. -1.
       -3    1    3    3    0  502  0.10872261097E+03 -0.12253164833E+04 -0.43087122886E+03  0.13034075020E+04  0.10100000352E+00 0.  1.
</event>
<event>
 5   0  0.5329891E-06  0.3018158E+04  0.7818609E-02  0.8238565E-01
        1   -1    0    0  501    0  0.00000000000E+00  0.00000000000E+00  0.20093601128E+04  0.20093601128E+04  0.50400001928E-02 0.  1.
       -1   -1    0    0    0  501  0.00000000000E+00  0.00000000000E+00 -0.11333552615E+04  0.11333552615E+04  0.50400001928E-02 0. -1.
    10030    2    1    2    0    0  0.00000000000E+00  0.00000000000E+00  0.87600485129E+03  0.31427153743E+04  0.30181576208E+04 0.  0.
        4    1    3    3  502    0  0.55315714295E+03 -0.13934287611E+04  0.61742347698E+03  0.16213697604E+04  0.12699999809E+01 0. -1.
       -4    1    3    3    0  502 -0.55315714295E+03  0.13934287611E+04  0.25858137431E+03  0.15213456139E+04  0.12699999809E+01 0.  1.
</event>
<event>
 5   0  0.5329891E-06  0.2979085E+04  0.7818609E-02  0.8249729E-01
        1   -1    0    0  501    0  0.00000000000E+00  0.00000000000E+00  0.12488049248E+04  0.12488049248E+04  0.50400001928E-02 0. -1.
       -1   -1    0    0    0  501  0.00000000000E+00  0.00000000000E+00 -0.17766883782E+04  0.17766883782E+04  0.50400001928E-02 0.  1.
    10030    2    1    2    0    0  0.00000000000E+00  0.00000000000E+00 -0.52788345339E+03  0.30254933031E+04  0.29790852265E+04 0.  0.
        4    1    3    3  502    0 -0.61574872862E+03  0.73495684591E+03 -0.14216237740E+04  0.17147372481E+04  0.12699999809E+01 0.  1.
       -4    1    3    3    0  502  0.61574872862E+03 -0.73495684591E+03  0.89374032063E+03  0.13107560550E+04  0.12699999809E+01 0. -1.
</event>
<event>
 5   0  0.1480547E-05  0.3009491E+04  0.7818609E-02  0.8241026E-01
        2   -1    0    0  501    0  0.00000000000E+00  0.00000000000E+00  0.23541409679E+04  0.23541409679E+04  0.25500000920E-02 0.  1.
       -2   -1    0    0    0  501  0.00000000000E+00  0.00000000000E+00 -0.96181973385E+03  0.96181973385E+03  0.25500000920E-02 0. -1.
    10030    2    1    2    0    0  0.00000000000E+00  0.00000000000E+00  0.13923212341E+04  0.33159607018E+04  0.30094911458E+04 0.  0.
        1    1    3    3  502    0 -0.44263191601E+03 -0.11953908678E+04  0.15771988915E+04  0.20279148609E+04  0.50400001928E-02 0.  1.
       -1    1    3    3    0  502  0.44263191601E+03  0.11953908678E+04 -0.18487765744E+03  0.12880458408E+04  0.50400001928E-02 0. -1.
</event>
<event>
 5   0  0.1423692E-05  0.3127652E+04  0.7818609E-02  0.8208190E-01
        2   -1    0    0  501    0  0.00000000000E+00  0.00000000000E+00  0.15470004528E+04  0.15470004528E+04  0.25500000920E-02 0. -1.
       -2   -1    0    0    0  501  0.00000000000E+00  0.00000000000E+00 -0.15808343241E+04  0.15808343241E+04  0.25500000920E-02 0.  1.
    10030    2    1    2    0    0  0.00000000000E+00  0.00000000000E+00 -0.33833871281E+02  0.31278347769E+04  0.31276517806E+04 0.  0.
        3    1    3    3  502    0  0.34405625838E+03 -0.13490854171E+04 -0.72909990402E+03  0.15716210904E+04  0.10100000352E+00 0. -1.
       -3    1    3    3    0  502 -0.34405625838E+03  0.13490854171E+04  0.69526603274E+03  0.15562136865E+04  0.10100000352E+00 0.  1.
</event>
<event>
 5   0  0.4806125E-06  0.3124302E+04  0.7818609E-02  0.8209100E-01
        3   -1    0    0  501    0  0.00000000000E+00  0.00000000000E+00  0.22757045255E+04  0.22757045278E+04  0.10100000352E+00 0. -1.
       -3   -1    0    0    0  501  0.00000000000E+00  0.00000000000E+00 -0.10723342087E+04  0.10723342135E+04  0.10100000352E+00 0.  1.
    10030    2    1    2    0    0  0.00000000000E+00  0.00000000000E+00  0.12033703168E+04  0.33480387412E+04  0.31243020490E+04 0.  0.
        1    1    3    3  502    0 -0.51869750946E+03 -0.14701073351E+04  0.49423963298E+03  0.16354007148E+04  0.50400001928E-02 0. -1.
       -1    1    3    3    0  502  0.51869750946E+03  0.14701073351E+04  0.70913068382E+03  0.17126380265E+04  0.50400001928E-02 0.  1.
</event>
<event>
 5   0  0.1345931E-05  0.2893463E+04  0.7818609E-02  0.8274825E-01
       -2   -1    0    0    0  501  0.00000000000E+00  0.00000000000E+00  0.14482782725E+04  0.14482782725E+04  0.25500000920E-02 0. -1.
        2   -1    0    0  501    0  0.00000000000E+00  0.00000000000E+00 -0.14451868079E+04  0.14451868079E+04  0.25500000920E-02 0.  1.
    10030    2    1    2    0    0  0.00000000000E+00  0.00000000000E+00  0.30914645394E+01  0.28934650804E+04  0.28934634289E+04 0.  0.
        2    1    3    3  502    0 -0.20618454245E+03 -0.14996768296E+03  0.14256358268E+04  0.14482540806E+04  0.25500000920E-02 0. -1.
       -2    1    3    3    0  502  0.20618454245E+03  0.14996768296E+03 -0.14225443622E+04  0.14452109998E+04  0.25500000920E-02 0.  1.
</event>
<event>
 5   0  0.1388724E-05  0.2959288E+04  0.7818609E-02  0.8255453E-01
        2   -1    0    0  501    0  0.00000000000E+00  0.00000000000E+00  0.23804180313E+04  0.23804180313E+04  0.25500000920E-02 0. -1.
       -2   -1    0    0    0  501  0.00000000000E+00  0.00000000000E+00 -0.91973200441E+03  0.91973200441E+03  0.25500000920E-02 0.  1.
    10030    2    1    2    0    0  0.00000000000E+00  0.00000000000E+00  0.14606860269E+04  0.33001500357E+04  0.29592881896E+04 0.  0.
        4    1    3    3  502    0 -0.18320207545E+03  0.14372433717E+04  0.10651090664E+04  0.17982464920E+04  0.12699999809E+01 0. -1.
       -4    1    3    3    0  502  0.18320207545E+03 -0.14372433717E+04  0.39557696048E+03  0.15019035437E+04  0.12699999809E+01 0.  1.
</event>
<event>
 5   0  0.5329891E-06  0.1633879E+04  0.7818609E-02  0.8800001E-01
       -1   -1    0    0    0  501  0.00000000000E+00  0.00000000000E+00  0.49092018644E+03  0.49092018646E+03  0.50400001928E-02 0.  1.
        1   -1    0    0  501    0  0.00000000000E+00  0.00000000000E+00 -0.13594671307E+04  0.13594671307E+04  0.50400001928E-02 0. -1.
    10030    2    1    2    0    0  0.00000000000E+00  0.00000000000E+00 -0.86854694422E+03  0.18503873171E+04  0.16338786458E+04 0.  0.
        4    1    3    3  502    0 -0.16191277939E+03  0.18256907948E+03  0.44868006661E+03  0.51074713116E+03  0.12699999809E+01 0.  1.
       -4    1    3    3    0  502  0.16191277939E+03 -0.18256907948E+03 -0.13172270108E+04  0.13396401860E+04  0.12699999809E+01 0. -1.
</event>
<event>
 5   0  0.1523029E-05  0.2535755E+04  0.7818609E-02  0.8390357E-01
        2   -1    0    0  501    0  0.00000000000E+00  0.00000000000E+00  0.93605014127E+03  0.93605014128E+03  0.25500000920E-02 0.  1.
       -2   -1    0    0    0  501  0.00000000000E+00  0.00000000000E+00 -0.17173368674E+04  0.17173368674E+04  0.25500000920E-02 0. -1.
    10030    2    1    2    0    0  0.00000000000E+00  0.00000000000E+00 -0.78128672608E+03  0.26533870086E+04  0.25357550491E+04 0.  0.
        5    1    3    3  502    0 -0.76820191033E+03  0.21716993501E+03  0.64003385114E+03  0.10232117945E+04  0.46999998093E+01 0.  1.
       -5    1    3    3    0  502  0.76820191033E+03 -0.21716993501E+03 -0.14213205772E+04  0.16301752142E+04  0.46999998093E+01 0. -1.
</event>
<event>
 5   0  0.1480547E-05  0.2977905E+04  0.7818609E-02  0.8250068E-01
       -2   -1    0    0    0  501  0.00000000000E+00  0.00000000000E+00  0.12530771687E+04  0.12530771687E+04  0.25500000920E-02 0.  1.
        2   -1    0    0  501    0  0.00000000000E+00  0.00000000000E+00 -0.17692285850E+04  0.17692285850E+04  0.25500000920E-02 0. -1.
    10030    2    1    2    0    0  0.00000000000E+00  0.00000000000E+00 -0.51615141630E+03  0.30223057537E+04  0.29779052678E+04 0.  0.
        1    1    3    3  502    0  0.10652115379E+04  0.72942509492E+03 -0.10109195871E+04  0.16397240626E+04  0.50400001928E-02 0. -1.
       -1    1    3    3    0  502 -0.10652115379E+04 -0.72942509492E+03  0.49476817084E+03  0.13825816911E+04  0.50400001928E-02 0.  1.
</event>
<event>
 5   0  0.5329891E-06  0.1777019E+04  0.7818609E-02  0.8718617E-01
       -1   -1    0    0    0  501  0.00000000000E+00  0.00000000000E+00  0.73935660815E+03  0.73935660817E+03  0.50400001928E-02 0.  1.
        1   -1    0    0  501    0  0.00000000000E+00  0.00000000000E+00 -0.10677513286E+04  0.10677513286E+04  0.50400001928E-02 0. -1.
    10030    2    1    2    0    0  0.00000000000E+00  0.00000000000E+00 -0.32839472048E+03  0.18071079368E+04  0.17770188527E+04 0.  0.
        4    1    3    3  502    0 -0.23310059340E+02 -0.75463444169E+03 -0.64056355981E+03  0.99012109689E+03  0.12699999809E+01 0.  1.
       -4    1    3    3    0  502  0.23310059340E+02  0.75463444169E+03  0.31216883933E+03  0.81698683992E+03  0.12699999809E+01 0. -1.
</event>
<event>
 5   0  0.5522695E-06  0.2977006E+04  0.7818609E-02  0.8250327E-01
       -1   -1    0    0    0  501  0.00000000000E+00  0.00000000000E+00  0.15958818179E+04  0.15958818179E+04  0.50400001928E-02 0. -1.
        1   -1    0    0  501    0  0.00000000000E+00  0.00000000000E+00 -0.13883495654E+04  0.13883495654E+04  0.50400001928E-02 0.  1.
    10030    2    1    2    0    0  0.00000000000E+00  0.00000000000E+00  0.20753225253E+03  0.29842313833E+04  0.29770064348E+04 0.  0.
        3    1    3    3  502    0  0.95397317362E+03 -0.18319383678E+03  0.12343406141E+04  0.15707391762E+04  0.10100000352E+00 0. -1.
       -3    1    3    3    0  502 -0.95397317362E+03  0.18319383678E+03 -0.10268083616E+04  0.14134922071E+04  0.10100000352E+00 0.  1.
</event>
<event>
 5   0  0.1388724E-05  0.3121727E+04  0.7818609E-02  0.8209800E-01
       -2   -1    0    0    0  501  0.00000000000E+00  0.00000000000E+00  0.17562897500E+04  0.17562897500E+04  0.25500000920E-02 0.  1.
        2   -1    0    0  501    0  0.00000000000E+00  0.00000000000E+00 -0.13871831911E+04  0.13871831911E+04  0.25500000920E-02 0. -1.
    10030    2    1    2    0    0  0.00000000000E+00  0.00000000000E+00  0.36910655896E+03  0.31434729411E+04  0.31217274832E+04 0.  0.
        4    1    3    3  502    0  0.11083184059E+03 -0.38678727936E+03 -0.13340653600E+04  0.13934202862E+04  0.12699999809E+01 0. -1.
       -4    1    3    3    0  502 -0.11083184059E+03  0.38678727936E+03  0.17031719190E+04  0.17500526549E+04  0.12699999809E+01 0.  1.
</event>
<event>
 5   0  0.1423692E-05  0.2270842E+04  0.7818609E-02  0.8489507E-01
       -2   -1    0    0    0  501  0.00000000000E+00  0.00000000000E+00  0.71476874940E+03  0.71476874940E+03  0.25500000920E-02 0.  1.
        2   -1    0    0  501    0  0.00000000000E+00  0.00000000000E+00 -0.18036341535E+04  0.18036341535E+04  0.25500000920E-02 0. -1.
    10030    2    1    2    0    0  0.00000000000E+00  0.00000000000E+00 -0.10888654041E+04  0.25184029029E+04  0.22708424237E+04 0.  0.
        3    1    3    3  502    0  0.26684891189E+02  0.66929669865E+03 -0.15611728089E+04  0.16988027265E+04  0.10100000352E+00 0. -1.
       -3    1    3    3    0  502 -0.26684891189E+02 -0.66929669865E+03  0.47230740481E+03  0.81960017636E+03  0.10100000352E+00 0.  1.
</event>
<event>
 5   0  0.1345931E-05  0.1817019E+04  0.7818609E-02  0.8697301E-01
        2   -1    0    0  501    0  0.00000000000E+00  0.00000000000E+00  0.12963359709E+04  0.12963359709E+04  0.25500000920E-02 0. -1.
       -2   -1    0    0    0  501  0.00000000000E+00  0.00000000000E+00 -0.63670935249E+03  0.63670935250E+03  0.25500000920E-02 0.  1.
    10030    2    1    2    0    0  0.00000000000E+00  0.00000000000E+00  0.65962661845E+03  0.19330453234E+04  0.18170186974E+04 0.  0.
        2    1    3    3  502    0  0.78238831560E+03  0.89268803828E+02  0.81183359069E+03  0.11310058243E+04  0.25500000920E-02 0. -1.
       -2    1    3    3    0  502 -0.78238831560E+03 -0.89268803828E+02 -0.15220697224E+03  0.80203949910E+03  0.25500000920E-02 0.  1.
</event>
<event>
 5   0  0.1345931E-05  0.3002021E+04  0.7818609E-02  0.8243154E-01
        2   -1    0    0  501    0  0.00000000000E+00  0.00000000000E+00  0.13589124581E+04  0.13589124581E+04  0.25500000920E-02 0. -1.
       -2   -1    0    0    0  501  0.00000000000E+00  0.00000000000E+00 -0.16579675338E+04  0.16579675338E+04  0.25500000920E-02 0.  1.
    10030    2    1    2    0    0  0.00000000000E+00  0.00000000000E+00 -0.29905507570E+03  0.30168799920E+04  0.30020211438E+04 0.  0.
        2    1    3    3  502    0  0.51866192426E+03 -0.90418213183E+03  0.93585397140E+03  0.14008490907E+04  0.25500000920E-02 0. -1.
       -2    1    3    3    0  502 -0.51866192426E+03  0.90418213183E+03 -0.12349090471E+04  0.16160309013E+04  0.25500000920E-02 0.  1.
</event>
<event>
 5   0  0.1388724E-05  0.1611141E+04  0.7818609E-02  0.8813733E-01
        2   -1    0    0  501    0  0.00000000000E+00  0.00000000000E+00  0.13272033535E+04  0.13272033535E+04  0.25500000920E-02 0. -1.
       -2   -1    0    0    0  501  0.00000000000E+00  0.00000000000E+00 -0.48895559072E+03  0.48895559072E+03  0.25500000920E-02 0.  1.
    10030    2    1    2    0    0  0.00000000000E+00  0.00000000000E+00  0.83824776274E+03  0.18161589442E+04  0.16111405894E+04 0.  0.
        4    1    3    3  502    0  0.17383115726E+03 -0.57425377667E+03  0.10250744352E+04  0.11877558174E+04  0.12699999809E+01 0. -1.
       -4    1    3    3    0  502 -0.17383115726E+03  0.57425377667E+03 -0.18682667247E+03  0.62840312674E+03  0.12699999809E+01 0.  1.
</event>
<event>
 5   0  0.1523029E-05  0.3157976E+04  0.7818609E-02  0.8200004E-01
       -2   -1    0    0    0  501  0.00000000000E+00  0.00000000000E+00  0.16319596342E+04  0.16319596342E+04  0.25500000920E-02 0.  1.
        2   -1    0    0  501    0  0.00000000000E+00  0.00000000000E+00 -0.15277362156E+04  0.15277362156E+04  0.25500000920E-02 0. -1.
    10030    2    1    2    0    0  0.00000000000E+00  0.00000000000E+00  0.10422341857E+03  0.31596958497E+04  0.31579764632E+04 0.  0.
        5    1    3    3  502    0  0.10772855155E+04  0.73010546338E+03  0.94679298932E+03  0.16093592278E+04  0.46999998093E+01 0.  1.
       -5    1    3    3    0  502 -0.10772855155E+04 -0.73010546338E+03 -0.84256957075E+03  0.15503366219E+04  0.46999998093E+01 0. -1.
</event>
<event>
 5   0  0.1523029E-05  0.2716519E+04  0.7818609E-02  0.8329665E-01
        2   -1    0    0  501    0  0.00000000000E+00  0.00000000000E+00  0.20085077366E+04  0.20085077367E+04  0.25500000920E-02 0. -1.
       -2   -1    0    0    0  501  0.00000000000E+00  0.00000000000E+00 -0.91852717639E+03  0.91852717639E+03  0.25500000920E-02 0.  1.
    10030    2    1    2    0    0  0.00000000000E+00  0.00000000000E+00  0.10899805603E+04  0.29270349130E+04  0.27165190521E+04 0.  0.
        5    1    3    3  502    0 -0.19838288244E+03 -0.11971243560E+04  0.12025131494E+04  0.17083683609E+04  0.46999998093E+01 0. -1.
       -5    1    3    3    0  502  0.19838288244E+03  0.11971243560E+04 -0.11253258917E+03  0.12186665522E+04  0.46999998093E+01 0.  1.
</event>
<event>
 5   0  0.1423692E-05  0.3010589E+04  0.7818609E-02  0.8240714E-01
        2   -1    0    0  501    0  0.00000000000E+00  0.00000000000E+00  0.21819554938E+04  0.21819554938E+04  0.25500000920E-02 0. -1.
       -2   -1    0    0    0  501  0.00000000000E+00  0.00000000000E+00 -0.10384772648E+04  0.10384772648E+04  0.25500000920E-02 0.  1.
    10030    2    1    2    0    0  0.00000000000E+00  0.00000000000E+00  0.11434782289E+04  0.32204327586E+04  0.30105887618E+04 0.  0.
        3    1    3    3  502    0  0.49391205605E+03  0.13232870626E+04  0.11284708447E+04  0.18078949712E+04  0.10100000352E+00 0.  1.
       -3    1    3    3    0  502 -0.49391205605E+03 -0.13232870626E+04  0.15007384233E+02  0.14125377874E+04  0.10100000352E+00 0. -1.
</event>
<event>
 5   0  0.5730920E-06  0.1770122E+04  0.7818609E-02  0.8722351E-01
        1   -1    0    0  501    0  0.00000000000E+00  0.00000000000E+00  0.26811242124E+04  0.26811242124E+04  0.50400001928E-02 0.  1.
       -1   -1    0    0    0  501  0.00000000000E+00  0.00000000000E+00 -0.29216597482E+03  0.29216597487E+03  0.50400001928E-02 0. -1.
    10030    2    1    2    0    0  0.00000000000E+00  0.00000000000E+00  0.23889582376E+04  0.29732901873E+04  0.17701223339E+04 0.  0.
        1    1    3    3  502    0 -0.63115661735E+03 -0.52273967689E+03  0.17559086457E+04  0.19377385317E+04  0.50400001928E-02 0. -1.
       -1    1    3    3    0  502  0.63115661735E+03  0.52273967689E+03  0.63304959190E+03  0.10355516555E+04  0.50400001928E-02 0.  1.
</event>
<event>
 5   0  0.5730920E-06  0.1563124E+04  0.7818609E-02  0.8843528E-01
       -1   -1    0    0    0  501  0.00000000000E+00  0.00000000000E+00  0.10978278848E+04  0.10978278848E+04  0.50400001928E-02 0.  1.
        1   -1    0    0  501    0  0.00000000000E+00  0.00000000000E+00 -0.55640671595E+03  0.55640671597E+03  0.50400001928E-02 0. -1.
    10030    2    1    2    0    0  0.00000000000E+00  0.00000000000E+00  0.54142116880E+03  0.16542346007E+04  0.15631235499E+04 0.  0.
        1    1    3    3  502    0  0.49077960423E+03  0.59385887375E+03  0.13149111863E+03  0.78155159533E+03  0.50400001928E-02 0. -1.
       -1    1    3    3    0  502 -0.49077960423E+03 -0.59385887375E+03  0.40993005017E+03  0.87268300541E+03  0.50400001928E-02 0.  1.
</event>
<event>
 5   0  0.1345931E-05  0.2101157E+04  0.7818609E-02  0.8560734E-01
        2   -1    0    0  501    0  0.00000000000E+00  0.00000000000E+00  0.15649430181E+04  0.15649430181E+04  0.25500000920E-02 0.  1.
       -2   -1    0    0    0  501  0.00000000000E+00  0.00000000000E+00 -0.70527485071E+03  0.70527485071E+03  0.25500000920E-02 0. -1.
    10030    2    1    2    0    0  0.00000000000E+00  0.00000000000E+00  0.85966816737E+03  0.22702178688E+04  0.21011567799E+04 0.  0.
        2    1    3    3  502    0 -0.36896815825E+03 -0.93392638858E+03  0.96185093872E+02  0.10087653708E+04  0.25500000920E-02 0. -1.
       -2    1    3    3    0  502  0.36896815825E+03  0.93392638858E+03  0.76348307350E+03  0.12614524980E+04  0.25500000920E-02 0.  1.
</event>
<event>
 5   0  0.1388724E-05  0.2812426E+04  0.7818609E-02  0.8299421E-01
        2   -1    0    0  501    0  0.00000000000E+00  0.00000000000E+00  0.21488501341E+04  0.21488501341E+04  0.25500000920E-02 0. -1.
       -2   -1    0    0    0  501  0.00000000000E+00  0.00000000000E+00 -0.92022952128E+03  0.92022952128E+03  0.25500000920E-02 0.  1.
    10030    2    1    2    0    0  0.00000000000E+00  0.00000000000E+00  0.12286206128E+04  0.30690796554E+04  0.28124262338E+04 0.  0.
        4    1    3    3  502    0 -0.10900755624E+04 -0.43182024879E+03 -0.23287362296E+03  0.11953933228E+04  0.12699999809E+01 0.  1.
       -4    1    3    3    0  502  0.10900755624E+04  0.43182024879E+03  0.14614942357E+04  0.18736863326E+04  0.12699999809E+01 0. -1.
</event>
<event>
 5   0  0.7032692E-06  0.2794515E+04  0.7818609E-02  0.8304973E-01
        1   -1    0    0  501    0  0.00000000000E+00  0.00000000000E+00  0.24151236128E+04  0.24151236128E+04  0.50400001928E-02 0. -1.
       -1   -1    0    0    0  501  0.00000000000E+00  0.00000000000E+00 -0.80837621760E+03  0.80837621762E+03  0.50400001928E-02 0.  1.
    10030    2    1    2    0    0  0.00000000000E+00  0.00000000000E+00  0.16067473952E+04  0.32234998304E+04  0.27945149785E+04 0.  0.
        5    1    3    3  502    0  0.71625506477E+03  0.10801666357E+04  0.20119625677E+03  0.13115957085E+04  0.46999998093E+01 0.  1.
       -5    1    3    3    0  502 -0.71625506477E+03 -0.10801666357E+04  0.14055511384E+04  0.19119041220E+04  0.46999998093E+01 0. -1.
</event>
<event>
 5   0  0.1388724E-05  0.2967945E+04  0.7818609E-02  0.8252944E-01
       -2   -1    0    0    0  501  0.00000000000E+00  0.00000000000E+00  0.10079845011E+04  0.10079845011E+04  0.25500000920E-02 0.  1.
        2   -1    0    0  501    0  0.00000000000E+00  0.00000000000E+00 -0.21847310242E+04  0.21847310242E+04  0.25500000920E-02 0. -1.
    10030    2    1    2    0    0  0.00000000000E+00  0.00000000000E+00 -0.11767465231E+04  0.31927155253E+04  0.29679454250E+04 0.  0.
        4    1    3    3  502    0 -0.26682537491E+03  0.92981832789E+03 -0.17989502691E+04  0.20425429217E+04  0.12699999809E+01 0. -1.
       -4    1    3    3    0  502  0.26682537491E+03 -0.92981832789E+03  0.62220374595E+03  0.11501726035E+04  0.12699999809E+01 0.  1.
</event>
<event>
 5   0  0.7032692E-06  0.3006908E+04  0.7818609E-02  0.8241761E-01
       -1   -1    0    0    0  501  0.00000000000E+00  0.00000000000E+00  0.12351263235E+04  0.12351263235E+04  0.50400001928E-02 0.  1.
        1   -1    0    0  501    0  0.00000000000E+00  0.00000000000E+00 -0.18300753084E+04  0.18300753084E+04  0.50400001928E-02 0. -1.
    10030    2    1    2    0    0  0.00000000000E+00  0.00000000000E+00 -0.59494898491E+03  0.30652016319E+04  0.30069081711E+04 0.  0.
        5    1    3    3  502    0  0.91170796583E+03 -0.58503980169E+03 -0.13602156651E+04  0.17388765713E+04  0.46999998093E+01 0. -1.
       -5    1    3    3    0  502 -0.91170796583E+03  0.58503980169E+03  0.76526668024E+03  0.13263250606E+04  0.46999998093E+01 0.  1.
</event>
<event>
 5   0  0.5329891E-06  0.2066943E+04  0.7818609E-02  0.8575947E-01
        1   -1    0    0  501    0  0.00000000000E+00  0.00000000000E+00  0.12089579139E+04  0.12089579140E+04  0.50400001928E-02 0. -1.
       -1   -1    0    0    0  501  0.00000000000E+00  0.00000000000E+00 -0.88345741341E+03  0.88345741343E+03  0.50400001928E-02 0.  1.
    10030    2    1    2    0    0  0.00000000000E+00  0.00000000000E+00  0.32550050053E+03  0.20924153274E+04  0.20669425068E+04 0.  0.
        4    1    3    3  502    0 -0.32361458640E+03  0.94857881990E+03 -0.92413699629E+02  0.10065138265E+04  0.12699999809E+01 0.  1.
       -4    1    3    3    0  502  0.32361458640E+03 -0.94857881990E+03  0.41791420016E+03  0.10859015009E+04  0.12699999809E+01 0. -1.
</event>
<event>
 5   0  0.5730920E-06  0.2962036E+04  0.7818609E-02  0.8254656E-01
        1   -1    0    0  501    0  0.00000000000E+00  0.00000000000E+00  0.16375973360E+04  0.16375973360E+04  0.50400001928E-02 0. -1.
       -1   -1    0    0    0  501  0.00000000000E+00  0.00000000000E+00 -0.13394098523E+04  0.13394098523E+04  0.50400001928E-02 0.  1.
    10030    2    1    2    0    0  0.00000000000E+00  0.00000000000E+00  0.29818748370E+03  0.29770071884E+04  0.29620357905E+04 0.  0.
        1    1    3    3  502    0 -0.78926164259E+03 -0.10516112381E+03 -0.11059859402E+04  0.13627904103E+04  0.50400001928E-02 0.  1.
       -1    1    3    3    0  502  0.78926164259E+03  0.10516112381E+03  0.14041734239E+04  0.16142167781E+04  0.50400001928E-02 0. -1.
</event>
<event>
 5   0  0.5730920E-06  0.2966754E+04  0.7818609E-02  0.8253289E-01
        1   -1    0    0  501    0  0.00000000000E+00  0.00000000000E+00  0.25544639118E+04  0.25544639118E+04  0.50400001928E-02 0. -1.
       -1   -1    0    0    0  501  0.00000000000E+00  0.00000000000E+00 -0.86139681607E+03  0.86139681609E+03  0.50400001928E-02 0.  1.
    10030    2    1    2    0    0  0.00000000000E+00  0.00000000000E+00  0.16930670957E+04  0.34158607279E+04  0.29667538357E+04 0.  0.
        1    1    3    3  502    0 -0.11575966364E+04 -0.17401886040E+03  0.18955502969E+04  0.22278742030E+04  0.50400001928E-02 0. -1.
       -1    1    3    3    0  502  0.11575966364E+04  0.17401886040E+03 -0.20248320116E+03  0.11879865249E+04  0.50400001928E-02 0.  1.
</event>
<event>
 5   0  0.5730920E-06  0.2985787E+04  0.7818609E-02  0.8247801E-01
        1   -1    0    0  501    0  0.00000000000E+00  0.00000000000E+00  0.21287023236E+04  0.21287023236E+04  0.50400001928E-02 0.  1.
       -1   -1    0    0    0  501  0.00000000000E+00  0.00000000000E+00 -0.10469907870E+04  0.10469907870E+04  0.50400001928E-02 0. -1.
    10030    2    1    2    0    0  0.00000000000E+00  0.00000000000E+00  0.10817115365E+04  0.31756931106E+04  0.29857874815E+04 0.  0.
        1    1    3    3  502    0 -0.43541267427E+03  0.13407035650E+02 -0.97788907065E+03  0.10705283649E+04  0.50400001928E-02 0. -1.
       -1    1    3    3    0  502  0.43541267427E+03 -0.13407035650E+02  0.20596006072E+04  0.21051647457E+04  0.50400001928E-02 0.  1.
</event>
<event>
 5   0  0.5392262E-06  0.3017344E+04  0.7818609E-02  0.8238795E-01
       -1   -1    0    0    0  501  0.00000000000E+00  0.00000000000E+00  0.11217492017E+04  0.11217492017E+04  0.50400001928E-02 0.  1.
        1   -1    0    0  501    0  0.00000000000E+00  0.00000000000E+00 -0.20290559808E+04  0.20290559808E+04  0.50400001928E-02 0. -1.
    10030    2    1    2    0    0  0.00000000000E+00  0.00000000000E+00 -0.90730677909E+03  0.31508051825E+04  0.30173444793E+04 0.  0.
        2    1    3    3  502    0  0.20307473246E+03 -0.72934963034E+03 -0.18163257447E+04  0.19677981200E+04  0.25500000920E-02 0. -1.
       -2    1    3    3    0  502 -0.20307473246E+03  0.72934963034E+03  0.90901896556E+03  0.11830070625E+04  0.25500000920E-02 0.  1.
</event>
<event>
 5   0  0.7032692E-06  0.2884494E+04  0.7818609E-02  0.8277506E-01
       -1   -1    0    0    0  501  0.00000000000E+00  0.00000000000E+00  0.94693116514E+03  0.94693116516E+03  0.50400001928E-02 0.  1.
        1   -1    0    0  501    0  0.00000000000E+00  0.00000000000E+00 -0.21966504854E+04  0.21966504854E+04  0.50400001928E-02 0. -1.
    10030    2    1    2    0    0  0.00000000000E+00  0.00000000000E+00 -0.12497193202E+04  0.31435816505E+04  0.28844942736E+04 0.  0.
        5    1    3    3  502    0 -0.13476341887E+04 -0.76475688652E+02 -0.71204690845E+02  0.13516873291E+04  0.46999998093E+01 0.  1.
       -5    1    3    3    0  502  0.13476341887E+04  0.76475688652E+02 -0.11785146294E+04  0.17918943214E+04  0.46999998093E+01 0. -1.
</event>
<event>
 5   0  0.1423692E-05  0.2926348E+04  0.7818609E-02  0.8265081E-01
        2   -1    0    0  501    0  0.00000000000E+00  0.00000000000E+00  0.11902468884E+04  0.11902468885E+04  0.25500000920E-02 0. -1.
       -2   -1    0    0    0  501  0.00000000000E+00  0.00000000000E+00 -0.17986840117E+04  0.17986840118E+04  0.25500000920E-02 0.  1.
    10030    2    1    2    0    0  0.00000000000E+00  0.00000000000E+00 -0.60843712330E+03  0.29889309002E+04  0.29263479276E+04 0.  0.
        3    1    3    3  502    0  0.49060153460E+02  0.11201292715E+04  0.65598294094E+03  0.12990035075E+04  0.10100000352E+00 0. -1.
       -3    1    3    3    0  502 -0.49060153460E+02 -0.11201292715E+04 -0.12644200642E+04  0.16899273927E+04  0.10100000352E+00 0.  1.
</event>
<event>
 5   0  0.5522695E-06  0.2625214E+04  0.7818609E-02  0.8359687E-01
       -1   -1    0    0    0  501  0.00000000000E+00  0.00000000000E+00  0.13204917124E+04  0.13204917124E+04  0.50400001928E-02 0.  1.
        1   -1    0    0  501    0  0.00000000000E+00  0.00000000000E+00 -0.13047695833E+04  0.13047695833E+04  0.50400001928E-02 0. -1.
    10030    2    1    2    0    0  0.00000000000E+00  0.00000000000E+00  0.15722129081E+02  0.26252612958E+04  0.26252142171E+04 0.  0.
        3    1    3    3  502    0  0.65449551942E+03 -0.10643570077E+04  0.41000903063E+03  0.13150390261E+04  0.10100000352E+00 0. -1.
       -3    1    3    3    0  502 -0.65449551942E+03  0.10643570077E+04 -0.39428690155E+03  0.13102222696E+04  0.10100000352E+00 0.  1.
</event>
<event>
 5   0  0.5392262E-06  0.2921733E+04  0.7818609E-02  0.8266440E-01
       -1   -1    0    0    0  501  0.00000000000E+00  0.00000000000E+00  0.90788350559E+03  0.90788350561E+03  0.50400001928E-02 0. -1.
        1   -1    0    0  501    0  0.00000000000E+00  0.00000000000E+00 -0.23506667773E+04  0.23506667773E+04  0.50400001928E-02 0.  1.
    10030    2    1    2    0    0  0.00000000000E+00  0.00000000000E+00 -0.14427832717E+04  0.32585502829E+04  0.29217334542E+04 0.  0.
        2    1    3    3  502    0 -0.85764111922E+03 -0.11813772284E+04 -0.78177298287E+03  0.16560100971E+04  0.25500000920E-02 0. -1.
       -2    1    3    3    0  502  0.85764111922E+03  0.11813772284E+04 -0.66101028887E+03  0.16025401858E+04  0.25500000920E-02 0.  1.
</event>
<event>
 5   0  0.1523029E-05  0.2992430E+04  0.7818609E-02  0.8245896E-01
       -2   -1    0    0    0  501  0.00000000000E+00  0.00000000000E+00  0.13067286869E+04  0.13067286869E+04  0.25500000920E-02 0.  1.
        2   -1    0    0  501    0  0.00000000000E+00  0.00000000000E+00 -0.17131787107E+04  0.17131787107E+04  0.25500000920E-02 0. -1.
    10030    2    1    2    0    0  0.00000000000E+00  0.00000000000E+00 -0.40645002378E+03  0.30199073976E+04  0.29924302946E+04 0.  0.
        5    1    3    3  502    0 -0.67689646048E+03 -0.91293959743E+03  0.77884469321E+03  0.13777767137E+04  0.46999998093E+01 0.  1.
       -5    1    3    3    0  502  0.67689646048E+03  0.91293959743E+03 -0.11852947170E+04  0.16421306839E+04  0.46999998093E+01 0. -1.
</event>
<event>
 5   0  0.1423692E-05  0.3097084E+04  0.7818609E-02  0.8216539E-01
       -2   -1    0    0    0  501  0.00000000000E+00  0.00000000000E+00  0.14823503930E+04  0.14823503930E+04  0.25500000920E-02 0.  1.
        2   -1    0    0  501    0  0.00000000000E+00  0.00000000000E+00 -0.16176895725E+04  0.16176895725E+04  0.25500000920E-02 0. -1.
    10030    2    1    2    0    0  0.00000000000E+00  0.00000000000E+00 -0.13533917952E+03  0.31000399655E+04  0.30970842892E+04 0.  0.
        3    1    3    3  502    0 -0.44250829530E+03 -0.19826448826E+03  0.14044005681E+04  0.14857534670E+04  0.10100000352E+00 0.  1.
       -3    1    3    3    0  502  0.44250829530E+03  0.19826448826E+03 -0.15397397476E+04  0.16142864985E+04  0.10100000352E+00 0. -1.
</event>
<event>
 5   0  0.5730920E-06  0.2772890E+04  0.7818609E-02  0.8311735E-01
       -1   -1    0    0    0  501  0.00000000000E+00  0.00000000000E+00  0.18894631022E+04  0.18894631022E+04  0.50400001928E-02 0. -1.
        1   -1    0    0  501    0  0.00000000000E+00  0.00000000000E+00 -0.10173418754E+04  0.10173418754E+04  0.50400001928E-02 0.  1.
    10030    2    1    2    0    0  0.00000000000E+00  0.00000000000E+00  0.87212122681E+03  0.29068049777E+04  0.27728901428E+04 0.  0.
        1    1    3    3  502    0 -0.99791178308E+00 -0.40384311335E+03 -0.95431900793E+03  0.10362504644E+04  0.50400001928E-02 0.  1.
       -1    1    3    3    0  502  0.99791178308E+00  0.40384311335E+03  0.18264402347E+04  0.18705545133E+04  0.50400001928E-02 0. -1.
</event>
<event>
 5   0  0.1388724E-05  0.2714887E+04  0.7818609E-02  0.8330191E-01
       -2   -1    0    0    0  501  0.00000000000E+00  0.00000000000E+00  0.87530469010E+03  0.87530469010E+03  0.25500000920E-02 0.  1.
        2   -1    0    0  501    0  0.00000000000E+00  0.00000000000E+00 -0.21051565997E+04  0.21051565997E+04  0.25500000920E-02 0. -1.
    10030    2    1    2    0    0  0.00000000000E+00  0.00000000000E+00 -0.12298519096E+04  0.29804612898E+04  0.27148874342E+04 0.  0.
        4    1    3    3  502    0  0.12060333676E+04  0.62221043789E+03 -0.58039219805E+03  0.14759807008E+04  0.12699999809E+01 0.  1.
       -4    1    3    3    0  502 -0.12060333676E+04 -0.62221043789E+03 -0.64945971155E+03  0.15044805890E+04  0.12699999809E+01 0. -1.
</event>
<event>
 5   0  0.1480547E-05  0.3003060E+04  0.7818609E-02  0.8242858E-01
       -2   -1    0    0    0  501  0.00000000000E+00  0.00000000000E+00  0.13007689446E+04  0.13007689446E+04  0.25500000920E-02 0. -1.
        2   -1    0    0  501    0  0.00000000000E+00  0.00000000000E+00 -0.17332760925E+04  0.17332760925E+04  0.25500000920E-02 0.  1.
    10030    2    1    2    0    0  0.00000000000E+00  0.00000000000E+00 -0.43250714793E+03  0.30340450371E+04  0.30030595822E+04 0.  0.
        1    1    3    3  502    0  0.44907502448E+03 -0.12999957085E+04 -0.82490997999E+03  0.16037872973E+04  0.50400001928E-02 0. -1.
       -1    1    3    3    0  502 -0.44907502448E+03  0.12999957085E+04  0.39240283207E+03  0.14302577398E+04  0.50400001928E-02 0.  1.
</event>
<event>
 5   0  0.1423692E-05  0.2983891E+04  0.7818609E-02  0.8248346E-01
       -2   -1    0    0    0  501  0.00000000000E+00  0.00000000000E+00  0.15004964972E+04  0.15004964972E+04  0.25500000920E-02 0.  1.
        2   -1    0    0  501    0  0.00000000000E+00  0.00000000000E+00 -0.14834428018E+04  0.14834428018E+04  0.25500000920E-02 0. -1.
    10030    2    1    2    0    0  0.00000000000E+00  0.00000000000E+00  0.17053695336E+02  0.29839392990E+04  0.29838905663E+04 0.  0.
        3    1    3    3  502    0  0.87791985407E+03 -0.56701012807E+03 -0.10562238237E+04  0.14858844273E+04  0.10100000352E+00 0. -1.
       -3    1    3    3    0  502 -0.87791985407E+03  0.56701012807E+03  0.10732775190E+04  0.14980548717E+04  0.10100000352E+00 0.  1.
</event>
<event>
 5   0  0.7032692E-06  0.1849475E+04  0.7818609E-02  0.8680423E-01
        1   -1    0    0  501    0  0.00000000000E+00  0.00000000000E+00  0.15247328035E+04  0.15247328035E+04  0.50400001928E-02 0. -1.
       -1   -1    0    0    0  501  0.00000000000E+00  0.00000000000E+00 -0.56084517941E+03  0.56084517943E+03  0.50400001928E-02 0.  1.
    10030    2    1    2    0    0  0.00000000000E+00  0.00000000000E+00  0.96388762411E+03  0.20855779830E+04  0.18494745662E+04 0.  0.
        5    1    3    3  502    0  0.64146751118E+03  0.22211299624E+03  0.11900406764E+04  0.13700487774E+04  0.46999998093E+01 0. -1.
       -5    1    3    3    0  502 -0.64146751118E+03 -0.22211299624E+03 -0.22615305226E+03  0.71552920558E+03  0.46999998093E+01 0.  1.
</event>
<event>
 5   0  0.5392262E-06  0.3010366E+04  0.7818609E-02  0.8240777E-01
       -1   -1    0    0    0  501  0.00000000000E+00  0.00000000000E+00  0.15297557504E+04  0.15297557504E+04  0.50400001928E-02 0.  1.
        1   -1    0    0  501    0  0.00000000000E+00  0.00000000000E+00 -0.14810048699E+04  0.14810048699E+04  0.50400001928E-02 0. -1.
    10030    2    1    2    0    0  0.00000000000E+00  0.00000000000E+00  0.48750880474E+02  0.30107606203E+04  0.30103659021E+04 0.  0.
        2    1    3    3  502    0 -0.75367766957E+03 -0.48097094605E+02 -0.12778061684E+04  0.14842951068E+04  0.25500000920E-02 0. -1.
       -2    1    3    3    0  502  0.75367766957E+03  0.48097094605E+02  0.13265570489E+04  0.15264655135E+04  0.25500000920E-02 0.  1.
</event>
<event>
 5   0  0.5730920E-06  0.1476754E+04  0.7818609E-02  0.8900060E-01
       -1   -1    0    0    0  501  0.00000000000E+00  0.00000000000E+00  0.10632916350E+04  0.10632916350E+04  0.50400001928E-02 0.  1.
        1   -1    0    0  501    0  0.00000000000E+00  0.00000000000E+00 -0.51274813094E+03  0.51274813096E+03  0.50400001928E-02 0. -1.
    10030    2    1    2    0    0  0.00000000000E+00  0.00000000000E+00  0.55054350401E+03  0.15760397659E+04  0.14767542768E+04 0.  0.
        1    1    3    3  502    0  0.15234735548E+03  0.12824388074E+03 -0.48354806993E+03  0.52294832023E+03  0.50400001928E-02 0. -1.
       -1    1    3    3    0  502 -0.15234735548E+03 -0.12824388074E+03  0.10340915739E+04  0.10530914457E+04  0.50400001928E-02 0.  1.
</event>
<event>
 5   0  0.1345931E-05  0.1715896E+04  0.7818609E-02  0.8752350E-01
        2   -1    0    0  501    0  0.00000000000E+00  0.00000000000E+00  0.19479819450E+04  0.19479819450E+04  0.25500000920E-02 0.  1.
       -2   -1    0    0    0  501  0.00000000000E+00  0.00000000000E+00 -0.37786510014E+03  0.37786510014E+03  0.25500000920E-02 0. -1.
    10030    2    1    2    0    0  0.00000000000E+00  0.00000000000E+00  0.15701168449E+04  0.23258470452E+04  0.17158955594E+04 0.  0.
        2    1    3    3  502    0 -0.49962608208E+03 -0.39672997479E+03  0.15625998836E+04  0.16878208705E+04  0.25500000920E-02 0.  1.
       -2    1    3    3    0  502  0.49962608208E+03  0.39672997479E+03  0.75169612752E+01  0.63802617462E+03  0.25500000920E-02 0. -1.
</event>
<event>
 5   0  0.1388724E-05  0.2891389E+04  0.7818609E-02  0.8275444E-01
       -2   -1    0    0    0  501  0.00000000000E+00  0.00000000000E+00  0.13446880102E+04  0.13446880102E+04  0.25500000920E-02 0. -1.
        2   -1    0    0  501    0  0.00000000000E+00  0.00000000000E+00 -0.15542884198E+04  0.15542884198E+04  0.25500000920E-02 0.  1.
    10030    2    1    2    0    0  0.00000000000E+00  0.00000000000E+00 -0.20960040955E+03  0.28989764300E+04  0.28913892872E+04 0.  0.
        4    1    3    3  502    0  0.33340974635E+03  0.31603840635E+02  0.13052580207E+04  0.13475388585E+04  0.12699999809E+01 0. -1.
       -4    1    3    3    0  502 -0.33340974635E+03 -0.31603840635E+02 -0.15148584303E+04  0.15514375715E+04  0.12699999809E+01 0.  1.
</event>
<event>
 5   0  0.5392262E-06  0.2998841E+04  0.7818609E-02  0.8244062E-01
       -1   -1    0    0    0  501  0.00000000000E+00  0.00000000000E+00  0.11706763874E+04  0.11706763874E+04  0.50400001928E-02 0. -1.
        1   -1    0    0  501    0  0.00000000000E+00  0.00000000000E+00 -0.19204805714E+04  0.19204805714E+04  0.50400001928E-02 0.  1.
    10030    2    1    2    0    0  0.00000000000E+00  0.00000000000E+00 -0.74980418396E+03  0.30911569588E+04  0.29988406143E+04 0.  0.
        2    1    3    3  502    0  0.12808685454E+03  0.21764569984E+03  0.11485971531E+04  0.11760320205E+04  0.25500000920E-02 0. -1.
       -2    1    3    3    0  502 -0.12808685454E+03 -0.21764569984E+03 -0.18984013371E+04  0.19151249384E+04  0.25500000920E-02 0.  1.
</event>
<event>
 5   0  0.7032692E-06  0.2951803E+04  0.7818609E-02  0.8257629E-01
       -1   -1    0    0    0  501  0.00000000000E+00  0.00000000000E+00  0.11933699103E+04  0.11933699103E+04  0.50400001928E-02 0.  1.
        1   -1    0    0  501    0  0.00000000000E+00  0.00000000000E+00 -0.18253232566E+04  0.18253232566E+04  0.50400001928E-02 0. -1.
    10030    2    1    2    0    0  0.00000000000E+00  0.00000000000E+00 -0.63195334637E+03  0.30186931669E+04  0.29518034156E+04 0.  0.
        5    1    3    3  502    0  0.89110279726E+02 -0.11634456484E+04  0.60822644522E+03  0.13158677431E+04  0.46999998093E+01 0.  1.
       -5    1    3    3    0  502 -0.89110279726E+02  0.11634456484E+04 -0.12401797916E+04  0.17028254238E+04  0.46999998093E+01 0. -1.
</event>
<event>
 5   0  0.5392262E-06  0.3008737E+04  0.7818609E-02  0.8241240E-01
        1   -1    0    0  501    0  0.00000000000E+00  0.00000000000E+00  0.80082633765E+03  0.80082633767E+03  0.50400001928E-02 0. -1.
       -1   -1    0    0    0  501  0.00000000000E+00  0.00000000000E+00 -0.28259874645E+04  0.28259874645E+04  0.50400001928E-02 0.  1.
    10030    2    1    2    0    0  0.00000000000E+00  0.00000000000E+00 -0.20251611268E+04  0.36268138022E+04  0.30087374039E+04 0.  0.
        2    1    3    3  502    0  0.14294942927E+04 -0.24815396573E+03 -0.53329497920E+03  0.15457806631E+04  0.25500000920E-02 0.  1.
       -2    1    3    3    0  502 -0.14294942927E+04  0.24815396573E+03 -0.14918661476E+04  0.20810331391E+04  0.25500000920E-02 0. -1.
</event>
<event>
 5   0  0.1345931E-05  0.3483428E+04  0.7818609E-02  0.8117729E-01
        2   -1    0    0  501    0  0.00000000000E+00  0.00000000000E+00  0.11017324811E+04  0.11017324811E+04  0.25500000920E-02 0. -1.
       -2   -1    0    0    0  501  0.00000000000E+00  0.00000000000E+00 -0.27534514199E+04  0.27534514199E+04  0.25500000920E-02 0.  1.
    10030    2    1    2    0    0  0.00000000000E+00  0.00000000000E+00 -0.16517189388E+04  0.38551839011E+04  0.34834275446E+04 0.  0.
        2    1    3    3  502    0  0.21738809795E+03 -0.25719214387E+03 -0.27170781634E+04  0.27378676247E+04  0.25500000920E-02 0.  1.
       -2    1    3    3    0  502 -0.21738809795E+03  0.25719214387E+03  0.10653592246E+04  0.11173162764E+04  0.25500000920E-02 0. -1.
</event>
<event>
 5   0  0.1423692E-05  0.2932109E+04  0.7818609E-02  0.8263388E-01
       -2   -1    0    0    0  501  0.00000000000E+00  0.00000000000E+00  0.13052322213E+04  0.13052322213E+04  0.25500000920E-02 0. -1.
        2   -1    0    0  501    0  0.00000000000E+00  0.00000000000E+00 -0.16466927034E+04  0.16466927034E+04  0.25500000920E-02 0.  1.
    10030    2    1    2    0    0  0.00000000000E+00  0.00000000000E+00 -0.34146048210E+03  0.29519249247E+04  0.29321093944E+04 0.  0.
        3    1    3    3  502    0 -0.63070719256E+02  0.77067542021E+03 -0.14246990403E+04  0.16210138447E+04  0.10100000352E+00 0.  1.
       -3    1    3    3    0  502  0.63070719256E+02 -0.77067542021E+03  0.10832385582E+04  0.13309110801E+04  0.10100000352E+00 0. -1.
</event>
<event>
 5   0  0.1345931E-05  0.3304291E+04  0.7818609E-02  0.8161804E-01
        2   -1    0    0  501    0  0.00000000000E+00  0.00000000000E+00  0.17484764785E+04  0.17484764785E+04  0.25500000920E-02 0.  1.
       -2   -1    0    0    0  501  0.00000000000E+00  0.00000000000E+00 -0.15611218219E+04  0.15611218219E+04  0.25500000920E-02 0. -1.
    10030    2    1    2    0    0  0.00000000000E+00  0.00000000000E+00  0.18735465656E+03  0.33095983004E+04  0.33042910197E+04 0.  0.
        2    1    3    3  502    0 -0.32543935417E+03  0.77054340996E+03 -0.13333696170E+04  0.15740147570E+04  0.25500000920E-02 0. -1.
       -2    1    3    3    0  502  0.32543935417E+03 -0.77054340996E+03  0.15207242735E+04  0.17355835434E+04  0.25500000920E-02 0.  1.
</event>
<event>
 5   0  0.5522695E-06  0.3159687E+04  0.7818609E-02  0.8199546E-01
       -1   -1    0    0    0  501  0.00000000000E+00  0.00000000000E+00  0.18396960510E+04  0.18396960510E+04  0.50400001928E-02 0.  1.
        1   -1    0    0  501    0  0.00000000000E+00  0.00000000000E+00 -0.13566945492E+04  0.13566945493E+04  0.50400001928E-02 0. -1.
    10030    2    1    2    0    0  0.00000000000E+00  0.00000000000E+00  0.48300150176E+03  0.31963906003E+04  0.31596870761E+04 0.  0.
        3    1    3    3  502    0 -0.13660264490E+03  0.71340234305E+03 -0.11777583345E+04  0.13837333162E+04  0.10100000352E+00 0. -1.
       -3    1    3    3    0  502  0.13660264490E+03 -0.71340234305E+03  0.16607598362E+04  0.18126572841E+04  0.10100000352E+00 0.  1.
</event>
<event>
 5   0  0.7032692E-06  0.3030291E+04  0.7818609E-02  0.8235134E-01
        1   -1    0    0  501    0  0.00000000000E+00  0.00000000000E+00  0.12355881657E+04  0.12355881657E+04  0.50400001928E-02 0.  1.
       -1   -1    0    0    0  501  0.00000000000E+00  0.00000000000E+00 -0.18579539029E+04  0.18579539029E+04  0.50400001928E-02 0. -1.
    10030    2    1    2    0    0  0.00000000000E+00  0.00000000000E+00 -0.62236573720E+03  0.30935420686E+04  0.30302909793E+04 0.  0.
        5    1    3    3  502    0 -0.60392983007E+03 -0.65760965926E+03  0.93848490146E+03  0.12953600673E+04  0.46999998093E+01 0.  1.
       -5    1    3    3    0  502  0.60392983007E+03  0.65760965926E+03 -0.15608506387E+04  0.17981820013E+04  0.46999998093E+01 0. -1.
</event>
<event>
 5   0  0.1423692E-05  0.3028957E+04  0.7818609E-02  0.8235510E-01
        2   -1    0    0  501    0  0.00000000000E+00  0.00000000000E+00  0.21177826948E+04  0.21177826949E+04  0.25500000920E-02 0.  1.
       -2   -1    0    0    0  501  0.00000000000E+00  0.00000000000E+00 -0.10830410196E+04  0.10830410196E+04  0.25500000920E-02 0. -1.
    10030    2    1    2    0    0  0.00000000000E+00  0.00000000000E+00  0.10347416753E+04  0.32008237144E+04  0.30289572655E+04 0.  0.
        3    1    3    3  502    0 -0.11366772131E+04 -0.65225255658E+02 -0.53797240482E+03  0.12592472908E+04  0.10100000352E+00 0. -1.
       -3    1    3    3    0  502  0.11366772131E+04  0.65225255658E+02  0.15727140801E+04  0.19415764236E+04  0.10100000352E+00 0.  1.
</event>
<event>
 5   0  0.7032692E-06  0.3028988E+04  0.7818609E-02  0.8235501E-01
       -1   -1    0    0    0  501  0.00000000000E+00  0.00000000000E+00  0.17249888170E+04  0.17249888170E+04  0.50400001928E-02 0.  1.
        1   -1    0    0  501    0  0.00000000000E+00  0.00000000000E+00 -0.13296852046E+04  0.13296852046E+04  0.50400001928E-02 0. -1.
    10030    2    1    2    0    0  0.00000000000E+00  0.00000000000E+00  0.39530361243E+03  0.30546740217E+04  0.30289880212E+04 0.  0.
        5    1    3    3  502    0  0.22519112614E+02  0.93323456082E+03  0.14003403501E+04  0.16829762452E+04  0.46999998093E+01 0.  1.
       -5    1    3    3    0  502 -0.22519112614E+02 -0.93323456082E+03 -0.10050367376E+04  0.13716977765E+04  0.46999998093E+01 0. -1.
</event>
<event>
 5   0  0.5392262E-06  0.2956187E+04  0.7818609E-02  0.8256354E-01
       -1   -1    0    0    0  501  0.00000000000E+00  0.00000000000E+00  0.89767686420E+03  0.89767686422E+03  0.50400001928E-02 0. -1.
        1   -1    0    0  501    0  0.00000000000E+00  0.00000000000E+00 -0.24337932615E+04  0.24337932615E+04  0.50400001928E-02 0.  1.
    10030    2    1    2    0    0  0.00000000000E+00  0.00000000000E+00 -0.15361163973E+04  0.33314701258E+04  0.29561866674E+04 0.  0.
        2    1    3    3  502    0 -0.10265242142E+04  0.55473723148E+03  0.25447263561E+03  0.11942536081E+04  0.25500000920E-02 0. -1.
       -2    1    3    3    0  502  0.10265242142E+04 -0.55473723148E+03 -0.17905890329E+04  0.21372165176E+04  0.25500000920E-02 0.  1.
</event>
<event>
 5   0  0.1523029E-05  0.2741205E+04  0.7818609E-02  0.8321758E-01
        2   -1    0    0  501    0  0.00000000000E+00  0.00000000000E+00  0.17480685328E+04  0.17480685328E+04  0.25500000920E-02 0. -1.
       -2   -1    0    0    0  501  0.00000000000E+00  0.00000000000E+00 -0.10746441928E+04  0.10746441929E+04  0.25500000920E-02 0.  1.
    10030    2    1    2    0    0  0.00000000000E+00  0.00000000000E+00  0.67342433996E+03  0.28227127257E+04  0.27412053535E+04 0.  0.
        5    1    3    3  502    0  0.66520400302E+02  0.23533878198E+02 -0.10727643533E+04  0.10750926727E+04  0.46999998093E+01 0.  1.
       -5    1    3    3    0  502 -0.66520400302E+02 -0.23533878198E+02  0.17461886933E+04  0.17476200530E+04  0.46999998093E+01 0. -1.
</event>
<event>
 5   0  0.5730920E-06  0.3006859E+04  0.7818609E-02  0.8241775E-01
       -1   -1    0    0    0  501  0.00000000000E+00  0.00000000000E+00  0.16095642495E+04  0.16095642495E+04  0.50400001928E-02 0. -1.
        1   -1    0    0  501    0  0.00000000000E+00  0.00000000000E+00 -0.14042934917E+04  0.14042934917E+04  0.50400001928E-02 0.  1.
    10030    2    1    2    0    0  0.00000000000E+00  0.00000000000E+00  0.20527075778E+03  0.30138577412E+04  0.30068592252E+04 0.  0.
        1    1    3    3  502    0  0.34327044105E+03 -0.69991161193E+03 -0.11858876337E+04  0.14191688906E+04  0.50400001928E-02 0.  1.
       -1    1    3    3    0  502 -0.34327044105E+03  0.69991161193E+03  0.13911583914E+04  0.15946888506E+04  0.50400001928E-02 0. -1.
</event>
<event>
 5   0  0.1423692E-05  0.2931966E+04  0.7818609E-02  0.8263430E-01
        2   -1    0    0  501    0  0.00000000000E+00  0.00000000000E+00  0.12468454304E+04  0.12468454304E+04  0.25500000920E-02 0. -1.
       -2   -1    0    0    0  501  0.00000000000E+00  0.00000000000E+00 -0.17236343493E+04  0.17236343493E+04  0.25500000920E-02 0.  1.
    10030    2    1    2    0    0  0.00000000000E+00  0.00000000000E+00 -0.47678891894E+03  0.29704797797E+04  0.29319656288E+04 0.  0.
        3    1    3    3  502    0 -0.14268858180E+04 -0.33347409178E+03 -0.28252690207E+03  0.14923235468E+04  0.10100000352E+00 0.  1.
       -3    1    3    3    0  502  0.14268858180E+04  0.33347409178E+03 -0.19426201687E+03  0.14781562330E+04  0.10100000352E+00 0. -1.
</event>
<event>
 5   0  0.1388724E-05  0.2932559E+04  0.7818609E-02  0.8263256E-01
        2   -1    0    0  501    0  0.00000000000E+00  0.00000000000E+00  0.18610621409E+04  0.18610621409E+04  0.25500000920E-02 0. -1.
       -2   -1    0    0    0  501  0.00000000000E+00  0.00000000000E+00 -0.11552411920E+04  0.11552411920E+04  0.25500000920E-02 0.  1.
    10030    2    1    2    0    0  0.00000000000E+00  0.00000000000E+00  0.70582094893E+03  0.30163033329E+04  0.29325590505E+04 0.  0.
        4    1    3    3  502    0 -0.67840778899E+03 -0.44602872312E+03  0.16087589799E+04  0.18020227020E+04  0.12699999809E+01 0. -1.
       -4    1    3    3    0  502  0.67840778899E+03  0.44602872312E+03 -0.90293803101E+03  0.12142806310E+04  0.12699999809E+01 0.  1.
</event>
<event>
 5   0  0.1423692E-05  0.3016090E+04  0.7818609E-02  0.8239151E-01
       -2   -1    0    0    0  501  0.00000000000E+00  0.00000000000E+00  0.15800214640E+04  0.15800214640E+04  0.25500000920E-02 0.  1.
        2   -1    0    0  501    0  0.00000000000E+00  0.00000000000E+00 -0.14393472761E+04  0.14393472761E+04  0.25500000920E-02 0. -1.
    10030    2    1    2    0    0  0.00000000000E+00  0.00000000000E+00  0.14067418794E+03  0.30193687401E+04  0.30160899127E+04 0.  0.
        3    1    3    3  502    0 -0.64762824321E+03  0.12478438628E+04 -0.47584096354E+03  0.14842376090E+04  0.10100000352E+00 0. -1.
       -3    1    3    3    0  502  0.64762824321E+03 -0.12478438628E+04  0.61651515148E+03  0.15351311311E+04  0.10100000352E+00 0.  1.
</event>
<event>
 5   0  0.5392262E-06  0.2798894E+04  0.7818609E-02  0.8303612E-01
        1   -1    0    0  501    0  0.00000000000E+00  0.00000000000E+00  0.19092002710E+04  0.19092002710E+04  0.50400001928E-02 0. -1.
       -1   -1    0    0    0  501  0.00000000000E+00  0.00000000000E+00 -0.10257971734E+04  0.10257971734E+04  0.50400001928E-02 0.  1.
    10030    2    1    2    0    0  0.00000000000E+00  0.00000000000E+00  0.88340309766E+03  0.29349974444E+04  0.27988942398E+04 0.  0.
        2    1    3    3  502    0 -0.47486435818E+03  0.12913972947E+04  0.70956196277E+03  0.15481218655E+04  0.25500000920E-02 0. -1.
       -2    1    3    3    0  502  0.47486435818E+03 -0.12913972947E+04  0.17384113489E+03  0.13868755790E+04  0.25500000920E-02 0.  1.
</event>
<event>
 5   0  0.1388724E-05  0.2974334E+04  0.7818609E-02  0.8251098E-01
       -2   -1    0    0    0  501  0.00000000000E+00  0.00000000000E+00  0.19580214738E+04  0.19580214738E+04  0.25500000920E-02 0. -1.
        2   -1    0    0  501    0  0.00000000000E+00  0.00000000000E+00 -0.11295414032E+04  0.11295414032E+04  0.25500000920E-02 0.  1.
    10030    2    1    2    0    0  0.00000000000E+00  0.00000000000E+00  0.82848007059E+03  0.30875628771E+04  0.29743344285E+04 0.  0.
        4    1    3    3  502    0  0.11346124575E+04  0.47631540401E+03  0.12811626787E+04  0.17764011977E+04  0.12699999809E+01 0. -1.
       -4    1    3    3    0  502 -0.11346124575E+04 -0.47631540401E+03 -0.45268260813E+03  0.13111616794E+04  0.12699999809E+01 0.  1.
</event>
<event>
 5   0  0.7032692E-06  0.3139981E+04  0.7818609E-02  0.8204850E-01
        1   -1    0    0  501    0  0.00000000000E+00  0.00000000000E+00  0.18543935391E+04  0.18543935391E+04  0.50400001928E-02 0. -1.
       -1   -1    0    0    0  501  0.00000000000E+00  0.00000000000E+00 -0.13292054790E+04  0.13292054790E+04  0.50400001928E-02 0.  1.
    10030    2    1    2    0    0  0.00000000000E+00  0.00000000000E+00  0.52518806010E+03  0.31835990182E+04  0.31399809251E+04 0.  0.
        5    1    3    3  502    0  0.52565907938E+03 -0.14398856102E+03  0.17553909722E+04  0.18380614050E+04  0.46999998093E+01 0. -1.
       -5    1    3    3    0  502 -0.52565907938E+03  0.14398856102E+03 -0.12302029121E+04  0.13455376131E+04  0.46999998093E+01 0.  1.
</event>
<event>
 5   0  0.5392262E-06  0.2860486E+04  0.7818609E-02  0.8284732E-01
       -1   -1    0    0    0  501  0.00000000000E+00  0.00000000000E+00  0.12064803123E+04  0.12064803123E+04  0.50400001928E-02 0. -1.
        1   -1    0    0  501    0  0.00000000000E+00  0.00000000000E+00 -0.16955058363E+04  0.16955058363E+04  0.50400001928E-02 0.  1.
    10030    2    1    2    0    0  0.00000000000E+00  0.00000000000E+00 -0.48902552398E+03  0.29019861486E+04  0.28604855608E+04 0.  0.
        2    1    3    3  502    0  0.13997309980E+04  0.26196946854E+03 -0.10946673301E+03  0.14282359171E+04  0.25500000920E-02 0. -1.
       -2    1    3    3    0  502 -0.13997309980E+04 -0.26196946854E+03 -0.37955879098E+03  0.14737502315E+04  0.25500000920E-02 0.  1.
</event>
<event>
 5   0  0.5392262E-06  0.2970293E+04  0.7818609E-02  0.8252265E-01
       -1   -1    0    0    0  501  0.00000000000E+00  0.00000000000E+00  0.11851969686E+04  0.11851969686E+04  0.50400001928E-02 0.  1.
        1   -1    0    0  501    0  0.00000000000E+00  0.00000000000E+00 -0.18610072732E+04  0.18610072732E+04  0.50400001928E-02 0. -1.
    10030    2    1    2    0    0  0.00000000000E+00  0.00000000000E+00 -0.67581030461E+03  0.30462042418E+04  0.29702930352E+04 0.  0.
        2    1    3    3  502    0 -0.23294892701E+03 -0.80594456475E+03  0.91891391357E+03  0.12442727292E+04  0.25500000920E-02 0.  1.
       -2    1    3    3    0  502  0.23294892701E+03  0.80594456475E+03 -0.15947242182E+04  0.18019315126E+04  0.25500000920E-02 0. -1.
</event>
<event>
 5   0  0.5522695E-06  0.2984703E+04  0.7818609E-02  0.8248113E-01
       -1   -1    0    0    0  501  0.00000000000E+00  0.00000000000E+00  0.18628484123E+04  0.18628484123E+04  0.50400001928E-02 0.  1.
        1   -1    0    0  501    0  0.00000000000E+00  0.00000000000E+00 -0.11955418062E+04  0.11955418062E+04  0.50400001928E-02 0. -1.
    10030    2    1    2    0    0  0.00000000000E+00  0.00000000000E+00  0.66730660613E+03  0.30583902185E+04  0.29847031045E+04 0.  0.
        3    1    3    3  502    0 -0.95445880127E+03 -0.31186766475E+03  0.14649296041E+04  0.17760269702E+04  0.10100000352E+00 0.  1.
       -3    1    3    3    0  502  0.95445880127E+03  0.31186766475E+03 -0.79762299794E+03  0.12823632483E+04  0.10100000352E+00 0. -1.
</event>
<event>
 5   0  0.7032692E-06  0.3016859E+04  0.7818609E-02  0.8238933E-01
       -1   -1    0    0    0  501  0.00000000000E+00  0.00000000000E+00  0.11920046658E+04  0.11920046658E+04  0.50400001928E-02 0.  1.
        1   -1    0    0  501    0  0.00000000000E+00  0.00000000000E+00 -0.19088511630E+04  0.19088511630E+04  0.50400001928E-02 0. -1.
    10030    2    1    2    0    0  0.00000000000E+00  0.00000000000E+00 -0.71684649718E+03  0.31008558288E+04  0.30168589576E+04 0.  0.
        5    1    3    3  502    0  0.81320691442E+03  0.13944537584E+03  0.93950493923E+03  0.12503767909E+04  0.46999998093E+01 0.  1.
       -5    1    3    3    0  502 -0.81320691442E+03 -0.13944537584E+03 -0.16563514364E+04  0.18504790378E+04  0.46999998093E+01 0. -1.
</event>
<event>
 5   0  0.1523029E-05  0.2968179E+04  0.7818609E-02  0.8252876E-01
        2   -1    0    0  501    0  0.00000000000E+00  0.00000000000E+00  0.27535520435E+04  0.27535520435E+04  0.25500000920E-02 0.  1.
       -2   -1    0    0    0  501  0.00000000000E+00  0.00000000000E+00 -0.79988387824E+03  0.79988387825E+03  0.25500000920E-02 0. -1.
    10030    2    1    2    0    0  0.00000000000E+00  0.00000000000E+00  0.19536681652E+04  0.35534359217E+04  0.29681791641E+04 0.  0.
        5    1    3    3  502    0  0.81280563566E+03 -0.20959879072E+03 -0.48838302861E+03  0.97114608946E+03  0.46999998093E+01 0. -1.
       -5    1    3    3    0  502 -0.81280563566E+03  0.20959879072E+03  0.24420511939E+04  0.25822898323E+04  0.46999998093E+01 0.  1.
</event>
<event>
 5   0  0.5730920E-06  0.1481329E+04  0.7818609E-02  0.8896965E-01
        1   -1    0    0  501    0  0.00000000000E+00  0.00000000000E+00  0.74465404772E+03  0.74465404774E+03  0.50400001928E-02 0. -1.
       -1   -1    0    0    0  501  0.00000000000E+00  0.00000000000E+00 -0.73669642782E+03  0.73669642784E+03  0.50400001928E-02 0.  1.
    10030    2    1    2    0    0  0.00000000000E+00  0.00000000000E+00  0.79576198986E+01  0.14813504756E+04  0.14813291018E+04 0.  0.
        1    1    3    3  502    0  0.45983099807E+03 -0.38031682690E+03 -0.43477407767E+03  0.73831831499E+03  0.50400001928E-02 0.  1.
       -1    1    3    3    0  502 -0.45983099807E+03  0.38031682690E+03  0.44273169757E+03  0.74303216059E+03  0.50400001928E-02 0. -1.
</event>
<event>
 5   0  0.7032692E-06  0.2459901E+04  0.7818609E-02  0.8417412E-01
        1   -1    0    0  501    0  0.00000000000E+00  0.00000000000E+00  0.19707067674E+04  0.19707067674E+04  0.50400001928E-02 0. -1.
       -1   -1    0    0    0  501  0.00000000000E+00  0.00000000000E+00 -0.76763224790E+03  0.76763224792E+03  0.50400001928E-02 0.  1.
    10030    2    1    2    0    0  0.00000000000E+00  0.00000000000E+00  0.12030745195E+04  0.27383390154E+04  0.24599008646E+04 0.  0.
        5    1    3    3  502    0  0.40303370872E+03 -0.93463626315E+03 -0.16710858404E+03  0.10314690900E+04  0.46999998093E+01 0.  1.
       -5    1    3    3    0  502 -0.40303370872E+03  0.93463626315E+03  0.13701831036E+04  0.17068699254E+04  0.46999998093E+01 0. -1.
</event>
<event>
 5   0  0.5329891E-06  0.2938188E+04  0.7818609E-02  0.8261605E-01
       -1   -1    0    0    0  501  0.00000000000E+00  0.00000000000E+00  0.90856576249E+03  0.90856576250E+03  0.50400001928E-02 0.  1.
        1   -1    0    0  501    0  0.00000000000E+00  0.00000000000E+00 -0.23754328708E+04  0.23754328708E+04  0.50400001928E-02 0. -1.
    10030    2    1    2    0    0  0.00000000000E+00  0.00000000000E+00 -0.14668671083E+04  0.32839986333E+04  0.29381878616E+04 0.  0.
        4    1    3    3  502    0 -0.18847243082E+03  0.72722877878E+03  0.67763260836E+03  0.10117169163E+04  0.12699999809E+01 0.  1.
       -4    1    3    3    0  502  0.18847243082E+03 -0.72722877878E+03 -0.21444997167E+04  0.22722817170E+04  0.12699999809E+01 0. -1.
</event>
<event>
 5   0  0.5392262E-06  0.2782304E+04  0.7818609E-02  0.8308783E-01
       -1   -1    0    0    0  501  0.00000000000E+00  0.00000000000E+00  0.68436847463E+03  0.68436847464E+03  0.50400001928E-02 0. -1.
        1   -1    0    0  501    0  0.00000000000E+00  0.00000000000E+00 -0.28278683747E+04  0.28278683747E+04  0.50400001928E-02 0.  1.
    10030    2    1    2    0    0  0.00000000000E+00  0.00000000000E+00 -0.21434999001E+04  0.35122368493E+04  0.27823040568E+04 0.  0.
        2    1    3    3  502    0  0.42393586195E+02  0.20570417428E+03 -0.28077393916E+04  0.28155837609E+04  0.25500000920E-02 0.  1.
       -2    1    3    3    0  502 -0.42393586195E+02 -0.20570417428E+03  0.66423949155E+03  0.69665308843E+03  0.25500000920E-02 0. -1.
</event>
<event>
 5   0  0.1345931E-05  0.2812364E+04  0.7818609E-02  0.8299440E-01
        2   -1    0    0  501    0  0.00000000000E+00  0.00000000000E+00  0.11008149762E+04  0.11008149762E+04  0.25500000920E-02 0.  1.
       -2   -1    0    0    0  501  0.00000000000E+00  0.00000000000E+00 -0.17962579482E+04  0.17962579482E+04  0.25500000920E-02 0. -1.
    10030    2    1    2    0    0  0.00000000000E+00  0.00000000000E+00 -0.69544297206E+03  0.28970729244E+04  0.28123638815E+04 0.  0.
        2    1    3    3  502    0 -0.11993200041E+04  0.12005360716E+03 -0.10938061497E+04  0.16276342445E+04  0.25500000920E-02 0. -1.
       -2    1    3    3    0  502  0.11993200041E+04 -0.12005360716E+03  0.39836317761E+03  0.12694386799E+04  0.25500000920E-02 0.  1.
</event>
<event>
 5   0  0.1423692E-05  0.3004721E+04  0.7818609E-02  0.8242384E-01
       -2   -1    0    0    0  501  0.00000000000E+00  0.00000000000E+00  0.14796996171E+04  0.14796996171E+04  0.25500000920E-02 0. -1.
        2   -1    0    0  501    0  0.00000000000E+00  0.00000000000E+00 -0.15253688949E+04  0.15253688949E+04  0.25500000920E-02 0.  1.
    10030    2    1    2    0    0  0.00000000000E+00  0.00000000000E+00 -0.45669277774E+02  0.30050685120E+04  0.30047214644E+04 0.  0.
        3    1    3    3  502    0 -0.31869303916E+02  0.10103787055E+03  0.14759589705E+04  0.14797564653E+04  0.10100000352E+00 0. -1.
       -3    1    3    3    0  502  0.31869303916E+02 -0.10103787055E+03 -0.15216282482E+04  0.15253120467E+04  0.10100000352E+00 0.  1.
</event>
<event>
 5   0  0.1388724E-05  0.3190448E+04  0.7818609E-02  0.8191344E-01
        2   -1    0    0  501    0  0.00000000000E+00  0.00000000000E+00  0.25258793266E+04  0.25258793266E+04  0.25500000920E-02 0.  1.
       -2   -1    0    0    0  501  0.00000000000E+00  0.00000000000E+00 -0.10074667425E+04  0.10074667425E+04  0.25500000920E-02 0. -1.
    10030    2    1    2    0    0  0.00000000000E+00  0.00000000000E+00  0.15184125841E+04  0.35333460690E+04  0.31904478789E+04 0.  0.
        4    1    3    3  502    0  0.66043360138E+03  0.10109657455E+03  0.23634595968E+04  0.24560814192E+04  0.12699999809E+01 0.  1.
       -4    1    3    3    0  502 -0.66043360138E+03 -0.10109657455E+03 -0.84504701268E+03  0.10772646498E+04  0.12699999809E+01 0. -1.
</event>
<event>
 5   0  0.7032692E-06  0.1748999E+04  0.7818609E-02  0.8733901E-01
        1   -1    0    0  501    0  0.00000000000E+00  0.00000000000E+00  0.17770100106E+04  0.17770100106E+04  0.50400001928E-02 0.  1.
       -1   -1    0    0    0  501  0.00000000000E+00  0.00000000000E+00 -0.43035742341E+03  0.43035742344E+03  0.50400001928E-02 0. -1.
    10030    2    1    2    0    0  0.00000000000E+00  0.00000000000E+00  0.13466525872E+04  0.22073674340E+04  0.17489990847E+04 0.  0.
        5    1    3    3  502    0  0.44345135082E+03 -0.31889493846E+02 -0.27705977332E+03  0.52387999422E+03  0.46999998093E+01 0. -1.
       -5    1    3    3    0  502 -0.44345135082E+03  0.31889493846E+02  0.16237123605E+04  0.16834874398E+04  0.46999998093E+01 0.  1.
</event>
<event>
 5   0  0.1388724E-05  0.3014393E+04  0.7818609E-02  0.8239633E-01
        2   -1    0    0  501    0  0.00000000000E+00  0.00000000000E+00  0.30948073314E+04  0.30948073314E+04  0.25500000920E-02 0. -1.
       -2   -1    0    0    0  501  0.00000000000E+00  0.00000000000E+00 -0.73401683229E+03  0.73401683229E+03  0.25500000920E-02 0.  1.
    10030    2    1    2    0    0  0.00000000000E+00  0.00000000000E+00  0.23607904991E+04  0.38288241637E+04  0.30143925915E+04 0.  0.
        4    1    3    3  502    0 -0.39755259561E+03  0.78054707738E+03 -0.37749985929E+03  0.95383938006E+03  0.12699999809E+01 0.  1.
       -4    1    3    3    0  502  0.39755259561E+03 -0.78054707738E+03  0.27382903584E+04  0.28749847837E+04  0.12699999809E+01 0. -1.
</event>
<event>
 5   0  0.1523029E-05  0.3016547E+04  0.7818609E-02  0.8239022E-01
       -2   -1    0    0    0  501  0.00000000000E+00  0.00000000000E+00  0.16218055270E+04  0.16218055270E+04  0.25500000920E-02 0. -1.
        2   -1    0    0  501    0  0.00000000000E+00  0.00000000000E+00 -0.14026888372E+04  0.14026888372E+04  0.25500000920E-02 0.  1.
    10030    2    1    2    0    0  0.00000000000E+00  0.00000000000E+00  0.21911668979E+03  0.30244943641E+04  0.30165467069E+04 0.  0.
        5    1    3    3  502    0 -0.32367622279E+03 -0.76770699145E+03 -0.11510234682E+04  0.14209213336E+04  0.46999998093E+01 0.  1.
       -5    1    3    3    0  502  0.32367622279E+03  0.76770699145E+03  0.13701401580E+04  0.16035730306E+04  0.46999998093E+01 0. -1.
</event>
<event>
 5   0  0.5329891E-06  0.2433386E+04  0.7818609E-02  0.8427109E-01
        1   -1    0    0  501    0  0.00000000000E+00  0.00000000000E+00  0.11504321953E+04  0.11504321953E+04  0.50400001928E-02 0.  1.
       -1   -1    0    0    0  501  0.00000000000E+00  0.00000000000E+00 -0.12867706790E+04  0.12867706790E+04  0.50400001928E-02 0. -1.
    10030    2    1    2    0    0  0.00000000000E+00  0.00000000000E+00 -0.13633848373E+03  0.24372028743E+04  0.24333864609E+04 0.  0.
        4    1    3    3  502    0  0.30500194460E+03 -0.73687683418E+03  0.85214463670E+03  0.11671185671E+04  0.12699999809E+01 0.  1.
       -4    1    3    3    0  502 -0.30500194460E+03  0.73687683418E+03 -0.98848312043E+03  0.12700843071E+04  0.12699999809E+01 0. -1.
</event>
<event>
 5   0  0.5392262E-06  0.2813415E+04  0.7818609E-02  0.8299116E-01
       -1   -1    0    0    0  501  0.00000000000E+00  0.00000000000E+00  0.20012506647E+04  0.20012506647E+04  0.50400001928E-02 0. -1.
        1   -1    0    0  501    0  0.00000000000E+00  0.00000000000E+00 -0.98879469706E+03  0.98879469707E+03  0.50400001928E-02 0.  1.
    10030    2    1    2    0    0  0.00000000000E+00  0.00000000000E+00  0.10124559676E+04  0.29900453618E+04  0.28134150385E+04 0.  0.
        2    1    3    3  502    0 -0.11300044642E+04  0.62439817591E+03  0.10999061905E+04  0.16960474048E+04  0.25500000920E-02 0. -1.
       -2    1    3    3    0  502  0.11300044642E+04 -0.62439817591E+03 -0.87450222875E+02  0.12939979570E+04  0.25500000920E-02 0.  1.
</event>
<event>
 5   0  0.5392262E-06  0.2212944E+04  0.7818609E-02  0.8513060E-01
       -1   -1    0    0    0  501  0.00000000000E+00  0.00000000000E+00  0.79623346628E+03  0.79623346630E+03  0.50400001928E-02 0.  1.
        1   -1    0    0  501    0  0.00000000000E+00  0.00000000000E+00 -0.15375897654E+04  0.15375897654E+04  0.50400001928E-02 0. -1.
    10030    2    1    2    0    0  0.00000000000E+00  0.00000000000E+00 -0.74135629913E+03  0.23338232317E+04  0.22129441282E+04 0.  0.
        2    1    3    3  502    0 -0.60097167735E+03 -0.39175379876E+03  0.51773974506E+03  0.88469906716E+03  0.25500000920E-02 0.  1.
       -2    1    3    3    0  502  0.60097167735E+03  0.39175379876E+03 -0.12590960442E+04  0.14491241646E+04  0.25500000920E-02 0. -1.
</event>
<event>
 5   0  0.5522695E-06  0.3016997E+04  0.7818609E-02  0.8238894E-01
       -1   -1    0    0    0  501  0.00000000000E+00  0.00000000000E+00  0.21346711380E+04  0.21346711380E+04  0.50400001928E-02 0. -1.
        1   -1    0    0  501    0  0.00000000000E+00  0.00000000000E+00 -0.10660041754E+04  0.10660041754E+04  0.50400001928E-02 0.  1.
    10030    2    1    2    0    0  0.00000000000E+00  0.00000000000E+00  0.10686669626E+04  0.32006753134E+04  0.30169974121E+04 0.  0.
        3    1    3    3  502    0 -0.69442436479E+03  0.10380476611E+04 -0.36322465370E+03  0.13006537988E+04  0.10100000352E+00 0.  1.
       -3    1    3    3    0  502  0.69442436479E+03 -0.10380476611E+04  0.14318916163E+04  0.19000215146E+04  0.10100000352E+00 0. -1.
</event>
<event>
 5   0  0.5392262E-06  0.2744604E+04  0.7818609E-02  0.8320676E-01
        1   -1    0    0  501    0  0.00000000000E+00  0.00000000000E+00  0.11022686712E+04  0.11022686712E+04  0.50400001928E-02 0.  1.
       -1   -1    0    0    0  501  0.00000000000E+00  0.00000000000E+00 -0.17084876837E+04  0.17084876837E+04  0.50400001928E-02 0. -1.
    10030    2    1    2    0    0  0.00000000000E+00  0.00000000000E+00 -0.60621901256E+03  0.28107563549E+04  0.27446037593E+04 0.  0.
        2    1    3    3  502    0 -0.19260569443E+03  0.11201839641E+04 -0.10906061814E+04  0.15752240824E+04  0.25500000920E-02 0. -1.
       -2    1    3    3    0  502  0.19260569443E+03 -0.11201839641E+04  0.48438716882E+03  0.12355322725E+04  0.25500000920E-02 0.  1.
</event>
<event>
 5   0  0.1345931E-05  0.2782466E+04  0.7818609E-02  0.8308733E-01
       -2   -1    0    0    0  501  0.00000000000E+00  0.00000000000E+00  0.98158095770E+03  0.98158095770E+03  0.25500000920E-02 0. -1.
        2   -1    0    0  501    0  0.00000000000E+00  0.00000000000E+00 -0.19718487494E+04  0.19718487494E+04  0.25500000920E-02 0.  1.
    10030    2    1    2    0    0  0.00000000000E+00  0.00000000000E+00 -0.99026779167E+03  0.29534297071E+04  0.27824659451E+04 0.  0.
        2    1    3    3  502    0 -0.12370842320E+04 -0.22685504852E+03  0.13612468725E+03  0.12650575246E+04  0.25500000920E-02 0. -1.
       -2    1    3    3    0  502  0.12370842320E+04  0.22685504852E+03 -0.11263924789E+04  0.16883721825E+04  0.25500000920E-02 0.  1.
</event>
<event>
 5   0  0.1345931E-05  0.2977749E+04  0.7818609E-02  0.8250114E-01
        2   -1    0    0  501    0  0.00000000000E+00  0.00000000000E+00  0.22468929366E+04  0.22468929366E+04  0.25500000920E-02 0.  1.
       -2   -1    0    0    0  501  0.00000000000E+00  0.00000000000E+00 -0.98658330343E+03  0.98658330343E+03  0.25500000920E-02 0. -1.
    10030    2    1    2    0    0  0.00000000000E+00  0.00000000000E+00  0.12603096332E+04  0.32334762401E+04  0.29777488517E+04 0.  0.
        2    1    3    3  502    0 -0.50550646581E+03  0.10082455755E+04  0.16855554052E+04  0.20281008238E+04  0.25500000920E-02 0.  1.
       -2    1    3    3    0  502  0.50550646581E+03 -0.10082455755E+04 -0.42524577196E+03  0.12053754163E+04  0.25500000920E-02 0. -1.
</event>
<event>
 5   0  0.1423692E-05  0.2833427E+04  0.7818609E-02  0.8292965E-01
        2   -1    0    0  501    0  0.00000000000E+00  0.00000000000E+00  0.10290304966E+04  0.10290304966E+04  0.25500000920E-02 0. -1.
       -2   -1    0    0    0  501  0.00000000000E+00  0.00000000000E+00 -0.19504547497E+04  0.19504547497E+04  0.25500000920E-02 0.  1.
    10030    2    1    2    0    0  0.00000000000E+00  0.00000000000E+00 -0.92142425310E+03  0.29794852462E+04  0.28334271966E+04 0.  0.
        3    1    3    3  502    0 -0.98333472726E+03 -0.45728397791E+03 -0.14193075115E+04  0.17861941789E+04  0.10100000352E+00 0.  1.
       -3    1    3    3    0  502  0.98333472726E+03  0.45728397791E+03  0.49788325836E+03  0.11932910674E+04  0.10100000352E+00 0. -1.
</event>
<event>
 5   0  0.5730920E-06  0.2977242E+04  0.7818609E-02  0.8250260E-01
       -1   -1    0    0    0  501  0.00000000000E+00  0.00000000000E+00  0.13135784571E+04  0.13135784571E+04  0.50400001928E-02 0.  1.
        1   -1    0    0  501    0  0.00000000000E+00  0.00000000000E+00 -0.16869885551E+04  0.16869885551E+04  0.50400001928E-02 0. -1.
    10030    2    1    2    0    0  0.00000000000E+00  0.00000000000E+00 -0.37341009803E+03  0.30005670122E+04  0.29772415578E+04 0.  0.
        1    1    3    3  502    0 -0.53237388010E+03  0.13890280028E+04 -0.12995149872E+03  0.14932207248E+04  0.50400001928E-02 0. -1.
       -1    1    3    3    0  502  0.53237388010E+03 -0.13890280028E+04 -0.24345859931E+03  0.15073462875E+04  0.50400001928E-02 0.  1.
</event>
<event>
 5   0  0.5392262E-06  0.2415491E+04  0.7818609E-02  0.8433727E-01
        1   -1    0    0  501    0  0.00000000000E+00  0.00000000000E+00  0.22401739493E+04  0.22401739493E+04  0.50400001928E-02 0. -1.
       -1   -1    0    0    0  501  0.00000000000E+00  0.00000000000E+00 -0.65113227581E+03  0.65113227583E+03  0.50400001928E-02 0.  1.
    10030    2    1    2    0    0  0.00000000000E+00  0.00000000000E+00  0.15890416735E+04  0.28913062252E+04  0.24154913056E+04 0.  0.
        2    1    3    3  502    0 -0.83607247312E+03 -0.42142314954E+03 -0.11867333261E+03  0.94376798588E+03  0.25500000920E-02 0.  1.
       -2    1    3    3    0  502  0.83607247312E+03  0.42142314954E+03  0.17077150061E+04  0.19475382393E+04  0.25500000920E-02 0. -1.
</event>
<event>
 5   0  0.5392262E-06  0.2984809E+04  0.7818609E-02  0.8248082E-01
        1   -1    0    0  501    0  0.00000000000E+00  0.00000000000E+00  0.12267694065E+04  0.12267694065E+04  0.50400001928E-02 0. -1.
       -1   -1    0    0    0  501  0.00000000000E+00  0.00000000000E+00 -0.18155581058E+04  0.18155581058E+04  0.50400001928E-02 0.  1.
    10030    2    1    2    0    0  0.00000000000E+00  0.00000000000E+00 -0.58878869924E+03  0.30423275123E+04  0.29848089654E+04 0.  0.
        2    1    3    3  502    0  0.11923970631E+04 -0.34651461828E+03 -0.11382296193E+04  0.16844731529E+04  0.25500000920E-02 0.  1.
       -2    1    3    3    0  502 -0.11923970631E+04  0.34651461828E+03  0.54944092002E+03  0.13578543594E+04  0.25500000920E-02 0. -1.
</event>
<event>
 5   0  0.1423692E-05  0.1754819E+04  0.7818609E-02  0.8730702E-01
        2   -1    0    0  501    0  0.00000000000E+00  0.00000000000E+00  0.22249167763E+04  0.22249167763E+04  0.25500000920E-02 0.  1.
       -2   -1    0    0    0  501  0.00000000000E+00  0.00000000000E+00 -0.34601165014E+03  0.34601165015E+03  0.25500000920E-02 0. -1.
    10030    2    1    2    0    0  0.00000000000E+00  0.00000000000E+00  0.18789051262E+04  0.25709284265E+04  0.17548186518E+04 0.  0.
        3    1    3    3  502    0  0.53865512249E+03  0.54879829674E+03  0.32044066278E+03  0.83307331013E+03  0.10100000352E+00 0.  1.
       -3    1    3    3    0  502 -0.53865512249E+03 -0.54879829674E+03  0.15584644634E+04  0.17378551163E+04  0.10100000352E+00 0. -1.
</event>
<event>
 5   0  0.1345931E-05  0.2886373E+04  0.7818609E-02  0.8276943E-01
        2   -1    0    0  501    0  0.00000000000E+00  0.00000000000E+00  0.16268951522E+04  0.16268951522E+04  0.25500000920E-02 0. -1.
       -2   -1    0    0    0  501  0.00000000000E+00  0.00000000000E+00 -0.12802221888E+04  0.12802221888E+04  0.25500000920E-02 0.  1.
    10030    2    1    2    0    0  0.00000000000E+00  0.00000000000E+00  0.34667296340E+03  0.29071173410E+04  0.28863729992E+04 0.  0.
        2    1    3    3  502    0  0.13372895373E+04 -0.35396516128E+03 -0.24090108942E+03  0.14041609512E+04  0.25500000920E-02 0.  1.
       -2    1    3    3    0  502 -0.13372895373E+04  0.35396516128E+03  0.58757405281E+03  0.15029563898E+04  0.25500000920E-02 0. -1.
</event>
<event>
 5   0  0.1345931E-05  0.2191260E+04  0.7818609E-02  0.8522075E-01
       -2   -1    0    0    0  501  0.00000000000E+00  0.00000000000E+00  0.83403279757E+03  0.83403279758E+03  0.25500000920E-02 0.  1.
        2   -1    0    0  501    0  0.00000000000E+00  0.00000000000E+00 -0.14392783080E+04  0.14392783080E+04  0.25500000920E-02 0. -1.
    10030    2    1    2    0    0  0.00000000000E+00  0.00000000000E+00 -0.60524551041E+03  0.22733111056E+04  0.21912601979E+04 0.  0.
        2    1    3    3  502    0  0.25873168790E+03 -0.86738419782E+03 -0.94307814968E+03  0.13071701608E+04  0.25500000920E-02 0. -1.
       -2    1    3    3    0  502 -0.25873168790E+03  0.86738419782E+03  0.33783263927E+03  0.96614094474E+03  0.25500000920E-02 0.  1.
</event>
<event>
 5   0  0.5329891E-06  0.2977855E+04  0.7818609E-02  0.8250083E-01
       -1   -1    0    0    0  501  0.00000000000E+00  0.00000000000E+00  0.15881756120E+04  0.15881756121E+04  0.50400001928E-02 0. -1.
        1   -1    0    0  501    0  0.00000000000E+00  0.00000000000E+00 -0.13958812564E+04  0.13958812565E+04  0.50400001928E-02 0.  1.
    10030    2    1    2    0    0  0.00000000000E+00  0.00000000000E+00  0.19229435560E+03  0.29840568685E+04  0.29778546431E+04 0.  0.
        4    1    3    3  502    0  0.51215766520E+03 -0.33061446649E+03  0.14573915517E+04  0.15797478113E+04  0.12699999809E+01 0. -1.
       -4    1    3    3    0  502 -0.51215766520E+03  0.33061446649E+03 -0.12650971961E+04  0.14043090572E+04  0.12699999809E+01 0.  1.
</event>
<event>
 5   0  0.1388724E-05  0.2949537E+04  0.7818609E-02  0.8258289E-01
        2   -1    0    0  501    0  0.00000000000E+00  0.00000000000E+00  0.17914939741E+04  0.17914939741E+04  0.25500000920E-02 0.  1.
       -2   -1    0    0    0  501  0.00000000000E+00  0.00000000000E+00 -0.12140384950E+04  0.12140384950E+04  0.25500000920E-02 0. -1.
    10030    2    1    2    0    0  0.00000000000E+00  0.00000000000E+00  0.57745547914E+03  0.30055324691E+04  0.29495373522E+04 0.  0.
        4    1    3    3  502    0 -0.43698017153E+03  0.85966022630E+03  0.14256940737E+04  0.17212125318E+04  0.12699999809E+01 0.  1.
       -4    1    3    3    0  502  0.43698017153E+03 -0.85966022630E+03 -0.84823859456E+03  0.12843199372E+04  0.12699999809E+01 0. -1.
</event>
<event>
 5   0  0.1423692E-05  0.3044812E+04  0.7818609E-02  0.8231049E-01
        2   -1    0    0  501    0  0.00000000000E+00  0.00000000000E+00  0.24335477727E+04  0.24335477727E+04  0.25500000920E-02 0.  1.
       -2   -1    0    0    0  501  0.00000000000E+00  0.00000000000E+00 -0.95240355409E+03  0.95240355409E+03  0.25500000920E-02 0. -1.
    10030    2    1    2    0    0  0.00000000000E+00  0.00000000000E+00  0.14811442186E+04  0.33859513268E+04  0.30448116840E+04 0.  0.
        3    1    3    3  502    0 -0.59721856624E+03  0.11986858131E+04  0.15457086645E+04  0.20451730930E+04  0.10100000352E+00 0.  1.
       -3    1    3    3    0  502  0.59721856624E+03 -0.11986858131E+04 -0.64564445894E+02  0.13407782338E+04  0.10100000352E+00 0. -1.
</event>
<event>
 5   0  0.5392262E-06  0.1838869E+04  0.7818609E-02  0.8685898E-01
        1   -1    0    0  501    0  0.00000000000E+00  0.00000000000E+00  0.74347171201E+03  0.74347171203E+03  0.50400001928E-02 0.  1.
       -1   -1    0    0    0  501  0.00000000000E+00  0.00000000000E+00 -0.11370436414E+04  0.11370436414E+04  0.50400001928E-02 0. -1.
    10030    2    1    2    0    0  0.00000000000E+00  0.00000000000E+00 -0.39357192938E+03  0.18805153534E+04  0.18388689814E+04 0.  0.
        2    1    3    3  502    0 -0.68791304414E+03  0.40098361952E+03  0.27335134634E+03  0.84186292113E+03  0.25500000920E-02 0.  1.
       -2    1    3    3    0  502  0.68791304414E+03 -0.40098361952E+03 -0.66692327571E+03  0.10386524323E+04  0.25500000920E-02 0. -1.
</event>
<event>
 5   0  0.1423692E-05  0.2574339E+04  0.7818609E-02  0.8376970E-01
       -2   -1    0    0    0  501  0.00000000000E+00  0.00000000000E+00  0.17794281356E+04  0.17794281356E+04  0.25500000920E-02 0. -1.
        2   -1    0    0  501    0  0.00000000000E+00  0.00000000000E+00 -0.93108890163E+03  0.93108890163E+03  0.25500000920E-02 0.  1.
    10030    2    1    2    0    0  0.00000000000E+00  0.00000000000E+00  0.84833923397E+03  0.27105170372E+04  0.25743393625E+04 0.  0.
        3    1    3    3  502    0  0.48033213416E+03 -0.58502827103E+03 -0.67197202297E+03  0.10121874564E+04  0.10100000352E+00 0.  1.
       -3    1    3    3    0  502 -0.48033213416E+03  0.58502827103E+03  0.15203112569E+04  0.16983295808E+04  0.10100000352E+00 0. -1.
</event>
<event>
 5   0  0.1345931E-05  0.2893954E+04  0.7818609E-02  0.8274679E-01
        2   -1    0    0  501    0  0.00000000000E+00  0.00000000000E+00  0.14744358495E+04  0.14744358495E+04  0.25500000920E-02 0.  1.
       -2   -1    0    0    0  501  0.00000000000E+00  0.00000000000E+00 -0.14200294426E+04  0.14200294426E+04  0.25500000920E-02 0. -1.
    10030    2    1    2    0    0  0.00000000000E+00  0.00000000000E+00  0.54406406914E+02  0.28944652922E+04  0.28939539164E+04 0.  0.
        2    1    3    3  502    0  0.20140014482E+03 -0.72689705742E+03 -0.12078433116E+04  0.14240178425E+04  0.25500000920E-02 0. -1.
       -2    1    3    3    0  502 -0.20140014482E+03  0.72689705742E+03  0.12622497185E+04  0.14704474497E+04  0.25500000920E-02 0.  1.
</event>
<event>
 5   0  0.1423692E-05  0.2986716E+04  0.7818609E-02  0.8247534E-01
       -2   -1    0    0    0  501  0.00000000000E+00  0.00000000000E+00  0.15412481136E+04  0.15412481136E+04  0.25500000920E-02 0. -1.
        2   -1    0    0  501    0  0.00000000000E+00  0.00000000000E+00 -0.14469562028E+04  0.14469562028E+04  0.25500000920E-02 0.  1.
    10030    2    1    2    0    0  0.00000000000E+00  0.00000000000E+00  0.94291910720E+02  0.29882043164E+04  0.29867162691E+04 0.  0.
        3    1    3    3  502    0 -0.95142657648E+03  0.78233415585E+03  0.89187653195E+03  0.15207573838E+04  0.10100000352E+00 0. -1.
       -3    1    3    3    0  502  0.95142657648E+03 -0.78233415585E+03 -0.79758462123E+03  0.14674469326E+04  0.10100000352E+00 0.  1.
</event>
<event>
 5   0  0.5522695E-06  0.2916244E+04  0.7818609E-02  0.8268061E-01
       -1   -1    0    0    0  501  0.00000000000E+00  0.00000000000E+00  0.16224992436E+04  0.16224992436E+04  0.50400001928E-02 0. -1.
        1   -1    0    0  501    0  0.00000000000E+00  0.00000000000E+00 -0.13103977280E+04  0.13103977280E+04  0.50400001928E-02 0.  1.
    10030    2    1    2    0    0  0.00000000000E+00  0.00000000000E+00  0.31210151563E+03  0.29328969716E+04  0.29162436952E+04 0.  0.
        3    1    3    3  502    0 -0.56762936692E+03  0.55275583943E+02 -0.11935741027E+04  0.13228294059E+04  0.10100000352E+00 0.  1.
       -3    1    3    3    0  502  0.56762936692E+03 -0.55275583943E+02  0.15056756183E+04  0.16100675657E+04  0.10100000352E+00 0. -1.
</event>
<event>
 5   0  0.7032692E-06  0.2956427E+04  0.7818609E-02  0.8256284E-01
       -1   -1    0    0    0  501  0.00000000000E+00  0.00000000000E+00  0.13786955798E+04  0.13786955798E+04  0.50400001928E-02 0. -1.
        1   -1    0    0  501    0  0.00000000000E+00  0.00000000000E+00 -0.15849151491E+04  0.15849151491E+04  0.50400001928E-02 0.  1.
    10030    2    1    2    0    0  0.00000000000E+00  0.00000000000E+00 -0.20621956932E+03  0.29636107289E+04  0.29564272427E+04 0.  0.
        5    1    3    3  502    0  0.25422280284E+03 -0.13534326753E+04 -0.64170867659E+03  0.15192831717E+04  0.46999998093E+01 0.  1.
       -5    1    3    3    0  502 -0.25422280284E+03  0.13534326753E+04  0.43548910727E+03  0.14443275572E+04  0.46999998093E+01 0. -1.
</event>
<event>
 5   0  0.1480547E-05  0.2984842E+04  0.7818609E-02  0.8248073E-01
       -2   -1    0    0    0  501  0.00000000000E+00  0.00000000000E+00  0.11483518477E+04  0.11483518477E+04  0.25500000920E-02 0.  1.
        2   -1    0    0  501    0  0.00000000000E+00  0.00000000000E+00 -0.19395805435E+04  0.19395805435E+04  0.25500000920E-02 0. -1.
    10030    2    1    2    0    0  0.00000000000E+00  0.00000000000E+00 -0.79122869585E+03  0.30879323912E+04  0.29848423079E+04 0.  0.
        1    1    3    3  502    0 -0.13999097395E+04  0.45311249161E+03 -0.65375733932E+03  0.16101108246E+04  0.50400001928E-02 0. -1.
       -1    1    3    3    0  502  0.13999097395E+04 -0.45311249161E+03 -0.13747135653E+03  0.14778215666E+04  0.50400001928E-02 0.  1.
</event>
<event>
 5   0  0.5392262E-06  0.1566418E+04  0.7818609E-02  0.8841448E-01
        1   -1    0    0  501    0  0.00000000000E+00  0.00000000000E+00  0.19076979975E+04  0.19076979975E+04  0.50400001928E-02 0. -1.
       -1   -1    0    0    0  501  0.00000000000E+00  0.00000000000E+00 -0.32154800092E+03  0.32154800096E+03  0.50400001928E-02 0.  1.
    10030    2    1    2    0    0  0.00000000000E+00  0.00000000000E+00  0.15861499966E+04  0.22292459984E+04  0.15664181785E+04 0.  0.
        2    1    3    3  502    0  0.40365463725E+03  0.46386840723E+03  0.14834202333E+04  0.16058164758E+04  0.25500000920E-02 0. -1.
       -2    1    3    3    0  502 -0.40365463725E+03 -0.46386840723E+03  0.10272976321E+03  0.62342952260E+03  0.25500000920E-02 0.  1.
</event>
<event>
 5   0  0.1345931E-05  0.2919338E+04  0.7818609E-02  0.8267147E-01
        2   -1    0    0  501    0  0.00000000000E+00  0.00000000000E+00  0.11891811776E+04  0.11891811776E+04  0.25500000920E-02 0.  1.
       -2   -1    0    0    0  501  0.00000000000E+00  0.00000000000E+00 -0.17916810036E+04  0.17916810036E+04  0.25500000920E-02 0. -1.
    10030    2    1    2    0    0  0.00000000000E+00  0.00000000000E+00 -0.60249982603E+03  0.29808621812E+04  0.29193378193E+04 0.  0.
        2    1    3    3  502    0  0.32148636702E+03  0.14397185219E+03 -0.17476310437E+04  0.17827775081E+04  0.25500000920E-02 0. -1.
       -2    1    3    3    0  502 -0.32148636702E+03 -0.14397185219E+03  0.11451312177E+04  0.11980846732E+04  0.25500000920E-02 0.  1.
</event>
<event>
 5   0  0.5730920E-06  0.2955703E+04  0.7818609E-02  0.8256494E-01
       -1   -1    0    0    0  501  0.00000000000E+00  0.00000000000E+00  0.12061964515E+04  0.12061964515E+04  0.50400001928E-02 0. -1.
        1   -1    0    0  501    0  0.00000000000E+00  0.00000000000E+00 -0.18106876086E+04  0.18106876087E+04  0.50400001928E-02 0.  1.
    10030    2    1    2    0    0  0.00000000000E+00  0.00000000000E+00 -0.60449115718E+03  0.30168840601E+04  0.29557029406E+04 0.  0.
        1    1    3    3  502    0 -0.77035764160E+03 -0.95188038805E+03 -0.11467272136E+04  0.16776502829E+04  0.50400001928E-02 0.  1.
       -1    1    3    3    0  502  0.77035764160E+03  0.95188038805E+03  0.54223605646E+03  0.13392337772E+04  0.50400001928E-02 0. -1.
</event>
<event>
 5   0  0.1388724E-05  0.1689407E+04  0.7818609E-02  0.8767429E-01
        2   -1    0    0  501    0  0.00000000000E+00  0.00000000000E+00  0.49163752780E+03  0.49163752780E+03  0.25500000920E-02 0. -1.
       -2   -1    0    0    0  501  0.00000000000E+00  0.00000000000E+00 -0.14513209677E+04  0.14513209677E+04  0.25500000920E-02 0.  1.
    10030    2    1    2    0    0  0.00000000000E+00  0.00000000000E+00 -0.95968343993E+03  0.19429584955E+04  0.16894068221E+04 0.  0.
        4    1    3    3  502    0  0.60623655553E+03 -0.21187155489E+03  0.15124902845E+03  0.65976526018E+03  0.12699999809E+01 0. -1.
       -4    1    3    3    0  502 -0.60623655553E+03  0.21187155489E+03 -0.11109324684E+04  0.12831932354E+04  0.12699999809E+01 0.  1.
</event>
<event>
 5   0  0.5329891E-06  0.2880164E+04  0.7818609E-02  0.8278804E-01
       -1   -1    0    0    0  501  0.00000000000E+00  0.00000000000E+00  0.22273155839E+04  0.22273155839E+04  0.50400001928E-02 0.  1.
        1   -1    0    0  501    0  0.00000000000E+00  0.00000000000E+00 -0.93109217411E+03  0.93109217412E+03  0.50400001928E-02 0. -1.
    10030    2    1    2    0    0  0.00000000000E+00  0.00000000000E+00  0.12962234098E+04  0.31584077581E+04  0.28801639603E+04 0.  0.
        4    1    3    3  502    0  0.43324243252E+03 -0.13190096718E+04  0.10676250991E+04  0.17513738849E+04  0.12699999809E+01 0.  1.
       -4    1    3    3    0  502 -0.43324243252E+03  0.13190096718E+04  0.22859831075E+03  0.14070338732E+04  0.12699999809E+01 0. -1.
</event>
<event>
 5   0  0.1523029E-05  0.2995779E+04  0.7818609E-02  0.8244937E-01
        2   -1    0    0  501    0  0.00000000000E+00  0.00000000000E+00  0.24579667211E+04  0.24579667211E+04  0.25500000920E-02 0.  1.
       -2   -1    0    0    0  501  0.00000000000E+00  0.00000000000E+00 -0.91281644868E+03  0.91281644868E+03  0.25500000920E-02 0. -1.
    10030    2    1    2    0    0  0.00000000000E+00  0.00000000000E+00  0.15451502724E+04  0.33707831698E+04  0.29957786656E+04 0.  0.
        5    1    3    3  502    0 -0.92982562590E+03 -0.26048217465E+03  0.20610011634E+04  0.22759996800E+04  0.46999998093E+01 0.  1.
       -5    1    3    3    0  502  0.92982562590E+03  0.26048217465E+03 -0.51585089093E+03  0.10947834898E+04  0.46999998093E+01 0. -1.
</event>
<event>
 5   0  0.5329891E-06  0.2322293E+04  0.7818609E-02  0.8469183E-01
       -1   -1    0    0    0  501  0.00000000000E+00  0.00000000000E+00  0.11246923779E+04  0.11246923779E+04  0.50400001928E-02 0. -1.
        1   -1    0    0  501    0  0.00000000000E+00  0.00000000000E+00 -0.11987825429E+04  0.11987825429E+04  0.50400001928E-02 0.  1.
    10030    2    1    2    0    0  0.00000000000E+00  0.00000000000E+00 -0.74090164993E+02  0.23234749208E+04  0.23222933396E+04 0.  0.
        4    1    3    3  502    0  0.84545345277E+03 -0.99470236310E+02 -0.82711395086E+03  0.11869309033E+04  0.12699999809E+01 0.  1.
       -4    1    3    3    0  502 -0.84545345277E+03  0.99470236310E+02  0.75302378586E+03  0.11365440175E+04  0.12699999809E+01 0. -1.
</event>
<event>
 5   0  0.7032692E-06  0.2800665E+04  0.7818609E-02  0.8303062E-01
       -1   -1    0    0    0  501  0.00000000000E+00  0.00000000000E+00  0.16397818738E+04  0.16397818738E+04  0.50400001928E-02 0. -1.
        1   -1    0    0  501    0  0.00000000000E+00  0.00000000000E+00 -0.11958485029E+04  0.11958485029E+04  0.50400001928E-02 0.  1.
    10030    2    1    2    0    0  0.00000000000E+00  0.00000000000E+00  0.44393337082E+03  0.28356303767E+04  0.28006647060E+04 0.  0.
        5    1    3    3  502    0  0.68465613525E+03  0.26049423308E+03 -0.98637242686E+03  0.12286431229E+04  0.46999998093E+01 0.  1.
       -5    1    3    3    0  502 -0.68465613525E+03 -0.26049423308E+03  0.14303057977E+04  0.16069872538E+04  0.46999998093E+01 0. -1.
</event>
<event>
 5   0  0.1480547E-05  0.2854330E+04  0.7818609E-02  0.8286597E-01
       -2   -1    0    0    0  501  0.00000000000E+00  0.00000000000E+00  0.11614186170E+04  0.11614186170E+04  0.25500000920E-02 0.  1.
        2   -1    0    0  501    0  0.00000000000E+00  0.00000000000E+00 -0.17537177348E+04  0.17537177348E+04  0.25500000920E-02 0. -1.
    10030    2    1    2    0    0  0.00000000000E+00  0.00000000000E+00 -0.59229911779E+03  0.29151363518E+04  0.28543303426E+04 0.  0.
        1    1    3    3  502    0 -0.18364675511E+03  0.52940055753E+03  0.10443702882E+04  0.11852005652E+04  0.50400001928E-02 0.  1.
       -1    1    3    3    0  502  0.18364675511E+03 -0.52940055753E+03 -0.16366694060E+04  0.17299357865E+04  0.50400001928E-02 0. -1.
</event>
<event>
 5   0  0.5522695E-06  0.3260647E+04  0.7818609E-02  0.8172982E-01
       -1   -1    0    0    0  501  0.00000000000E+00  0.00000000000E+00  0.11969428908E+04  0.11969428908E+04  0.50400001928E-02 0.  1.
        1   -1    0    0  501    0  0.00000000000E+00  0.00000000000E+00 -0.22206197867E+04  0.22206197867E+04  0.50400001928E-02 0. -1.
    10030    2    1    2    0    0  0.00000000000E+00  0.00000000000E+00 -0.10236768959E+04  0.34175626775E+04  0.32606472160E+04 0.  0.
        3    1    3    3  502    0  0.16408959786E+03  0.16065679358E+04 -0.27754315637E+03  0.16386018865E+04  0.10100000352E+00 0.  1.
       -3    1    3    3    0  502 -0.16408959786E+03 -0.16065679358E+04 -0.74613373951E+03  0.17789607910E+04  0.10100000352E+00 0. -1.
</event>
<event>
 5   0  0.1480547E-05  0.2442854E+04  0.7818609E-02  0.8423632E-01
        2   -1    0    0  501    0  0.00000000000E+00  0.00000000000E+00  0.16664420532E+04  0.16664420532E+04  0.25500000920E-02 0.  1.
       -2   -1    0    0    0  501  0.00000000000E+00  0.00000000000E+00 -0.89525088784E+03  0.89525088784E+03  0.25500000920E-02 0. -1.
    10030    2    1    2    0    0  0.00000000000E+00  0.00000000000E+00  0.77119116534E+03  0.25616929410E+04  0.24428538455E+04 0.  0.
        1    1    3    3  502    0 -0.11339763852E+04  0.10415929582E+03  0.84882270110E+03  0.14202998201E+04  0.50400001928E-02 0.  1.
       -1    1    3    3    0  502  0.11339763852E+04 -0.10415929582E+03 -0.77631535764E+02  0.11413931209E+04  0.50400001928E-02 0. -1.
</event>
<event>
 5   0  0.5522695E-06  0.2969932E+04  0.7818609E-02  0.8252369E-01
        1   -1    0    0  501    0  0.00000000000E+00  0.00000000000E+00  0.12084362929E+04  0.12084362929E+04  0.50400001928E-02 0.  1.
       -1   -1    0    0    0  501  0.00000000000E+00  0.00000000000E+00 -0.18247751444E+04  0.18247751444E+04  0.50400001928E-02 0. -1.
    10030    2    1    2    0    0  0.00000000000E+00  0.00000000000E+00 -0.61633885150E+03  0.30332114373E+04  0.29699323297E+04 0.  0.
        3    1    3    3  502    0  0.12071487333E+04  0.81111580101E+03 -0.61457432608E+03  0.15788662132E+04  0.10100000352E+00 0. -1.
       -3    1    3    3    0  502 -0.12071487333E+04 -0.81111580101E+03 -0.17645254150E+01  0.14543452240E+04  0.10100000352E+00 0.  1.
</event>
<event>
 5   0  0.7032692E-06  0.2956453E+04  0.7818609E-02  0.8256276E-01
        1   -1    0    0  501    0  0.00000000000E+00  0.00000000000E+00  0.23622877888E+04  0.23622877888E+04  0.50400001928E-02 0.  1.
       -1   -1    0    0    0  501  0.00000000000E+00  0.00000000000E+00 -0.92501603847E+03  0.92501603848E+03  0.50400001928E-02 0. -1.
    10030    2    1    2    0    0  0.00000000000E+00  0.00000000000E+00  0.14372717504E+04  0.32873038273E+04  0.29564533429E+04 0.  0.
        5    1    3    3  502    0  0.10819644390E+04  0.64225309165E+03  0.15813473810E+04  0.20208457908E+04  0.46999998093E+01 0.  1.
       -5    1    3    3    0  502 -0.10819644390E+04 -0.64225309165E+03 -0.14407563062E+03  0.12664580365E+04  0.46999998093E+01 0. -1.
</event>
<event>
 5   0  0.1388724E-05  0.2957202E+04  0.7818609E-02  0.8256059E-01
        2   -1    0    0  501    0  0.00000000000E+00  0.00000000000E+00  0.27701065313E+04  0.27701065313E+04  0.25500000920E-02 0.  1.
       -2   -1    0    0    0  501  0.00000000000E+00  0.00000000000E+00 -0.78923373245E+03  0.78923373245E+03  0.25500000920E-02 0. -1.
    10030    2    1    2    0    0  0.00000000000E+00  0.00000000000E+00  0.19808727989E+04  0.35593402638E+04  0.29572024056E+04 0.  0.
        4    1    3    3  502    0 -0.88960192348E+03 -0.66571555448E+02 -0.42883040246E+03  0.98980830529E+03  0.12699999809E+01 0. -1.
       -4    1    3    3    0  502  0.88960192348E+03  0.66571555448E+02  0.24097032013E+04  0.25695319585E+04  0.12699999809E+01 0.  1.
</event>
<event>
 5   0  0.1345931E-05  0.2956087E+04  0.7818609E-02  0.8256383E-01
        2   -1    0    0  501    0  0.00000000000E+00  0.00000000000E+00  0.12299036059E+04  0.12299036059E+04  0.25500000920E-02 0. -1.
       -2   -1    0    0    0  501  0.00000000000E+00  0.00000000000E+00 -0.17762471813E+04  0.17762471813E+04  0.25500000920E-02 0.  1.
    10030    2    1    2    0    0  0.00000000000E+00  0.00000000000E+00 -0.54634357543E+03  0.30061507872E+04  0.29560871525E+04 0.  0.
        2    1    3    3  502    0  0.24417922633E+01 -0.90558556796E+03 -0.14610823369E+04  0.17189685216E+04  0.25500000920E-02 0.  1.
       -2    1    3    3    0  502 -0.24417922633E+01  0.90558556796E+03  0.91473876143E+03  0.12871822656E+04  0.25500000920E-02 0. -1.
</event>
<event>
 5   0  0.5329891E-06  0.3026591E+04  0.7818609E-02  0.8236178E-01
        1   -1    0    0  501    0  0.00000000000E+00  0.00000000000E+00  0.18410762108E+04  0.18410762108E+04  0.50400001928E-02 0.  1.
       -1   -1    0    0    0  501  0.00000000000E+00  0.00000000000E+00 -0.12438719674E+04  0.12438719674E+04  0.50400001928E-02 0. -1.
    10030    2    1    2    0    0  0.00000000000E+00  0.00000000000E+00  0.59720424337E+03  0.30849481782E+04  0.30265908798E+04 0.  0.
        4    1    3    3  502    0 -0.93200936357E+03  0.60074677485E+02 -0.91507546873E+03  0.13075225226E+04  0.12699999809E+01 0. -1.
       -4    1    3    3    0  502  0.93200936357E+03 -0.60074677485E+02  0.15122797121E+04  0.17774256556E+04  0.12699999809E+01 0.  1.
</event>
<event>
 5   0  0.1523029E-05  0.3060832E+04  0.7818609E-02  0.8226570E-01
       -2   -1    0    0    0  501  0.00000000000E+00  0.00000000000E+00  0.17707335640E+04  0.17707335640E+04  0.25500000920E-02 0. -1.
        2   -1    0    0  501    0  0.00000000000E+00  0.00000000000E+00 -0.13227135441E+04  0.13227135441E+04  0.25500000920E-02 0.  1.
    10030    2    1    2    0    0  0.00000000000E+00  0.00000000000E+00  0.44802001991E+03  0.30934471082E+04  0.30608320883E+04 0.  0.
        5    1    3    3  502    0  0.42087873550E+03 -0.90058451450E+03 -0.95198661215E+03  0.13764054553E+04  0.46999998093E+01 0.  1.
       -5    1    3    3    0  502 -0.42087873550E+03  0.90058451450E+03  0.14000066321E+04  0.17170416528E+04  0.46999998093E+01 0. -1.
</event>
<event>
 5   0  0.5730920E-06  0.2988830E+04  0.7818609E-02  0.8246928E-01
        1   -1    0    0  501    0  0.00000000000E+00  0.00000000000E+00  0.22377044636E+04  0.22377044636E+04  0.50400001928E-02 0.  1.
       -1   -1    0    0    0  501  0.00000000000E+00  0.00000000000E+00 -0.99802078471E+03  0.99802078472E+03  0.50400001928E-02 0. -1.
    10030    2    1    2    0    0  0.00000000000E+00  0.00000000000E+00  0.12396836789E+04  0.32357252483E+04  0.29888295801E+04 0.  0.
        1    1    3    3  502    0  0.13760683653E+04 -0.58181866818E+03  0.58236339580E+03  0.16035037366E+04  0.50400001928E-02 0.  1.
       -1    1    3    3    0  502 -0.13760683653E+04  0.58181866818E+03  0.65732028308E+03  0.16322215117E+04  0.50400001928E-02 0. -1.
</event>
<event>
 5   0  0.1388724E-05  0.2985218E+04  0.7818609E-02  0.8247965E-01
        2   -1    0    0  501    0  0.00000000000E+00  0.00000000000E+00  0.18443002083E+04  0.18443002083E+04  0.25500000920E-02 0.  1.
       -2   -1    0    0    0  501  0.00000000000E+00  0.00000000000E+00 -0.12079819769E+04  0.12079819769E+04  0.25500000920E-02 0. -1.
    10030    2    1    2    0    0  0.00000000000E+00  0.00000000000E+00  0.63631823140E+03  0.30522821853E+04  0.29852178559E+04 0.  0.
        4    1    3    3  502    0 -0.11660285892E+04 -0.91997157315E+03  0.46950276987E+03  0.15576921487E+04  0.12699999809E+01 0.  1.
       -4    1    3    3    0  502  0.11660285892E+04  0.91997157315E+03  0.16681546154E+03  0.14945900366E+04  0.12699999809E+01 0. -1.
</event>
<event>
 5   0  0.5392262E-06  0.2540226E+04  0.7818609E-02  0.8388793E-01
        1   -1    0    0  501    0  0.00000000000E+00  0.00000000000E+00  0.24170271080E+04  0.24170271080E+04  0.50400001928E-02 0.  1.
       -1   -1    0    0    0  501  0.00000000000E+00  0.00000000000E+00 -0.66742602801E+03  0.66742602803E+03  0.50400001928E-02 0. -1.
    10030    2    1    2    0    0  0.00000000000E+00  0.00000000000E+00  0.17496010800E+04  0.30844531360E+04  0.25402258185E+04 0.  0.
        2    1    3    3  502    0  0.11425352837E+04 -0.49933197075E+03  0.58119573919E+03  0.13756844765E+04  0.25500000920E-02 0. -1.
       -2    1    3    3    0  502 -0.11425352837E+04  0.49933197075E+03  0.11684053408E+04  0.17087686595E+04  0.25500000920E-02 0.  1.
</event>
<event>
 5   0  0.5392262E-06  0.2314189E+04  0.7818609E-02  0.8472348E-01
       -1   -1    0    0    0  501  0.00000000000E+00  0.00000000000E+00  0.94090676465E+03  0.94090676467E+03  0.50400001928E-02 0.  1.
        1   -1    0    0  501    0  0.00000000000E+00  0.00000000000E+00 -0.14229540678E+04  0.14229540678E+04  0.50400001928E-02 0. -1.
    10030    2    1    2    0    0  0.00000000000E+00  0.00000000000E+00 -0.48204730310E+03  0.23638608324E+04  0.23141885041E+04 0.  0.
        2    1    3    3  502    0  0.81315008241E+03  0.33404640517E+03 -0.10095470794E+04  0.13386505753E+04  0.25500000920E-02 0. -1.
       -2    1    3    3    0  502 -0.81315008241E+03 -0.33404640517E+03  0.52749977626E+03  0.10252102571E+04  0.25500000920E-02 0.  1.
</event>
<event>
 5   0  0.1345931E-05  0.2879785E+04  0.7818609E-02  0.8278918E-01
        2   -1    0    0  501    0  0.00000000000E+00  0.00000000000E+00  0.12199095223E+04  0.12199095223E+04  0.25500000920E-02 0. -1.
       -2   -1    0    0    0  501  0.00000000000E+00  0.00000000000E+00 -0.16995442006E+04  0.16995442006E+04  0.25500000920E-02 0.  1.
    10030    2    1    2    0    0  0.00000000000E+00  0.00000000000E+00 -0.47963467837E+03  0.29194537229E+04  0.28797848211E+04 0.  0.
        2    1    3    3  502    0 -0.24857686379E+03 -0.10842744909E+04 -0.11666585746E+04  0.16119968544E+04  0.25500000920E-02 0.  1.
       -2    1    3    3    0  502  0.24857686379E+03  0.10842744909E+04  0.68702389626E+03  0.13074568685E+04  0.25500000920E-02 0. -1.
</event>
<event>
 5   0  0.4806125E-06  0.2994581E+04  0.7818609E-02  0.8245280E-01
       -3   -1    0    0    0  501  0.00000000000E+00  0.00000000000E+00  0.35162622878E+04  0.35162622892E+04  0.10100000352E+00 0.  1.
        3   -1    0    0  501    0  0.00000000000E+00  0.00000000000E+00 -0.63757433562E+03  0.63757434362E+03  0.10100000352E+00 0. -1.
    10030    2    1    2    0    0  0.00000000000E+00  0.00000000000E+00  0.28786879522E+04  0.41538366329E+04  0.29945808466E+04 0.  0.
        2    1    3    3  502    0  0.95481467627E+03  0.78789347846E+02 -0.15674584066E+03  0.97079765447E+03  0.25500000920E-02 0. -1.
       -2    1    3    3    0  502 -0.95481467627E+03 -0.78789347846E+02  0.30354337928E+04  0.31830389784E+04  0.25500000920E-02 0.  1.
</event>
<event>
 5   0  0.5329891E-06  0.2360916E+04  0.7818609E-02  0.8454283E-01
       -1   -1    0    0    0  501  0.00000000000E+00  0.00000000000E+00  0.89986461389E+03  0.89986461390E+03  0.50400001928E-02 0. -1.
        1   -1    0    0  501    0  0.00000000000E+00  0.00000000000E+00 -0.15485449790E+04  0.15485449790E+04  0.50400001928E-02 0.  1.
    10030    2    1    2    0    0  0.00000000000E+00  0.00000000000E+00 -0.64868036510E+03  0.24484095929E+04  0.23609157796E+04 0.  0.
        4    1    3    3  502    0  0.89188832980E+03 -0.34271367854E+03  0.39457587094E+03  0.10337355509E+04  0.12699999809E+01 0. -1.
       -4    1    3    3    0  502 -0.89188832980E+03  0.34271367854E+03 -0.10432562360E+04  0.14146740420E+04  0.12699999809E+01 0.  1.
</event>
<event>
 5   0  0.7032692E-06  0.2894485E+04  0.7818609E-02  0.8274520E-01
        1   -1    0    0  501    0  0.00000000000E+00  0.00000000000E+00  0.10906180440E+04  0.10906180440E+04  0.50400001928E-02 0. -1.
       -1   -1    0    0    0  501  0.00000000000E+00  0.00000000000E+00 -0.19204801358E+04  0.19204801358E+04  0.50400001928E-02 0.  1.
    10030    2    1    2    0    0  0.00000000000E+00  0.00000000000E+00 -0.82986209179E+03  0.30110981797E+04  0.28944846098E+04 0.  0.
        5    1    3    3  502    0 -0.17538518266E+03  0.14228221003E+04 -0.20868749518E+03  0.14487081321E+04  0.46999998093E+01 0. -1.
       -5    1    3    3    0  502  0.17538518266E+03 -0.14228221003E+04 -0.62117459661E+03  0.15623900476E+04  0.46999998093E+01 0.  1.
</event>
<event>
 5   0  0.1345931E-05  0.3018114E+04  0.7818609E-02  0.8238577E-01
        2   -1    0    0  501    0  0.00000000000E+00  0.00000000000E+00  0.17243990383E+04  0.17243990383E+04  0.25500000920E-02 0.  1.
       -2   -1    0    0    0  501  0.00000000000E+00  0.00000000000E+00 -0.13206070242E+04  0.13206070242E+04  0.25500000920E-02 0. -1.
    10030    2    1    2    0    0  0.00000000000E+00  0.00000000000E+00  0.40379201407E+03  0.30450060626E+04  0.30181143004E+04 0.  0.
        2    1    3    3  502    0 -0.64590738205E+03  0.51421937860E+03  0.14763358273E+04  0.16915038842E+04  0.25500000920E-02 0.  1.
       -2    1    3    3    0  502  0.64590738205E+03 -0.51421937860E+03 -0.10725438132E+04  0.13535021783E+04  0.25500000920E-02 0. -1.
</event>
<event>
 5   0  0.1345931E-05  0.2902332E+04  0.7818609E-02  0.8272184E-01
       -2   -1    0    0    0  501  0.00000000000E+00  0.00000000000E+00  0.13427086307E+04  0.13427086307E+04  0.25500000920E-02 0. -1.
        2   -1    0    0  501    0  0.00000000000E+00  0.00000000000E+00 -0.15683841551E+04  0.15683841551E+04  0.25500000920E-02 0.  1.
    10030    2    1    2    0    0  0.00000000000E+00  0.00000000000E+00 -0.22567552440E+03  0.29110927859E+04  0.29023321253E+04 0.  0.
        2    1    3    3  502    0 -0.29428814839E+03  0.91952080957E+03  0.97383401962E+03  0.13713047551E+04  0.25500000920E-02 0. -1.
       -2    1    3    3    0  502  0.29428814839E+03 -0.91952080957E+03 -0.11995095440E+04  0.15397880308E+04  0.25500000920E-02 0.  1.
</event>
<event>
 5   0  0.5730920E-06  0.2998098E+04  0.7818609E-02  0.8244274E-01
       -1   -1    0    0    0  501  0.00000000000E+00  0.00000000000E+00  0.20421593566E+04  0.20421593566E+04  0.50400001928E-02 0. -1.
        1   -1    0    0  501    0  0.00000000000E+00  0.00000000000E+00 -0.11003781840E+04  0.11003781840E+04  0.50400001928E-02 0.  1.
    10030    2    1    2    0    0  0.00000000000E+00  0.00000000000E+00  0.94178117253E+03  0.31425375406E+04  0.29980977998E+04 0.  0.
        1    1    3    3  502    0  0.10014653364E+04 -0.35803641698E+03 -0.63642543524E+03  0.12394193118E+04  0.50400001928E-02 0.  1.
       -1    1    3    3    0  502 -0.10014653364E+04  0.35803641698E+03  0.15782066078E+04  0.19031182288E+04  0.50400001928E-02 0. -1.
</event>
<event>
 5   0  0.1423692E-05  0.2954338E+04  0.7818609E-02  0.8256891E-01
        2   -1    0    0  501    0  0.00000000000E+00  0.00000000000E+00  0.23553997944E+04  0.23553997944E+04  0.25500000920E-02 0. -1.
       -2   -1    0    0    0  501  0.00000000000E+00  0.00000000000E+00 -0.92639412892E+03  0.92639412892E+03  0.25500000920E-02 0.  1.
    10030    2    1    2    0    0  0.00000000000E+00  0.00000000000E+00  0.14290056655E+04  0.32817939233E+04  0.29543381938E+04 0.  0.
        3    1    3    3  502    0 -0.54345622189E+03  0.71079296920E+03 -0.59112625721E+03  0.10723812626E+04  0.10100000352E+00 0.  1.
       -3    1    3    3    0  502  0.54345622189E+03 -0.71079296920E+03  0.20201319227E+04  0.22094126607E+04  0.10100000352E+00 0. -1.
</event>
<event>
 5   0  0.1423692E-05  0.2276540E+04  0.7818609E-02  0.8487229E-01
        2   -1    0    0  501    0  0.00000000000E+00  0.00000000000E+00  0.53774472847E+03  0.53774472848E+03  0.25500000920E-02 0.  1.
       -2   -1    0    0    0  501  0.00000000000E+00  0.00000000000E+00 -0.24094310221E+04  0.24094310221E+04  0.25500000920E-02 0. -1.
    10030    2    1    2    0    0  0.00000000000E+00  0.00000000000E+00 -0.18716862936E+04  0.29471757506E+04  0.22765402090E+04 0.  0.
        3    1    3    3  502    0  0.89580287647E+03 -0.68180831080E+03 -0.71793148476E+03  0.13351969867E+04  0.10100000352E+00 0. -1.
       -3    1    3    3    0  502 -0.89580287647E+03  0.68180831080E+03 -0.11537548089E+04  0.16119787639E+04  0.10100000352E+00 0.  1.
</event>
<event>
 5   0  0.1388724E-05  0.3012965E+04  0.7818609E-02  0.8240038E-01
       -2   -1    0    0    0  501  0.00000000000E+00  0.00000000000E+00  0.10130847461E+04  0.10130847461E+04  0.25500000920E-02 0.  1.
        2   -1    0    0  501    0  0.00000000000E+00  0.00000000000E+00 -0.22401773072E+04  0.22401773072E+04  0.25500000920E-02 0. -1.
    10030    2    1    2    0    0  0.00000000000E+00  0.00000000000E+00 -0.12270925611E+04  0.32532620533E+04  0.30129649574E+04 0.  0.
        4    1    3    3  502    0 -0.82729044896E+03 -0.45191861156E+03 -0.18823600794E+04  0.21052128158E+04  0.12699999809E+01 0. -1.
       -4    1    3    3    0  502  0.82729044896E+03  0.45191861156E+03  0.65526751830E+03  0.11480492376E+04  0.12699999809E+01 0.  1.
</event>
<event>
 5   0  0.5329891E-06  0.2981735E+04  0.7818609E-02  0.8248966E-01
        1   -1    0    0  501    0  0.00000000000E+00  0.00000000000E+00  0.14521808709E+04  0.14521808709E+04  0.50400001928E-02 0.  1.
       -1   -1    0    0    0  501  0.00000000000E+00  0.00000000000E+00 -0.15305844963E+04  0.15305844963E+04  0.50400001928E-02 0. -1.
    10030    2    1    2    0    0  0.00000000000E+00  0.00000000000E+00 -0.78403625374E+02  0.29827653672E+04  0.29817347479E+04 0.  0.
        4    1    3    3  502    0  0.65759327285E+03  0.13327370542E+04  0.79443338142E+02  0.14882640307E+04  0.12699999809E+01 0.  1.
       -4    1    3    3    0  502 -0.65759327285E+03 -0.13327370542E+04 -0.15784696352E+03  0.14945013365E+04  0.12699999809E+01 0. -1.
</event>
<event>
 5   0  0.5329891E-06  0.2641738E+04  0.7818609E-02  0.8354160E-01
        1   -1    0    0  501    0  0.00000000000E+00  0.00000000000E+00  0.12525024369E+04  0.12525024369E+04  0.50400001928E-02 0.  1.
       -1   -1    0    0    0  501  0.00000000000E+00  0.00000000000E+00 -0.13929673608E+04  0.13929673608E+04  0.50400001928E-02 0. -1.
    10030    2    1    2    0    0  0.00000000000E+00  0.00000000000E+00 -0.14046492386E+03  0.26454697977E+04  0.26417380748E+04 0.  0.
        4    1    3    3  502    0  0.44221064853E+03  0.19126223362E+03  0.11613673975E+04  0.12573413795E+04  0.12699999809E+01 0.  1.
       -4    1    3    3    0  502 -0.44221064853E+03 -0.19126223362E+03 -0.13018323214E+04  0.13881284183E+04  0.12699999809E+01 0. -1.
</event>
<event>
 5   0  0.1423692E-05  0.1635636E+04  0.7818609E-02  0.8798950E-01
       -2   -1    0    0    0  501  0.00000000000E+00  0.00000000000E+00  0.38593066004E+03  0.38593066004E+03  0.25500000920E-02 0.  1.
        2   -1    0    0  501    0  0.00000000000E+00  0.00000000000E+00 -0.17330213957E+04  0.17330213957E+04  0.25500000920E-02 0. -1.
    10030    2    1    2    0    0  0.00000000000E+00  0.00000000000E+00 -0.13470907357E+04  0.21189520557E+04  0.16356357677E+04 0.  0.
        3    1    3    3  502    0  0.13473215871E+02 -0.25434322065E+03  0.33323906286E+03  0.41942852150E+03  0.10100000352E+00 0.  1.
       -3    1    3    3    0  502 -0.13473215871E+02  0.25434322065E+03 -0.16803297985E+04  0.16995235342E+04  0.10100000352E+00 0. -1.
</event>
<event>
 5   0  0.5329891E-06  0.2992673E+04  0.7818609E-02  0.8245826E-01
        1   -1    0    0  501    0  0.00000000000E+00  0.00000000000E+00  0.17707624869E+04  0.17707624869E+04  0.50400001928E-02 0. -1.
       -1   -1    0    0    0  501  0.00000000000E+00  0.00000000000E+00 -0.12644403892E+04  0.12644403892E+04  0.50400001928E-02 0.  1.
    10030    2    1    2    0    0  0.00000000000E+00  0.00000000000E+00  0.50632209771E+03  0.30352028761E+04  0.29926734590E+04 0.  0.
        4    1    3    3  502    0  0.80344354796E+03 -0.38004204987E+02  0.15328593168E+04  0.17310762988E+04  0.12699999809E+01 0. -1.
       -4    1    3    3    0  502 -0.80344354796E+03  0.38004204987E+02 -0.10265372191E+04  0.13041265772E+04  0.12699999809E+01 0.  1.
</event>
<event>
 5   0  0.1423692E-05  0.2968385E+04  0.7818609E-02  0.8252817E-01
       -2   -1    0    0    0  501  0.00000000000E+00  0.00000000000E+00  0.16435179152E+04  0.16435179152E+04  0.25500000920E-02 0.  1.
        2   -1    0    0  501    0  0.00000000000E+00  0.00000000000E+00 -0.13403122081E+04  0.13403122081E+04  0.25500000920E-02 0. -1.
    10030    2    1    2    0    0  0.00000000000E+00  0.00000000000E+00  0.30320570711E+03  0.29838301233E+04  0.29683848308E+04 0.  0.
        3    1    3    3  502    0 -0.10403700133E+04  0.10542014723E+04  0.55625116091E+02  0.14821621613E+04  0.10100000352E+00 0. -1.
       -3    1    3    3    0  502  0.10403700133E+04 -0.10542014723E+04  0.24758059102E+03  0.15016679620E+04  0.10100000352E+00 0.  1.
</event>
<event>
 5   0  0.1423692E-05  0.3016775E+04  0.7818609E-02  0.8238957E-01
        2   -1    0    0  501    0  0.00000000000E+00  0.00000000000E+00  0.14320111715E+04  0.14320111715E+04  0.25500000920E-02 0.  1.
       -2   -1    0    0    0  501  0.00000000000E+00  0.00000000000E+00 -0.15888368924E+04  0.15888368924E+04  0.25500000920E-02 0. -1.
    10030    2    1    2    0    0  0.00000000000E+00  0.00000000000E+00 -0.15682572091E+03  0.30208480639E+04  0.30167745554E+04 0.  0.
        3    1    3    3  502    0  0.24554655586E+03  0.79937148663E+03 -0.13354741593E+04  0.15756837008E+04  0.10100000352E+00 0. -1.
       -3    1    3    3    0  502 -0.24554655586E+03 -0.79937148663E+03  0.11786484384E+04  0.14451643630E+04  0.10100000352E+00 0.  1.
</event>
<event>
 5   0  0.5329891E-06  0.2587886E+04  0.7818609E-02  0.8372328E-01
       -1   -1    0    0    0  501  0.00000000000E+00  0.00000000000E+00  0.10970801301E+04  0.10970801301E+04  0.50400001928E-02 0. -1.
        1   -1    0    0  501    0  0.00000000000E+00  0.00000000000E+00 -0.15261319259E+04  0.15261319259E+04  0.50400001928E-02 0.  1.
    10030    2    1    2    0    0  0.00000000000E+00  0.00000000000E+00 -0.42905179589E+03  0.26232120560E+04  0.25878864054E+04 0.  0.
        4    1    3    3  502    0 -0.72530940018E+03  0.52072648707E+03  0.73477140769E+03  0.11563392386E+04  0.12699999809E+01 0. -1.
       -4    1    3    3    0  502  0.72530940018E+03 -0.52072648707E+03 -0.11638232036E+04  0.14668728174E+04  0.12699999809E+01 0.  1.
</event>
<event>
 5   0  0.5522695E-06  0.2543908E+04  0.7818609E-02  0.8387508E-01
        1   -1    0    0  501    0  0.00000000000E+00  0.00000000000E+00  0.25052361564E+04  0.25052361564E+04  0.50400001928E-02 0. -1.
       -1   -1    0    0    0  501  0.00000000000E+00  0.00000000000E+00 -0.64579412493E+03  0.64579412495E+03  0.50400001928E-02 0.  1.
    10030    2    1    2    0    0  0.00000000000E+00  0.00000000000E+00  0.18594420315E+04  0.31510302814E+04  0.25439078532E+04 0.  0.
        3    1    3    3  502    0 -0.87860984842E+03  0.68124101338E+03  0.16433277251E+03  0.11238549081E+04  0.10100000352E+00 0.  1.
       -3    1    3    3    0  502  0.87860984842E+03 -0.68124101338E+03  0.16951092590E+04  0.20271753733E+04  0.10100000352E+00 0. -1.
</event>
<event>
 5   0  0.5329891E-06  0.2951729E+04  0.7818609E-02  0.8257651E-01
        1   -1    0    0  501    0  0.00000000000E+00  0.00000000000E+00  0.14573534510E+04  0.14573534510E+04  0.50400001928E-02 0.  1.
       -1   -1    0    0    0  501  0.00000000000E+00  0.00000000000E+00 -0.14946110174E+04  0.14946110174E+04  0.50400001928E-02 0. -1.
    10030    2    1    2    0    0  0.00000000000E+00  0.00000000000E+00 -0.37257566386E+02  0.29519644683E+04  0.29517293399E+04 0.  0.
        4    1    3    3  502    0 -0.88184897711E+03 -0.98276007836E+03 -0.67799907246E+03  0.14843043304E+04  0.12699999809E+01 0. -1.
       -4    1    3    3    0  502  0.88184897711E+03  0.98276007836E+03  0.64074150607E+03  0.14676601380E+04  0.12699999809E+01 0.  1.
</event>
<event>
 5   0  0.1523029E-05  0.2952484E+04  0.7818609E-02  0.8257431E-01
       -2   -1    0    0    0  501  0.00000000000E+00  0.00000000000E+00  0.81262122378E+03  0.81262122379E+03  0.25500000920E-02 0.  1.
        2   -1    0    0  501    0  0.00000000000E+00  0.00000000000E+00 -0.26818037462E+04  0.26818037462E+04  0.25500000920E-02 0. -1.
    10030    2    1    2    0    0  0.00000000000E+00  0.00000000000E+00 -0.18691825224E+04  0.34944249700E+04  0.29524841352E+04 0.  0.
        5    1    3    3  502    0  0.17894669227E+03  0.22242580579E+03  0.77963219697E+03  0.83026719212E+03  0.46999998093E+01 0.  1.
       -5    1    3    3    0  502 -0.17894669227E+03 -0.22242580579E+03 -0.26488147194E+04  0.26641577779E+04  0.46999998093E+01 0. -1.
</event>
<event>
 5   0  0.5329891E-06  0.2256942E+04  0.7818609E-02  0.8495094E-01
       -1   -1    0    0    0  501  0.00000000000E+00  0.00000000000E+00  0.81596220091E+03  0.81596220092E+03  0.50400001928E-02 0. -1.
        1   -1    0    0  501    0  0.00000000000E+00  0.00000000000E+00 -0.15606690073E+04  0.15606690073E+04  0.50400001928E-02 0.  1.
    10030    2    1    2    0    0  0.00000000000E+00  0.00000000000E+00 -0.74470680636E+03  0.23766312082E+04  0.22569421066E+04 0.  0.
        4    1    3    3  502    0  0.77080447313E+03  0.34656972161E+03 -0.11598035950E+04  0.14350596153E+04  0.12699999809E+01 0.  1.
       -4    1    3    3    0  502 -0.77080447313E+03 -0.34656972161E+03  0.41509678860E+03  0.94157159289E+03  0.12699999809E+01 0. -1.
</event>
<event>
 5   0  0.5392262E-06  0.3216539E+04  0.7818609E-02  0.8184463E-01
       -1   -1    0    0    0  501  0.00000000000E+00  0.00000000000E+00  0.15950910059E+04  0.15950910059E+04  0.50400001928E-02 0. -1.
        1   -1    0    0  501    0  0.00000000000E+00  0.00000000000E+00 -0.16215564235E+04  0.16215564235E+04  0.50400001928E-02 0.  1.
    10030    2    1    2    0    0  0.00000000000E+00  0.00000000000E+00 -0.26465417631E+02  0.32166474294E+04  0.32165385536E+04 0.  0.
        2    1    3    3  502    0  0.13675867664E+04 -0.41907976728E+03  0.72205312020E+03  0.16022740475E+04  0.25500000920E-02 0. -1.
       -2    1    3    3    0  502 -0.13675867664E+04  0.41907976728E+03 -0.74851853783E+03  0.16143733820E+04  0.25500000920E-02 0.  1.
</event>
<event>
 5   0  0.4806125E-06  0.1727952E+04  0.7818609E-02  0.8745581E-01
       -3   -1    0    0    0  501  0.00000000000E+00  0.00000000000E+00  0.77755266905E+03  0.77755267561E+03  0.10100000352E+00 0.  1.
        3   -1    0    0  501    0  0.00000000000E+00  0.00000000000E+00 -0.96000551127E+03  0.96000551658E+03  0.10100000352E+00 0. -1.
    10030    2    1    2    0    0  0.00000000000E+00  0.00000000000E+00 -0.18245284222E+03  0.17375581922E+04  0.17279523812E+04 0.  0.
        2    1    3    3  502    0  0.40337504093E+03 -0.57572452229E+03 -0.59629814140E+03  0.92181431029E+03  0.25500000920E-02 0. -1.
       -2    1    3    3    0  502 -0.40337504093E+03  0.57572452229E+03  0.41384529918E+03  0.81574388190E+03  0.25500000920E-02 0.  1.
</event>
<event>
 5   0  0.1345931E-05  0.1585224E+04  0.7818609E-02  0.8829677E-01
       -2   -1    0    0    0  501  0.00000000000E+00  0.00000000000E+00  0.10883644061E+04  0.10883644061E+04  0.25500000920E-02 0.  1.
        2   -1    0    0  501    0  0.00000000000E+00  0.00000000000E+00 -0.57722766347E+03  0.57722766348E+03  0.25500000920E-02 0. -1.
    10030    2    1    2    0    0  0.00000000000E+00  0.00000000000E+00  0.51113674260E+03  0.16655920695E+04  0.15852243288E+04 0.  0.
        2    1    3    3  502    0  0.17187015408E+03 -0.75069087910E+03  0.45257886619E+03  0.89325459750E+03  0.25500000920E-02 0.  1.
       -2    1    3    3    0  502 -0.17187015408E+03  0.75069087910E+03  0.58557876414E+02  0.77233747205E+03  0.25500000920E-02 0. -1.
</event>
<event>
 5   0  0.1388724E-05  0.3003534E+04  0.7818609E-02  0.8242723E-01
       -2   -1    0    0    0  501  0.00000000000E+00  0.00000000000E+00  0.83655900653E+03  0.83655900653E+03  0.25500000920E-02 0. -1.
        2   -1    0    0  501    0  0.00000000000E+00  0.00000000000E+00 -0.26959287115E+04  0.26959287115E+04  0.25500000920E-02 0.  1.
    10030    2    1    2    0    0  0.00000000000E+00  0.00000000000E+00 -0.18593697050E+04  0.35324877180E+04  0.30035335487E+04 0.  0.
        4    1    3    3  502    0  0.77111909556E+03 -0.71718994455E+03 -0.21889010576E+04  0.24290482764E+04  0.12699999809E+01 0.  1.
       -4    1    3    3    0  502 -0.77111909556E+03  0.71718994455E+03  0.32953135264E+03  0.11034394416E+04  0.12699999809E+01 0. -1.
</event>
<event>
 5   0  0.1423692E-05  0.3032804E+04  0.7818609E-02  0.8234425E-01
       -2   -1    0    0    0  501  0.00000000000E+00  0.00000000000E+00  0.11255038224E+04  0.11255038224E+04  0.25500000920E-02 0. -1.
        2   -1    0    0  501    0  0.00000000000E+00  0.00000000000E+00 -0.20430632470E+04  0.20430632470E+04  0.25500000920E-02 0.  1.
    10030    2    1    2    0    0  0.00000000000E+00  0.00000000000E+00 -0.91755942460E+03  0.31685670693E+04  0.30328043087E+04 0.  0.
        3    1    3    3  502    0 -0.52082471717E+03  0.45934774910E+03  0.94960687569E+03  0.11764403806E+04  0.10100000352E+00 0. -1.
       -3    1    3    3    0  502  0.52082471717E+03 -0.45934774910E+03 -0.18671663003E+04  0.19921266887E+04  0.10100000352E+00 0.  1.
</event>
<event>
 5   0  0.5329891E-06  0.2550810E+04  0.7818609E-02  0.8385105E-01
       -1   -1    0    0    0  501  0.00000000000E+00  0.00000000000E+00  0.12259645738E+04  0.12259645738E+04  0.50400001928E-02 0. -1.
        1   -1    0    0  501    0  0.00000000000E+00  0.00000000000E+00 -0.13268391910E+04  0.13268391910E+04  0.50400001928E-02 0.  1.
    10030    2    1    2    0    0  0.00000000000E+00  0.00000000000E+00 -0.10087461718E+03  0.25528037648E+04  0.25508099446E+04 0.  0.
        4    1    3    3  502    0  0.13449936562E+02  0.59558363522E+03 -0.11790401418E+04  0.13209988782E+04  0.12699999809E+01 0.  1.
       -4    1    3    3    0  502 -0.13449936562E+02 -0.59558363522E+03  0.10781655246E+04  0.12318048866E+04  0.12699999809E+01 0. -1.
</event>
<event>
 5   0  0.5522695E-06  0.2873149E+04  0.7818609E-02  0.8280912E-01
        1   -1    0    0  501    0  0.00000000000E+00  0.00000000000E+00  0.16597985633E+04  0.16597985633E+04  0.50400001928E-02 0.  1.
       -1   -1    0    0    0  501  0.00000000000E+00  0.00000000000E+00 -0.12433712087E+04  0.12433712087E+04  0.50400001928E-02 0. -1.
    10030    2    1    2    0    0  0.00000000000E+00  0.00000000000E+00  0.41642735458E+03  0.29031697721E+04  0.28731486185E+04 0.  0.
        3    1    3    3  502    0 -0.42111167574E+03 -0.13721265341E+04  0.26950609809E+03  0.14603766008E+04  0.10100000352E+00 0. -1.
       -3    1    3    3    0  502  0.42111167574E+03  0.13721265341E+04  0.14692125649E+03  0.14427931712E+04  0.10100000352E+00 0.  1.
</event>
<event>
 5   0  0.7032692E-06  0.3043132E+04  0.7818609E-02  0.8231521E-01
        1   -1    0    0  501    0  0.00000000000E+00  0.00000000000E+00  0.15062749514E+04  0.15062749514E+04  0.50400001928E-02 0. -1.
       -1   -1    0    0    0  501  0.00000000000E+00  0.00000000000E+00 -0.15370119948E+04  0.15370119948E+04  0.50400001928E-02 0.  1.
    10030    2    1    2    0    0  0.00000000000E+00  0.00000000000E+00 -0.30737043442E+02  0.30432869462E+04  0.30431317209E+04 0.  0.
        5    1    3    3  502    0  0.66205345738E+03 -0.13127244152E+04 -0.40728187352E+03  0.15256017780E+04  0.46999998093E+01 0.  1.
       -5    1    3    3    0  502 -0.66205345738E+03  0.13127244152E+04  0.37654483008E+03  0.15176851682E+04  0.46999998093E+01 0. -1.
</event>
<event>
 5   0  0.7032692E-06  0.3015013E+04  0.7818609E-02  0.8239457E-01
        1   -1    0    0  501    0  0.00000000000E+00  0.00000000000E+00  0.21683076955E+04  0.21683076955E+04  0.50400001928E-02 0.  1.
       -1   -1    0    0    0  501  0.00000000000E+00  0.00000000000E+00 -0.10480870255E+04  0.10480870255E+04  0.50400001928E-02 0. -1.
    10030    2    1    2    0    0  0.00000000000E+00  0.00000000000E+00  0.11202206700E+04  0.32163947210E+04  0.30150125459E+04 0.  0.
        5    1    3    3  502    0  0.13236753942E+04  0.43004980899E+03 -0.57795636552E+02  0.13929902415E+04  0.46999998093E+01 0.  1.
       -5    1    3    3    0  502 -0.13236753942E+04 -0.43004980899E+03  0.11780163066E+04  0.18234044795E+04  0.46999998093E+01 0. -1.
</event>
<event>
 5   0  0.1345931E-05  0.2992729E+04  0.7818609E-02  0.8245810E-01
       -2   -1    0    0    0  501  0.00000000000E+00  0.00000000000E+00  0.16670837380E+04  0.16670837380E+04  0.25500000920E-02 0.  1.
        2   -1    0    0  501    0  0.00000000000E+00  0.00000000000E+00 -0.13431281788E+04  0.13431281788E+04  0.25500000920E-02 0. -1.
    10030    2    1    2    0    0  0.00000000000E+00  0.00000000000E+00  0.32395555918E+03  0.30102119169E+04  0.29927292862E+04 0.  0.
        2    1    3    3  502    0 -0.12520944809E+04  0.78144078953E+03  0.40982511110E+03  0.15317790044E+04  0.25500000920E-02 0. -1.
       -2    1    3    3    0  502  0.12520944809E+04 -0.78144078953E+03 -0.85869551918E+02  0.14784329125E+04  0.25500000920E-02 0.  1.
</event>
<event>
 5   0  0.1345931E-05  0.2857591E+04  0.7818609E-02  0.8285608E-01
        2   -1    0    0  501    0  0.00000000000E+00  0.00000000000E+00  0.13932472474E+04  0.13932472474E+04  0.25500000920E-02 0. -1.
       -2   -1    0    0    0  501  0.00000000000E+00  0.00000000000E+00 -0.14652506455E+04  0.14652506455E+04  0.25500000920E-02 0.  1.
    10030    2    1    2    0    0  0.00000000000E+00  0.00000000000E+00 -0.72003398129E+02  0.28584978929E+04  0.28575908935E+04 0.  0.
        2    1    3    3  502    0  0.12288349729E+04 -0.62000521092E+03 -0.41954819692E+03  0.14389101924E+04  0.25500000920E-02 0.  1.
       -2    1    3    3    0  502 -0.12288349729E+04  0.62000521092E+03  0.34754479879E+03  0.14195877005E+04  0.25500000920E-02 0. -1.
</event>
<event>
 5   0  0.5522695E-06  0.1996962E+04  0.7818609E-02  0.8608042E-01
       -1   -1    0    0    0  501  0.00000000000E+00  0.00000000000E+00  0.36412886343E+03  0.36412886346E+03  0.50400001928E-02 0. -1.
        1   -1    0    0  501    0  0.00000000000E+00  0.00000000000E+00 -0.27379438279E+04  0.27379438279E+04  0.50400001928E-02 0.  1.
    10030    2    1    2    0    0  0.00000000000E+00  0.00000000000E+00 -0.23738149645E+04  0.31020726914E+04  0.19969620670E+04 0.  0.
        3    1    3    3  502    0 -0.97163100792E+03  0.13183503695E+03 -0.89415490292E+03  0.13270117909E+04  0.10100000352E+00 0. -1.
       -3    1    3    3    0  502  0.97163100792E+03 -0.13183503695E+03 -0.14796600616E+04  0.17750609005E+04  0.10100000352E+00 0.  1.
</event>
<event>
 5   0  0.5730920E-06  0.3004371E+04  0.7818609E-02  0.8242484E-01
       -1   -1    0    0    0  501  0.00000000000E+00  0.00000000000E+00  0.12394073931E+04  0.12394073931E+04  0.50400001928E-02 0.  1.
        1   -1    0    0  501    0  0.00000000000E+00  0.00000000000E+00 -0.18206778714E+04  0.18206778714E+04  0.50400001928E-02 0. -1.
    10030    2    1    2    0    0  0.00000000000E+00  0.00000000000E+00 -0.58127047832E+03  0.30600852645E+04  0.30043712249E+04 0.  0.
        1    1    3    3  502    0 -0.14739718003E+04 -0.27714198782E+03 -0.20444288761E+03  0.15136701899E+04  0.50400001928E-02 0.  1.
       -1    1    3    3    0  502  0.14739718003E+04  0.27714198782E+03 -0.37682759071E+03  0.15464150745E+04  0.50400001928E-02 0. -1.
</event>
<event>
 5   0  0.1480547E-05  0.2938924E+04  0.7818609E-02  0.8261390E-01
        2   -1    0    0  501    0  0.00000000000E+00  0.00000000000E+00  0.20800967506E+04  0.20800967506E+04  0.25500000920E-02 0. -1.
       -2   -1    0    0    0  501  0.00000000000E+00  0.00000000000E+00 -0.10380856418E+04  0.10380856418E+04  0.25500000920E-02 0.  1.
    10030    2    1    2    0    0  0.00000000000E+00  0.00000000000E+00  0.10420111088E+04  0.31181823923E+04  0.29389240005E+04 0.  0.
        1    1    3    3  502    0 -0.49465218843E+03  0.12816553800E+04 -0.32338734063E+02  0.13741786981E+04  0.50400001928E-02 0. -1.
       -1    1    3    3    0  502  0.49465218843E+03 -0.12816553800E+04  0.10743498429E+04  0.17440036942E+04  0.50400001928E-02 0.  1.
</event>
<event>
 5   0  0.1523029E-05  0.3009092E+04  0.7818609E-02  0.8241139E-01
        2   -1    0    0  501    0  0.00000000000E+00  0.00000000000E+00  0.27756138842E+04  0.27756138842E+04  0.25500000920E-02 0.  1.
       -2   -1    0    0    0  501  0.00000000000E+00  0.00000000000E+00 -0.81555223447E+03  0.81555223447E+03  0.25500000920E-02 0. -1.
    10030    2    1    2    0    0  0.00000000000E+00  0.00000000000E+00  0.19600616497E+04  0.35911661187E+04  0.30090916272E+04 0.  0.
        5    1    3    3  502    0  0.71490084901E+03 -0.11483406161E+04  0.19393008975E+03  0.13665285815E+04  0.46999998093E+01 0. -1.
       -5    1    3    3    0  502 -0.71490084901E+03  0.11483406161E+04  0.17661315600E+04  0.22246375371E+04  0.46999998093E+01 0.  1.
</event>
<event>
 5   0  0.5392262E-06  0.2963866E+04  0.7818609E-02  0.8254125E-01
       -1   -1    0    0    0  501  0.00000000000E+00  0.00000000000E+00  0.16607220930E+04  0.16607220930E+04  0.50400001928E-02 0. -1.
        1   -1    0    0  501    0  0.00000000000E+00  0.00000000000E+00 -0.13223916976E+04  0.13223916976E+04  0.50400001928E-02 0.  1.
    10030    2    1    2    0    0  0.00000000000E+00  0.00000000000E+00  0.33833039539E+03  0.29831137906E+04  0.29638657917E+04 0.  0.
        2    1    3    3  502    0  0.15650143212E+03 -0.12415493349E+04  0.96816419167E+03  0.15821755121E+04  0.25500000920E-02 0. -1.
       -2    1    3    3    0  502 -0.15650143212E+03  0.12415493349E+04 -0.62983379627E+03  0.14009382785E+04  0.25500000920E-02 0.  1.
</event>
<event>
 5   0  0.5392262E-06  0.2987485E+04  0.7818609E-02  0.8247314E-01
       -1   -1    0    0    0  501  0.00000000000E+00  0.00000000000E+00  0.23522792288E+04  0.23522792288E+04  0.50400001928E-02 0.  1.
        1   -1    0    0  501    0  0.00000000000E+00  0.00000000000E+00 -0.94855522805E+03  0.94855522806E+03  0.50400001928E-02 0. -1.
    10030    2    1    2    0    0  0.00000000000E+00  0.00000000000E+00  0.14037240008E+04  0.33008344569E+04  0.29874850696E+04 0.  0.
        2    1    3    3  502    0  0.86536972867E+03 -0.55371016720E+03  0.18999425826E+04  0.21599170201E+04  0.25500000920E-02 0.  1.
       -2    1    3    3    0  502 -0.86536972867E+03  0.55371016720E+03 -0.49621858184E+03  0.11409174368E+04  0.25500000920E-02 0. -1.
</event>
<event>
 5   0  0.5522695E-06  0.3001034E+04  0.7818609E-02  0.8243436E-01
        1   -1    0    0  501    0  0.00000000000E+00  0.00000000000E+00  0.17712088340E+04  0.17712088340E+04  0.50400001928E-02 0.  1.
       -1   -1    0    0    0  501  0.00000000000E+00  0.00000000000E+00 -0.12711949447E+04  0.12711949447E+04  0.50400001928E-02 0. -1.
    10030    2    1    2    0    0  0.00000000000E+00  0.00000000000E+00  0.50001388924E+03  0.30424037787E+04  0.30010342989E+04 0.  0.
        3    1    3    3  502    0 -0.91086250977E+03 -0.99829938114E+03  0.91113127066E+03  0.16298565485E+04  0.10100000352E+00 0.  1.
       -3    1    3    3    0  502  0.91086250977E+03  0.99829938114E+03 -0.41111738142E+03  0.14125472302E+04  0.10100000352E+00 0. -1.
</event>
<event>
 5   0  0.1423692E-05  0.2988802E+04  0.7818609E-02  0.8246936E-01
        2   -1    0    0  501    0  0.00000000000E+00  0.00000000000E+00  0.17317713970E+04  0.17317713970E+04  0.25500000920E-02 0.  1.
       -2   -1    0    0    0  501  0.00000000000E+00  0.00000000000E+00 -0.12895664941E+04  0.12895664941E+04  0.25500000920E-02 0. -1.
    10030    2    1    2    0    0  0.00000000000E+00  0.00000000000E+00  0.44220490287E+03  0.30213378912E+04  0.29888020136E+04 0.  0.
        3    1    3    3  502    0  0.12654219702E+04 -0.28166202361E+03  0.97257093937E+03  0.16206543433E+04  0.10100000352E+00 0.  1.
       -3    1    3    3    0  502 -0.12654219702E+04  0.28166202361E+03 -0.53036603650E+03  0.14006835478E+04  0.10100000352E+00 0. -1.
</event>
<event>
 5   0  0.7032692E-06  0.1582646E+04  0.7818609E-02  0.8831280E-01
       -1   -1    0    0    0  501  0.00000000000E+00  0.00000000000E+00  0.59444773257E+03  0.59444773259E+03  0.50400001928E-02 0.  1.
        1   -1    0    0  501    0  0.00000000000E+00  0.00000000000E+00 -0.10534020347E+04  0.10534020347E+04  0.50400001928E-02 0. -1.
    10030    2    1    2    0    0  0.00000000000E+00  0.00000000000E+00 -0.45895430210E+03  0.16478497673E+04  0.15826464558E+04 0.  0.
        5    1    3    3  502    0 -0.27120040349E+03  0.37255116833E+03  0.44031918077E+03  0.63737516647E+03  0.46999998093E+01 0.  1.
       -5    1    3    3    0  502  0.27120040349E+03 -0.37255116833E+03 -0.89927348287E+03  0.10104746008E+04  0.46999998093E+01 0. -1.
</event>
<event>
 5   0  0.5392262E-06  0.3065729E+04  0.7818609E-02  0.8225207E-01
        1   -1    0    0  501    0  0.00000000000E+00  0.00000000000E+00  0.30210195876E+04  0.30210195876E+04  0.50400001928E-02 0. -1.
       -1   -1    0    0    0  501  0.00000000000E+00  0.00000000000E+00 -0.77777489886E+03  0.77777489887E+03  0.50400001928E-02 0.  1.
    10030    2    1    2    0    0  0.00000000000E+00  0.00000000000E+00  0.22432446888E+04  0.37987944865E+04  0.30657287579E+04 0.  0.
        2    1    3    3  502    0 -0.72639064533E+03  0.39409963198E+03 -0.47809327137E+03  0.95474136062E+03  0.25500000920E-02 0.  1.
       -2    1    3    3    0  502  0.72639064533E+03 -0.39409963198E+03  0.27213379601E+04  0.28440531259E+04  0.25500000920E-02 0. -1.
</event>
<event>
 5   0  0.1480547E-05  0.1772590E+04  0.7818609E-02  0.8721013E-01
       -2   -1    0    0    0  501  0.00000000000E+00  0.00000000000E+00  0.47082120680E+03  0.47082120680E+03  0.25500000920E-02 0. -1.
        2   -1    0    0  501    0  0.00000000000E+00  0.00000000000E+00 -0.16684010249E+04  0.16684010249E+04  0.25500000920E-02 0.  1.
    10030    2    1    2    0    0  0.00000000000E+00  0.00000000000E+00 -0.11975798181E+04  0.21392222317E+04  0.17725897258E+04 0.  0.
        1    1    3    3  502    0 -0.36033115597E+03 -0.10285569275E+03 -0.15680971309E+04  0.16122488789E+04  0.50400001928E-02 0.  1.
       -1    1    3    3    0  502  0.36033115597E+03  0.10285569275E+03  0.37051731279E+03  0.52697335283E+03  0.50400001928E-02 0. -1.
</event>
<event>
 5   0  0.1523029E-05  0.3037094E+04  0.7818609E-02  0.8233217E-01
       -2   -1    0    0    0  501  0.00000000000E+00  0.00000000000E+00  0.23510235541E+04  0.23510235541E+04  0.25500000920E-02 0.  1.
        2   -1    0    0  501    0  0.00000000000E+00  0.00000000000E+00 -0.98084293761E+03  0.98084293761E+03  0.25500000920E-02 0. -1.
    10030    2    1    2    0    0  0.00000000000E+00  0.00000000000E+00  0.13701806165E+04  0.33318664917E+04  0.30370939065E+04 0.  0.
        5    1    3    3  502    0  0.11977150923E+04  0.89086685409E+03  0.37909668737E+03  0.15400979133E+04  0.46999998093E+01 0. -1.
       -5    1    3    3    0  502 -0.11977150923E+04 -0.89086685409E+03  0.99108392913E+03  0.17917685784E+04  0.46999998093E+01 0.  1.
</event>
<event>
 5   0  0.1523029E-05  0.2210614E+04  0.7818609E-02  0.8514023E-01
        2   -1    0    0  501    0  0.00000000000E+00  0.00000000000E+00  0.19975100237E+04  0.19975100237E+04  0.25500000920E-02 0. -1.
       -2   -1    0    0    0  501  0.00000000000E+00  0.00000000000E+00 -0.61161339174E+03  0.61161339175E+03  0.25500000920E-02 0.  1.
    10030    2    1    2    0    0  0.00000000000E+00  0.00000000000E+00  0.13858966320E+04  0.26091234155E+04  0.22106142863E+04 0.  0.
        5    1    3    3  502    0 -0.30192542367E+03  0.56036539011E+03  0.17594543671E+04  0.18710612207E+04  0.46999998093E+01 0. -1.
       -5    1    3    3    0  502  0.30192542367E+03 -0.56036539011E+03 -0.37355773509E+03  0.73806219476E+03  0.46999998093E+01 0.  1.
</event>
<event>
 5   0  0.1523029E-05  0.2578195E+04  0.7818609E-02  0.8375646E-01
        2   -1    0    0  501    0  0.00000000000E+00  0.00000000000E+00  0.21870965071E+04  0.21870965071E+04  0.25500000920E-02 0.  1.
       -2   -1    0    0    0  501  0.00000000000E+00  0.00000000000E+00 -0.75980770979E+03  0.75980770980E+03  0.25500000920E-02 0. -1.
    10030    2    1    2    0    0  0.00000000000E+00  0.00000000000E+00  0.14272887973E+04  0.29469042168E+04  0.25781953286E+04 0.  0.
        5    1    3    3  502    0 -0.28638136073E+03 -0.10069052460E+04  0.15734726291E+04  0.18898969979E+04  0.46999998093E+01 0.  1.
       -5    1    3    3    0  502  0.28638136073E+03  0.10069052460E+04 -0.14618383182E+03  0.10570072189E+04  0.46999998093E+01 0. -1.
</event>
<event>
 5   0  0.1345931E-05  0.2934626E+04  0.7818609E-02  0.8262649E-01
        2   -1    0    0  501    0  0.00000000000E+00  0.00000000000E+00  0.21024173099E+04  0.21024173099E+04  0.25500000920E-02 0.  1.
       -2   -1    0    0    0  501  0.00000000000E+00  0.00000000000E+00 -0.10240631417E+04  0.10240631417E+04  0.25500000920E-02 0. -1.
    10030    2    1    2    0    0  0.00000000000E+00  0.00000000000E+00  0.10783541682E+04  0.31264804516E+04  0.29346264332E+04 0.  0.
        2    1    3    3  502    0 -0.38150456676E+03 -0.28446155779E+03 -0.93956473340E+03  0.10532074822E+04  0.25500000920E-02 0. -1.
       -2    1    3    3    0  502  0.38150456676E+03  0.28446155779E+03  0.20179189016E+04  0.20732729694E+04  0.25500000920E-02 0.  1.
</event>
<event>
 5   0  0.1388724E-05  0.2945543E+04  0.7818609E-02  0.8259455E-01
        2   -1    0    0  501    0  0.00000000000E+00  0.00000000000E+00  0.19054692812E+04  0.19054692812E+04  0.25500000920E-02 0. -1.
       -2   -1    0    0    0  501  0.00000000000E+00  0.00000000000E+00 -0.11383312129E+04  0.11383312129E+04  0.25500000920E-02 0.  1.
    10030    2    1    2    0    0  0.00000000000E+00  0.00000000000E+00  0.76713806832E+03  0.30438004941E+04  0.29455425022E+04 0.  0.
        4    1    3    3  502    0  0.19339679261E+03 -0.11943837604E+04  0.12512814942E+04  0.17405923925E+04  0.12699999809E+01 0. -1.
       -4    1    3    3    0  502 -0.19339679261E+03  0.11943837604E+04 -0.48414342587E+03  0.13032081016E+04  0.12699999809E+01 0.  1.
</event>
<event>
 5   0  0.1423692E-05  0.3020272E+04  0.7818609E-02  0.8237966E-01
       -2   -1    0    0    0  501  0.00000000000E+00  0.00000000000E+00  0.11374220611E+04  0.11374220611E+04  0.25500000920E-02 0. -1.
        2   -1    0    0  501    0  0.00000000000E+00  0.00000000000E+00 -0.20049818181E+04  0.20049818181E+04  0.25500000920E-02 0.  1.
    10030    2    1    2    0    0  0.00000000000E+00  0.00000000000E+00 -0.86755975702E+03  0.31424038791E+04  0.30202718764E+04 0.  0.
        3    1    3    3  502    0 -0.14163510915E+04  0.44905955705E+03 -0.71451611916E+03  0.16487080381E+04  0.10100000352E+00 0.  1.
       -3    1    3    3    0  502  0.14163510915E+04 -0.44905955705E+03 -0.15304363786E+03  0.14936958410E+04  0.10100000352E+00 0. -1.
</event>
<event>
 5   0  0.1523029E-05  0.1633241E+04  0.7818609E-02  0.8800383E-01
       -2   -1    0    0    0  501  0.00000000000E+00  0.00000000000E+00  0.59395737392E+03  0.59395737393E+03  0.25500000920E-02 0. -1.
        2   -1    0    0  501    0  0.00000000000E+00  0.00000000000E+00 -0.11227559520E+04  0.11227559520E+04  0.25500000920E-02 0.  1.
    10030    2    1    2    0    0  0.00000000000E+00  0.00000000000E+00 -0.52879857812E+03  0.17167133260E+04  0.16332411663E+04 0.  0.
        5    1    3    3  502    0  0.96799106759E+02 -0.80352095639E+03 -0.37872920486E+03  0.89357366515E+03  0.46999998093E+01 0. -1.
       -5    1    3    3    0  502 -0.96799106759E+02  0.80352095639E+03 -0.15006937326E+03  0.82313966082E+03  0.46999998093E+01 0.  1.
</event>
<event>
 5   0  0.1388724E-05  0.2995460E+04  0.7818609E-02  0.8245029E-01
        2   -1    0    0  501    0  0.00000000000E+00  0.00000000000E+00  0.20862862241E+04  0.20862862241E+04  0.25500000920E-02 0.  1.
       -2   -1    0    0    0  501  0.00000000000E+00  0.00000000000E+00 -0.10752093833E+04  0.10752093833E+04  0.25500000920E-02 0. -1.
    10030    2    1    2    0    0  0.00000000000E+00  0.00000000000E+00  0.10110768408E+04  0.31614956074E+04  0.29954595804E+04 0.  0.
        4    1    3    3  502    0 -0.60418840896E+03 -0.16323523470E+03 -0.93058376704E+03  0.11214620527E+04  0.12699999809E+01 0. -1.
       -4    1    3    3    0  502  0.60418840896E+03  0.16323523470E+03  0.19416606078E+04  0.20400335547E+04  0.12699999809E+01 0.  1.
</event>
<event>
 5   0  0.1480547E-05  0.3006230E+04  0.7818609E-02  0.8241954E-01
        2   -1    0    0  501    0  0.00000000000E+00  0.00000000000E+00  0.12578749448E+04  0.12578749448E+04  0.25500000920E-02 0. -1.
       -2   -1    0    0    0  501  0.00000000000E+00  0.00000000000E+00 -0.17961676713E+04  0.17961676713E+04  0.25500000920E-02 0.  1.
    10030    2    1    2    0    0  0.00000000000E+00  0.00000000000E+00 -0.53829272648E+03  0.30540426161E+04  0.30062297386E+04 0.  0.
        1    1    3    3  502    0 -0.12656086942E+04  0.45825426816E+03  0.41051732685E+03  0.14072266402E+04  0.50400001928E-02 0. -1.
       -1    1    3    3    0  502  0.12656086942E+04 -0.45825426816E+03 -0.94881005333E+03  0.16468159759E+04  0.50400001928E-02 0.  1.
</event>
<event>
 5   0  0.5392262E-06  0.2989231E+04  0.7818609E-02  0.8246813E-01
        1   -1    0    0  501    0  0.00000000000E+00  0.00000000000E+00  0.24507899920E+04  0.24507899920E+04  0.50400001928E-02 0.  1.
       -1   -1    0    0    0  501  0.00000000000E+00  0.00000000000E+00 -0.91149173491E+03  0.91149173492E+03  0.50400001928E-02 0. -1.
    10030    2    1    2    0    0  0.00000000000E+00  0.00000000000E+00  0.15392982571E+04  0.33622817270E+04  0.29892305510E+04 0.  0.
        2    1    3    3  502    0  0.14145136966E+04 -0.46317703193E+03  0.92260872879E+03  0.17511678467E+04  0.25500000920E-02 0.  1.
       -2    1    3    3    0  502 -0.14145136966E+04  0.46317703193E+03  0.61668952833E+03  0.16111138803E+04  0.25500000920E-02 0. -1.
</event>
<event>
 5   0  0.1423692E-05  0.2987662E+04  0.7818609E-02  0.8247263E-01
        2   -1    0    0  501    0  0.00000000000E+00  0.00000000000E+00  0.21812402852E+04  0.21812402852E+04  0.25500000920E-02 0. -1.
       -2   -1    0    0    0  501  0.00000000000E+00  0.00000000000E+00 -0.10230558800E+04  0.10230558800E+04  0.25500000920E-02 0.  1.
    10030    2    1    2    0    0  0.00000000000E+00  0.00000000000E+00  0.11581844052E+04  0.32042961652E+04  0.29876617610E+04 0.  0.
        3    1    3    3  502    0  0.14712377561E+04 -0.25874207825E+03  0.58609982693E+03  0.16046809700E+04  0.10100000352E+00 0.  1.
       -3    1    3    3    0  502 -0.14712377561E+04  0.25874207825E+03  0.57208457822E+03  0.15996151953E+04  0.10100000352E+00 0. -1.
</event>
<event>
 5   0  0.5329891E-06  0.2665089E+04  0.7818609E-02  0.8346422E-01
        1   -1    0    0  501    0  0.00000000000E+00  0.00000000000E+00  0.14543513372E+04  0.14543513372E+04  0.50400001928E-02 0.  1.
       -1   -1    0    0    0  501  0.00000000000E+00  0.00000000000E+00 -0.12209395804E+04  0.12209395804E+04  0.50400001928E-02 0. -1.
    10030    2    1    2    0    0  0.00000000000E+00  0.00000000000E+00  0.23341175684E+03  0.26752909176E+04  0.26650892003E+04 0.  0.
        4    1    3    3  502    0  0.62652210553E+03 -0.59118415096E+03 -0.90386915111E+03  0.12486031012E+04  0.12699999809E+01 0. -1.
       -4    1    3    3    0  502 -0.62652210553E+03  0.59118415096E+03  0.11372809080E+04  0.14266878164E+04  0.12699999809E+01 0.  1.
</event>
<event>
 5   0  0.5730920E-06  0.2946089E+04  0.7818609E-02  0.8259295E-01
       -1   -1    0    0    0  501  0.00000000000E+00  0.00000000000E+00  0.92442259826E+03  0.92442259827E+03  0.50400001928E-02 0.  1.
        1   -1    0    0  501    0  0.00000000000E+00  0.00000000000E+00 -0.23472592333E+04  0.23472592333E+04  0.50400001928E-02 0. -1.
    10030    2    1    2    0    0  0.00000000000E+00  0.00000000000E+00 -0.14228366351E+04  0.32716818316E+04  0.29460885793E+04 0.  0.
        1    1    3    3  502    0  0.11552238894E+04 -0.76255773473E+03 -0.15193041321E+03  0.13925226691E+04  0.50400001928E-02 0. -1.
       -1    1    3    3    0  502 -0.11552238894E+04  0.76255773473E+03 -0.12709062218E+04  0.18791591625E+04  0.50400001928E-02 0.  1.
</event>
<event>
 5   0  0.7032692E-06  0.2991073E+04  0.7818609E-02  0.8246285E-01
       -1   -1    0    0    0  501  0.00000000000E+00  0.00000000000E+00  0.79905942165E+03  0.79905942166E+03  0.50400001928E-02 0.  1.
        1   -1    0    0  501    0  0.00000000000E+00  0.00000000000E+00 -0.27990779109E+04  0.27990779109E+04  0.50400001928E-02 0. -1.
    10030    2    1    2    0    0  0.00000000000E+00  0.00000000000E+00 -0.20000184892E+04  0.35981373326E+04  0.29910731029E+04 0.  0.
        5    1    3    3  502    0 -0.29493728218E+03 -0.84581733985E+03 -0.24406558546E+04  0.25998496232E+04  0.46999998093E+01 0. -1.
       -5    1    3    3    0  502  0.29493728218E+03  0.84581733985E+03  0.44063736538E+03  0.99828770931E+03  0.46999998093E+01 0.  1.
</event>
<event>
 5   0  0.1388724E-05  0.2912469E+04  0.7818609E-02  0.8269177E-01
       -2   -1    0    0    0  501  0.00000000000E+00  0.00000000000E+00  0.14353446135E+04  0.14353446135E+04  0.25500000920E-02 0. -1.
        2   -1    0    0  501    0  0.00000000000E+00  0.00000000000E+00 -0.14774281481E+04  0.14774281481E+04  0.25500000920E-02 0.  1.
    10030    2    1    2    0    0  0.00000000000E+00  0.00000000000E+00 -0.42083534574E+02  0.29127727615E+04  0.29124687357E+04 0.  0.
        4    1    3    3  502    0 -0.15270351268E+03  0.12606908720E+04  0.69174371100E+03  0.14460881067E+04  0.12699999809E+01 0. -1.
       -4    1    3    3    0  502  0.15270351268E+03 -0.12606908720E+04 -0.73382724558E+03  0.14666846549E+04  0.12699999809E+01 0.  1.
</event>
<event>
 5   0  0.5392262E-06  0.2944981E+04  0.7818609E-02  0.8259619E-01
        1   -1    0    0  501    0  0.00000000000E+00  0.00000000000E+00  0.17240836518E+04  0.17240836518E+04  0.50400001928E-02 0. -1.
       -1   -1    0    0    0  501  0.00000000000E+00  0.00000000000E+00 -0.12576116745E+04  0.12576116745E+04  0.50400001928E-02 0.  1.
    10030    2    1    2    0    0  0.00000000000E+00  0.00000000000E+00  0.46647197729E+03  0.29816953263E+04  0.29449806303E+04 0.  0.
        2    1    3    3  502    0 -0.35839912641E+03 -0.38299216733E+03 -0.11598149669E+04  0.12729115018E+04  0.25500000920E-02 0.  1.
       -2    1    3    3    0  502  0.35839912641E+03  0.38299216733E+03  0.16262869441E+04  0.17087838245E+04  0.25500000920E-02 0. -1.
</event>
<event>
 5   0  0.1345931E-05  0.2768249E+04  0.7818609E-02  0.8313194E-01
        2   -1    0    0  501    0  0.00000000000E+00  0.00000000000E+00  0.21195769247E+04  0.21195769247E+04  0.25500000920E-02 0.  1.
       -2   -1    0    0    0  501  0.00000000000E+00  0.00000000000E+00 -0.90385989004E+03  0.90385989004E+03  0.25500000920E-02 0. -1.
    10030    2    1    2    0    0  0.00000000000E+00  0.00000000000E+00  0.12157170347E+04  0.30234368148E+04  0.27682489528E+04 0.  0.
        2    1    3    3  502    0  0.12385900368E+04  0.34265259081E+03  0.11693350250E+04  0.17374868281E+04  0.25500000920E-02 0.  1.
       -2    1    3    3    0  502 -0.12385900368E+04 -0.34265259081E+03  0.46382009687E+02  0.12859499866E+04  0.25500000920E-02 0. -1.
</event>
<event>
 5   0  0.1480547E-05  0.3045882E+04  0.7818609E-02  0.8230749E-01
       -2   -1    0    0    0  501  0.00000000000E+00  0.00000000000E+00  0.16642106425E+04  0.16642106425E+04  0.25500000920E-02 0. -1.
        2   -1    0    0  501    0  0.00000000000E+00  0.00000000000E+00 -0.13936637290E+04  0.13936637290E+04  0.25500000920E-02 0.  1.
    10030    2    1    2    0    0  0.00000000000E+00  0.00000000000E+00  0.27054691347E+03  0.30578743715E+04  0.30458824731E+04 0.  0.
        1    1    3    3  502    0 -0.72394566308E+03 -0.18876734143E+03 -0.11964556437E+04  0.14111118097E+04  0.50400001928E-02 0.  1.
       -1    1    3    3    0  502  0.72394566308E+03  0.18876734143E+03  0.14670025571E+04  0.16467625618E+04  0.50400001928E-02 0. -1.
</event>
<event>
 5   0  0.1523029E-05  0.2989335E+04  0.7818609E-02  0.8246783E-01
       -2   -1    0    0    0  501  0.00000000000E+00  0.00000000000E+00  0.17878474482E+04  0.17878474482E+04  0.25500000920E-02 0. -1.
        2   -1    0    0  501    0  0.00000000000E+00  0.00000000000E+00 -0.12495644598E+04  0.12495644598E+04  0.25500000920E-02 0.  1.
    10030    2    1    2    0    0  0.00000000000E+00  0.00000000000E+00  0.53828298832E+03  0.30374119080E+04  0.29893347961E+04 0.  0.
        5    1    3    3  502    0  0.49405157190E+02  0.12817660757E+04 -0.51042878383E+03  0.13805523444E+04  0.46999998093E+01 0.  1.
       -5    1    3    3    0  502 -0.49405157190E+02 -0.12817660757E+04  0.10487117722E+04  0.16568595636E+04  0.46999998093E+01 0. -1.
</event>
<event>
 5   0  0.5392262E-06  0.2181547E+04  0.7818609E-02  0.8526148E-01
        1   -1    0    0  501    0  0.00000000000E+00  0.00000000000E+00  0.13550553355E+04  0.13550553355E+04  0.50400001928E-02 0.  1.
       -1   -1    0    0    0  501  0.00000000000E+00  0.00000000000E+00 -0.87803567016E+03  0.87803567018E+03  0.50400001928E-02 0. -1.
    10030    2    1    2    0    0  0.00000000000E+00  0.00000000000E+00  0.47701966538E+03  0.22330910057E+04  0.21815470838E+04 0.  0.
        2    1    3    3  502    0  0.97317545768E+03 -0.18722411298E+03  0.70497798685E+03  0.12161896653E+04  0.25500000920E-02 0.  1.
       -2    1    3    3    0  502 -0.97317545768E+03  0.18722411298E+03 -0.22795832147E+03  0.10169013405E+04  0.25500000920E-02 0. -1.
</event>
<event>
 5   0  0.5329891E-06  0.2939186E+04  0.7818609E-02  0.8261313E-01
        1   -1    0    0  501    0  0.00000000000E+00  0.00000000000E+00  0.28245097637E+04  0.28245097637E+04  0.50400001928E-02 0.  1.
       -1   -1    0    0    0  501  0.00000000000E+00  0.00000000000E+00 -0.76462947748E+03  0.76462947749E+03  0.50400001928E-02 0. -1.
    10030    2    1    2    0    0  0.00000000000E+00  0.00000000000E+00  0.20598802862E+04  0.35891392412E+04  0.29391858905E+04 0.  0.
        4    1    3    3  502    0 -0.37281678970E+03 -0.64548735352E+03 -0.51664186078E+03  0.90695463362E+03  0.12699999809E+01 0. -1.
       -4    1    3    3    0  502  0.37281678970E+03  0.64548735352E+03  0.25765221470E+04  0.26821846076E+04  0.12699999809E+01 0.  1.
</event>
<event>
 5   0  0.1388724E-05  0.2754194E+04  0.7818609E-02  0.8317632E-01
       -2   -1    0    0    0  501  0.00000000000E+00  0.00000000000E+00  0.12154368468E+04  0.12154368468E+04  0.25500000920E-02 0.  1.
        2   -1    0    0  501    0  0.00000000000E+00  0.00000000000E+00 -0.15602587384E+04  0.15602587384E+04  0.25500000920E-02 0. -1.
    10030    2    1    2    0    0  0.00000000000E+00  0.00000000000E+00 -0.34482189161E+03  0.27756955852E+04  0.27541938647E+04 0.  0.
        4    1    3    3  502    0 -0.22377346692E+03 -0.13095255478E+04 -0.53781930282E+03  0.14332421080E+04  0.12699999809E+01 0.  1.
       -4    1    3    3    0  502  0.22377346692E+03  0.13095255478E+04  0.19299741121E+03  0.13424534772E+04  0.12699999809E+01 0. -1.
</event>
<event>
 5   0  0.1423692E-05  0.1558880E+04  0.7818609E-02  0.8846216E-01
        2   -1    0    0  501    0  0.00000000000E+00  0.00000000000E+00  0.12014556080E+04  0.12014556080E+04  0.25500000920E-02 0. -1.
       -2   -1    0    0    0  501  0.00000000000E+00  0.00000000000E+00 -0.50565873404E+03  0.50565873404E+03  0.25500000920E-02 0.  1.
    10030    2    1    2    0    0  0.00000000000E+00  0.00000000000E+00  0.69579687395E+03  0.17071143420E+04  0.15588797539E+04 0.  0.
        3    1    3    3  502    0 -0.65112039965E+03 -0.13507238130E+03 -0.97366189225E+02  0.67207329067E+03  0.10100000352E+00 0.  1.
       -3    1    3    3    0  502  0.65112039965E+03  0.13507238130E+03  0.79316306317E+03  0.10350410514E+04  0.10100000352E+00 0. -1.
</event>
<event>
 5   0  0.5730920E-06  0.2638310E+04  0.7818609E-02  0.8355303E-01
        1   -1    0    0  501    0  0.00000000000E+00  0.00000000000E+00  0.17579965895E+04  0.17579965895E+04  0.50400001928E-02 0. -1.
       -1   -1    0    0    0  501  0.00000000000E+00  0.00000000000E+00 -0.98985973149E+03  0.98985973151E+03  0.50400001928E-02 0.  1.
    10030    2    1    2    0    0  0.00000000000E+00  0.00000000000E+00  0.76813685796E+03  0.27478563210E+04  0.26383100895E+04 0.  0.
        1    1    3    3  502    0 -0.20705829392E+03  0.14829507934E+03 -0.96401007909E+03  0.99708575371E+03  0.50400001928E-02 0.  1.
       -1    1    3    3    0  502  0.20705829392E+03 -0.14829507934E+03  0.17321469371E+04  0.17507705673E+04  0.50400001928E-02 0. -1.
</event>
<event>
 5   0  0.5730920E-06  0.1571807E+04  0.7818609E-02  0.8838058E-01
        1   -1    0    0  501    0  0.00000000000E+00  0.00000000000E+00  0.67310760761E+03  0.67310760763E+03  0.50400001928E-02 0. -1.
       -1   -1    0    0    0  501  0.00000000000E+00  0.00000000000E+00 -0.91760085854E+03  0.91760085855E+03  0.50400001928E-02 0.  1.
    10030    2    1    2    0    0  0.00000000000E+00  0.00000000000E+00 -0.24449325093E+03  0.15907084662E+04  0.15718067549E+04 0.  0.
        1    1    3    3  502    0  0.46783803529E+02  0.44307043411E+03  0.53295212518E+03  0.69464962508E+03  0.50400001928E-02 0. -1.
       -1    1    3    3    0  502 -0.46783803529E+02 -0.44307043411E+03 -0.77744537611E+03  0.89605884110E+03  0.50400001928E-02 0.  1.
</event>
<event>
 5   0  0.5392262E-06  0.3003724E+04  0.7818609E-02  0.8242668E-01
       -1   -1    0    0    0  501  0.00000000000E+00  0.00000000000E+00  0.11090515464E+04  0.11090515464E+04  0.50400001928E-02 0.  1.
        1   -1    0    0  501    0  0.00000000000E+00  0.00000000000E+00 -0.20338003390E+04  0.20338003391E+04  0.50400001928E-02 0. -1.
    10030    2    1    2    0    0  0.00000000000E+00  0.00000000000E+00 -0.92474879264E+03  0.31428518855E+04  0.30037239628E+04 0.  0.
        2    1    3    3  502    0 -0.11922874154E+04 -0.48860377852E+03  0.34492420358E+03  0.13338874163E+04  0.25500000920E-02 0.  1.
       -2    1    3    3    0  502  0.11922874154E+04  0.48860377852E+03 -0.12696729962E+04  0.18089644691E+04  0.25500000920E-02 0. -1.
</event>
<event>
 5   0  0.5392262E-06  0.2908213E+04  0.7818609E-02  0.8270438E-01
       -1   -1    0    0    0  501  0.00000000000E+00  0.00000000000E+00  0.16599144190E+04  0.16599144190E+04  0.50400001928E-02 0. -1.
        1   -1    0    0  501    0  0.00000000000E+00  0.00000000000E+00 -0.12738161695E+04  0.12738161695E+04  0.50400001928E-02 0.  1.
    10030    2    1    2    0    0  0.00000000000E+00  0.00000000000E+00  0.38609824953E+03  0.29337305884E+04  0.29082130780E+04 0.  0.
        2    1    3    3  502    0 -0.86171477384E+03  0.16857860118E+03  0.13622941327E+04  0.16207456310E+04  0.25500000920E-02 0. -1.
       -2    1    3    3    0  502  0.86171477384E+03 -0.16857860118E+03 -0.97619588319E+03  0.13129849575E+04  0.25500000920E-02 0.  1.
</event>
<event>
 5   0  0.1523029E-05  0.2874053E+04  0.7818609E-02  0.8280640E-01
       -2   -1    0    0    0  501  0.00000000000E+00  0.00000000000E+00  0.16280907305E+04  0.16280907305E+04  0.25500000920E-02 0.  1.
        2   -1    0    0  501    0  0.00000000000E+00  0.00000000000E+00 -0.12683844296E+04  0.12683844296E+04  0.25500000920E-02 0. -1.
    10030    2    1    2    0    0  0.00000000000E+00  0.00000000000E+00  0.35970630097E+03  0.28964751601E+04  0.28740528405E+04 0.  0.
        5    1    3    3  502    0  0.70195732235E+03 -0.88261771188E+03 -0.71774951537E+03  0.13367664585E+04  0.46999998093E+01 0. -1.
       -5    1    3    3    0  502 -0.70195732235E+03  0.88261771188E+03  0.10774558163E+04  0.15597087016E+04  0.46999998093E+01 0.  1.
</event>
<event>
 5   0  0.7032692E-06  0.1579993E+04  0.7818609E-02  0.8832934E-01
       -1   -1    0    0    0  501  0.00000000000E+00  0.00000000000E+00  0.86851137000E+03  0.86851137001E+03  0.50400001928E-02 0.  1.
        1   -1    0    0  501    0  0.00000000000E+00  0.00000000000E+00 -0.71857992622E+03  0.71857992624E+03  0.50400001928E-02 0. -1.
    10030    2    1    2    0    0  0.00000000000E+00  0.00000000000E+00  0.14993144377E+03  0.15870912963E+04  0.15799934635E+04 0.  0.
        5    1    3    3  502    0  0.77768533303E+03 -0.11068918568E+03  0.15916454949E+03  0.80149985455E+03  0.46999998093E+01 0.  1.
       -5    1    3    3    0  502 -0.77768533303E+03  0.11068918568E+03 -0.92331057161E+01  0.78559144170E+03  0.46999998093E+01 0. -1.
</event>
<event>
 5   0  0.5522695E-06  0.1533836E+04  0.7818609E-02  0.8862259E-01
        1   -1    0    0  501    0  0.00000000000E+00  0.00000000000E+00  0.96533065420E+03  0.96533065422E+03  0.50400001928E-02 0.  1.
       -1   -1    0    0    0  501  0.00000000000E+00  0.00000000000E+00 -0.60928669863E+03  0.60928669866E+03  0.50400001928E-02 0. -1.
    10030    2    1    2    0    0  0.00000000000E+00  0.00000000000E+00  0.35604395557E+03  0.15746173529E+04  0.15338358809E+04 0.  0.
        3    1    3    3  502    0 -0.23036380055E+03  0.37401593886E+03 -0.46734813126E+03  0.64138107948E+03  0.10100000352E+00 0. -1.
       -3    1    3    3    0  502  0.23036380055E+03 -0.37401593886E+03  0.82339208682E+03  0.93323627339E+03  0.10100000352E+00 0.  1.
</event>
<event>
 5   0  0.7032692E-06  0.2985025E+04  0.7818609E-02  0.8248020E-01
        1   -1    0    0  501    0  0.00000000000E+00  0.00000000000E+00  0.21743198670E+04  0.21743198670E+04  0.50400001928E-02 0.  1.
       -1   -1    0    0    0  501  0.00000000000E+00  0.00000000000E+00 -0.10245012729E+04  0.10245012729E+04  0.50400001928E-02 0. -1.
    10030    2    1    2    0    0  0.00000000000E+00  0.00000000000E+00  0.11498185941E+04  0.31988211400E+04  0.29850249389E+04 0.  0.
        5    1    3    3  502    0  0.13227979967E+04  0.42772304790E+03 -0.69630373749E+01  0.13902561346E+04  0.46999998093E+01 0. -1.
       -5    1    3    3    0  502 -0.13227979967E+04 -0.42772304790E+03  0.11567816315E+04  0.18085650054E+04  0.46999998093E+01 0.  1.
</event>
<event>
 5   0  0.5329891E-06  0.2931678E+04  0.7818609E-02  0.8263514E-01
        1   -1    0    0  501    0  0.00000000000E+00  0.00000000000E+00  0.23297937162E+04  0.23297937162E+04  0.50400001928E-02 0.  1.
       -1   -1    0    0    0  501  0.00000000000E+00  0.00000000000E+00 -0.92226366475E+03  0.92226366476E+03  0.50400001928E-02 0. -1.
    10030    2    1    2    0    0  0.00000000000E+00  0.00000000000E+00  0.14075300514E+04  0.32520573810E+04  0.29316780798E+04 0.  0.
        4    1    3    3  502    0 -0.40883113220E+03  0.27714737311E+03 -0.82717616345E+03  0.96341869369E+03  0.12699999809E+01 0. -1.
       -4    1    3    3    0  502  0.40883113220E+03 -0.27714737311E+03  0.22347062149E+04  0.22886386873E+04  0.12699999809E+01 0.  1.
</event>
<event>
 5   0  0.1345931E-05  0.2964248E+04  0.7818609E-02  0.8254014E-01
        2   -1    0    0  501    0  0.00000000000E+00  0.00000000000E+00  0.12590336554E+04  0.12590336554E+04  0.25500000920E-02 0.  1.
       -2   -1    0    0    0  501  0.00000000000E+00  0.00000000000E+00 -0.17447442067E+04  0.17447442067E+04  0.25500000920E-02 0. -1.
    10030    2    1    2    0    0  0.00000000000E+00  0.00000000000E+00 -0.48571055133E+03  0.30037778621E+04  0.29642480843E+04 0.  0.
        2    1    3    3  502    0  0.27550620623E+03 -0.46569497817E+03 -0.16410806468E+04  0.17279818204E+04  0.25500000920E-02 0. -1.
       -2    1    3    3    0  502 -0.27550620623E+03  0.46569497817E+03  0.11553700955E+04  0.12757960417E+04  0.25500000920E-02 0.  1.
</event>
<event>
 5   0  0.1480547E-05  0.2948578E+04  0.7818609E-02  0.8258569E-01
        2   -1    0    0  501    0  0.00000000000E+00  0.00000000000E+00  0.27619331100E+04  0.27619331100E+04  0.25500000920E-02 0.  1.
       -2   -1    0    0    0  501  0.00000000000E+00  0.00000000000E+00 -0.78695923307E+03  0.78695923308E+03  0.25500000920E-02 0. -1.
    10030    2    1    2    0    0  0.00000000000E+00  0.00000000000E+00  0.19749738769E+04  0.35488923431E+04  0.29485784792E+04 0.  0.
        1    1    3    3  502    0 -0.29388377222E+03 -0.54046756532E+03  0.26000589679E+04  0.26718494526E+04  0.50400001928E-02 0.  1.
       -1    1    3    3    0  502  0.29388377222E+03  0.54046756532E+03 -0.62508509098E+03  0.87704289048E+03  0.50400001928E-02 0. -1.
</event>
<event>
 5   0  0.4806125E-06  0.2248380E+04  0.7818609E-02  0.8498557E-01
        3   -1    0    0  501    0  0.00000000000E+00  0.00000000000E+00  0.71790200173E+03  0.71790200883E+03  0.10100000352E+00 0.  1.
       -3   -1    0    0    0  501  0.00000000000E+00  0.00000000000E+00 -0.17604118148E+04  0.17604118177E+04  0.10100000352E+00 0. -1.
    10030    2    1    2    0    0  0.00000000000E+00  0.00000000000E+00 -0.10425098130E+04  0.24783138265E+04  0.22483800196E+04 0.  0.
        1    1    3    3  502    0  0.25855643413E+03  0.14409573877E+03 -0.17166872047E+04  0.17420189352E+04  0.50400001928E-02 0. -1.
       -1    1    3    3    0  502 -0.25855643413E+03 -0.14409573877E+03  0.67417739167E+03  0.73629489135E+03  0.50400001928E-02 0.  1.
</event>
<event>
 5   0  0.5392262E-06  0.2175545E+04  0.7818609E-02  0.8528676E-01
        1   -1    0    0  501    0  0.00000000000E+00  0.00000000000E+00  0.15852754822E+04  0.15852754822E+04  0.50400001928E-02 0.  1.
       -1   -1    0    0    0  501  0.00000000000E+00  0.00000000000E+00 -0.74639949077E+03  0.74639949079E+03  0.50400001928E-02 0. -1.
    10030    2    1    2    0    0  0.00000000000E+00  0.00000000000E+00  0.83887599145E+03  0.23316749730E+04  0.21755448170E+04 0.  0.
        2    1    3    3  502    0 -0.76707165187E+03  0.59505619241E+03 -0.10644649117E+03  0.97663793021E+03  0.25500000920E-02 0. -1.
       -2    1    3    3    0  502  0.76707165187E+03 -0.59505619241E+03  0.94532248262E+03  0.13550370428E+04  0.25500000920E-02 0.  1.
</event>
<event>
 5   0  0.5522695E-06  0.1903820E+04  0.7818609E-02  0.8652957E-01
        1   -1    0    0  501    0  0.00000000000E+00  0.00000000000E+00  0.92430291635E+03  0.92430291637E+03  0.50400001928E-02 0.  1.
       -1   -1    0    0    0  501  0.00000000000E+00  0.00000000000E+00 -0.98034156034E+03  0.98034156035E+03  0.50400001928E-02 0. -1.
    10030    2    1    2    0    0  0.00000000000E+00  0.00000000000E+00 -0.56038643983E+02  0.19046444767E+04  0.19038199109E+04 0.  0.
        3    1    3    3  502    0  0.43048289835E+03 -0.82695401340E+03 -0.22036305873E+03  0.95798139539E+03  0.10100000352E+00 0. -1.
       -3    1    3    3    0  502 -0.43048289835E+03  0.82695401340E+03  0.16432441475E+03  0.94666308132E+03  0.10100000352E+00 0.  1.
</event>
<event>
 5   0  0.1345931E-05  0.2976339E+04  0.7818609E-02  0.8250520E-01
        2   -1    0    0  501    0  0.00000000000E+00  0.00000000000E+00  0.21362935533E+04  0.21362935533E+04  0.25500000920E-02 0. -1.
       -2   -1    0    0    0  501  0.00000000000E+00  0.00000000000E+00 -0.10366777382E+04  0.10366777382E+04  0.25500000920E-02 0.  1.
    10030    2    1    2    0    0  0.00000000000E+00  0.00000000000E+00  0.10996158151E+04  0.31729712915E+04  0.29763386696E+04 0.  0.
        2    1    3    3  502    0 -0.88934479901E+02  0.89678040823E+03 -0.71271385617E+03  0.11489497304E+04  0.25500000920E-02 0.  1.
       -2    1    3    3    0  502  0.88934479901E+02 -0.89678040823E+03  0.18123296713E+04  0.20240215611E+04  0.25500000920E-02 0. -1.
</event>
<event>
 5   0  0.1480547E-05  0.2924901E+04  0.7818609E-02  0.8265507E-01
        2   -1    0    0  501    0  0.00000000000E+00  0.00000000000E+00  0.17515422700E+04  0.17515422700E+04  0.25500000920E-02 0.  1.
       -2   -1    0    0    0  501  0.00000000000E+00  0.00000000000E+00 -0.12210732438E+04  0.12210732438E+04  0.25500000920E-02 0. -1.
    10030    2    1    2    0    0  0.00000000000E+00  0.00000000000E+00  0.53046902624E+03  0.29726155138E+04  0.29249009565E+04 0.  0.
        1    1    3    3  502    0 -0.76878804492E+03 -0.22609495801E+02 -0.99892806659E+03  0.12607154832E+04  0.50400001928E-02 0. -1.
       -1    1    3    3    0  502  0.76878804492E+03  0.22609495801E+02  0.15293970928E+04  0.17119000306E+04  0.50400001928E-02 0.  1.
</event>
<event>
 5   0  0.5730920E-06  0.2973998E+04  0.7818609E-02  0.8251195E-01
        1   -1    0    0  501    0  0.00000000000E+00  0.00000000000E+00  0.20398616283E+04  0.20398616283E+04  0.50400001928E-02 0. -1.
       -1   -1    0    0    0  501  0.00000000000E+00  0.00000000000E+00 -0.10839786227E+04  0.10839786227E+04  0.50400001928E-02 0.  1.
    10030    2    1    2    0    0  0.00000000000E+00  0.00000000000E+00  0.95588300559E+03  0.31238402510E+04  0.29739982504E+04 0.  0.
        1    1    3    3  502    0 -0.14577334186E+04  0.18709541103E+03  0.71555820999E+03  0.16346299167E+04  0.50400001928E-02 0. -1.
       -1    1    3    3    0  502  0.14577334186E+04 -0.18709541103E+03  0.24032479560E+03  0.14892103343E+04  0.50400001928E-02 0.  1.
</event>
<event>
 5   0  0.1345931E-05  0.1637076E+04  0.7818609E-02  0.8798089E-01
        2   -1    0    0  501    0  0.00000000000E+00  0.00000000000E+00  0.12611896957E+04  0.12611896957E+04  0.25500000920E-02 0. -1.
       -2   -1    0    0    0  501  0.00000000000E+00  0.00000000000E+00 -0.53124797794E+03  0.53124797794E+03  0.25500000920E-02 0.  1.
    10030    2    1    2    0    0  0.00000000000E+00  0.00000000000E+00  0.72994171772E+03  0.17924376736E+04  0.16370760222E+04 0.  0.
        2    1    3    3  502    0 -0.17824392120E+03  0.39348775055E+03 -0.39628206680E+03  0.58621069740E+03  0.25500000920E-02 0.  1.
       -2    1    3    3    0  502  0.17824392120E+03 -0.39348775055E+03  0.11262237845E+04  0.12062269762E+04  0.25500000920E-02 0. -1.
</event>
<event>
 5   0  0.5329891E-06  0.2934950E+04  0.7818609E-02  0.8262554E-01
        1   -1    0    0  501    0  0.00000000000E+00  0.00000000000E+00  0.14672030067E+04  0.14672030067E+04  0.50400001928E-02 0. -1.
       -1   -1    0    0    0  501  0.00000000000E+00  0.00000000000E+00 -0.14677470248E+04  0.14677470248E+04  0.50400001928E-02 0.  1.
    10030    2    1    2    0    0  0.00000000000E+00  0.00000000000E+00 -0.54401814679E+00  0.29349500315E+04  0.29349499811E+04 0.  0.
        4    1    3    3  502    0 -0.31632045805E+03 -0.35274659470E+03 -0.13891537567E+04  0.14677324569E+04  0.12699999809E+01 0.  1.
       -4    1    3    3    0  502  0.31632045805E+03  0.35274659470E+03  0.13886097386E+04  0.14672175746E+04  0.12699999809E+01 0. -1.
</event>
<event>
 5   0  0.5522695E-06  0.3012355E+04  0.7818609E-02  0.8240212E-01
       -1   -1    0    0    0  501  0.00000000000E+00  0.00000000000E+00  0.12452946627E+04  0.12452946627E+04  0.50400001928E-02 0. -1.
        1   -1    0    0  501    0  0.00000000000E+00  0.00000000000E+00 -0.18217142537E+04  0.18217142537E+04  0.50400001928E-02 0.  1.
    10030    2    1    2    0    0  0.00000000000E+00  0.00000000000E+00 -0.57641959099E+03  0.30670089164E+04  0.30123552493E+04 0.  0.
        3    1    3    3  502    0 -0.96767745715E+03 -0.97621740994E+03 -0.91515036009E+03  0.16513328811E+04  0.10100000352E+00 0.  1.
       -3    1    3    3    0  502  0.96767745715E+03  0.97621740994E+03  0.33873076911E+03  0.14156760352E+04  0.10100000352E+00 0. -1.
</event>
<event>
 5   0  0.1523029E-05  0.3405995E+04  0.7818609E-02  0.8136437E-01
       -2   -1    0    0    0  501  0.00000000000E+00  0.00000000000E+00  0.16364917472E+04  0.16364917472E+04  0.25500000920E-02 0. -1.
        2   -1    0    0  501    0  0.00000000000E+00  0.00000000000E+00 -0.17722059418E+04  0.17722059418E+04  0.25500000920E-02 0.  1.
    10030    2    1    2    0    0  0.00000000000E+00  0.00000000000E+00 -0.13571419454E+03  0.34086976890E+04  0.34059949490E+04 0.  0.
        5    1    3    3  502    0 -0.11501124696E+04  0.86514457851E+03  0.84332925635E+03  0.16680707896E+04  0.46999998093E+01 0. -1.
       -5    1    3    3    0  502  0.11501124696E+04 -0.86514457851E+03 -0.97904345089E+03  0.17406268995E+04  0.46999998093E+01 0.  1.
</event>
<event>
 5   0  0.1345931E-05  0.3029987E+04  0.7818609E-02  0.8235219E-01
       -2   -1    0    0    0  501  0.00000000000E+00  0.00000000000E+00  0.25628252683E+04  0.25628252683E+04  0.25500000920E-02 0. -1.
        2   -1    0    0  501    0  0.00000000000E+00  0.00000000000E+00 -0.89557603907E+03  0.89557603907E+03  0.25500000920E-02 0.  1.
    10030    2    1    2    0    0  0.00000000000E+00  0.00000000000E+00  0.16672492292E+04  0.34584013074E+04  0.30299867344E+04 0.  0.
        2    1    3    3  502    0 -0.65200734243E+03 -0.10718750736E+04 -0.13566829921E+03  0.12619174439E+04  0.25500000920E-02 0.  1.
       -2    1    3    3    0  502  0.65200734243E+03  0.10718750736E+04  0.18029175284E+04  0.21964838634E+04  0.25500000920E-02 0. -1.
</event>
<event>
 5   0  0.4806125E-06  0.2727989E+04  0.7818609E-02  0.8325980E-01
        3   -1    0    0  501    0  0.00000000000E+00  0.00000000000E+00  0.13719434272E+04  0.13719434309E+04  0.10100000352E+00 0.  1.
       -3   -1    0    0    0  501  0.00000000000E+00  0.00000000000E+00 -0.13560917627E+04  0.13560917664E+04  0.10100000352E+00 0. -1.
    10030    2    1    2    0    0  0.00000000000E+00  0.00000000000E+00  0.15851664537E+02  0.27280351973E+04  0.27279891427E+04 0.  0.
        4    1    3    3  502    0 -0.13462329767E+04 -0.18635354690E+03  0.12372375303E+03  0.13646904601E+04  0.12699999809E+01 0. -1.
       -4    1    3    3    0  502  0.13462329767E+04  0.18635354690E+03 -0.10787208850E+03  0.13633447372E+04  0.12699999809E+01 0.  1.
</event>
<event>
 5   0  0.5392262E-06  0.3036254E+04  0.7818609E-02  0.8233453E-01
        1   -1    0    0  501    0  0.00000000000E+00  0.00000000000E+00  0.13602044095E+04  0.13602044095E+04  0.50400001928E-02 0. -1.
       -1   -1    0    0    0  501  0.00000000000E+00  0.00000000000E+00 -0.16943847527E+04  0.16943847527E+04  0.50400001928E-02 0.  1.
    10030    2    1    2    0    0  0.00000000000E+00  0.00000000000E+00 -0.33418034328E+03  0.30545891622E+04  0.30362540157E+04 0.  0.
        2    1    3    3  502    0  0.12077392931E+04  0.91960573940E+03 -0.14695189995E+03  0.15250913995E+04  0.25500000920E-02 0.  1.
       -2    1    3    3    0  502 -0.12077392931E+04 -0.91960573940E+03 -0.18722844333E+03  0.15294977627E+04  0.25500000920E-02 0. -1.
</event>
<event>
 5   0  0.5730920E-06  0.2974899E+04  0.7818609E-02  0.8250935E-01
        1   -1    0    0  501    0  0.00000000000E+00  0.00000000000E+00  0.18620375195E+04  0.18620375195E+04  0.50400001928E-02 0. -1.
       -1   -1    0    0    0  501  0.00000000000E+00  0.00000000000E+00 -0.11882180150E+04  0.11882180150E+04  0.50400001928E-02 0.  1.
    10030    2    1    2    0    0  0.00000000000E+00  0.00000000000E+00  0.67381950444E+03  0.30502555345E+04  0.29748993430E+04 0.  0.
        1    1    3    3  502    0 -0.23468636657E+03  0.12705604109E+04  0.10925339885E+04  0.16920496342E+04  0.50400001928E-02 0. -1.
       -1    1    3    3    0  502  0.23468636657E+03 -0.12705604109E+04 -0.41871448410E+03  0.13582059003E+04  0.50400001928E-02 0.  1.
</event>
<event>
 5   0  0.1345931E-05  0.2204556E+04  0.7818609E-02  0.8516534E-01
        2   -1    0    0  501    0  0.00000000000E+00  0.00000000000E+00  0.12405129323E+04  0.12405129323E+04  0.25500000920E-02 0. -1.
       -2   -1    0    0    0  501  0.00000000000E+00  0.00000000000E+00 -0.97944748649E+03  0.97944748649E+03  0.25500000920E-02 0.  1.
    10030    2    1    2    0    0  0.00000000000E+00  0.00000000000E+00  0.26106544577E+03  0.22199604188E+04  0.22045564393E+04 0.  0.
        2    1    3    3  502    0 -0.47296365245E+03 -0.74270088032E+03 -0.53721307038E+03  0.10314538754E+04  0.25500000920E-02 0.  1.
       -2    1    3    3    0  502  0.47296365245E+03  0.74270088032E+03  0.79827851615E+03  0.11885065433E+04  0.25500000920E-02 0. -1.
</event>
<event>
 5   0  0.5730920E-06  0.1930134E+04  0.7818609E-02  0.8640000E-01
        1   -1    0    0  501    0  0.00000000000E+00  0.00000000000E+00  0.83638693312E+03  0.83638693314E+03  0.50400001928E-02 0.  1.
       -1   -1    0    0    0  501  0.00000000000E+00  0.00000000000E+00 -0.11135450395E+04  0.11135450395E+04  0.50400001928E-02 0. -1.
    10030    2    1    2    0    0  0.00000000000E+00  0.00000000000E+00 -0.27715810637E+03  0.19499319726E+04  0.19301342135E+04 0.  0.
        1    1    3    3  502    0  0.27488638978E+03  0.43275558349E+03  0.68743492921E+03  0.85755857190E+03  0.50400001928E-02 0.  1.
       -1    1    3    3    0  502 -0.27488638978E+03 -0.43275558349E+03 -0.96459303558E+03  0.10923734007E+04  0.50400001928E-02 0. -1.
</event>
<event>
 5   0  0.1523029E-05  0.3029289E+04  0.7818609E-02  0.8235416E-01
       -2   -1    0    0    0  501  0.00000000000E+00  0.00000000000E+00  0.80054133450E+03  0.80054133450E+03  0.25500000920E-02 0. -1.
        2   -1    0    0  501    0  0.00000000000E+00  0.00000000000E+00 -0.28657451650E+04  0.28657451650E+04  0.25500000920E-02 0.  1.
    10030    2    1    2    0    0  0.00000000000E+00  0.00000000000E+00 -0.20652038305E+04  0.36662864995E+04  0.30292886681E+04 0.  0.
        5    1    3    3  502    0  0.10744426073E+04 -0.90605963607E+03 -0.34929813155E+03  0.14482410901E+04  0.46999998093E+01 0. -1.
       -5    1    3    3    0  502 -0.10744426073E+04  0.90605963607E+03 -0.17159056989E+04  0.22180454094E+04  0.46999998093E+01 0.  1.
</event>
<event>
 5   0  0.5522695E-06  0.1679994E+04  0.7818609E-02  0.8772857E-01
       -1   -1    0    0    0  501  0.00000000000E+00  0.00000000000E+00  0.46581161573E+03  0.46581161576E+03  0.50400001928E-02 0. -1.
        1   -1    0    0  501    0  0.00000000000E+00  0.00000000000E+00 -0.15147649507E+04  0.15147649507E+04  0.50400001928E-02 0.  1.
    10030    2    1    2    0    0  0.00000000000E+00  0.00000000000E+00 -0.10489533350E+04  0.19805765665E+04  0.16799941776E+04 0.  0.
        3    1    3    3  502    0 -0.46726828012E+03 -0.64743037929E+03 -0.21685035666E+03  0.82736317843E+03  0.10100000352E+00 0. -1.
       -3    1    3    3    0  502  0.46726828012E+03  0.64743037929E+03 -0.83210297834E+03  0.11532133881E+04  0.10100000352E+00 0.  1.
</event>
<event>
 5   0  0.4806125E-06  0.3202742E+04  0.7818609E-02  0.8188093E-01
        3   -1    0    0  501    0  0.00000000000E+00  0.00000000000E+00  0.12718101432E+04  0.12718101472E+04  0.10100000352E+00 0. -1.
       -3   -1    0    0    0  501  0.00000000000E+00  0.00000000000E+00 -0.20163300840E+04  0.20163300865E+04  0.10100000352E+00 0.  1.
    10030    2    1    2    0    0  0.00000000000E+00  0.00000000000E+00 -0.74451994082E+03  0.32881402337E+04  0.32027419900E+04 0.  0.
        5    1    3    3  502    0 -0.44928547065E+03  0.76234331693E+03  0.99799711534E+03  0.13338084942E+04  0.46999998093E+01 0. -1.
       -5    1    3    3    0  502  0.44928547065E+03 -0.76234331693E+03 -0.17425170562E+04  0.19543317395E+04  0.46999998093E+01 0.  1.
</event>
<event>
 5   0  0.7032692E-06  0.3151033E+04  0.7818609E-02  0.8201870E-01
       -1   -1    0    0    0  501  0.00000000000E+00  0.00000000000E+00  0.12892593966E+04  0.12892593966E+04  0.50400001928E-02 0. -1.
        1   -1    0    0  501    0  0.00000000000E+00  0.00000000000E+00 -0.19253317281E+04  0.19253317281E+04  0.50400001928E-02 0.  1.
    10030    2    1    2    0    0  0.00000000000E+00  0.00000000000E+00 -0.63607233147E+03  0.32145911247E+04  0.31510328605E+04 0.  0.
        5    1    3    3  502    0  0.76231499950E+03 -0.86827297838E+02 -0.17218616549E+04  0.18850710297E+04  0.46999998093E+01 0.  1.
       -5    1    3    3    0  502 -0.76231499950E+03  0.86827297838E+02  0.10857893235E+04  0.13295200950E+04  0.46999998093E+01 0. -1.
</event>
<event>
 5   0  0.1345931E-05  0.2944769E+04  0.7818609E-02  0.8259681E-01
        2   -1    0    0  501    0  0.00000000000E+00  0.00000000000E+00  0.21209141480E+04  0.21209141480E+04  0.25500000920E-02 0. -1.
       -2   -1    0    0    0  501  0.00000000000E+00  0.00000000000E+00 -0.10221614881E+04  0.10221614881E+04  0.25500000920E-02 0.  1.
    10030    2    1    2    0    0  0.00000000000E+00  0.00000000000E+00  0.10987526599E+04  0.31430756361E+04  0.29447694386E+04 0.  0.
        2    1    3    3  502    0 -0.49562465765E+03  0.36606554155E+02 -0.92993517416E+03  0.10544018538E+04  0.25500000920E-02 0.  1.
       -2    1    3    3    0  502  0.49562465765E+03 -0.36606554155E+02  0.20286878340E+04  0.20886737823E+04  0.25500000920E-02 0. -1.
</event>
<event>
 5   0  0.5730920E-06  0.2901901E+04  0.7818609E-02  0.8272312E-01
        1   -1    0    0  501    0  0.00000000000E+00  0.00000000000E+00  0.18483737006E+04  0.18483737006E+04  0.50400001928E-02 0. -1.
       -1   -1    0    0    0  501  0.00000000000E+00  0.00000000000E+00 -0.11389778167E+04  0.11389778167E+04  0.50400001928E-02 0.  1.
    10030    2    1    2    0    0  0.00000000000E+00  0.00000000000E+00  0.70939588390E+03  0.29873515174E+04  0.29019005097E+04 0.  0.
        1    1    3    3  502    0  0.13636262825E+04 -0.45033478193E+03  0.14128051409E+03  0.14429962709E+04  0.50400001928E-02 0.  1.
       -1    1    3    3    0  502 -0.13636262825E+04  0.45033478193E+03  0.56811536981E+03  0.15443552465E+04  0.50400001928E-02 0. -1.
</event>
<event>
 5   0  0.1345931E-05  0.2467024E+04  0.7818609E-02  0.8414828E-01
       -2   -1    0    0    0  501  0.00000000000E+00  0.00000000000E+00  0.82627513178E+03  0.82627513178E+03  0.25500000920E-02 0. -1.
        2   -1    0    0  501    0  0.00000000000E+00  0.00000000000E+00 -0.18414589232E+04  0.18414589232E+04  0.25500000920E-02 0.  1.
    10030    2    1    2    0    0  0.00000000000E+00  0.00000000000E+00 -0.10151837915E+04  0.26677340550E+04  0.24670238868E+04 0.  0.
        2    1    3    3  502    0  0.93283869674E+02 -0.12043125757E+04 -0.23729357227E+03  0.12310072704E+04  0.25500000920E-02 0. -1.
       -2    1    3    3    0  502 -0.93283869674E+02  0.12043125757E+04 -0.77789021919E+03  0.14367267846E+04  0.25500000920E-02 0.  1.
</event>
<event>
 5   0  0.5392262E-06  0.2792566E+04  0.7818609E-02  0.8305580E-01
        1   -1    0    0  501    0  0.00000000000E+00  0.00000000000E+00  0.21093634156E+04  0.21093634156E+04  0.50400001928E-02 0.  1.
       -1   -1    0    0    0  501  0.00000000000E+00  0.00000000000E+00 -0.92426286438E+03  0.92426286439E+03  0.50400001928E-02 0. -1.
    10030    2    1    2    0    0  0.00000000000E+00  0.00000000000E+00  0.11851005512E+04  0.30336262800E+04  0.27925660404E+04 0.  0.
        2    1    3    3  502    0  0.78419206985E+03  0.10266159986E+04  0.11681048795E+04  0.17416562866E+04  0.25500000920E-02 0.  1.
       -2    1    3    3    0  502 -0.78419206985E+03 -0.10266159986E+04  0.16995671685E+02  0.12919699934E+04  0.25500000920E-02 0. -1.
</event>
<event>
 5   0  0.5392262E-06  0.2961140E+04  0.7818609E-02  0.8254915E-01
        1   -1    0    0  501    0  0.00000000000E+00  0.00000000000E+00  0.11214293155E+04  0.11214293155E+04  0.50400001928E-02 0.  1.
       -1   -1    0    0    0  501  0.00000000000E+00  0.00000000000E+00 -0.19547270039E+04  0.19547270039E+04  0.50400001928E-02 0. -1.
    10030    2    1    2    0    0  0.00000000000E+00  0.00000000000E+00 -0.83329768832E+03  0.30761563194E+04  0.29611404330E+04 0.  0.
        2    1    3    3  502    0 -0.28476946580E+03 -0.87952923806E+03 -0.16180381558E+04  0.18635216132E+04  0.25500000920E-02 0. -1.
       -2    1    3    3    0  502  0.28476946580E+03  0.87952923806E+03  0.78474046751E+03  0.12126347062E+04  0.25500000920E-02 0.  1.
</event>
<event>
 5   0  0.5329891E-06  0.2978338E+04  0.7818609E-02  0.8249944E-01
        1   -1    0    0  501    0  0.00000000000E+00  0.00000000000E+00  0.30618005420E+04  0.30618005420E+04  0.50400001928E-02 0.  1.
       -1   -1    0    0    0  501  0.00000000000E+00  0.00000000000E+00 -0.72428753533E+03  0.72428753534E+03  0.50400001928E-02 0. -1.
    10030    2    1    2    0    0  0.00000000000E+00  0.00000000000E+00  0.23375130067E+04  0.37860880774E+04  0.29783377702E+04 0.  0.
        4    1    3    3  502    0 -0.71167912510E+03 -0.51957960097E+03 -0.35731437310E+03  0.95085504309E+03  0.12699999809E+01 0. -1.
       -4    1    3    3    0  502  0.71167912510E+03  0.51957960097E+03  0.26948273798E+04  0.28352330343E+04  0.12699999809E+01 0.  1.
</event>
<event>
 5   0  0.5329891E-06  0.2818683E+04  0.7818609E-02  0.8297491E-01
       -1   -1    0    0    0  501  0.00000000000E+00  0.00000000000E+00  0.11492726937E+04  0.11492726937E+04  0.50400001928E-02 0.  1.
        1   -1    0    0  501    0  0.00000000000E+00  0.00000000000E+00 -0.17282611438E+04  0.17282611438E+04  0.50400001928E-02 0. -1.
    10030    2    1    2    0    0  0.00000000000E+00  0.00000000000E+00 -0.57898845006E+03  0.28775338375E+04  0.28186829124E+04 0.  0.
        4    1    3    3  502    0  0.12180358297E+03  0.15981165431E+03  0.11345735687E+04  0.11522303040E+04  0.12699999809E+01 0.  1.
       -4    1    3    3    0  502 -0.12180358297E+03 -0.15981165431E+03 -0.17135620188E+04  0.17253035335E+04  0.12699999809E+01 0. -1.
</event>
<event>
 5   0  0.7032692E-06  0.1910978E+04  0.7818609E-02  0.8649411E-01
        1   -1    0    0  501    0  0.00000000000E+00  0.00000000000E+00  0.96421945587E+03  0.96421945588E+03  0.50400001928E-02 0. -1.
       -1   -1    0    0    0  501  0.00000000000E+00  0.00000000000E+00 -0.94683741724E+03  0.94683741725E+03  0.50400001928E-02 0.  1.
    10030    2    1    2    0    0  0.00000000000E+00  0.00000000000E+00  0.17382038628E+02  0.19110568731E+04  0.19109778222E+04 0.  0.
        5    1    3    3  502    0  0.25197251201E+03 -0.80940913643E+02  0.92682234328E+03  0.96387931003E+03  0.46999998093E+01 0. -1.
       -5    1    3    3    0  502 -0.25197251201E+03  0.80940913643E+02 -0.90944030465E+03  0.94717756310E+03  0.46999998093E+01 0.  1.
</event>
<event>
 5   0  0.5522695E-06  0.3181193E+04  0.7818609E-02  0.8193802E-01
       -1   -1    0    0    0  501  0.00000000000E+00  0.00000000000E+00  0.87473681485E+03  0.87473681487E+03  0.50400001928E-02 0. -1.
        1   -1    0    0  501    0  0.00000000000E+00  0.00000000000E+00 -0.28922945603E+04  0.28922945603E+04  0.50400001928E-02 0.  1.
    10030    2    1    2    0    0  0.00000000000E+00  0.00000000000E+00 -0.20175577454E+04  0.37670313751E+04  0.31811925634E+04 0.  0.
        3    1    3    3  502    0 -0.48043868956E+03  0.24305828837E+03  0.76354372115E+03  0.93428993909E+03  0.10100000352E+00 0. -1.
       -3    1    3    3    0  502  0.48043868956E+03 -0.24305828837E+03 -0.27811014666E+04  0.28327414361E+04  0.10100000352E+00 0.  1.
</event>
<event>
 5   0  0.1523029E-05  0.2951256E+04  0.7818609E-02  0.8257789E-01
        2   -1    0    0  501    0  0.00000000000E+00  0.00000000000E+00  0.20393380883E+04  0.20393380883E+04  0.25500000920E-02 0. -1.
       -2   -1    0    0    0  501  0.00000000000E+00  0.00000000000E+00 -0.10677374510E+04  0.10677374510E+04  0.25500000920E-02 0.  1.
    10030    2    1    2    0    0  0.00000000000E+00  0.00000000000E+00  0.97160063732E+03  0.31070755394E+04  0.29512557681E+04 0.  0.
        5    1    3    3  502    0 -0.34652852733E+03  0.32184028681E+03  0.19573813051E+04  0.20137097244E+04  0.46999998093E+01 0. -1.
       -5    1    3    3    0  502  0.34652852733E+03 -0.32184028681E+03 -0.98578066776E+03  0.10933658150E+04  0.46999998093E+01 0.  1.
</event>
<event>
 5   0  0.7032692E-06  0.3045871E+04  0.7818609E-02  0.8230752E-01
        1   -1    0    0  501    0  0.00000000000E+00  0.00000000000E+00  0.17280784219E+04  0.17280784219E+04  0.50400001928E-02 0.  1.
       -1   -1    0    0    0  501  0.00000000000E+00  0.00000000000E+00 -0.13421450435E+04  0.13421450436E+04  0.50400001928E-02 0. -1.
    10030    2    1    2    0    0  0.00000000000E+00  0.00000000000E+00  0.38593337833E+03  0.30702234654E+04  0.30458705743E+04 0.  0.
        5    1    3    3  502    0 -0.34784387934E+03 -0.11101151338E+04 -0.79772346866E+03  0.14105799507E+04  0.46999998093E+01 0. -1.
       -5    1    3    3    0  502  0.34784387934E+03  0.11101151338E+04  0.11836568470E+04  0.16596435148E+04  0.46999998093E+01 0.  1.
</event>
<event>
 5   0  0.1388724E-05  0.3024769E+04  0.7818609E-02  0.8236693E-01
       -2   -1    0    0    0  501  0.00000000000E+00  0.00000000000E+00  0.10532135422E+04  0.10532135422E+04  0.25500000920E-02 0. -1.
        2   -1    0    0  501    0  0.00000000000E+00  0.00000000000E+00 -0.21717415144E+04  0.21717415144E+04  0.25500000920E-02 0.  1.
    10030    2    1    2    0    0  0.00000000000E+00  0.00000000000E+00 -0.11185279723E+04  0.32249550566E+04  0.30247694610E+04 0.  0.
        4    1    3    3  502    0 -0.12184837138E+04 -0.85078158889E+03 -0.26002162214E+03  0.15086897394E+04  0.12699999809E+01 0. -1.
       -4    1    3    3    0  502  0.12184837138E+04  0.85078158889E+03 -0.85850635013E+03  0.17162653172E+04  0.12699999809E+01 0.  1.
</event>
<event>
 5   0  0.5522695E-06  0.1785953E+04  0.7818609E-02  0.8713806E-01
        1   -1    0    0  501    0  0.00000000000E+00  0.00000000000E+00  0.20186746503E+04  0.20186746503E+04  0.50400001928E-02 0. -1.
       -1   -1    0    0    0  501  0.00000000000E+00  0.00000000000E+00 -0.39501491534E+03  0.39501491537E+03  0.50400001928E-02 0.  1.
    10030    2    1    2    0    0  0.00000000000E+00  0.00000000000E+00  0.16236597350E+04  0.24136895657E+04  0.17859525146E+04 0.  0.
        3    1    3    3  502    0  0.16622268337E+03  0.52737990850E+03 -0.13579886176E+03  0.56938641485E+03  0.10100000352E+00 0.  1.
       -3    1    3    3    0  502 -0.16622268337E+03 -0.52737990850E+03  0.17594585968E+04  0.18443031509E+04  0.10100000352E+00 0. -1.
</event>
<event>
 5   0  0.5392262E-06  0.2996273E+04  0.7818609E-02  0.8244796E-01
       -1   -1    0    0    0  501  0.00000000000E+00  0.00000000000E+00  0.85529183144E+03  0.85529183146E+03  0.50400001928E-02 0.  1.
        1   -1    0    0  501    0  0.00000000000E+00  0.00000000000E+00 -0.26241484963E+04  0.26241484963E+04  0.50400001928E-02 0. -1.
    10030    2    1    2    0    0  0.00000000000E+00  0.00000000000E+00 -0.17688566649E+04  0.34794403278E+04  0.29962728670E+04 0.  0.
        2    1    3    3  502    0 -0.21180651657E+03  0.47384862246E+03 -0.25164036588E+04  0.25693738326E+04  0.25500000920E-02 0. -1.
       -2    1    3    3    0  502  0.21180651657E+03 -0.47384862246E+03  0.74754699395E+03  0.91006649518E+03  0.25500000920E-02 0.  1.
</event>
<event>
 5   0  0.1480547E-05  0.2986448E+04  0.7818609E-02  0.8247611E-01
       -2   -1    0    0    0  501  0.00000000000E+00  0.00000000000E+00  0.11106718526E+04  0.11106718526E+04  0.25500000920E-02 0. -1.
        2   -1    0    0  501    0  0.00000000000E+00  0.00000000000E+00 -0.20075402762E+04  0.20075402762E+04  0.25500000920E-02 0.  1.
    10030    2    1    2    0    0  0.00000000000E+00  0.00000000000E+00 -0.89686842360E+03  0.31182121287E+04  0.29864483773E+04 0.  0.
        1    1    3    3  502    0 -0.10712807425E+04 -0.10003637602E+04 -0.15063390516E+03  0.14734519522E+04  0.50400001928E-02 0.  1.
       -1    1    3    3    0  502  0.10712807425E+04  0.10003637602E+04 -0.74623451844E+03  0.16447601766E+04  0.50400001928E-02 0. -1.
</event>
<event>
 5   0  0.1423692E-05  0.3124696E+04  0.7818609E-02  0.8208993E-01
       -2   -1    0    0    0  501  0.00000000000E+00  0.00000000000E+00  0.18071531816E+04  0.18071531816E+04  0.25500000920E-02 0.  1.
        2   -1    0    0  501    0  0.00000000000E+00  0.00000000000E+00 -0.13507052240E+04  0.13507052240E+04  0.25500000920E-02 0. -1.
    10030    2    1    2    0    0  0.00000000000E+00  0.00000000000E+00  0.45644795762E+03  0.31578584055E+04  0.31246959806E+04 0.  0.
        3    1    3    3  502    0  0.32442047884E+03 -0.13478060468E+04  0.95635746346E+03  0.16841761769E+04  0.10100000352E+00 0.  1.
       -3    1    3    3    0  502 -0.32442047884E+03  0.13478060468E+04 -0.49990950584E+03  0.14736822286E+04  0.10100000352E+00 0. -1.
</event>
<event>
 5   0  0.1480547E-05  0.2971386E+04  0.7818609E-02  0.8251949E-01
        2   -1    0    0  501    0  0.00000000000E+00  0.00000000000E+00  0.21613706559E+04  0.21613706559E+04  0.25500000920E-02 0. -1.
       -2   -1    0    0    0  501  0.00000000000E+00  0.00000000000E+00 -0.10212425436E+04  0.10212425436E+04  0.25500000920E-02 0.  1.
    10030    2    1    2    0    0  0.00000000000E+00  0.00000000000E+00  0.11401281123E+04  0.31826131995E+04  0.29713859839E+04 0.  0.
        1    1    3    3  502    0 -0.14372453654E+04  0.82544501870E+02  0.17681922778E+03  0.14504319613E+04  0.50400001928E-02 0.  1.
       -1    1    3    3    0  502  0.14372453654E+04 -0.82544501870E+02  0.96330888448E+03  0.17321812382E+04  0.50400001928E-02 0. -1.
</event>
<event>
 5   0  0.1423692E-05  0.3016085E+04  0.7818609E-02  0.8239152E-01
       -2   -1    0    0    0  501  0.00000000000E+00  0.00000000000E+00  0.90864424086E+03  0.90864424086E+03  0.25500000920E-02 0.  1.
        2   -1    0    0  501    0  0.00000000000E+00  0.00000000000E+00 -0.25028418257E+04  0.25028418257E+04  0.25500000920E-02 0. -1.
    10030    2    1    2    0    0  0.00000000000E+00  0.00000000000E+00 -0.15941975849E+04  0.34114860666E+04  0.30160854171E+04 0.  0.
        3    1    3    3  502    0  0.65541627733E+03 -0.10332978095E+04 -0.17940813040E+04  0.21716359260E+04  0.10100000352E+00 0. -1.
       -3    1    3    3    0  502 -0.65541627733E+03  0.10332978095E+04  0.19988371913E+03  0.12398501406E+04  0.10100000352E+00 0.  1.
</event>
<event>
 5   0  0.1345931E-05  0.2996764E+04  0.7818609E-02  0.8244656E-01
       -2   -1    0    0    0  501  0.00000000000E+00  0.00000000000E+00  0.12690533181E+04  0.12690533181E+04  0.25500000920E-02 0. -1.
        2   -1    0    0  501    0  0.00000000000E+00  0.00000000000E+00 -0.17691522636E+04  0.17691522636E+04  0.25500000920E-02 0.  1.
    10030    2    1    2    0    0  0.00000000000E+00  0.00000000000E+00 -0.50009894550E+03  0.30382055817E+04  0.29967639549E+04 0.  0.
        2    1    3    3  502    0  0.37163469512E+03  0.18883906759E+03 -0.17091798263E+04  0.17592805970E+04  0.25500000920E-02 0.  1.
       -2    1    3    3    0  502 -0.37163469512E+03 -0.18883906759E+03  0.12090808808E+04  0.12789249847E+04  0.25500000920E-02 0. -1.
</event>
<event>
 5   0  0.1480547E-05  0.2981654E+04  0.7818609E-02  0.8248989E-01
        2   -1    0    0  501    0  0.00000000000E+00  0.00000000000E+00  0.26742359215E+04  0.26742359215E+04  0.25500000920E-02 0.  1.
       -2   -1    0    0    0  501  0.00000000000E+00  0.00000000000E+00 -0.83110313648E+03  0.83110313649E+03  0.25500000920E-02 0. -1.
    10030    2    1    2    0    0  0.00000000000E+00  0.00000000000E+00  0.18431327850E+04  0.35053390580E+04  0.29816544817E+04 0.  0.
        1    1    3    3  502    0 -0.96681899376E+03  0.11002483043E+04  0.12483858153E+04  0.19245135598E+04  0.50400001928E-02 0. -1.
       -1    1    3    3    0  502  0.96681899376E+03 -0.11002483043E+04  0.59474696971E+03  0.15808254982E+04  0.50400001928E-02 0.  1.
</event>
<event>
 5   0  0.7032692E-06  0.2964055E+04  0.7818609E-02  0.8254070E-01
        1   -1    0    0  501    0  0.00000000000E+00  0.00000000000E+00  0.26221931861E+04  0.26221931861E+04  0.50400001928E-02 0.  1.
       -1   -1    0    0    0  501  0.00000000000E+00  0.00000000000E+00 -0.83762146056E+03  0.83762146057E+03  0.50400001928E-02 0. -1.
    10030    2    1    2    0    0  0.00000000000E+00  0.00000000000E+00  0.17845717255E+04  0.34598146466E+04  0.29640548486E+04 0.  0.
        5    1    3    3  502    0 -0.24191461389E+02 -0.13964468637E+04  0.31365801147E+03  0.14314511896E+04  0.46999998093E+01 0. -1.
       -5    1    3    3    0  502  0.24191461389E+02  0.13964468637E+04  0.14709137140E+04  0.20283634571E+04  0.46999998093E+01 0.  1.
</event>
<event>
 5   0  0.7032692E-06  0.2691890E+04  0.7818609E-02  0.8337641E-01
        1   -1    0    0  501    0  0.00000000000E+00  0.00000000000E+00  0.18575369897E+04  0.18575369897E+04  0.50400001928E-02 0. -1.
       -1   -1    0    0    0  501  0.00000000000E+00  0.00000000000E+00 -0.97525246023E+03  0.97525246024E+03  0.50400001928E-02 0.  1.
    10030    2    1    2    0    0  0.00000000000E+00  0.00000000000E+00  0.88228452942E+03  0.28327894499E+04  0.26918896851E+04 0.  0.
        5    1    3    3  502    0 -0.11498033321E+04 -0.38008293261E+03 -0.17699997203E+03  0.12238716511E+04  0.46999998093E+01 0.  1.
       -5    1    3    3    0  502  0.11498033321E+04  0.38008293261E+03  0.10592845014E+04  0.16089177988E+04  0.46999998093E+01 0. -1.
</event>
<event>
 5   0  0.1345931E-05  0.3012849E+04  0.7818609E-02  0.8240071E-01
       -2   -1    0    0    0  501  0.00000000000E+00  0.00000000000E+00  0.91795885423E+03  0.91795885423E+03  0.25500000920E-02 0.  1.
        2   -1    0    0  501    0  0.00000000000E+00  0.00000000000E+00 -0.24721310521E+04  0.24721310521E+04  0.25500000920E-02 0. -1.
    10030    2    1    2    0    0  0.00000000000E+00  0.00000000000E+00 -0.15541721979E+04  0.33900899064E+04  0.30128488765E+04 0.  0.
        2    1    3    3  502    0  0.12824254162E+04  0.77335819688E+03 -0.59351204723E+03  0.16108862154E+04  0.25500000920E-02 0. -1.
       -2    1    3    3    0  502 -0.12824254162E+04 -0.77335819688E+03 -0.96066015069E+03  0.17792036910E+04  0.25500000920E-02 0.  1.
</event>
<event>
 5   0  0.5522695E-06  0.2731911E+04  0.7818609E-02  0.8324724E-01
       -1   -1    0    0    0  501  0.00000000000E+00  0.00000000000E+00  0.17876741437E+04  0.17876741437E+04  0.50400001928E-02 0.  1.
        1   -1    0    0  501    0  0.00000000000E+00  0.00000000000E+00 -0.10437221151E+04  0.10437221151E+04  0.50400001928E-02 0. -1.
    10030    2    1    2    0    0  0.00000000000E+00  0.00000000000E+00  0.74395202856E+03  0.28313962588E+04  0.27319114469E+04 0.  0.
        3    1    3    3  502    0 -0.10244474244E+04 -0.90330889466E+03  0.39206066259E+03  0.14209753896E+04  0.10100000352E+00 0. -1.
       -3    1    3    3    0  502  0.10244474244E+04  0.90330889466E+03  0.35189136597E+03  0.14104208692E+04  0.10100000352E+00 0.  1.
</event>
<event>
 5   0  0.7032692E-06  0.2965674E+04  0.7818609E-02  0.8253601E-01
        1   -1    0    0  501    0  0.00000000000E+00  0.00000000000E+00  0.15304912000E+04  0.15304912000E+04  0.50400001928E-02 0. -1.
       -1   -1    0    0    0  501  0.00000000000E+00  0.00000000000E+00 -0.14366664389E+04  0.14366664389E+04  0.50400001928E-02 0.  1.
    10030    2    1    2    0    0  0.00000000000E+00  0.00000000000E+00  0.93824761105E+02  0.29671576389E+04  0.29656738472E+04 0.  0.
        5    1    3    3  502    0  0.52970822885E+03  0.12760912910E+04 -0.49167234250E+03  0.14665481830E+04  0.46999998093E+01 0. -1.
       -5    1    3    3    0  502 -0.52970822885E+03 -0.12760912910E+04  0.58549710361E+03  0.15006094559E+04  0.46999998093E+01 0.  1.
</event>
<event>
 5   0  0.1523029E-05  0.3029433E+04  0.7818609E-02  0.8235376E-01
        2   -1    0    0  501    0  0.00000000000E+00  0.00000000000E+00  0.24493058606E+04  0.24493058606E+04  0.25500000920E-02 0.  1.
       -2   -1    0    0    0  501  0.00000000000E+00  0.00000000000E+00 -0.93674140383E+03  0.93674140384E+03  0.25500000920E-02 0. -1.
    10030    2    1    2    0    0  0.00000000000E+00  0.00000000000E+00  0.15125644567E+04  0.33860472644E+04  0.30294330890E+04 0.  0.
        5    1    3    3  502    0 -0.24749642550E+02  0.15137849579E+04  0.70401566634E+03  0.16696758943E+04  0.46999998093E+01 0.  1.
       -5    1    3    3    0  502  0.24749642550E+02 -0.15137849579E+04  0.80854879039E+03  0.17163713701E+04  0.46999998093E+01 0. -1.
</event>
<event>
 5   0  0.1423692E-05  0.2948990E+04  0.7818609E-02  0.8258449E-01
        2   -1    0    0  501    0  0.00000000000E+00  0.00000000000E+00  0.17741178688E+04  0.17741178688E+04  0.25500000920E-02 0. -1.
       -2   -1    0    0    0  501  0.00000000000E+00  0.00000000000E+00 -0.12254737348E+04  0.12254737348E+04  0.25500000920E-02 0.  1.
    10030    2    1    2    0    0  0.00000000000E+00  0.00000000000E+00  0.54864413402E+03  0.29995916037E+04  0.29489895563E+04 0.  0.
        3    1    3    3  502    0  0.13078925087E+04  0.57236511731E+03 -0.10071899362E+03  0.14311984375E+04  0.10100000352E+00 0.  1.
       -3    1    3    3    0  502 -0.13078925087E+04 -0.57236511731E+03  0.64936312764E+03  0.15683931661E+04  0.10100000352E+00 0. -1.
</event>
<event>
 5   0  0.4806125E-06  0.3044951E+04  0.7818609E-02  0.8231010E-01
        3   -1    0    0  501    0  0.00000000000E+00  0.00000000000E+00  0.91032856938E+03  0.91032857499E+03  0.10100000352E+00 0. -1.
       -3   -1    0    0    0  501  0.00000000000E+00  0.00000000000E+00 -0.25462587618E+04  0.25462587638E+04  0.10100000352E+00 0.  1.
    10030    2    1    2    0    0  0.00000000000E+00  0.00000000000E+00 -0.16359301924E+04  0.34565873388E+04  0.30449513028E+04 0.  0.
        4    1    3    3  502    0 -0.34979769969E+03  0.14053766346E+03  0.85651036851E+03  0.93579959918E+03  0.12699999809E+01 0. -1.
       -4    1    3    3    0  502  0.34979769969E+03 -0.14053766346E+03 -0.24924405609E+04  0.25207877396E+04  0.12699999809E+01 0.  1.
</event>
<event>
 5   0  0.1345931E-05  0.2992302E+04  0.7818609E-02  0.8245933E-01
       -2   -1    0    0    0  501  0.00000000000E+00  0.00000000000E+00  0.10680783217E+04  0.10680783217E+04  0.25500000920E-02 0. -1.
        2   -1    0    0  501    0  0.00000000000E+00  0.00000000000E+00 -0.20957896010E+04  0.20957896010E+04  0.25500000920E-02 0.  1.
    10030    2    1    2    0    0  0.00000000000E+00  0.00000000000E+00 -0.10277112793E+04  0.31638679226E+04  0.29923017492E+04 0.  0.
        2    1    3    3  502    0  0.77070280515E+02  0.83393189808E+03  0.79702131765E+03  0.11561250882E+04  0.25500000920E-02 0.  1.
       -2    1    3    3    0  502 -0.77070280515E+02 -0.83393189808E+03 -0.18247325969E+04  0.20077428344E+04  0.25500000920E-02 0. -1.
</event>
<event>
 5   0  0.5730920E-06  0.2967467E+04  0.7818609E-02  0.8253082E-01
       -1   -1    0    0    0  501  0.00000000000E+00  0.00000000000E+00  0.93205772351E+03  0.93205772353E+03  0.50400001928E-02 0.  1.
        1   -1    0    0  501    0  0.00000000000E+00  0.00000000000E+00 -0.23619403813E+04  0.23619403813E+04  0.50400001928E-02 0. -1.
    10030    2    1    2    0    0  0.00000000000E+00  0.00000000000E+00 -0.14298826578E+04  0.32939981048E+04  0.29674667815E+04 0.  0.
        1    1    3    3  502    0  0.98842912738E+03 -0.11006163367E+04 -0.58781269231E+03  0.15918141291E+04  0.50400001928E-02 0. -1.
       -1    1    3    3    0  502 -0.98842912738E+03  0.11006163367E+04 -0.84206996546E+03  0.17021839757E+04  0.50400001928E-02 0.  1.
</event>
<event>
 5   0  0.1480547E-05  0.3034112E+04  0.7818609E-02  0.8234056E-01
        2   -1    0    0  501    0  0.00000000000E+00  0.00000000000E+00  0.17310991707E+04  0.17310991707E+04  0.25500000920E-02 0.  1.
       -2   -1    0    0    0  501  0.00000000000E+00  0.00000000000E+00 -0.13294785687E+04  0.13294785687E+04  0.25500000920E-02 0. -1.
    10030    2    1    2    0    0  0.00000000000E+00  0.00000000000E+00  0.40162060204E+03  0.30605777394E+04  0.30341122245E+04 0.  0.
        1    1    3    3  502    0 -0.34428688183E+03 -0.44862886234E+03 -0.12191824266E+04  0.13439520462E+04  0.50400001928E-02 0. -1.
       -1    1    3    3    0  502  0.34428688183E+03  0.44862886234E+03  0.16208030286E+04  0.17166256933E+04  0.50400001928E-02 0.  1.
</event>
<event>
 5   0  0.5392262E-06  0.2959745E+04  0.7818609E-02  0.8255320E-01
        1   -1    0    0  501    0  0.00000000000E+00  0.00000000000E+00  0.18763641074E+04  0.18763641074E+04  0.50400001928E-02 0. -1.
       -1   -1    0    0    0  501  0.00000000000E+00  0.00000000000E+00 -0.11671629699E+04  0.11671629700E+04  0.50400001928E-02 0.  1.
    10030    2    1    2    0    0  0.00000000000E+00  0.00000000000E+00  0.70920113743E+03  0.30435270773E+04  0.29597450595E+04 0.  0.
        2    1    3    3  502    0  0.30705254108E+03 -0.95854009282E+03 -0.76097875762E+03  0.12618118093E+04  0.25500000920E-02 0.  1.
       -2    1    3    3    0  502 -0.30705254108E+03  0.95854009282E+03  0.14701798951E+04  0.17817152680E+04  0.25500000920E-02 0. -1.
</event>
<event>
 5   0  0.5522695E-06  0.2991074E+04  0.7818609E-02  0.8246284E-01
        1   -1    0    0  501    0  0.00000000000E+00  0.00000000000E+00  0.25140875002E+04  0.25140875002E+04  0.50400001928E-02 0.  1.
       -1   -1    0    0    0  501  0.00000000000E+00  0.00000000000E+00 -0.88963950904E+03  0.88963950906E+03  0.50400001928E-02 0. -1.
    10030    2    1    2    0    0  0.00000000000E+00  0.00000000000E+00  0.16244479911E+04  0.34037270092E+04  0.29910744353E+04 0.  0.
        3    1    3    3  502    0 -0.11117621621E+04  0.85904275642E+03  0.22901243967E+03  0.14235224867E+04  0.10100000352E+00 0.  1.
       -3    1    3    3    0  502  0.11117621621E+04 -0.85904275642E+03  0.13954355515E+04  0.19802045225E+04  0.10100000352E+00 0. -1.
</event>
<event>
 5   0  0.7032692E-06  0.2781521E+04  0.7818609E-02  0.8309028E-01
       -1   -1    0    0    0  501  0.00000000000E+00  0.00000000000E+00  0.92658813944E+03  0.92658813945E+03  0.50400001928E-02 0.  1.
        1   -1    0    0  501    0  0.00000000000E+00  0.00000000000E+00 -0.20874588108E+04  0.20874588108E+04  0.50400001928E-02 0. -1.
    10030    2    1    2    0    0  0.00000000000E+00  0.00000000000E+00 -0.11608706714E+04  0.30140469503E+04  0.27815208615E+04 0.  0.
        5    1    3    3  502    0 -0.19161117403E+03  0.29862604286E+03  0.87671026142E+03  0.94579877774E+03  0.46999998093E+01 0.  1.
       -5    1    3    3    0  502  0.19161117403E+03 -0.29862604286E+03 -0.20375809328E+04  0.20682481725E+04  0.46999998093E+01 0. -1.
</event>
<event>
 5   0  0.5392262E-06  0.2440480E+04  0.7818609E-02  0.8424502E-01
        1   -1    0    0  501    0  0.00000000000E+00  0.00000000000E+00  0.19960384314E+04  0.19960384314E+04  0.50400001928E-02 0. -1.
       -1   -1    0    0    0  501  0.00000000000E+00  0.00000000000E+00 -0.74597050099E+03  0.74597050101E+03  0.50400001928E-02 0.  1.
    10030    2    1    2    0    0  0.00000000000E+00  0.00000000000E+00  0.12500679304E+04  0.27420089324E+04  0.24404801074E+04 0.  0.
        2    1    3    3  502    0  0.74261721858E+03  0.40528132865E+03 -0.36295992656E+03  0.92058307446E+03  0.25500000920E-02 0.  1.
       -2    1    3    3    0  502 -0.74261721858E+03 -0.40528132865E+03  0.16130278570E+04  0.18214258579E+04  0.25500000920E-02 0. -1.
</event>
<event>
 5   0  0.1388724E-05  0.2981410E+04  0.7818609E-02  0.8249059E-01
       -2   -1    0    0    0  501  0.00000000000E+00  0.00000000000E+00  0.12768847781E+04  0.12768847781E+04  0.25500000920E-02 0.  1.
        2   -1    0    0  501    0  0.00000000000E+00  0.00000000000E+00 -0.17403307994E+04  0.17403307994E+04  0.25500000920E-02 0. -1.
    10030    2    1    2    0    0  0.00000000000E+00  0.00000000000E+00 -0.46344602133E+03  0.30172155775E+04  0.29814103419E+04 0.  0.
        4    1    3    3  502    0 -0.46183310457E+03 -0.73359289314E+03 -0.14590330967E+04  0.16971233130E+04  0.12699999809E+01 0. -1.
       -4    1    3    3    0  502  0.46183310457E+03  0.73359289314E+03  0.99558707538E+03  0.13200922645E+04  0.12699999809E+01 0.  1.
</event>
<event>
 5   0  0.5329891E-06  0.1497456E+04  0.7818609E-02  0.8886146E-01
        1   -1    0    0  501    0  0.00000000000E+00  0.00000000000E+00  0.84313439985E+03  0.84313439987E+03  0.50400001928E-02 0.  1.
       -1   -1    0    0    0  501  0.00000000000E+00  0.00000000000E+00 -0.66489244301E+03  0.66489244303E+03  0.50400001928E-02 0. -1.
    10030    2    1    2    0    0  0.00000000000E+00  0.00000000000E+00  0.17824195684E+03  0.15080268429E+04  0.14974560974E+04 0.  0.
        4    1    3    3  502    0 -0.58688997754E+01  0.62910818885E+03  0.49791817515E+03  0.80233140242E+03  0.12699999809E+01 0.  1.
       -4    1    3    3    0  502  0.58688997754E+01 -0.62910818885E+03 -0.31967621830E+03  0.70569544048E+03  0.12699999809E+01 0. -1.
</event>
<event>
 5   0  0.7032692E-06  0.3009747E+04  0.7818609E-02  0.8240953E-01
        1   -1    0    0  501    0  0.00000000000E+00  0.00000000000E+00  0.13601663672E+04  0.13601663672E+04  0.50400001928E-02 0. -1.
       -1   -1    0    0    0  501  0.00000000000E+00  0.00000000000E+00 -0.16649762569E+04  0.16649762569E+04  0.50400001928E-02 0.  1.
    10030    2    1    2    0    0  0.00000000000E+00  0.00000000000E+00 -0.30480988974E+03  0.30251426241E+04  0.30097473029E+04 0.  0.
        5    1    3    3  502    0 -0.88029196292E+03  0.78822790958E+03 -0.10890544077E+04  0.16069470341E+04  0.46999998093E+01 0.  1.
       -5    1    3    3    0  502  0.88029196292E+03 -0.78822790958E+03  0.78424451798E+03  0.14181955900E+04  0.46999998093E+01 0. -1.
</event>
<event>
 5   0  0.5392262E-06  0.3012318E+04  0.7818609E-02  0.8240222E-01
        1   -1    0    0  501    0  0.00000000000E+00  0.00000000000E+00  0.15722986448E+04  0.15722986448E+04  0.50400001928E-02 0. -1.
       -1   -1    0    0    0  501  0.00000000000E+00  0.00000000000E+00 -0.14428012511E+04  0.14428012511E+04  0.50400001928E-02 0.  1.
    10030    2    1    2    0    0  0.00000000000E+00  0.00000000000E+00  0.12949739371E+03  0.30150998959E+04  0.30123176803E+04 0.  0.
        2    1    3    3  502    0  0.10263653320E+04  0.97422224117E+02  0.11637598919E+04  0.15547520608E+04  0.25500000920E-02 0. -1.
       -2    1    3    3    0  502 -0.10263653320E+04 -0.97422224117E+02 -0.10342624982E+04  0.14603478351E+04  0.25500000920E-02 0.  1.
</event>
<event>
 5   0  0.1480547E-05  0.3100360E+04  0.7818609E-02  0.8215639E-01
       -2   -1    0    0    0  501  0.00000000000E+00  0.00000000000E+00  0.30272702895E+04  0.30272702895E+04  0.25500000920E-02 0. -1.
        2   -1    0    0  501    0  0.00000000000E+00  0.00000000000E+00 -0.79380338436E+03  0.79380338436E+03  0.25500000920E-02 0.  1.
    10030    2    1    2    0    0  0.00000000000E+00  0.00000000000E+00  0.22334669052E+04  0.38210736739E+04  0.31003595928E+04 0.  0.
        1    1    3    3  502    0  0.12548952818E+04  0.39867973615E+03  0.21250569319E+04  0.24999149314E+04  0.50400001928E-02 0. -1.
       -1    1    3    3    0  502 -0.12548952818E+04 -0.39867973615E+03  0.10840997321E+03  0.13211587424E+04  0.50400001928E-02 0.  1.
</event>
<event>
 5   0  0.1423692E-05  0.2932991E+04  0.7818609E-02  0.8263129E-01
        2   -1    0    0  501    0  0.00000000000E+00  0.00000000000E+00  0.12247374041E+04  0.12247374041E+04  0.25500000920E-02 0.  1.
       -2   -1    0    0    0  501  0.00000000000E+00  0.00000000000E+00 -0.17559761991E+04  0.17559761991E+04  0.25500000920E-02 0. -1.
    10030    2    1    2    0    0  0.00000000000E+00  0.00000000000E+00 -0.53123879508E+03  0.29807136032E+04  0.29329914638E+04 0.  0.
        3    1    3    3  502    0  0.14722668302E+03 -0.33054555464E+03 -0.17098949221E+04  0.17477633463E+04  0.10100000352E+00 0. -1.
       -3    1    3    3    0  502 -0.14722668302E+03  0.33054555464E+03  0.11786561270E+04  0.12329502569E+04  0.10100000352E+00 0.  1.
</event>
<event>
 5   0  0.1423692E-05  0.3008161E+04  0.7818609E-02  0.8241404E-01
       -2   -1    0    0    0  501  0.00000000000E+00  0.00000000000E+00  0.18431075417E+04  0.18431075417E+04  0.25500000920E-02 0.  1.
        2   -1    0    0  501    0  0.00000000000E+00  0.00000000000E+00 -0.12274149226E+04  0.12274149226E+04  0.25500000920E-02 0. -1.
    10030    2    1    2    0    0  0.00000000000E+00  0.00000000000E+00  0.61569261912E+03  0.30705224643E+04  0.30081607009E+04 0.  0.
        3    1    3    3  502    0 -0.92071843206E+03  0.82940799988E+03 -0.56224375797E+03  0.13607931933E+04  0.10100000352E+00 0. -1.
       -3    1    3    3    0  502  0.92071843206E+03 -0.82940799988E+03  0.11779363771E+04  0.17097292710E+04  0.10100000352E+00 0.  1.
</event>
<event>
 5   0  0.5329891E-06  0.3006284E+04  0.7818609E-02  0.8241939E-01
        1   -1    0    0  501    0  0.00000000000E+00  0.00000000000E+00  0.24037607463E+04  0.24037607463E+04  0.50400001928E-02 0.  1.
       -1   -1    0    0    0  501  0.00000000000E+00  0.00000000000E+00 -0.93995851953E+03  0.93995851954E+03  0.50400001928E-02 0. -1.
    10030    2    1    2    0    0  0.00000000000E+00  0.00000000000E+00  0.14638022268E+04  0.33437192659E+04  0.30062836809E+04 0.  0.
        4    1    3    3  502    0 -0.19588513201E+03 -0.92119883011E+03 -0.57111259793E+03  0.11014306524E+04  0.12699999809E+01 0. -1.
       -4    1    3    3    0  502  0.19588513201E+03  0.92119883011E+03  0.20349148247E+04  0.22422886135E+04  0.12699999809E+01 0.  1.
</event>
<event>
 5   0  0.1388724E-05  0.2126675E+04  0.7818609E-02  0.8549583E-01
        2   -1    0    0  501    0  0.00000000000E+00  0.00000000000E+00  0.13027850311E+04  0.13027850311E+04  0.25500000920E-02 0.  1.
       -2   -1    0    0    0  501  0.00000000000E+00  0.00000000000E+00 -0.86789969737E+03  0.86789969737E+03  0.25500000920E-02 0. -1.
    10030    2    1    2    0    0  0.00000000000E+00  0.00000000000E+00  0.43488533372E+03  0.21706847285E+04  0.21266750896E+04 0.  0.
        4    1    3    3  502    0  0.97401856664E+03  0.38342203361E+03  0.40828925825E+03  0.11235774808E+04  0.12699999809E+01 0. -1.
       -4    1    3    3    0  502 -0.97401856664E+03 -0.38342203361E+03  0.26596075466E+02  0.10471072477E+04  0.12699999809E+01 0.  1.
</event>
<event>
 5   0  0.5392262E-06  0.3137315E+04  0.7818609E-02  0.8205571E-01
       -1   -1    0    0    0  501  0.00000000000E+00  0.00000000000E+00  0.12842248950E+04  0.12842248950E+04  0.50400001928E-02 0. -1.
        1   -1    0    0  501    0  0.00000000000E+00  0.00000000000E+00 -0.19160866825E+04  0.19160866825E+04  0.50400001928E-02 0.  1.
    10030    2    1    2    0    0  0.00000000000E+00  0.00000000000E+00 -0.63186178751E+03  0.32003115775E+04  0.31373149148E+04 0.  0.
        2    1    3    3  502    0 -0.34302533068E+03  0.13802079304E+04  0.35920929895E+03  0.14668577399E+04  0.25500000920E-02 0. -1.
       -2    1    3    3    0  502  0.34302533068E+03 -0.13802079304E+04 -0.99107108646E+03  0.17334538376E+04  0.25500000920E-02 0.  1.
</event>
<event>
 5   0  0.5730920E-06  0.2948886E+04  0.7818609E-02  0.8258479E-01
       -1   -1    0    0    0  501  0.00000000000E+00  0.00000000000E+00  0.12122463617E+04  0.12122463617E+04  0.50400001928E-02 0. -1.
        1   -1    0    0  501    0  0.00000000000E+00  0.00000000000E+00 -0.17933500452E+04  0.17933500452E+04  0.50400001928E-02 0.  1.
    10030    2    1    2    0    0  0.00000000000E+00  0.00000000000E+00 -0.58110368355E+03  0.30055964069E+04  0.29488859371E+04 0.  0.
        1    1    3    3  502    0  0.14837859405E+03 -0.14668490722E+04 -0.27232897604E+03  0.14992749845E+04  0.50400001928E-02 0.  1.
       -1    1    3    3    0  502 -0.14837859405E+03  0.14668490722E+04 -0.30877470751E+03  0.15063214225E+04  0.50400001928E-02 0. -1.
</event>
<event>
 5   0  0.7032692E-06  0.2981853E+04  0.7818609E-02  0.8248932E-01
       -1   -1    0    0    0  501  0.00000000000E+00  0.00000000000E+00  0.20390434186E+04  0.20390434186E+04  0.50400001928E-02 0. -1.
        1   -1    0    0  501    0  0.00000000000E+00  0.00000000000E+00 -0.10901490937E+04  0.10901490937E+04  0.50400001928E-02 0.  1.
    10030    2    1    2    0    0  0.00000000000E+00  0.00000000000E+00  0.94889432488E+03  0.31291925123E+04  0.29818526689E+04 0.  0.
        5    1    3    3  502    0  0.23928399301E+03 -0.25142859297E+03  0.19960463621E+04  0.20260050188E+04  0.46999998093E+01 0. -1.
       -5    1    3    3    0  502 -0.23928399301E+03  0.25142859297E+03 -0.10471520372E+04  0.11031874934E+04  0.46999998093E+01 0.  1.
</event>
<event>
 5   0  0.1345931E-05  0.2965486E+04  0.7818609E-02  0.8253656E-01
       -2   -1    0    0    0  501  0.00000000000E+00  0.00000000000E+00  0.17904646669E+04  0.17904646669E+04  0.25500000920E-02 0.  1.
        2   -1    0    0  501    0  0.00000000000E+00  0.00000000000E+00 -0.12279083097E+04  0.12279083097E+04  0.25500000920E-02 0. -1.
    10030    2    1    2    0    0  0.00000000000E+00  0.00000000000E+00  0.56255635719E+03  0.30183729765E+04  0.29654857563E+04 0.  0.
        2    1    3    3  502    0 -0.50437752637E+03  0.90631056977E+03 -0.79720878600E+03  0.13081809456E+04  0.25500000920E-02 0. -1.
       -2    1    3    3    0  502  0.50437752637E+03 -0.90631056977E+03  0.13597651432E+04  0.17101920309E+04  0.25500000920E-02 0.  1.
</event>
<event>
 5   0  0.1388724E-05  0.2999616E+04  0.7818609E-02  0.8243840E-01
        2   -1    0    0  501    0  0.00000000000E+00  0.00000000000E+00  0.18277495787E+04  0.18277495787E+04  0.25500000920E-02 0.  1.
       -2   -1    0    0    0  501  0.00000000000E+00  0.00000000000E+00 -0.12307072255E+04  0.12307072255E+04  0.25500000920E-02 0. -1.
    10030    2    1    2    0    0  0.00000000000E+00  0.00000000000E+00  0.59704235317E+03  0.30584568042E+04  0.29996163841E+04 0.  0.
        4    1    3    3  502    0 -0.34493679751E+03  0.74393708895E+03 -0.98189859726E+03  0.12792772392E+04  0.12699999809E+01 0. -1.
       -4    1    3    3    0  502  0.34493679751E+03 -0.74393708895E+03  0.15789409504E+04  0.17791795650E+04  0.12699999809E+01 0.  1.
</event>
<event>
 5   0  0.1423692E-05  0.1686510E+04  0.7818609E-02  0.8769096E-01
       -2   -1    0    0    0  501  0.00000000000E+00  0.00000000000E+00  0.70677359847E+03  0.70677359847E+03  0.25500000920E-02 0. -1.
        2   -1    0    0  501    0  0.00000000000E+00  0.00000000000E+00 -0.10060911584E+04  0.10060911584E+04  0.25500000920E-02 0.  1.
    10030    2    1    2    0    0  0.00000000000E+00  0.00000000000E+00 -0.29931755992E+03  0.17128647569E+04  0.16865096127E+04 0.  0.
        3    1    3    3  502    0  0.27527264757E+03  0.12955038706E+03 -0.94840945903E+03  0.99601146854E+03  0.10100000352E+00 0.  1.
       -3    1    3    3    0  502 -0.27527264757E+03 -0.12955038706E+03  0.64909189911E+03  0.71685328832E+03  0.10100000352E+00 0. -1.
</event>
<event>
 5   0  0.4806125E-06  0.2998383E+04  0.7818609E-02  0.8244193E-01
        4   -1    0    0  501    0  0.00000000000E+00  0.00000000000E+00  0.22633442253E+04  0.22633445816E+04  0.12699999809E+01 0.  1.
       -4   -1    0    0    0  501  0.00000000000E+00  0.00000000000E+00 -0.99303200133E+03  0.99303281344E+03  0.12699999809E+01 0. -1.
    10030    2    1    2    0    0  0.00000000000E+00  0.00000000000E+00  0.12703122240E+04  0.32563773951E+04  0.29983829963E+04 0.  0.
        5    1    3    3  502    0  0.26722058367E+03  0.22045266403E+03  0.22192728769E+04  0.22461523567E+04  0.46999998093E+01 0.  1.
       -5    1    3    3    0  502 -0.26722058367E+03 -0.22045266403E+03 -0.94896065290E+03  0.10102250384E+04  0.46999998093E+01 0. -1.
</event>
<event>
 5   0  0.1345931E-05  0.2119029E+04  0.7818609E-02  0.8552907E-01
        2   -1    0    0  501    0  0.00000000000E+00  0.00000000000E+00  0.17660502277E+04  0.17660502277E+04  0.25500000920E-02 0. -1.
       -2   -1    0    0    0  501  0.00000000000E+00  0.00000000000E+00 -0.63563920811E+03  0.63563920812E+03  0.25500000920E-02 0.  1.
    10030    2    1    2    0    0  0.00000000000E+00  0.00000000000E+00  0.11304110196E+04  0.24016894358E+04  0.21190288042E+04 0.  0.
        2    1    3    3  502    0 -0.29269653397E+03  0.44665602039E+03 -0.47195488189E+03  0.71268104514E+03  0.25500000920E-02 0.  1.
       -2    1    3    3    0  502  0.29269653397E+03 -0.44665602039E+03  0.16023659015E+04  0.16890083907E+04  0.25500000920E-02 0. -1.
</event>
<event>
 5   0  0.1480547E-05  0.1666789E+04  0.7818609E-02  0.8780536E-01
        2   -1    0    0  501    0  0.00000000000E+00  0.00000000000E+00  0.10200824819E+04  0.10200824819E+04  0.25500000920E-02 0. -1.
       -2   -1    0    0    0  501  0.00000000000E+00  0.00000000000E+00 -0.68087273345E+03  0.68087273346E+03  0.25500000920E-02 0.  1.
    10030    2    1    2    0    0  0.00000000000E+00  0.00000000000E+00  0.33920974842E+03  0.17009552153E+04  0.16667889462E+04 0.  0.
        1    1    3    3  502    0 -0.61321973709E+03 -0.43061011480E+03  0.54188794082E+03  0.92471944792E+03  0.50400001928E-02 0. -1.
       -1    1    3    3    0  502  0.61321973709E+03  0.43061011480E+03 -0.20267819240E+03  0.77623576742E+03  0.50400001928E-02 0.  1.
</event>
<event>
 5   0  0.5730920E-06  0.2206086E+04  0.7818609E-02  0.8515899E-01
        1   -1    0    0  501    0  0.00000000000E+00  0.00000000000E+00  0.11347695396E+04  0.11347695396E+04  0.50400001928E-02 0. -1.
       -1   -1    0    0    0  501  0.00000000000E+00  0.00000000000E+00 -0.10722036976E+04  0.10722036976E+04  0.50400001928E-02 0.  1.
    10030    2    1    2    0    0  0.00000000000E+00  0.00000000000E+00  0.62565841997E+02  0.22069732372E+04  0.22060862143E+04 0.  0.
        1    1    3    3  502    0 -0.36404747534E+01  0.10054036102E+04  0.48517717830E+03  0.11163541405E+04  0.50400001928E-02 0. -1.
       -1    1    3    3    0  502  0.36404747534E+01 -0.10054036102E+04 -0.42261133631E+03  0.10906190967E+04  0.50400001928E-02 0.  1.
</event>
<event>
 5   0  0.7032692E-06  0.3083957E+04  0.7818609E-02  0.8220154E-01
       -1   -1    0    0    0  501  0.00000000000E+00  0.00000000000E+00  0.11697130738E+04  0.11697130738E+04  0.50400001928E-02 0.  1.
        1   -1    0    0  501    0  0.00000000000E+00  0.00000000000E+00 -0.20327192073E+04  0.20327192073E+04  0.50400001928E-02 0. -1.
    10030    2    1    2    0    0  0.00000000000E+00  0.00000000000E+00 -0.86300613350E+03  0.32024322811E+04  0.30839573487E+04 0.  0.
        5    1    3    3  502    0 -0.14959231366E+04 -0.82301879073E+02 -0.81037074512E+03  0.17033151395E+04  0.46999998093E+01 0.  1.
       -5    1    3    3    0  502  0.14959231366E+04  0.82301879073E+02 -0.52635388379E+02  0.14991171415E+04  0.46999998093E+01 0. -1.
</event>
<event>
 5   0  0.1523029E-05  0.2107164E+04  0.7818609E-02  0.8558094E-01
        2   -1    0    0  501    0  0.00000000000E+00  0.00000000000E+00  0.25576197660E+04  0.25576197660E+04  0.25500000920E-02 0.  1.
       -2   -1    0    0    0  501  0.00000000000E+00  0.00000000000E+00 -0.43401088799E+03  0.43401088799E+03  0.25500000920E-02 0. -1.
    10030    2    1    2    0    0  0.00000000000E+00  0.00000000000E+00  0.21236088780E+04  0.29916306540E+04  0.21071638055E+04 0.  0.
        5    1    3    3  502    0  0.23292871992E+03 -0.92541320794E+03  0.16957276971E+04  0.19458057217E+04  0.46999998093E+01 0.  1.
       -5    1    3    3    0  502 -0.23292871992E+03  0.92541320794E+03  0.42788118093E+03  0.10458249323E+04  0.46999998093E+01 0. -1.
</event>
<event>
 5   0  0.1523029E-05  0.2960240E+04  0.7818609E-02  0.8255177E-01
       -2   -1    0    0    0  501  0.00000000000E+00  0.00000000000E+00  0.18483224135E+04  0.18483224135E+04  0.25500000920E-02 0. -1.
        2   -1    0    0  501    0  0.00000000000E+00  0.00000000000E+00 -0.11852669147E+04  0.11852669147E+04  0.25500000920E-02 0.  1.
    10030    2    1    2    0    0  0.00000000000E+00  0.00000000000E+00  0.66305549874E+03  0.30335893282E+04  0.29602401284E+04 0.  0.
        5    1    3    3  502    0 -0.12016991942E+04 -0.64273032545E+03  0.92337601222E+03  0.16461556957E+04  0.46999998093E+01 0. -1.
       -5    1    3    3    0  502  0.12016991942E+04  0.64273032545E+03 -0.26032051348E+03  0.13874336324E+04  0.46999998093E+01 0.  1.
</event>
<event>
 5   0  0.1523029E-05  0.2981483E+04  0.7818609E-02  0.8249038E-01
        2   -1    0    0  501    0  0.00000000000E+00  0.00000000000E+00  0.11989078044E+04  0.11989078044E+04  0.25500000920E-02 0.  1.
       -2   -1    0    0    0  501  0.00000000000E+00  0.00000000000E+00 -0.18536117004E+04  0.18536117004E+04  0.25500000920E-02 0. -1.
    10030    2    1    2    0    0  0.00000000000E+00  0.00000000000E+00 -0.65470389601E+03  0.30525195048E+04  0.29814825399E+04 0.  0.
        5    1    3    3  502    0 -0.80222719839E+03 -0.57858571977E+02 -0.16123949149E+04  0.18018755628E+04  0.46999998093E+01 0. -1.
       -5    1    3    3    0  502  0.80222719839E+03  0.57858571977E+02  0.95769101887E+03  0.12506439421E+04  0.46999998093E+01 0.  1.
</event>
<event>
 5   0  0.1388724E-05  0.2328851E+04  0.7818609E-02  0.8466632E-01
       -2   -1    0    0    0  501  0.00000000000E+00  0.00000000000E+00  0.14035491897E+04  0.14035491897E+04  0.25500000920E-02 0.  1.
        2   -1    0    0  501    0  0.00000000000E+00  0.00000000000E+00 -0.96604138192E+03  0.96604138193E+03  0.25500000920E-02 0. -1.
    10030    2    1    2    0    0  0.00000000000E+00  0.00000000000E+00  0.43750780773E+03  0.23695905716E+04  0.23288508744E+04 0.  0.
        4    1    3    3  502    0 -0.83411955940E+03 -0.59402088629E+03 -0.34526130920E+03  0.10806587053E+04  0.12699999809E+01 0. -1.
       -4    1    3    3    0  502  0.83411955940E+03  0.59402088629E+03  0.78276911693E+03  0.12889318663E+04  0.12699999809E+01 0.  1.
</event>
<event>
 5   0  0.1388724E-05  0.2959042E+04  0.7818609E-02  0.8255524E-01
       -2   -1    0    0    0  501  0.00000000000E+00  0.00000000000E+00  0.95639142625E+03  0.95639142626E+03  0.25500000920E-02 0.  1.
        2   -1    0    0  501    0  0.00000000000E+00  0.00000000000E+00 -0.22887926669E+04  0.22887926669E+04  0.25500000920E-02 0. -1.
    10030    2    1    2    0    0  0.00000000000E+00  0.00000000000E+00 -0.13324012407E+04  0.32451840932E+04  0.29590415226E+04 0.  0.
        4    1    3    3  502    0  0.55191561282E+03  0.11507544483E+04  0.15459309836E+03  0.12855921915E+04  0.12699999809E+01 0.  1.
       -4    1    3    3    0  502 -0.55191561282E+03 -0.11507544483E+04 -0.14869943390E+04  0.19595919017E+04  0.12699999809E+01 0. -1.
</event>
<event>
 5   0  0.7032692E-06  0.2979632E+04  0.7818609E-02  0.8249571E-01
       -1   -1    0    0    0  501  0.00000000000E+00  0.00000000000E+00  0.10740632999E+04  0.10740632999E+04  0.50400001928E-02 0.  1.
        1   -1    0    0  501    0  0.00000000000E+00  0.00000000000E+00 -0.20664996070E+04  0.20664996070E+04  0.50400001928E-02 0. -1.
    10030    2    1    2    0    0  0.00000000000E+00  0.00000000000E+00 -0.99243630704E+03  0.31405629069E+04  0.29796317807E+04 0.  0.
        5    1    3    3  502    0 -0.61058842604E+03 -0.37700188101E+03  0.87989351236E+03  0.11354220922E+04  0.46999998093E+01 0.  1.
       -5    1    3    3    0  502  0.61058842604E+03  0.37700188101E+03 -0.18723298194E+04  0.20051408147E+04  0.46999998093E+01 0. -1.
</event>
<event>
 5   0  0.1480547E-05  0.2974721E+04  0.7818609E-02  0.8250986E-01
        2   -1    0    0  501    0  0.00000000000E+00  0.00000000000E+00  0.12354649170E+04  0.12354649170E+04  0.25500000920E-02 0. -1.
       -2   -1    0    0    0  501  0.00000000000E+00  0.00000000000E+00 -0.17906149254E+04  0.17906149255E+04  0.25500000920E-02 0.  1.
    10030    2    1    2    0    0  0.00000000000E+00  0.00000000000E+00 -0.55515000849E+03  0.30260798424E+04  0.29747214459E+04 0.  0.
        1    1    3    3  502    0 -0.22637911409E+03  0.17413790206E+03  0.12073079276E+04  0.12406304624E+04  0.50400001928E-02 0. -1.
       -1    1    3    3    0  502  0.22637911409E+03 -0.17413790206E+03 -0.17624579361E+04  0.17854493800E+04  0.50400001928E-02 0.  1.
</event>
<event>
 5   0  0.1345931E-05  0.3031076E+04  0.7818609E-02  0.8234912E-01
        2   -1    0    0  501    0  0.00000000000E+00  0.00000000000E+00  0.16858977358E+04  0.16858977358E+04  0.25500000920E-02 0. -1.
       -2   -1    0    0    0  501  0.00000000000E+00  0.00000000000E+00 -0.13623932456E+04  0.13623932456E+04  0.25500000920E-02 0.  1.
    10030    2    1    2    0    0  0.00000000000E+00  0.00000000000E+00  0.32350449025E+03  0.30482909814E+04  0.30310761707E+04 0.  0.
        2    1    3    3  502    0  0.56131580721E+03  0.13529084425E+04 -0.22958371396E+03  0.14826143703E+04  0.25500000920E-02 0.  1.
       -2    1    3    3    0  502 -0.56131580721E+03 -0.13529084425E+04  0.55308820421E+03  0.15656766112E+04  0.25500000920E-02 0. -1.
</event>
<event>
 5   0  0.5522695E-06  0.1773481E+04  0.7818609E-02  0.8720531E-01
       -1   -1    0    0    0  501  0.00000000000E+00  0.00000000000E+00  0.15780986096E+04  0.15780986096E+04  0.50400001928E-02 0. -1.
        1   -1    0    0  501    0  0.00000000000E+00  0.00000000000E+00 -0.49826311968E+03  0.49826311971E+03  0.50400001928E-02 0.  1.
    10030    2    1    2    0    0  0.00000000000E+00  0.00000000000E+00  0.10798354899E+04  0.20763617293E+04  0.17734805738E+04 0.  0.
        3    1    3    3  502    0 -0.49469428018E+03  0.55855513426E+03  0.11009198198E+04  0.13299363626E+04  0.10100000352E+00 0. -1.
       -3    1    3    3    0  502  0.49469428018E+03 -0.55855513426E+03 -0.21084329885E+02  0.74642536667E+03  0.10100000352E+00 0.  1.
</event>
<event>
 5   0  0.1523029E-05  0.1672316E+04  0.7818609E-02  0.8777313E-01
        2   -1    0    0  501    0  0.00000000000E+00  0.00000000000E+00  0.12757856491E+04  0.12757856492E+04  0.25500000920E-02 0.  1.
       -2   -1    0    0    0  501  0.00000000000E+00  0.00000000000E+00 -0.54802336928E+03  0.54802336929E+03  0.25500000920E-02 0. -1.
    10030    2    1    2    0    0  0.00000000000E+00  0.00000000000E+00  0.72776227987E+03  0.18238090184E+04  0.16723161782E+04 0.  0.
        5    1    3    3  502    0 -0.27524835686E+03  0.29797504529E+03 -0.43350807459E+03  0.59371889502E+03  0.46999998093E+01 0. -1.
       -5    1    3    3    0  502  0.27524835686E+03 -0.29797504529E+03  0.11612703545E+04  0.12300901234E+04  0.46999998093E+01 0.  1.
</event>
<event>
 5   0  0.1345931E-05  0.2875417E+04  0.7818609E-02  0.8280229E-01
       -2   -1    0    0    0  501  0.00000000000E+00  0.00000000000E+00  0.99532118312E+03  0.99532118312E+03  0.25500000920E-02 0. -1.
        2   -1    0    0  501    0  0.00000000000E+00  0.00000000000E+00 -0.20767224296E+04  0.20767224296E+04  0.25500000920E-02 0.  1.
    10030    2    1    2    0    0  0.00000000000E+00  0.00000000000E+00 -0.10814012465E+04  0.30720436127E+04  0.28754170659E+04 0.  0.
        2    1    3    3  502    0  0.59934114704E+03 -0.98331575766E+03 -0.14603076158E+04  0.18597360088E+04  0.25500000920E-02 0.  1.
       -2    1    3    3    0  502 -0.59934114704E+03  0.98331575766E+03  0.37890636929E+03  0.12123076039E+04  0.25500000920E-02 0. -1.
</event>
<event>
 5   0  0.5730920E-06  0.2568044E+04  0.7818609E-02  0.8379138E-01
        1   -1    0    0  501    0  0.00000000000E+00  0.00000000000E+00  0.15055823055E+04  0.15055823055E+04  0.50400001928E-02 0.  1.
       -1   -1    0    0    0  501  0.00000000000E+00  0.00000000000E+00 -0.10950663702E+04  0.10950663702E+04  0.50400001928E-02 0. -1.
    10030    2    1    2    0    0  0.00000000000E+00  0.00000000000E+00  0.41051593530E+03  0.26006486757E+04  0.25680440419E+04 0.  0.
        1    1    3    3  502    0  0.46707160105E+02 -0.56182732430E+03  0.13735430729E+04  0.14847397328E+04  0.50400001928E-02 0.  1.
       -1    1    3    3    0  502 -0.46707160105E+02  0.56182732430E+03 -0.96302713756E+03  0.11159089429E+04  0.50400001928E-02 0. -1.
</event>
<event>
 5   0  0.1523029E-05  0.2719723E+04  0.7818609E-02  0.8328634E-01
        2   -1    0    0  501    0  0.00000000000E+00  0.00000000000E+00  0.18510961620E+04  0.18510961620E+04  0.25500000920E-02 0. -1.
       -2   -1    0    0    0  501  0.00000000000E+00  0.00000000000E+00 -0.99898815096E+03  0.99898815096E+03  0.25500000920E-02 0.  1.
    10030    2    1    2    0    0  0.00000000000E+00  0.00000000000E+00  0.85210801107E+03  0.28500843130E+04  0.27197228772E+04 0.  0.
        5    1    3    3  502    0 -0.29999096647E+03  0.75677023134E+03  0.15675329128E+04  0.17663174363E+04  0.46999998093E+01 0.  1.
       -5    1    3    3    0  502  0.29999096647E+03 -0.75677023134E+03 -0.71542490174E+03  0.10837668767E+04  0.46999998093E+01 0. -1.
</event>
<event>
 5   0  0.1523029E-05  0.2500353E+04  0.7818609E-02  0.8402860E-01
        2   -1    0    0  501    0  0.00000000000E+00  0.00000000000E+00  0.13472747645E+04  0.13472747645E+04  0.25500000920E-02 0.  1.
       -2   -1    0    0    0  501  0.00000000000E+00  0.00000000000E+00 -0.11600757858E+04  0.11600757858E+04  0.25500000920E-02 0. -1.
    10030    2    1    2    0    0  0.00000000000E+00  0.00000000000E+00  0.18719897872E+03  0.25073505503E+04  0.25003526400E+04 0.  0.
        5    1    3    3  502    0  0.95387880366E+03  0.79269328918E+03 -0.63911177800E+02  0.12419155170E+04  0.46999998093E+01 0. -1.
       -5    1    3    3    0  502 -0.95387880366E+03 -0.79269328918E+03  0.25111015652E+03  0.12654350333E+04  0.46999998093E+01 0.  1.
</event>
<event>
 5   0  0.1423692E-05  0.3006582E+04  0.7818609E-02  0.8241854E-01
       -2   -1    0    0    0  501  0.00000000000E+00  0.00000000000E+00  0.10158417407E+04  0.10158417407E+04  0.25500000920E-02 0.  1.
        2   -1    0    0  501    0  0.00000000000E+00  0.00000000000E+00 -0.22246423500E+04  0.22246423500E+04  0.25500000920E-02 0. -1.
    10030    2    1    2    0    0  0.00000000000E+00  0.00000000000E+00 -0.12088006093E+04  0.32404840907E+04  0.30065824834E+04 0.  0.
        3    1    3    3  502    0 -0.67087457385E+03 -0.42824241779E+03  0.77012633667E+03  0.11075011724E+04  0.10100000352E+00 0.  1.
       -3    1    3    3    0  502  0.67087457385E+03  0.42824241779E+03 -0.19789269460E+04  0.21329829183E+04  0.10100000352E+00 0. -1.
</event>
<event>
 5   0  0.5392262E-06  0.3007399E+04  0.7818609E-02  0.8241621E-01
        1   -1    0    0  501    0  0.00000000000E+00  0.00000000000E+00  0.20870006471E+04  0.20870006471E+04  0.50400001928E-02 0.  1.
       -1   -1    0    0    0  501  0.00000000000E+00  0.00000000000E+00 -0.10834264142E+04  0.10834264142E+04  0.50400001928E-02 0. -1.
    10030    2    1    2    0    0  0.00000000000E+00  0.00000000000E+00  0.10035742329E+04  0.31704270613E+04  0.30073986284E+04 0.  0.
        2    1    3    3  502    0  0.13338275608E+04  0.57761179954E+03  0.95704074176E+02  0.14566710757E+04  0.25500000920E-02 0. -1.
       -2    1    3    3    0  502 -0.13338275608E+04 -0.57761179954E+03  0.90787015873E+03  0.17137559856E+04  0.25500000920E-02 0.  1.
</event>
<event>
 5   0  0.7032692E-06  0.2957204E+04  0.7818609E-02  0.8256058E-01
       -1   -1    0    0    0  501  0.00000000000E+00  0.00000000000E+00  0.12737588160E+04  0.12737588160E+04  0.50400001928E-02 0.  1.
        1   -1    0    0  501    0  0.00000000000E+00  0.00000000000E+00 -0.17163871781E+04  0.17163871781E+04  0.50400001928E-02 0. -1.
    10030    2    1    2    0    0  0.00000000000E+00  0.00000000000E+00 -0.44262836210E+03  0.29901459940E+04  0.29572036113E+04 0.  0.
        5    1    3    3  502    0  0.36933171726E+03  0.12142901096E+04  0.54564366670E+03  0.13815409833E+04  0.46999998093E+01 0.  1.
       -5    1    3    3    0  502 -0.36933171726E+03 -0.12142901096E+04 -0.98827202879E+03  0.16086050107E+04  0.46999998093E+01 0. -1.
</event>
<event>
 5   0  0.1345931E-05  0.2988804E+04  0.7818609E-02  0.8246935E-01
        2   -1    0    0  501    0  0.00000000000E+00  0.00000000000E+00  0.11122950187E+04  0.11122950187E+04  0.25500000920E-02 0.  1.
       -2   -1    0    0    0  501  0.00000000000E+00  0.00000000000E+00 -0.20077743307E+04  0.20077743307E+04  0.25500000920E-02 0. -1.
    10030    2    1    2    0    0  0.00000000000E+00  0.00000000000E+00 -0.89547931203E+03  0.31200693493E+04  0.29888040328E+04 0.  0.
        2    1    3    3  502    0  0.10373077855E+04 -0.66994542242E+03 -0.13263716748E+04  0.18122075297E+04  0.25500000920E-02 0. -1.
       -2    1    3    3    0  502 -0.10373077855E+04  0.66994542242E+03  0.43089236281E+03  0.13078618196E+04  0.25500000920E-02 0.  1.
</event>
<event>
 5   0  0.1480547E-05  0.2987732E+04  0.7818609E-02  0.8247243E-01
        2   -1    0    0  501    0  0.00000000000E+00  0.00000000000E+00  0.12625870230E+04  0.12625870230E+04  0.25500000920E-02 0.  1.
       -2   -1    0    0    0  501  0.00000000000E+00  0.00000000000E+00 -0.17675109359E+04  0.17675109359E+04  0.25500000920E-02 0. -1.
    10030    2    1    2    0    0  0.00000000000E+00  0.00000000000E+00 -0.50492391286E+03  0.30300979589E+04  0.29877324985E+04 0.  0.
        1    1    3    3  502    0  0.35192622383E+03 -0.53443260697E+03 -0.16214792625E+04  0.17431767774E+04  0.50400001928E-02 0. -1.
       -1    1    3    3    0  502 -0.35192622383E+03  0.53443260697E+03  0.11165553497E+04  0.12869211815E+04  0.50400001928E-02 0.  1.
</event>
<event>
 5   0  0.5392262E-06  0.2895194E+04  0.7818609E-02  0.8274309E-01
       -1   -1    0    0    0  501  0.00000000000E+00  0.00000000000E+00  0.10272317273E+04  0.10272317273E+04  0.50400001928E-02 0. -1.
        1   -1    0    0  501    0  0.00000000000E+00  0.00000000000E+00 -0.20399852746E+04  0.20399852746E+04  0.50400001928E-02 0.  1.
    10030    2    1    2    0    0  0.00000000000E+00  0.00000000000E+00 -0.10127535473E+04  0.30672170019E+04  0.28951943612E+04 0.  0.
        2    1    3    3  502    0  0.11932602706E+04  0.56470539440E+03 -0.11356161458E+04  0.17413748265E+04  0.25500000920E-02 0.  1.
       -2    1    3    3    0  502 -0.11932602706E+04 -0.56470539440E+03  0.12286259850E+03  0.13258421754E+04  0.25500000920E-02 0. -1.
</event>
<event>
 5   0  0.5522695E-06  0.3029034E+04  0.7818609E-02  0.8235488E-01
       -1   -1    0    0    0  501  0.00000000000E+00  0.00000000000E+00  0.16219204601E+04  0.16219204601E+04  0.50400001928E-02 0. -1.
        1   -1    0    0  501    0  0.00000000000E+00  0.00000000000E+00 -0.14142256835E+04  0.14142256835E+04  0.50400001928E-02 0.  1.
    10030    2    1    2    0    0  0.00000000000E+00  0.00000000000E+00  0.20769477659E+03  0.30361461436E+04  0.30290338864E+04 0.  0.
        3    1    3    3  502    0  0.12630913681E+04 -0.60698487664E+03 -0.47189761656E+03  0.14786878695E+04  0.10100000352E+00 0. -1.
       -3    1    3    3    0  502 -0.12630913681E+04  0.60698487664E+03  0.67959239315E+03  0.15574582741E+04  0.10100000352E+00 0.  1.
</event>
<event>
 5   0  0.1345931E-05  0.2959616E+04  0.7818609E-02  0.8255358E-01
       -2   -1    0    0    0  501  0.00000000000E+00  0.00000000000E+00  0.12660118984E+04  0.12660118984E+04  0.25500000920E-02 0. -1.
        2   -1    0    0  501    0  0.00000000000E+00  0.00000000000E+00 -0.17297089314E+04  0.17297089314E+04  0.25500000920E-02 0.  1.
    10030    2    1    2    0    0  0.00000000000E+00  0.00000000000E+00 -0.46369703307E+03  0.29957208298E+04  0.29596162508E+04 0.  0.
        2    1    3    3  502    0 -0.90580607615E+03  0.92338582534E+03 -0.95944017683E+03  0.16104817549E+04  0.25500000920E-02 0.  1.
       -2    1    3    3    0  502  0.90580607615E+03 -0.92338582534E+03  0.49574314376E+03  0.13852390749E+04  0.25500000920E-02 0. -1.
</event>
<event>
 5   0  0.5730920E-06  0.3041834E+04  0.7818609E-02  0.8231885E-01
        1   -1    0    0  501    0  0.00000000000E+00  0.00000000000E+00  0.14327316651E+04  0.14327316651E+04  0.50400001928E-02 0.  1.
       -1   -1    0    0    0  501  0.00000000000E+00  0.00000000000E+00 -0.16145301074E+04  0.16145301074E+04  0.50400001928E-02 0. -1.
    10030    2    1    2    0    0  0.00000000000E+00  0.00000000000E+00 -0.18179844237E+03  0.30472617725E+04  0.30418339265E+04 0.  0.
        1    1    3    3  502    0 -0.23906056463E+03 -0.76081700779E+03  0.12064776904E+04  0.14462298885E+04  0.50400001928E-02 0.  1.
       -1    1    3    3    0  502  0.23906056463E+03  0.76081700779E+03 -0.13882761328E+04  0.16010318840E+04  0.50400001928E-02 0. -1.
</event>
<event>
 5   0  0.5730920E-06  0.3053760E+04  0.7818609E-02  0.8228544E-01
        1   -1    0    0  501    0  0.00000000000E+00  0.00000000000E+00  0.13355613786E+04  0.13355613786E+04  0.50400001928E-02 0.  1.
       -1   -1    0    0    0  501  0.00000000000E+00  0.00000000000E+00 -0.17456046608E+04  0.17456046608E+04  0.50400001928E-02 0. -1.
    10030    2    1    2    0    0  0.00000000000E+00  0.00000000000E+00 -0.41004328222E+03  0.30811660394E+04  0.30537597595E+04 0.  0.
        1    1    3    3  502    0 -0.13844781205E+03  0.13506303020E+04 -0.90985533328E+03  0.16343826776E+04  0.50400001928E-02 0. -1.
       -1    1    3    3    0  502  0.13844781205E+03 -0.13506303020E+04  0.49981205105E+03  0.14467833617E+04  0.50400001928E-02 0.  1.
</event>
<event>
 5   0  0.5392262E-06  0.3010727E+04  0.7818609E-02  0.8240674E-01
       -1   -1    0    0    0  501  0.00000000000E+00  0.00000000000E+00  0.10876671648E+04  0.10876671648E+04  0.50400001928E-02 0.  1.
        1   -1    0    0  501    0  0.00000000000E+00  0.00000000000E+00 -0.20834674881E+04  0.20834674881E+04  0.50400001928E-02 0. -1.
    10030    2    1    2    0    0  0.00000000000E+00  0.00000000000E+00 -0.99580032331E+03  0.31711346530E+04  0.30107269394E+04 0.  0.
        2    1    3    3  502    0 -0.93520813209E+03  0.12775883884E+03  0.73726063790E+03  0.11977018909E+04  0.25500000920E-02 0.  1.
       -2    1    3    3    0  502  0.93520813209E+03 -0.12775883884E+03 -0.17330609612E+04  0.19734327621E+04  0.25500000920E-02 0. -1.
</event>
<event>
 5   0  0.1388724E-05  0.2977646E+04  0.7818609E-02  0.8250143E-01
        2   -1    0    0  501    0  0.00000000000E+00  0.00000000000E+00  0.89834878018E+03  0.89834878018E+03  0.25500000920E-02 0.  1.
       -2   -1    0    0    0  501  0.00000000000E+00  0.00000000000E+00 -0.24674095635E+04  0.24674095635E+04  0.25500000920E-02 0. -1.
    10030    2    1    2    0    0  0.00000000000E+00  0.00000000000E+00 -0.15690607833E+04  0.33657583437E+04  0.29776462997E+04 0.  0.
        4    1    3    3  502    0 -0.10063105121E+04 -0.90494326776E+03 -0.83162955269E+02  0.13559132917E+04  0.12699999809E+01 0.  1.
       -4    1    3    3    0  502  0.10063105121E+04  0.90494326776E+03 -0.14858978280E+04  0.20098450520E+04  0.12699999809E+01 0. -1.
</event>
<event>
 5   0  0.1523029E-05  0.2956983E+04  0.7818609E-02  0.8256123E-01
       -2   -1    0    0    0  501  0.00000000000E+00  0.00000000000E+00  0.14610723245E+04  0.14610723245E+04  0.25500000920E-02 0. -1.
        2   -1    0    0  501    0  0.00000000000E+00  0.00000000000E+00 -0.14961180098E+04  0.14961180098E+04  0.25500000920E-02 0.  1.
    10030    2    1    2    0    0  0.00000000000E+00  0.00000000000E+00 -0.35045685308E+02  0.29571903342E+04  0.29569826636E+04 0.  0.
        5    1    3    3  502    0 -0.43560337996E+03  0.14126298225E+04  0.78010249652E+01  0.14782950538E+04  0.46999998093E+01 0.  1.
       -5    1    3    3    0  502  0.43560337996E+03 -0.14126298225E+04 -0.42846710274E+02  0.14788952805E+04  0.46999998093E+01 0. -1.
</event>
<event>
 5   0  0.1388724E-05  0.1666202E+04  0.7818609E-02  0.8780879E-01
        2   -1    0    0  501    0  0.00000000000E+00  0.00000000000E+00  0.68520284893E+03  0.68520284894E+03  0.25500000920E-02 0. -1.
       -2   -1    0    0    0  501  0.00000000000E+00  0.00000000000E+00 -0.10129220408E+04  0.10129220408E+04  0.25500000920E-02 0.  1.
    10030    2    1    2    0    0  0.00000000000E+00  0.00000000000E+00 -0.32771919183E+03  0.16981248897E+04  0.16662017502E+04 0.  0.
        4    1    3    3  502    0 -0.57195734516E+03 -0.48222406815E+03 -0.53746201577E+03  0.92116355110E+03  0.12699999809E+01 0.  1.
       -4    1    3    3    0  502  0.57195734516E+03  0.48222406815E+03  0.20974282394E+03  0.77696133860E+03  0.12699999809E+01 0. -1.
</event>
<event>
 5   0  0.1480547E-05  0.1490030E+04  0.7818609E-02  0.8891110E-01
       -2   -1    0    0    0  501  0.00000000000E+00  0.00000000000E+00  0.78263943001E+03  0.78263943001E+03  0.25500000920E-02 0. -1.
        2   -1    0    0  501    0  0.00000000000E+00  0.00000000000E+00 -0.70919946087E+03  0.70919946087E+03  0.25500000920E-02 0.  1.
    10030    2    1    2    0    0  0.00000000000E+00  0.00000000000E+00  0.73439969139E+02  0.14918388909E+04  0.14900301498E+04 0.  0.
        1    1    3    3  502    0  0.34690799827E+03  0.42482364849E+03 -0.46810152382E+03  0.72106818555E+03  0.50400001928E-02 0.  1.
       -1    1    3    3    0  502 -0.34690799827E+03 -0.42482364849E+03  0.54154149296E+03  0.77077070534E+03  0.50400001928E-02 0. -1.
</event>
<event>
 5   0  0.1523029E-05  0.2862520E+04  0.7818609E-02  0.8284117E-01
        2   -1    0    0  501    0  0.00000000000E+00  0.00000000000E+00  0.13881709312E+04  0.13881709312E+04  0.25500000920E-02 0.  1.
       -2   -1    0    0    0  501  0.00000000000E+00  0.00000000000E+00 -0.14756862581E+04  0.14756862581E+04  0.25500000920E-02 0. -1.
    10030    2    1    2    0    0  0.00000000000E+00  0.00000000000E+00 -0.87515326941E+02  0.28638571893E+04  0.28625197061E+04 0.  0.
        5    1    3    3  502    0  0.21263394222E+02  0.14254843193E+04  0.82891375807E+02  0.14280583835E+04  0.46999998093E+01 0. -1.
       -5    1    3    3    0  502 -0.21263394222E+02 -0.14254843193E+04 -0.17040670275E+03  0.14357988058E+04  0.46999998093E+01 0.  1.
</event>
<event>
 5   0  0.1423692E-05  0.2873896E+04  0.7818609E-02  0.8280687E-01
       -2   -1    0    0    0  501  0.00000000000E+00  0.00000000000E+00  0.95690028694E+03  0.95690028695E+03  0.25500000920E-02 0. -1.
        2   -1    0    0  501    0  0.00000000000E+00  0.00000000000E+00 -0.21578215732E+04  0.21578215732E+04  0.25500000920E-02 0.  1.
    10030    2    1    2    0    0  0.00000000000E+00  0.00000000000E+00 -0.12009212863E+04  0.31147218602E+04  0.28738963674E+04 0.  0.
        3    1    3    3  502    0 -0.18790080768E+03  0.17484152735E+03  0.93185579113E+03  0.96655651613E+03  0.10100000352E+00 0. -1.
       -3    1    3    3    0  502  0.18790080768E+03 -0.17484152735E+03 -0.21327770774E+04  0.21481653440E+04  0.10100000352E+00 0.  1.
</event>
<event>
 5   0  0.1388724E-05  0.2212599E+04  0.7818609E-02  0.8513202E-01
        2   -1    0    0  501    0  0.00000000000E+00  0.00000000000E+00  0.14046226038E+04  0.14046226038E+04  0.25500000920E-02 0. -1.
       -2   -1    0    0    0  501  0.00000000000E+00  0.00000000000E+00 -0.87133602008E+03  0.87133602009E+03  0.25500000920E-02 0.  1.
    10030    2    1    2    0    0  0.00000000000E+00  0.00000000000E+00  0.53328658367E+03  0.22759586238E+04  0.22125987158E+04 0.  0.
        4    1    3    3  502    0 -0.52547403394E+03  0.83039746276E+02 -0.73112198421E+03  0.90418998474E+03  0.12699999809E+01 0.  1.
       -4    1    3    3    0  502  0.52547403394E+03 -0.83039746276E+02  0.12644085679E+04  0.13717686391E+04  0.12699999809E+01 0. -1.
</event>
<event>
 5   0  0.5522695E-06  0.3055471E+04  0.7818609E-02  0.8228066E-01
        1   -1    0    0  501    0  0.00000000000E+00  0.00000000000E+00  0.18644417802E+04  0.18644417802E+04  0.50400001928E-02 0. -1.
       -1   -1    0    0    0  501  0.00000000000E+00  0.00000000000E+00 -0.12518365782E+04  0.12518365782E+04  0.50400001928E-02 0.  1.
    10030    2    1    2    0    0  0.00000000000E+00  0.00000000000E+00  0.61260520201E+03  0.31162783585E+04  0.30554714324E+04 0.  0.
        3    1    3    3  502    0 -0.10812049078E+04 -0.10256814977E+04  0.64907101060E+03  0.16255213854E+04  0.10100000352E+00 0. -1.
       -3    1    3    3    0  502  0.10812049078E+04  0.10256814977E+04 -0.36465808593E+02  0.14907569731E+04  0.10100000352E+00 0.  1.
</event>
<event>
 5   0  0.5392262E-06  0.2501413E+04  0.7818609E-02  0.8402482E-01
        1   -1    0    0  501    0  0.00000000000E+00  0.00000000000E+00  0.22572632412E+04  0.22572632412E+04  0.50400001928E-02 0.  1.
       -1   -1    0    0    0  501  0.00000000000E+00  0.00000000000E+00 -0.69299246149E+03  0.69299246151E+03  0.50400001928E-02 0. -1.
    10030    2    1    2    0    0  0.00000000000E+00  0.00000000000E+00  0.15642707797E+04  0.29502557027E+04  0.25014127287E+04 0.  0.
        2    1    3    3  502    0  0.48209256170E+03 -0.98443346650E+03  0.14924886452E+04  0.18517680319E+04  0.25500000920E-02 0.  1.
       -2    1    3    3    0  502 -0.48209256170E+03  0.98443346650E+03  0.71782134502E+02  0.10984876708E+04  0.25500000920E-02 0. -1.
</event>
<event>
 5   0  0.7032692E-06  0.1595958E+04  0.7818609E-02  0.8823035E-01
       -1   -1    0    0    0  501  0.00000000000E+00  0.00000000000E+00  0.18659757720E+04  0.18659757720E+04  0.50400001928E-02 0.  1.
        1   -1    0    0  501    0  0.00000000000E+00  0.00000000000E+00 -0.34125341751E+03  0.34125341755E+03  0.50400001928E-02 0. -1.
    10030    2    1    2    0    0  0.00000000000E+00  0.00000000000E+00  0.15247223545E+04  0.22072291896E+04  0.15959581564E+04 0.  0.
        5    1    3    3  502    0 -0.32364327575E+03 -0.59376104940E+03  0.17649380270E+03  0.69890579201E+03  0.46999998093E+01 0. -1.
       -5    1    3    3    0  502  0.32364327575E+03  0.59376104940E+03  0.13482285518E+04  0.15083233975E+04  0.46999998093E+01 0.  1.
</event>
<event>
 5   0  0.1388724E-05  0.2870101E+04  0.7818609E-02  0.8281829E-01
       -2   -1    0    0    0  501  0.00000000000E+00  0.00000000000E+00  0.89385712714E+03  0.89385712715E+03  0.25500000920E-02 0. -1.
        2   -1    0    0  501    0  0.00000000000E+00  0.00000000000E+00 -0.23039146067E+04  0.23039146067E+04  0.25500000920E-02 0.  1.
    10030    2    1    2    0    0  0.00000000000E+00  0.00000000000E+00 -0.14100574796E+04  0.31977717339E+04  0.28701013860E+04 0.  0.
        4    1    3    3  502    0 -0.53345546912E+03 -0.96729212167E+02 -0.21854196402E+04  0.22516642500E+04  0.12699999809E+01 0.  1.
       -4    1    3    3    0  502  0.53345546912E+03  0.96729212167E+02  0.77536216062E+03  0.94610748388E+03  0.12699999809E+01 0. -1.
</event>
<event>
 5   0  0.5730920E-06  0.3073264E+04  0.7818609E-02  0.8223114E-01
       -1   -1    0    0    0  501  0.00000000000E+00  0.00000000000E+00  0.97769086796E+03  0.97769086797E+03  0.50400001928E-02 0. -1.
        1   -1    0    0  501    0  0.00000000000E+00  0.00000000000E+00 -0.24151177183E+04  0.24151177184E+04  0.50400001928E-02 0.  1.
    10030    2    1    2    0    0  0.00000000000E+00  0.00000000000E+00 -0.14374268504E+04  0.33928085863E+04  0.30732644132E+04 0.  0.
        1    1    3    3  502    0  0.48338342834E+03  0.14213280871E+04 -0.35691003838E+03  0.15431195176E+04  0.50400001928E-02 0. -1.
       -1    1    3    3    0  502 -0.48338342834E+03 -0.14213280871E+04 -0.10805168120E+04  0.18496890688E+04  0.50400001928E-02 0.  1.
</event>
<event>
 5   0  0.7032692E-06  0.3059411E+04  0.7818609E-02  0.8226966E-01
        1   -1    0    0  501    0  0.00000000000E+00  0.00000000000E+00  0.16317890000E+04  0.16317890000E+04  0.50400001928E-02 0.  1.
       -1   -1    0    0    0  501  0.00000000000E+00  0.00000000000E+00 -0.14340083904E+04  0.14340083905E+04  0.50400001928E-02 0. -1.
    10030    2    1    2    0    0  0.00000000000E+00  0.00000000000E+00  0.19778060957E+03  0.30657973905E+04  0.30594111312E+04 0.  0.
        5    1    3    3  502    0 -0.12333855454E+04 -0.49340875027E+03 -0.66116834552E+03  0.14838658193E+04  0.46999998093E+01 0. -1.
       -5    1    3    3    0  502  0.12333855454E+04  0.49340875027E+03  0.85894895509E+03  0.15819315712E+04  0.46999998093E+01 0.  1.
</event>
<event>
 5   0  0.5730920E-06  0.2255412E+04  0.7818609E-02  0.8495712E-01
       -1   -1    0    0    0  501  0.00000000000E+00  0.00000000000E+00  0.85685502523E+03  0.85685502524E+03  0.50400001928E-02 0.  1.
        1   -1    0    0  501    0  0.00000000000E+00  0.00000000000E+00 -0.14841731301E+04  0.14841731301E+04  0.50400001928E-02 0. -1.
    10030    2    1    2    0    0  0.00000000000E+00  0.00000000000E+00 -0.62731810485E+03  0.23410281553E+04  0.22554123391E+04 0.  0.
        1    1    3    3  502    0 -0.34080139356E+03  0.13264973149E+03  0.79359667497E+03  0.87380617054E+03  0.50400001928E-02 0.  1.
       -1    1    3    3    0  502  0.34080139356E+03 -0.13264973149E+03 -0.14209147798E+04  0.14672219848E+04  0.50400001928E-02 0. -1.
</event>
<event>
 5   0  0.5392262E-06  0.3058301E+04  0.7818609E-02  0.8227276E-01
       -1   -1    0    0    0  501  0.00000000000E+00  0.00000000000E+00  0.97493676510E+03  0.97493676511E+03  0.50400001928E-02 0. -1.
        1   -1    0    0  501    0  0.00000000000E+00  0.00000000000E+00 -0.23984132848E+04  0.23984132848E+04  0.50400001928E-02 0.  1.
    10030    2    1    2    0    0  0.00000000000E+00  0.00000000000E+00 -0.14234765197E+04  0.33733500499E+04  0.30583010246E+04 0.  0.
        2    1    3    3  502    0 -0.18693411839E+03 -0.99475258695E+03 -0.19760373075E+04  0.22201802888E+04  0.25500000920E-02 0.  1.
       -2    1    3    3    0  502  0.18693411839E+03  0.99475258695E+03  0.55256078780E+03  0.11531697612E+04  0.25500000920E-02 0. -1.
</event>
<event>
 5   0  0.1523029E-05  0.3010819E+04  0.7818609E-02  0.8240648E-01
        2   -1    0    0  501    0  0.00000000000E+00  0.00000000000E+00  0.32566322057E+04  0.32566322057E+04  0.25500000920E-02 0. -1.
       -2   -1    0    0    0  501  0.00000000000E+00  0.00000000000E+00 -0.69589022236E+03  0.69589022237E+03  0.25500000920E-02 0.  1.
    10030    2    1    2    0    0  0.00000000000E+00  0.00000000000E+00  0.25607419833E+04  0.39525224280E+04  0.30108194963E+04 0.  0.
        5    1    3    3  502    0  0.10279063232E+04  0.10281601240E+04  0.76766336432E+03  0.16440905634E+04  0.46999998093E+01 0.  1.
       -5    1    3    3    0  502 -0.10279063232E+04 -0.10281601240E+04  0.17930786190E+04  0.23084318646E+04  0.46999998093E+01 0. -1.
</event>
<event>
 5   0  0.1388724E-05  0.2303607E+04  0.7818609E-02  0.8476500E-01
        2   -1    0    0  501    0  0.00000000000E+00  0.00000000000E+00  0.94154138616E+03  0.94154138616E+03  0.25500000920E-02 0. -1.
       -2   -1    0    0    0  501  0.00000000000E+00  0.00000000000E+00 -0.14090208988E+04  0.14090208988E+04  0.25500000920E-02 0.  1.
    10030    2    1    2    0    0  0.00000000000E+00  0.00000000000E+00 -0.46747951266E+03  0.23505622850E+04  0.23036071629E+04 0.  0.
        4    1    3    3  502    0 -0.11816957214E+03  0.10975762050E+04 -0.56909102824E+03  0.12419757586E+04  0.12699999809E+01 0.  1.
       -4    1    3    3    0  502  0.11816957214E+03 -0.10975762050E+04  0.10161151559E+03  0.11085865264E+04  0.12699999809E+01 0. -1.
</event>
<event>
 5   0  0.5522695E-06  0.3022094E+04  0.7818609E-02  0.8237450E-01
        1   -1    0    0  501    0  0.00000000000E+00  0.00000000000E+00  0.21731838827E+04  0.21731838827E+04  0.50400001928E-02 0.  1.
       -1   -1    0    0    0  501  0.00000000000E+00  0.00000000000E+00 -0.10506535945E+04  0.10506535945E+04  0.50400001928E-02 0. -1.
    10030    2    1    2    0    0  0.00000000000E+00  0.00000000000E+00  0.11225302882E+04  0.32238374772E+04  0.30220942791E+04 0.  0.
        3    1    3    3  502    0 -0.11545092352E+04  0.97486942343E+03  0.55996706834E+03  0.16114667526E+04  0.10100000352E+00 0. -1.
       -3    1    3    3    0  502  0.11545092352E+04 -0.97486942343E+03  0.56256321989E+03  0.16123707246E+04  0.10100000352E+00 0.  1.
</event>
<event>
 5   0  0.5392262E-06  0.3059791E+04  0.7818609E-02  0.8226860E-01
       -1   -1    0    0    0  501  0.00000000000E+00  0.00000000000E+00  0.16135151552E+04  0.16135151552E+04  0.50400001928E-02 0. -1.
        1   -1    0    0  501    0  0.00000000000E+00  0.00000000000E+00 -0.14506092311E+04  0.14506092311E+04  0.50400001928E-02 0.  1.
    10030    2    1    2    0    0  0.00000000000E+00  0.00000000000E+00  0.16290592411E+03  0.30641243862E+04  0.30597908285E+04 0.  0.
        2    1    3    3  502    0  0.46174197876E+03  0.68650612139E+03 -0.12072587929E+04  0.14635470962E+04  0.25500000920E-02 0.  1.
       -2    1    3    3    0  502 -0.46174197876E+03 -0.68650612139E+03  0.13701647170E+04  0.16005772901E+04  0.25500000920E-02 0. -1.
</event>
<event>
 5   0  0.1345931E-05  0.3037946E+04  0.7818609E-02  0.8232978E-01
       -2   -1    0    0    0  501  0.00000000000E+00  0.00000000000E+00  0.89558093359E+03  0.89558093359E+03  0.25500000920E-02 0.  1.
        2   -1    0    0  501    0  0.00000000000E+00  0.00000000000E+00 -0.25762923506E+04  0.25762923506E+04  0.25500000920E-02 0. -1.
    10030    2    1    2    0    0  0.00000000000E+00  0.00000000000E+00 -0.16807114170E+04  0.34718732842E+04  0.30379455614E+04 0.  0.
        2    1    3    3  502    0  0.11879043332E+03 -0.40507023023E+03  0.82720020328E+03  0.92868360317E+03  0.25500000920E-02 0.  1.
       -2    1    3    3    0  502 -0.11879043332E+03  0.40507023023E+03 -0.25079116203E+04  0.25431896810E+04  0.25500000920E-02 0. -1.
</event>
<event>
 5   0  0.5730920E-06  0.2203483E+04  0.7818609E-02  0.8516980E-01
       -1   -1    0    0    0  501  0.00000000000E+00  0.00000000000E+00  0.74545371868E+03  0.74545371870E+03  0.50400001928E-02 0.  1.
        1   -1    0    0  501    0  0.00000000000E+00  0.00000000000E+00 -0.16283162374E+04  0.16283162374E+04  0.50400001928E-02 0. -1.
    10030    2    1    2    0    0  0.00000000000E+00  0.00000000000E+00 -0.88286251876E+03  0.23737699562E+04  0.22034830559E+04 0.  0.
        1    1    3    3  502    0 -0.83212375283E+03 -0.31170054683E+03 -0.11431101606E+04  0.14478563500E+04  0.50400001928E-02 0. -1.
       -1    1    3    3    0  502  0.83212375283E+03  0.31170054683E+03  0.26024764187E+03  0.92591360614E+03  0.50400001928E-02 0.  1.
</event>
<event>
 5   0  0.1388724E-05  0.2955568E+04  0.7818609E-02  0.8256534E-01
        2   -1    0    0  501    0  0.00000000000E+00  0.00000000000E+00  0.22759164598E+04  0.22759164598E+04  0.25500000920E-02 0.  1.
       -2   -1    0    0    0  501  0.00000000000E+00  0.00000000000E+00 -0.95954562058E+03  0.95954562058E+03  0.25500000920E-02 0. -1.
    10030    2    1    2    0    0  0.00000000000E+00  0.00000000000E+00  0.13163708392E+04  0.32354620804E+04  0.29555680820E+04 0.  0.
        4    1    3    3  502    0 -0.88762693315E+03  0.21374138018E+03 -0.61387224471E+03  0.11001853007E+04  0.12699999809E+01 0. -1.
       -4    1    3    3    0  502  0.88762693315E+03 -0.21374138018E+03  0.19302430839E+04  0.21352767797E+04  0.12699999809E+01 0.  1.
</event>
<event>
 5   0  0.5730920E-06  0.2940175E+04  0.7818609E-02  0.8261024E-01
        1   -1    0    0  501    0  0.00000000000E+00  0.00000000000E+00  0.17407292755E+04  0.17407292755E+04  0.50400001928E-02 0. -1.
       -1   -1    0    0    0  501  0.00000000000E+00  0.00000000000E+00 -0.12415243066E+04  0.12415243066E+04  0.50400001928E-02 0.  1.
    10030    2    1    2    0    0  0.00000000000E+00  0.00000000000E+00  0.49920496891E+03  0.29822535821E+04  0.29401753054E+04 0.  0.
        1    1    3    3  502    0 -0.41243564929E+03 -0.40063066834E+02 -0.11810620200E+04  0.12516452011E+04  0.50400001928E-02 0.  1.
       -1    1    3    3    0  502  0.41243564929E+03  0.40063066834E+02  0.16802669890E+04  0.17306083810E+04  0.50400001928E-02 0. -1.
</event>
<event>
 5   0  0.5730920E-06  0.2987159E+04  0.7818609E-02  0.8247407E-01
       -1   -1    0    0    0  501  0.00000000000E+00  0.00000000000E+00  0.10791627575E+04  0.10791627575E+04  0.50400001928E-02 0. -1.
        1   -1    0    0  501    0  0.00000000000E+00  0.00000000000E+00 -0.20671397186E+04  0.20671397186E+04  0.50400001928E-02 0.  1.
    10030    2    1    2    0    0  0.00000000000E+00  0.00000000000E+00 -0.98797696110E+03  0.31463024762E+04  0.29871593188E+04 0.  0.
        1    1    3    3  502    0  0.24891809652E+02 -0.57389322036E+03 -0.19461372679E+04  0.20291434883E+04  0.50400001928E-02 0.  1.
       -1    1    3    3    0  502 -0.24891809652E+02  0.57389322036E+03  0.95816030682E+03  0.11171589879E+04  0.50400001928E-02 0. -1.
</event>
<event>
 5   0  0.1423692E-05  0.2108001E+04  0.7818609E-02  0.8557727E-01
        2   -1    0    0  501    0  0.00000000000E+00  0.00000000000E+00  0.53086102008E+03  0.53086102008E+03  0.25500000920E-02 0. -1.
       -2   -1    0    0    0  501  0.00000000000E+00  0.00000000000E+00 -0.20926710567E+04  0.20926710567E+04  0.25500000920E-02 0.  1.
    10030    2    1    2    0    0  0.00000000000E+00  0.00000000000E+00 -0.15618100366E+04  0.26235320768E+04  0.21080014154E+04 0.  0.
        3    1    3    3  502    0  0.76237953378E+03  0.65961142358E+03 -0.39809903430E+03  0.10838785149E+04  0.10100000352E+00 0. -1.
       -3    1    3    3    0  502 -0.76237953378E+03 -0.65961142358E+03 -0.11637110023E+04  0.15396535619E+04  0.10100000352E+00 0.  1.
</event>
<event>
 5   0  0.4806125E-06  0.3028572E+04  0.7818609E-02  0.8235619E-01
        3   -1    0    0  501    0  0.00000000000E+00  0.00000000000E+00  0.18931975287E+04  0.18931975314E+04  0.10100000352E+00 0.  1.
       -3   -1    0    0    0  501  0.00000000000E+00  0.00000000000E+00 -0.12112114567E+04  0.12112114610E+04  0.10100000352E+00 0. -1.
    10030    2    1    2    0    0  0.00000000000E+00  0.00000000000E+00  0.68198607200E+03  0.31044089924E+04  0.30285723022E+04 0.  0.
        4    1    3    3  502    0 -0.50392596509E+03  0.59516189645E+02  0.18034557238E+04  0.18734827770E+04  0.12699999809E+01 0.  1.
       -4    1    3    3    0  502  0.50392596509E+03 -0.59516189645E+02 -0.11214696518E+04  0.12309262154E+04  0.12699999809E+01 0. -1.
</event>
<event>
 5   0  0.1423692E-05  0.3153927E+04  0.7818609E-02  0.8201092E-01
        2   -1    0    0  501    0  0.00000000000E+00  0.00000000000E+00  0.72263151308E+03  0.72263151308E+03  0.25500000920E-02 0.  1.
       -2   -1    0    0    0  501  0.00000000000E+00  0.00000000000E+00 -0.34413298539E+04  0.34413298539E+04  0.25500000920E-02 0. -1.
    10030    2    1    2    0    0  0.00000000000E+00  0.00000000000E+00 -0.27186983408E+04  0.41639613669E+04  0.31539266950E+04 0.  0.
        3    1    3    3  502    0 -0.63381756135E+02  0.11340078631E+02 -0.34395936581E+04  0.34401962717E+04  0.10100000352E+00 0. -1.
       -3    1    3    3    0  502  0.63381756135E+02 -0.11340078631E+02  0.72089531733E+03  0.72376509528E+03  0.10100000352E+00 0.  1.
</event>
<event>
 5   0  0.1388724E-05  0.2966824E+04  0.7818609E-02  0.8253268E-01
        2   -1    0    0  501    0  0.00000000000E+00  0.00000000000E+00  0.20608541475E+04  0.20608541475E+04  0.25500000920E-02 0. -1.
       -2   -1    0    0    0  501  0.00000000000E+00  0.00000000000E+00 -0.10677664523E+04  0.10677664523E+04  0.25500000920E-02 0.  1.
    10030    2    1    2    0    0  0.00000000000E+00  0.00000000000E+00  0.99308769519E+03  0.31286205999E+04  0.29668238383E+04 0.  0.
        4    1    3    3  502    0  0.63035520456E+02  0.70367550499E+03 -0.87895860897E+03  0.11276978950E+04  0.12699999809E+01 0.  1.
       -4    1    3    3    0  502 -0.63035520456E+02 -0.70367550499E+03  0.18720463042E+04  0.20009227049E+04  0.12699999809E+01 0. -1.
</event>
<event>
 5   0  0.1423692E-05  0.2885906E+04  0.7818609E-02  0.8277083E-01
        2   -1    0    0  501    0  0.00000000000E+00  0.00000000000E+00  0.18293244608E+04  0.18293244608E+04  0.25500000920E-02 0.  1.
       -2   -1    0    0    0  501  0.00000000000E+00  0.00000000000E+00 -0.11381872150E+04  0.11381872150E+04  0.25500000920E-02 0. -1.
    10030    2    1    2    0    0  0.00000000000E+00  0.00000000000E+00  0.69113724576E+03  0.29675116759E+04  0.28859062448E+04 0.  0.
        3    1    3    3  502    0  0.11145244292E+04 -0.71784508943E+03  0.93145877925E+03  0.16202104009E+04  0.10100000352E+00 0.  1.
       -3    1    3    3    0  502 -0.11145244292E+04  0.71784508943E+03 -0.24032153348E+03  0.13473012749E+04  0.10100000352E+00 0. -1.
</event>
<event>
 5   0  0.1480547E-05  0.2686265E+04  0.7818609E-02  0.8339475E-01
       -2   -1    0    0    0  501  0.00000000000E+00  0.00000000000E+00  0.15727013019E+04  0.15727013019E+04  0.25500000920E-02 0. -1.
        2   -1    0    0  501    0  0.00000000000E+00  0.00000000000E+00 -0.11470740178E+04  0.11470740178E+04  0.25500000920E-02 0.  1.
    10030    2    1    2    0    0  0.00000000000E+00  0.00000000000E+00  0.42562728417E+03  0.27197753197E+04  0.26862649171E+04 0.  0.
        1    1    3    3  502    0 -0.56049394245E+02  0.51882238509E+03 -0.10402385041E+04  0.11637930861E+04  0.50400001928E-02 0.  1.
       -1    1    3    3    0  502  0.56049394245E+02 -0.51882238509E+03  0.14658657883E+04  0.15559822336E+04  0.50400001928E-02 0. -1.
</event>
<event>
 5   0  0.5740079E-06  0.1571599E+04  0.7818609E-02  0.8838188E-01
       -1   -1    0    0    0  501  0.00000000000E+00  0.00000000000E+00  0.73636429015E+03  0.73636429017E+03  0.50400001928E-02 0. -1.
        1   -1    0    0  501    0  0.00000000000E+00  0.00000000000E+00 -0.83855368612E+03  0.83855368613E+03  0.50400001928E-02 0.  1.
    10030    2    1    2    0    0  0.00000000000E+00  0.00000000000E+00 -0.10218939597E+03  0.15749179763E+04  0.15715991726E+04 0.  0.
        2    1    3    3  502    0  0.34014693528E+03  0.21626945083E+03 -0.72706239146E+03  0.83131951380E+03  0.25500000920E-02 0.  1.
       -2    1    3    3    0  502 -0.34014693528E+03 -0.21626945083E+03  0.62487299549E+03  0.74359846250E+03  0.25500000920E-02 0. -1.
</event>
<event>
 5   0  0.5329891E-06  0.2277790E+04  0.7818609E-02  0.8486730E-01
        1   -1    0    0  501    0  0.00000000000E+00  0.00000000000E+00  0.12579916425E+04  0.12579916425E+04  0.50400001928E-02 0.  1.
       -1   -1    0    0    0  501  0.00000000000E+00  0.00000000000E+00 -0.10310734606E+04  0.10310734606E+04  0.50400001928E-02 0. -1.
    10030    2    1    2    0    0  0.00000000000E+00  0.00000000000E+00  0.22691818185E+03  0.22890651031E+04  0.22777899783E+04 0.  0.
        4    1    3    3  502    0  0.10483889602E+04  0.17478574541E+03  0.52464298192E+03  0.11852937780E+04  0.12699999809E+01 0.  1.
       -4    1    3    3    0  502 -0.10483889602E+04 -0.17478574541E+03 -0.29772480007E+03  0.11037713251E+04  0.12699999809E+01 0. -1.
</event>
<event>
 5   0  0.1523029E-05  0.2871387E+04  0.7818609E-02  0.8281442E-01
        2   -1    0    0  501    0  0.00000000000E+00  0.00000000000E+00  0.16933120604E+04  0.16933120604E+04  0.25500000920E-02 0. -1.
       -2   -1    0    0    0  501  0.00000000000E+00  0.00000000000E+00 -0.12172689508E+04  0.12172689508E+04  0.25500000920E-02 0.  1.
    10030    2    1    2    0    0  0.00000000000E+00  0.00000000000E+00  0.47604310965E+03  0.29105810112E+04  0.28713872571E+04 0.  0.
        5    1    3    3  502    0 -0.13391986357E+04  0.46184125561E+03  0.15047333553E+01  0.14166067504E+04  0.46999998093E+01 0.  1.
       -5    1    3    3    0  502  0.13391986357E+04 -0.46184125561E+03  0.47453837629E+03  0.14939742607E+04  0.46999998093E+01 0. -1.
</event>
<event>
 5   0  0.5730920E-06  0.3066739E+04  0.7818609E-02  0.8224926E-01
       -1   -1    0    0    0  501  0.00000000000E+00  0.00000000000E+00  0.88904106655E+03  0.88904106657E+03  0.50400001928E-02 0.  1.
        1   -1    0    0  501    0  0.00000000000E+00  0.00000000000E+00 -0.26446720608E+04  0.26446720608E+04  0.50400001928E-02 0. -1.
    10030    2    1    2    0    0  0.00000000000E+00  0.00000000000E+00 -0.17556309943E+04  0.35337131274E+04  0.30667390301E+04 0.  0.
        1    1    3    3  502    0  0.61198042453E+02 -0.49596492157E+03  0.79257772355E+03  0.93696630234E+03  0.50400001928E-02 0.  1.
       -1    1    3    3    0  502 -0.61198042453E+02  0.49596492157E+03 -0.25482087178E+04  0.25967468251E+04  0.50400001928E-02 0. -1.
</event>
<event>
 5   0  0.5329891E-06  0.3010025E+04  0.7818609E-02  0.8240874E-01
       -1   -1    0    0    0  501  0.00000000000E+00  0.00000000000E+00  0.13710920712E+04  0.13710920712E+04  0.50400001928E-02 0.  1.
        1   -1    0    0  501    0  0.00000000000E+00  0.00000000000E+00 -0.16520130767E+04  0.16520130767E+04  0.50400001928E-02 0. -1.
    10030    2    1    2    0    0  0.00000000000E+00  0.00000000000E+00 -0.28092100556E+03  0.30231051479E+04  0.30100246052E+04 0.  0.
        4    1    3    3  502    0 -0.90614031982E+03  0.61436795366E+03  0.89675296715E+03  0.14151698692E+04  0.12699999809E+01 0.  1.
       -4    1    3    3    0  502  0.90614031982E+03 -0.61436795366E+03 -0.11776739727E+04  0.16079352787E+04  0.12699999809E+01 0. -1.
</event>
<event>
 5   0  0.7032692E-06  0.3269583E+04  0.7818609E-02  0.8170679E-01
       -1   -1    0    0    0  501  0.00000000000E+00  0.00000000000E+00  0.18088415707E+04  0.18088415708E+04  0.50400001928E-02 0. -1.
        1   -1    0    0  501    0  0.00000000000E+00  0.00000000000E+00 -0.14774884620E+04  0.14774884621E+04  0.50400001928E-02 0.  1.
    10030    2    1    2    0    0  0.00000000000E+00  0.00000000000E+00  0.33135310870E+03  0.32863300328E+04  0.32695825730E+04 0.  0.
        5    1    3    3  502    0  0.10478259942E+04 -0.82705953910E+03  0.11142018416E+04  0.17388026424E+04  0.46999998093E+01 0. -1.
       -5    1    3    3    0  502 -0.10478259942E+04  0.82705953910E+03 -0.78284873294E+03  0.15475273904E+04  0.46999998093E+01 0.  1.
</event>
<event>
 5   0  0.1388724E-05  0.2986585E+04  0.7818609E-02  0.8247572E-01
        2   -1    0    0  501    0  0.00000000000E+00  0.00000000000E+00  0.12579821274E+04  0.12579821274E+04  0.25500000920E-02 0. -1.
       -2   -1    0    0    0  501  0.00000000000E+00  0.00000000000E+00 -0.17726182451E+04  0.17726182451E+04  0.25500000920E-02 0.  1.
    10030    2    1    2    0    0  0.00000000000E+00  0.00000000000E+00 -0.51463611777E+03  0.30306003725E+04  0.29865847190E+04 0.  0.
        4    1    3    3  502    0  0.12195639314E+04 -0.77294016912E+03  0.12927942021E+03  0.14496508094E+04  0.12699999809E+01 0. -1.
       -4    1    3    3    0  502 -0.12195639314E+04  0.77294016912E+03 -0.64391553798E+03  0.15809495630E+04  0.12699999809E+01 0.  1.
</event>
<event>
 5   0  0.5730920E-06  0.3020734E+04  0.7818609E-02  0.8237835E-01
       -1   -1    0    0    0  501  0.00000000000E+00  0.00000000000E+00  0.11430158055E+04  0.11430158055E+04  0.50400001928E-02 0. -1.
        1   -1    0    0  501    0  0.00000000000E+00  0.00000000000E+00 -0.19957809240E+04  0.19957809240E+04  0.50400001928E-02 0.  1.
    10030    2    1    2    0    0  0.00000000000E+00  0.00000000000E+00 -0.85276511848E+03  0.31387967295E+04  0.30207344408E+04 0.  0.
        1    1    3    3  502    0 -0.78181035724E+03 -0.11462853041E+04 -0.10463698462E+04  0.17378398338E+04  0.50400001928E-02 0.  1.
       -1    1    3    3    0  502  0.78181035724E+03  0.11462853041E+04  0.19360472769E+03  0.14009568957E+04  0.50400001928E-02 0. -1.
</event>
<event>
 5   0  0.1345931E-05  0.2638410E+04  0.7818609E-02  0.8355270E-01
       -2   -1    0    0    0  501  0.00000000000E+00  0.00000000000E+00  0.14898053141E+04  0.14898053142E+04  0.25500000920E-02 0.  1.
        2   -1    0    0  501    0  0.00000000000E+00  0.00000000000E+00 -0.11681403682E+04  0.11681403682E+04  0.25500000920E-02 0. -1.
    10030    2    1    2    0    0  0.00000000000E+00  0.00000000000E+00  0.32166494595E+03  0.26579456824E+04  0.26384099213E+04 0.  0.
        2    1    3    3  502    0 -0.19543643347E+03  0.94178087141E+02 -0.11500467544E+04  0.11703300598E+04  0.25500000920E-02 0. -1.
       -2    1    3    3    0  502  0.19543643347E+03 -0.94178087141E+02  0.14717117003E+04  0.14876156226E+04  0.25500000920E-02 0.  1.
</event>
<event>
 5   0  0.1523029E-05  0.3006022E+04  0.7818609E-02  0.8242013E-01
       -2   -1    0    0    0  501  0.00000000000E+00  0.00000000000E+00  0.10101416994E+04  0.10101416994E+04  0.25500000920E-02 0.  1.
        2   -1    0    0  501    0  0.00000000000E+00  0.00000000000E+00 -0.22363617580E+04  0.22363617580E+04  0.25500000920E-02 0. -1.
    10030    2    1    2    0    0  0.00000000000E+00  0.00000000000E+00 -0.12262200586E+04  0.32465034574E+04  0.30060221335E+04 0.  0.
        5    1    3    3  502    0  0.46815114001E+03 -0.10421280362E+04 -0.16678800631E+04  0.20216434722E+04  0.46999998093E+01 0. -1.
       -5    1    3    3    0  502 -0.46815114001E+03  0.10421280362E+04  0.44166000449E+03  0.12248599852E+04  0.46999998093E+01 0.  1.
</event>
<event>
 5   0  0.5522695E-06  0.1630489E+04  0.7818609E-02  0.8802033E-01
       -1   -1    0    0    0  501  0.00000000000E+00  0.00000000000E+00  0.50766221838E+03  0.50766221840E+03  0.50400001928E-02 0.  1.
        1   -1    0    0  501    0  0.00000000000E+00  0.00000000000E+00 -0.13091848751E+04  0.13091848751E+04  0.50400001928E-02 0. -1.
    10030    2    1    2    0    0  0.00000000000E+00  0.00000000000E+00 -0.80152265676E+03  0.18168470935E+04  0.16304891266E+04 0.  0.
        3    1    3    3  502    0  0.52821332685E+03 -0.59946564880E+03 -0.58131611483E+03  0.98807733417E+03  0.10100000352E+00 0. -1.
       -3    1    3    3    0  502 -0.52821332685E+03  0.59946564880E+03 -0.22020654193E+03  0.82876975938E+03  0.10100000352E+00 0.  1.
</event>
<event>
 5   0  0.7032692E-06  0.2964499E+04  0.7818609E-02  0.8253942E-01
       -1   -1    0    0    0  501  0.00000000000E+00  0.00000000000E+00  0.85906885836E+03  0.85906885837E+03  0.50400001928E-02 0. -1.
        1   -1    0    0  501    0  0.00000000000E+00  0.00000000000E+00 -0.25574942444E+04  0.25574942444E+04  0.50400001928E-02 0.  1.
    10030    2    1    2    0    0  0.00000000000E+00  0.00000000000E+00 -0.16984253860E+04  0.34165631028E+04  0.29644990544E+04 0.  0.
        5    1    3    3  502    0 -0.95895121915E+03 -0.11230667497E+04 -0.70263663453E+03  0.16354163675E+04  0.46999998093E+01 0. -1.
       -5    1    3    3    0  502  0.95895121915E+03  0.11230667497E+04 -0.99578875152E+03  0.17811467353E+04  0.46999998093E+01 0.  1.
</event>
<event>
 5   0  0.1345931E-05  0.1677676E+04  0.7818609E-02  0.8774200E-01
        2   -1    0    0  501    0  0.00000000000E+00  0.00000000000E+00  0.13946861782E+04  0.13946861782E+04  0.25500000920E-02 0.  1.
       -2   -1    0    0    0  501  0.00000000000E+00  0.00000000000E+00 -0.50452181621E+03  0.50452181622E+03  0.25500000920E-02 0. -1.
    10030    2    1    2    0    0  0.00000000000E+00  0.00000000000E+00  0.89016436199E+03  0.18992079944E+04  0.16776764929E+04 0.  0.
        2    1    3    3  502    0  0.83715498706E+02  0.56468246986E+03 -0.25071222546E+03  0.62348311645E+03  0.25500000920E-02 0. -1.
       -2    1    3    3    0  502 -0.83715498706E+02 -0.56468246986E+03  0.11408765875E+04  0.12757248780E+04  0.25500000920E-02 0.  1.
</event>
<event>
 5   0  0.5329891E-06  0.1781062E+04  0.7818609E-02  0.8716436E-01
        1   -1    0    0  501    0  0.00000000000E+00  0.00000000000E+00  0.14178332790E+04  0.14178332790E+04  0.50400001928E-02 0. -1.
       -1   -1    0    0    0  501  0.00000000000E+00  0.00000000000E+00 -0.55933612301E+03  0.55933612303E+03  0.50400001928E-02 0.  1.
    10030    2    1    2    0    0  0.00000000000E+00  0.00000000000E+00  0.85849715597E+03  0.19771694020E+04  0.17810618960E+04 0.  0.
        4    1    3    3  502    0  0.12872294570E+03  0.59107215710E+03  0.11547422901E+04  0.13035978141E+04  0.12699999809E+01 0. -1.
       -4    1    3    3    0  502 -0.12872294570E+03 -0.59107215710E+03 -0.29624513408E+03  0.67357158790E+03  0.12699999809E+01 0.  1.
</event>
<event>
 5   0  0.1423692E-05  0.3002908E+04  0.7818609E-02  0.8242901E-01
        2   -1    0    0  501    0  0.00000000000E+00  0.00000000000E+00  0.22452831474E+04  0.22452831474E+04  0.25500000920E-02 0.  1.
       -2   -1    0    0    0  501  0.00000000000E+00  0.00000000000E+00 -0.10040447833E+04  0.10040447833E+04  0.25500000920E-02 0. -1.
    10030    2    1    2    0    0  0.00000000000E+00  0.00000000000E+00  0.12412383642E+04  0.32493279307E+04  0.30029084775E+04 0.  0.
        3    1    3    3  502    0  0.11414504941E+04  0.75481675312E+03  0.12891426504E+04  0.18800389210E+04  0.10100000352E+00 0. -1.
       -3    1    3    3    0  502 -0.11414504941E+04 -0.75481675312E+03 -0.47904286264E+02  0.13692890097E+04  0.10100000352E+00 0.  1.
</event>
<event>
 5   0  0.1523029E-05  0.2976480E+04  0.7818609E-02  0.8250479E-01
        2   -1    0    0  501    0  0.00000000000E+00  0.00000000000E+00  0.17949760449E+04  0.17949760449E+04  0.25500000920E-02 0.  1.
       -2   -1    0    0    0  501  0.00000000000E+00  0.00000000000E+00 -0.12339209874E+04  0.12339209874E+04  0.25500000920E-02 0. -1.
    10030    2    1    2    0    0  0.00000000000E+00  0.00000000000E+00  0.56105505750E+03  0.30288970322E+04  0.29764802123E+04 0.  0.
        5    1    3    3  502    0 -0.14618684233E+03 -0.93589800873E+03  0.14485920974E+04  0.17308139213E+04  0.46999998093E+01 0.  1.
       -5    1    3    3    0  502  0.14618684233E+03  0.93589800873E+03 -0.88753703989E+03  0.12980831109E+04  0.46999998093E+01 0. -1.
</event>
<event>
 5   0  0.1388724E-05  0.2942421E+04  0.7818609E-02  0.8260367E-01
        2   -1    0    0  501    0  0.00000000000E+00  0.00000000000E+00  0.18896335820E+04  0.18896335820E+04  0.25500000920E-02 0.  1.
       -2   -1    0    0    0  501  0.00000000000E+00  0.00000000000E+00 -0.11454389036E+04  0.11454389036E+04  0.25500000920E-02 0. -1.
    10030    2    1    2    0    0  0.00000000000E+00  0.00000000000E+00  0.74419467840E+03  0.30350724855E+04  0.29424206486E+04 0.  0.
        4    1    3    3  502    0  0.10682680142E+04 -0.90787551662E+03  0.83226564955E+03  0.16303687400E+04  0.12699999809E+01 0.  1.
       -4    1    3    3    0  502 -0.10682680142E+04  0.90787551662E+03 -0.88070971147E+02  0.14047037456E+04  0.12699999809E+01 0. -1.
</event>
<event>
 5   0  0.5329891E-06  0.1717817E+04  0.7818609E-02  0.8751267E-01
        1   -1    0    0  501    0  0.00000000000E+00  0.00000000000E+00  0.16359240397E+04  0.16359240397E+04  0.50400001928E-02 0.  1.
       -1   -1    0    0    0  501  0.00000000000E+00  0.00000000000E+00 -0.45095245215E+03  0.45095245217E+03  0.50400001928E-02 0. -1.
    10030    2    1    2    0    0  0.00000000000E+00  0.00000000000E+00  0.11849715876E+04  0.20868764919E+04  0.17178171699E+04 0.  0.
        4    1    3    3  502    0 -0.55416952819E+03 -0.46706825628E+02 -0.20269021315E+03  0.59192088065E+03  0.12699999809E+01 0. -1.
       -4    1    3    3    0  502  0.55416952819E+03  0.46706825628E+02  0.13876618007E+04  0.14949556113E+04  0.12699999809E+01 0.  1.
</event>
<event>
 5   0  0.1480547E-05  0.2626843E+04  0.7818609E-02  0.8359140E-01
       -2   -1    0    0    0  501  0.00000000000E+00  0.00000000000E+00  0.13561130589E+04  0.13561130589E+04  0.25500000920E-02 0.  1.
        2   -1    0    0  501    0  0.00000000000E+00  0.00000000000E+00 -0.12720735123E+04  0.12720735123E+04  0.25500000920E-02 0. -1.
    10030    2    1    2    0    0  0.00000000000E+00  0.00000000000E+00  0.84039546654E+02  0.26281865712E+04  0.26268425929E+04 0.  0.
        1    1    3    3  502    0  0.91717928901E+03 -0.73970145761E+03  0.62257470466E+03  0.13326572543E+04  0.50400001928E-02 0.  1.
       -1    1    3    3    0  502 -0.91717928901E+03  0.73970145761E+03 -0.53853515801E+03  0.12955293169E+04  0.50400001928E-02 0. -1.
</event>
<event>
 5   0  0.5329891E-06  0.2853030E+04  0.7818609E-02  0.8286991E-01
        1   -1    0    0  501    0  0.00000000000E+00  0.00000000000E+00  0.12345419387E+04  0.12345419387E+04  0.50400001928E-02 0.  1.
       -1   -1    0    0    0  501  0.00000000000E+00  0.00000000000E+00 -0.16483395814E+04  0.16483395814E+04  0.50400001928E-02 0. -1.
    10030    2    1    2    0    0  0.00000000000E+00  0.00000000000E+00 -0.41379764271E+03  0.28828815201E+04  0.28530295073E+04 0.  0.
        4    1    3    3  502    0 -0.92420802625E+03  0.12514306821E+03 -0.12976008798E+04  0.15979959072E+04  0.12699999809E+01 0. -1.
       -4    1    3    3    0  502  0.92420802625E+03 -0.12514306821E+03  0.88380323711E+03  0.12848856129E+04  0.12699999809E+01 0.  1.
</event>
<event>
 5   0  0.1388724E-05  0.2971177E+04  0.7818609E-02  0.8252010E-01
        2   -1    0    0  501    0  0.00000000000E+00  0.00000000000E+00  0.13453039822E+04  0.13453039822E+04  0.25500000920E-02 0. -1.
       -2   -1    0    0    0  501  0.00000000000E+00  0.00000000000E+00 -0.16405011318E+04  0.16405011318E+04  0.25500000920E-02 0.  1.
    10030    2    1    2    0    0  0.00000000000E+00  0.00000000000E+00 -0.29519714962E+03  0.29858051140E+04  0.29711766729E+04 0.  0.
        4    1    3    3  502    0 -0.94103477378E+03 -0.10549300721E+04  0.31131948857E+03  0.14475307732E+04  0.12699999809E+01 0.  1.
       -4    1    3    3    0  502  0.94103477378E+03  0.10549300721E+04 -0.60651663819E+03  0.15382743409E+04  0.12699999809E+01 0. -1.
</event>
<event>
 5   0  0.5730920E-06  0.2947841E+04  0.7818609E-02  0.8258784E-01
        1   -1    0    0  501    0  0.00000000000E+00  0.00000000000E+00  0.12755548637E+04  0.12755548638E+04  0.50400001928E-02 0.  1.
       -1   -1    0    0    0  501  0.00000000000E+00  0.00000000000E+00 -0.17031349074E+04  0.17031349074E+04  0.50400001928E-02 0. -1.
    10030    2    1    2    0    0  0.00000000000E+00  0.00000000000E+00 -0.42758004367E+03  0.29786897712E+04  0.29478412541E+04 0.  0.
        1    1    3    3  502    0 -0.38699423021E+03 -0.23444797033E+03  0.12036409165E+04  0.12858778484E+04  0.50400001928E-02 0.  1.
       -1    1    3    3    0  502  0.38699423021E+03  0.23444797033E+03 -0.16312209602E+04  0.16928119228E+04  0.50400001928E-02 0. -1.
</event>
<event>
 5   0  0.1523029E-05  0.1488479E+04  0.7818609E-02  0.8892150E-01
       -2   -1    0    0    0  501  0.00000000000E+00  0.00000000000E+00  0.38177714609E+03  0.38177714610E+03  0.25500000920E-02 0.  1.
        2   -1    0    0  501    0  0.00000000000E+00  0.00000000000E+00 -0.14508271055E+04  0.14508271055E+04  0.25500000920E-02 0. -1.
    10030    2    1    2    0    0  0.00000000000E+00  0.00000000000E+00 -0.10690499594E+04  0.18326042516E+04  0.14884792667E+04 0.  0.
        5    1    3    3  502    0 -0.69353065183E+03  0.15677065273E+03 -0.80513180851E+03  0.10741606591E+04  0.46999998093E+01 0. -1.
       -5    1    3    3    0  502  0.69353065183E+03 -0.15677065273E+03 -0.26391815091E+03  0.75844359248E+03  0.46999998093E+01 0.  1.
</event>
<event>
 5   0  0.1523029E-05  0.2399289E+04  0.7818609E-02  0.8439770E-01
        2   -1    0    0  501    0  0.00000000000E+00  0.00000000000E+00  0.10082736667E+04  0.10082736667E+04  0.25500000920E-02 0. -1.
       -2   -1    0    0    0  501  0.00000000000E+00  0.00000000000E+00 -0.14273381820E+04  0.14273381820E+04  0.25500000920E-02 0.  1.
    10030    2    1    2    0    0  0.00000000000E+00  0.00000000000E+00 -0.41906451528E+03  0.24356118487E+04  0.23992894802E+04 0.  0.
        5    1    3    3  502    0  0.61900375350E+03 -0.39249348161E+03  0.75453359459E+03  0.10519314689E+04  0.46999998093E+01 0. -1.
       -5    1    3    3    0  502 -0.61900375350E+03  0.39249348161E+03 -0.11735981099E+04  0.13836803798E+04  0.46999998093E+01 0.  1.
</event>
<event>
 5   0  0.1345931E-05  0.3065712E+04  0.7818609E-02  0.8225211E-01
       -2   -1    0    0    0  501  0.00000000000E+00  0.00000000000E+00  0.15001926346E+04  0.15001926346E+04  0.25500000920E-02 0.  1.
        2   -1    0    0  501    0  0.00000000000E+00  0.00000000000E+00 -0.15662308563E+04  0.15662308563E+04  0.25500000920E-02 0. -1.
    10030    2    1    2    0    0  0.00000000000E+00  0.00000000000E+00 -0.66038221623E+02  0.30664234909E+04  0.30657123118E+04 0.  0.
        2    1    3    3  502    0 -0.86693645275E+03 -0.12638731790E+04 -0.66735035386E+01  0.15326443688E+04  0.25500000920E-02 0. -1.
       -2    1    3    3    0  502  0.86693645275E+03  0.12638731790E+04 -0.59364718084E+02  0.15337791221E+04  0.25500000920E-02 0.  1.
</event>
<event>
 5   0  0.1345931E-05  0.1482744E+04  0.7818609E-02  0.8896010E-01
        2   -1    0    0  501    0  0.00000000000E+00  0.00000000000E+00  0.20219095333E+04  0.20219095333E+04  0.25500000920E-02 0.  1.
       -2   -1    0    0    0  501  0.00000000000E+00  0.00000000000E+00 -0.27183822726E+03  0.27183822727E+03  0.25500000920E-02 0. -1.
    10030    2    1    2    0    0  0.00000000000E+00  0.00000000000E+00  0.17500713060E+04  0.22937477605E+04  0.14827438123E+04 0.  0.
        2    1    3    3  502    0 -0.12535039433E+03 -0.36470051660E+03 -0.10446486276E+03  0.39953985499E+03  0.25500000920E-02 0. -1.
       -2    1    3    3    0  502  0.12535039433E+03  0.36470051660E+03  0.18545361688E+04  0.18942079055E+04  0.25500000920E-02 0.  1.
</event>
<event>
 5   0  0.1480547E-05  0.3030365E+04  0.7818609E-02  0.8235113E-01
        2   -1    0    0  501    0  0.00000000000E+00  0.00000000000E+00  0.18801953530E+04  0.18801953530E+04  0.25500000920E-02 0. -1.
       -2   -1    0    0    0  501  0.00000000000E+00  0.00000000000E+00 -0.12210313485E+04  0.12210313485E+04  0.25500000920E-02 0.  1.
    10030    2    1    2    0    0  0.00000000000E+00  0.00000000000E+00  0.65916400450E+03  0.31012267015E+04  0.30303646429E+04 0.  0.
        1    1    3    3  502    0  0.21532725048E+03 -0.27635608965E+03 -0.11790120120E+04  0.12299625350E+04  0.50400001928E-02 0.  1.
       -1    1    3    3    0  502 -0.21532725048E+03  0.27635608965E+03  0.18381760165E+04  0.18712641665E+04  0.50400001928E-02 0. -1.
</event>
<event>
 5   0  0.5522695E-06  0.3025492E+04  0.7818609E-02  0.8236489E-01
        1   -1    0    0  501    0  0.00000000000E+00  0.00000000000E+00  0.13878350132E+04  0.13878350132E+04  0.50400001928E-02 0. -1.
       -1   -1    0    0    0  501  0.00000000000E+00  0.00000000000E+00 -0.16488992892E+04  0.16488992892E+04  0.50400001928E-02 0.  1.
    10030    2    1    2    0    0  0.00000000000E+00  0.00000000000E+00 -0.26106427600E+03  0.30367343024E+04  0.30254918059E+04 0.  0.
        3    1    3    3  502    0  0.69223647176E+03  0.13234181359E+04  0.11072171427E+03  0.14976268572E+04  0.10100000352E+00 0. -1.
       -3    1    3    3    0  502 -0.69223647176E+03 -0.13234181359E+04 -0.37178599027E+03  0.15391074452E+04  0.10100000352E+00 0.  1.
</event>
<event>
 5   0  0.5522695E-06  0.2929881E+04  0.7818609E-02  0.8264042E-01
       -1   -1    0    0    0  501  0.00000000000E+00  0.00000000000E+00  0.10052424340E+04  0.10052424340E+04  0.50400001928E-02 0. -1.
        1   -1    0    0  501    0  0.00000000000E+00  0.00000000000E+00 -0.21348594581E+04  0.21348594581E+04  0.50400001928E-02 0.  1.
    10030    2    1    2    0    0  0.00000000000E+00  0.00000000000E+00 -0.11296170241E+04  0.31401018921E+04  0.29298814433E+04 0.  0.
        3    1    3    3  502    0  0.14509685583E+04 -0.20157522481E+03 -0.55362017340E+03  0.15660260646E+04  0.10100000352E+00 0. -1.
       -3    1    3    3    0  502 -0.14509685583E+04  0.20157522481E+03 -0.57599685072E+03  0.15740758275E+04  0.10100000352E+00 0.  1.
</event>
<event>
 5   0  0.1423692E-05  0.3060034E+04  0.7818609E-02  0.8226793E-01
        2   -1    0    0  501    0  0.00000000000E+00  0.00000000000E+00  0.20595489358E+04  0.20595489358E+04  0.25500000920E-02 0. -1.
       -2   -1    0    0    0  501  0.00000000000E+00  0.00000000000E+00 -0.11366335723E+04  0.11366335723E+04  0.25500000920E-02 0.  1.
    10030    2    1    2    0    0  0.00000000000E+00  0.00000000000E+00  0.92291536348E+03  0.31961825081E+04  0.30600342901E+04 0.  0.
        3    1    3    3  502    0 -0.87090930758E+03 -0.53620101258E+03  0.16500505032E+04  0.19413040002E+04  0.10100000352E+00 0. -1.
       -3    1    3    3    0  502  0.87090930758E+03  0.53620101258E+03 -0.72713513970E+03  0.12548785079E+04  0.10100000352E+00 0.  1.
</event>
<event>
 5   0  0.5730920E-06  0.2215555E+04  0.7818609E-02  0.8511982E-01
        1   -1    0    0  501    0  0.00000000000E+00  0.00000000000E+00  0.82895203752E+03  0.82895203753E+03  0.50400001928E-02 0. -1.
       -1   -1    0    0    0  501  0.00000000000E+00  0.00000000000E+00 -0.14803881569E+04  0.14803881569E+04  0.50400001928E-02 0.  1.
    10030    2    1    2    0    0  0.00000000000E+00  0.00000000000E+00 -0.65143611936E+03  0.23093401944E+04  0.22155548100E+04 0.  0.
        1    1    3    3  502    0  0.90800848582E+03  0.59764403621E+03 -0.10334968253E+03  0.10919427463E+04  0.50400001928E-02 0. -1.
       -1    1    3    3    0  502 -0.90800848582E+03 -0.59764403621E+03 -0.54808643683E+03  0.12173974481E+04  0.50400001928E-02 0.  1.
</event>
<event>
 5   0  0.1345931E-05  0.2995347E+04  0.7818609E-02  0.8245061E-01
       -2   -1    0    0    0  501  0.00000000000E+00  0.00000000000E+00  0.12234294865E+04  0.12234294865E+04  0.25500000920E-02 0. -1.
        2   -1    0    0  501    0  0.00000000000E+00  0.00000000000E+00 -0.18333921834E+04  0.18333921834E+04  0.25500000920E-02 0.  1.
    10030    2    1    2    0    0  0.00000000000E+00  0.00000000000E+00 -0.60996269684E+03  0.30568216699E+04  0.29953470968E+04 0.  0.
        2    1    3    3  502    0  0.13915541838E+04  0.37772044150E+03  0.10821125384E+03  0.14459617747E+04  0.25500000920E-02 0. -1.
       -2    1    3    3    0  502 -0.13915541838E+04 -0.37772044150E+03 -0.71817395069E+03  0.16108598952E+04  0.25500000920E-02 0.  1.
</event>
<event>
 5   0  0.5329891E-06  0.2947848E+04  0.7818609E-02  0.8258782E-01
       -1   -1    0    0    0  501  0.00000000000E+00  0.00000000000E+00  0.18698006533E+04  0.18698006533E+04  0.50400001928E-02 0. -1.
        1   -1    0    0  501    0  0.00000000000E+00  0.00000000000E+00 -0.11618625612E+04  0.11618625612E+04  0.50400001928E-02 0.  1.
    10030    2    1    2    0    0  0.00000000000E+00  0.00000000000E+00  0.70793809211E+03  0.30316632145E+04  0.29478476052E+04 0.  0.
        4    1    3    3  502    0 -0.59617120041E+03  0.45741280058E+03  0.16580134190E+04  0.18203452092E+04  0.12699999809E+01 0. -1.
       -4    1    3    3    0  502  0.59617120041E+03 -0.45741280058E+03 -0.95007532684E+03  0.12113180053E+04  0.12699999809E+01 0.  1.
</event>
<event>
 5   0  0.5730920E-06  0.1615868E+04  0.7818609E-02  0.8810859E-01
        1   -1    0    0  501    0  0.00000000000E+00  0.00000000000E+00  0.17339522886E+04  0.17339522886E+04  0.50400001928E-02 0. -1.
       -1   -1    0    0    0  501  0.00000000000E+00  0.00000000000E+00 -0.37645631066E+03  0.37645631069E+03  0.50400001928E-02 0.  1.
    10030    2    1    2    0    0  0.00000000000E+00  0.00000000000E+00  0.13574959780E+04  0.21104085993E+04  0.16158679172E+04 0.  0.
        1    1    3    3  502    0 -0.52363185863E+03  0.61251824126E+03  0.75477284448E+03  0.11041064106E+04  0.50400001928E-02 0. -1.
       -1    1    3    3    0  502  0.52363185863E+03 -0.61251824126E+03  0.60272313349E+03  0.10063021887E+04  0.50400001928E-02 0.  1.
</event>
<event>
 5   0  0.5392262E-06  0.2982701E+04  0.7818609E-02  0.8248688E-01
        1   -1    0    0  501    0  0.00000000000E+00  0.00000000000E+00  0.96267662668E+03  0.96267662669E+03  0.50400001928E-02 0.  1.
       -1   -1    0    0    0  501  0.00000000000E+00  0.00000000000E+00 -0.23103563523E+04  0.23103563523E+04  0.50400001928E-02 0. -1.
    10030    2    1    2    0    0  0.00000000000E+00  0.00000000000E+00 -0.13476797256E+04  0.32730329790E+04  0.29827008296E+04 0.  0.
        2    1    3    3  502    0 -0.10610283499E+04 -0.95431356126E+03 -0.19851291582E+03  0.14407993997E+04  0.25500000920E-02 0.  1.
       -2    1    3    3    0  502  0.10610283499E+04  0.95431356126E+03 -0.11491668098E+04  0.18322335793E+04  0.25500000920E-02 0. -1.
</event>
<event>
 5   0  0.5522695E-06  0.1597329E+04  0.7818609E-02  0.8822191E-01
        1   -1    0    0  501    0  0.00000000000E+00  0.00000000000E+00  0.18839681050E+04  0.18839681050E+04  0.50400001928E-02 0. -1.
       -1   -1    0    0    0  501  0.00000000000E+00  0.00000000000E+00 -0.33857514524E+03  0.33857514528E+03  0.50400001928E-02 0.  1.
    10030    2    1    2    0    0  0.00000000000E+00  0.00000000000E+00  0.15453929598E+04  0.22225432503E+04  0.15973287387E+04 0.  0.
        3    1    3    3  502    0 -0.23117947855E+03  0.48992581368E+03  0.15892476307E+04  0.16790411836E+04  0.10100000352E+00 0. -1.
       -3    1    3    3    0  502  0.23117947855E+03 -0.48992581368E+03 -0.43854670910E+02  0.54350206676E+03  0.10100000352E+00 0.  1.
</event>
<event>
 5   0  0.1388724E-05  0.2247185E+04  0.7818609E-02  0.8499041E-01
        2   -1    0    0  501    0  0.00000000000E+00  0.00000000000E+00  0.98760245361E+03  0.98760245361E+03  0.25500000920E-02 0. -1.
       -2   -1    0    0    0  501  0.00000000000E+00  0.00000000000E+00 -0.12783079264E+04  0.12783079264E+04  0.25500000920E-02 0.  1.
    10030    2    1    2    0    0  0.00000000000E+00  0.00000000000E+00 -0.29070547275E+03  0.22659103800E+04  0.22471849453E+04 0.  0.
        4    1    3    3  502    0 -0.13953380425E+03  0.44633683482E+03  0.88481221629E+03  0.10007899498E+04  0.12699999809E+01 0. -1.
       -4    1    3    3    0  502  0.13953380425E+03 -0.44633683482E+03 -0.11755176890E+04  0.12651204302E+04  0.12699999809E+01 0.  1.
</event>
<event>
 5   0  0.1388724E-05  0.2959874E+04  0.7818609E-02  0.8255283E-01
       -2   -1    0    0    0  501  0.00000000000E+00  0.00000000000E+00  0.14601892545E+04  0.14601892545E+04  0.25500000920E-02 0.  1.
        2   -1    0    0  501    0  0.00000000000E+00  0.00000000000E+00 -0.14999522742E+04  0.14999522742E+04  0.25500000920E-02 0. -1.
    10030    2    1    2    0    0  0.00000000000E+00  0.00000000000E+00 -0.39763019755E+02  0.29601415287E+04  0.29598744521E+04 0.  0.
        4    1    3    3  502    0 -0.72979372275E+02 -0.98470577970E+03  0.10825977130E+04  0.14652613700E+04  0.12699999809E+01 0.  1.
       -4    1    3    3    0  502  0.72979372275E+02  0.98470577970E+03 -0.11223607328E+04  0.14948801587E+04  0.12699999809E+01 0. -1.
</event>
<event>
 5   0  0.5392262E-06  0.2692842E+04  0.7818609E-02  0.8337331E-01
        1   -1    0    0  501    0  0.00000000000E+00  0.00000000000E+00  0.11477294219E+04  0.11477294219E+04  0.50400001928E-02 0.  1.
       -1   -1    0    0    0  501  0.00000000000E+00  0.00000000000E+00 -0.15795090839E+04  0.15795090839E+04  0.50400001928E-02 0. -1.
    10030    2    1    2    0    0  0.00000000000E+00  0.00000000000E+00 -0.43177966206E+03  0.27272385058E+04  0.26928416573E+04 0.  0.
        2    1    3    3  502    0 -0.48947790711E+03  0.90198554835E+03 -0.10986207998E+04  0.15033742756E+04  0.25500000920E-02 0. -1.
       -2    1    3    3    0  502  0.48947790711E+03 -0.90198554835E+03  0.66684113770E+03  0.12238642302E+04  0.25500000920E-02 0.  1.
</event>
<event>
 5   0  0.1388724E-05  0.2954744E+04  0.7818609E-02  0.8256773E-01
       -2   -1    0    0    0  501  0.00000000000E+00  0.00000000000E+00  0.13470098845E+04  0.13470098845E+04  0.25500000920E-02 0.  1.
        2   -1    0    0  501    0  0.00000000000E+00  0.00000000000E+00 -0.16203506665E+04  0.16203506665E+04  0.25500000920E-02 0. -1.
    10030    2    1    2    0    0  0.00000000000E+00  0.00000000000E+00 -0.27334078207E+03  0.29673605510E+04  0.29547442286E+04 0.  0.
        4    1    3    3  502    0 -0.79282388603E+03 -0.34865402162E+01  0.11152658290E+04  0.13683571728E+04  0.12699999809E+01 0.  1.
       -4    1    3    3    0  502  0.79282388603E+03  0.34865402162E+01 -0.13886066111E+04  0.15990033782E+04  0.12699999809E+01 0. -1.
</event>
<event>
 5   0  0.1480547E-05  0.2709468E+04  0.7818609E-02  0.8331940E-01
        2   -1    0    0  501    0  0.00000000000E+00  0.00000000000E+00  0.19312916317E+04  0.19312916317E+04  0.25500000920E-02 0.  1.
       -2   -1    0    0    0  501  0.00000000000E+00  0.00000000000E+00 -0.95029876361E+03  0.95029876361E+03  0.25500000920E-02 0. -1.
    10030    2    1    2    0    0  0.00000000000E+00  0.00000000000E+00  0.98099286808E+03  0.28815903953E+04  0.27094678812E+04 0.  0.
        1    1    3    3  502    0  0.81708745704E+03 -0.10773309396E+04  0.40132380231E+03  0.14104377548E+04  0.50400001928E-02 0. -1.
       -1    1    3    3    0  502 -0.81708745704E+03  0.10773309396E+04  0.57966906577E+03  0.14711526405E+04  0.50400001928E-02 0.  1.
</event>
<event>
 5   0  0.1388724E-05  0.2954840E+04  0.7818609E-02  0.8256746E-01
       -2   -1    0    0    0  501  0.00000000000E+00  0.00000000000E+00  0.18104968486E+04  0.18104968486E+04  0.25500000920E-02 0.  1.
        2   -1    0    0  501    0  0.00000000000E+00  0.00000000000E+00 -0.12056189923E+04  0.12056189923E+04  0.25500000920E-02 0. -1.
    10030    2    1    2    0    0  0.00000000000E+00  0.00000000000E+00  0.60487785637E+03  0.30161158409E+04  0.29548396817E+04 0.  0.
        4    1    3    3  502    0 -0.12999218111E+03 -0.10348075364E+04 -0.76570484972E+03  0.12938431645E+04  0.12699999809E+01 0. -1.
       -4    1    3    3    0  502  0.12999218111E+03  0.10348075364E+04  0.13705827061E+04  0.17222726764E+04  0.12699999809E+01 0.  1.
</event>
<event>
 5   0  0.5522695E-06  0.2465850E+04  0.7818609E-02  0.8415254E-01
        1   -1    0    0  501    0  0.00000000000E+00  0.00000000000E+00  0.10021000097E+04  0.10021000097E+04  0.50400001928E-02 0. -1.
       -1   -1    0    0    0  501  0.00000000000E+00  0.00000000000E+00 -0.15169180192E+04  0.15169180192E+04  0.50400001928E-02 0.  1.
    10030    2    1    2    0    0  0.00000000000E+00  0.00000000000E+00 -0.51481800948E+03  0.25190180288E+04  0.24658495994E+04 0.  0.
        3    1    3    3  502    0  0.99254239639E+03 -0.21580682311E+02  0.48944806648E+03  0.11068719684E+04  0.10100000352E+00 0. -1.
       -3    1    3    3    0  502 -0.99254239639E+03  0.21580682311E+02 -0.10042660760E+04  0.14121460604E+04  0.10100000352E+00 0.  1.
</event>
<event>
 5   0  0.1523029E-05  0.2828282E+04  0.7818609E-02  0.8294541E-01
        2   -1    0    0  501    0  0.00000000000E+00  0.00000000000E+00  0.18563521866E+04  0.18563521866E+04  0.25500000920E-02 0.  1.
       -2   -1    0    0    0  501  0.00000000000E+00  0.00000000000E+00 -0.10772713217E+04  0.10772713217E+04  0.25500000920E-02 0. -1.
    10030    2    1    2    0    0  0.00000000000E+00  0.00000000000E+00  0.77908086495E+03  0.29336235083E+04  0.28282821454E+04 0.  0.
        5    1    3    3  502    0 -0.84854302279E+03  0.39021568895E+03 -0.71183641101E+03  0.11743196803E+04  0.46999998093E+01 0. -1.
       -5    1    3    3    0  502  0.84854302279E+03 -0.39021568895E+03  0.14909172760E+04  0.17593038280E+04  0.46999998093E+01 0.  1.
</event>
<event>
 5   0  0.5522695E-06  0.1838493E+04  0.7818609E-02  0.8686093E-01
        1   -1    0    0  501    0  0.00000000000E+00  0.00000000000E+00  0.85943885829E+03  0.85943885831E+03  0.50400001928E-02 0.  1.
       -1   -1    0    0    0  501  0.00000000000E+00  0.00000000000E+00 -0.98321644506E+03  0.98321644507E+03  0.50400001928E-02 0. -1.
    10030    2    1    2    0    0  0.00000000000E+00  0.00000000000E+00 -0.12377758677E+03  0.18426553034E+04  0.18384933168E+04 0.  0.
        3    1    3    3  502    0 -0.14934403325E+03 -0.71183085893E+03 -0.62530691001E+03  0.95917441266E+03  0.10100000352E+00 0.  1.
       -3    1    3    3    0  502  0.14934403325E+03  0.71183085893E+03  0.50152932324E+03  0.88348089072E+03  0.10100000352E+00 0. -1.
</event>
<event>
 5   0  0.5522695E-06  0.2759601E+04  0.7818609E-02  0.8315922E-01
       -1   -1    0    0    0  501  0.00000000000E+00  0.00000000000E+00  0.13255981836E+04  0.13255981836E+04  0.50400001928E-02 0. -1.
        1   -1    0    0  501    0  0.00000000000E+00  0.00000000000E+00 -0.14362187364E+04  0.14362187364E+04  0.50400001928E-02 0.  1.
    10030    2    1    2    0    0  0.00000000000E+00  0.00000000000E+00 -0.11062055285E+03  0.27618169200E+04  0.27596006583E+04 0.  0.
        3    1    3    3  502    0 -0.11087637838E+04 -0.30303030655E+03 -0.81924790847E+03  0.14115068688E+04  0.10100000352E+00 0.  1.
       -3    1    3    3    0  502  0.11087637838E+04  0.30303030655E+03  0.70862735561E+03  0.13503100512E+04  0.10100000352E+00 0. -1.
</event>
<event>
 5   0  0.1423692E-05  0.2846452E+04  0.7818609E-02  0.8288990E-01
       -2   -1    0    0    0  501  0.00000000000E+00  0.00000000000E+00  0.13924329618E+04  0.13924329618E+04  0.25500000920E-02 0.  1.
        2   -1    0    0  501    0  0.00000000000E+00  0.00000000000E+00 -0.14547005055E+04  0.14547005055E+04  0.25500000920E-02 0. -1.
    10030    2    1    2    0    0  0.00000000000E+00  0.00000000000E+00 -0.62267543690E+02  0.28471334672E+04  0.28464524822E+04 0.  0.
        3    1    3    3  502    0  0.64043492321E+03 -0.11984544339E+04  0.39219673619E+03  0.14143083862E+04  0.10100000352E+00 0.  1.
       -3    1    3    3    0  502 -0.64043492321E+03  0.11984544339E+04 -0.45446427988E+03  0.14328250811E+04  0.10100000352E+00 0. -1.
</event>
<event>
 5   0  0.5730920E-06  0.2913463E+04  0.7818609E-02  0.8268883E-01
        1   -1    0    0  501    0  0.00000000000E+00  0.00000000000E+00  0.17712078538E+04  0.17712078538E+04  0.50400001928E-02 0. -1.
       -1   -1    0    0    0  501  0.00000000000E+00  0.00000000000E+00 -0.11980900071E+04  0.11980900071E+04  0.50400001928E-02 0.  1.
    10030    2    1    2    0    0  0.00000000000E+00  0.00000000000E+00  0.57311784664E+03  0.29692978609E+04  0.29134628401E+04 0.  0.
        1    1    3    3  502    0  0.57713689186E+03  0.13343046632E+04  0.38113005009E+03  0.15029025389E+04  0.50400001928E-02 0. -1.
       -1    1    3    3    0  502 -0.57713689186E+03 -0.13343046632E+04  0.19198779655E+03  0.14663953220E+04  0.50400001928E-02 0.  1.
</event>
<event>
 5   0  0.5329891E-06  0.2980075E+04  0.7818609E-02  0.8249443E-01
        1   -1    0    0  501    0  0.00000000000E+00  0.00000000000E+00  0.22670680451E+04  0.22670680451E+04  0.50400001928E-02 0.  1.
       -1   -1    0    0    0  501  0.00000000000E+00  0.00000000000E+00 -0.97933195865E+03  0.97933195866E+03  0.50400001928E-02 0. -1.
    10030    2    1    2    0    0  0.00000000000E+00  0.00000000000E+00  0.12877360865E+04  0.32464000038E+04  0.29800752937E+04 0.  0.
        4    1    3    3  502    0 -0.12144552693E+02 -0.55694727600E+03 -0.86161898228E+03  0.10260246790E+04  0.12699999809E+01 0. -1.
       -4    1    3    3    0  502  0.12144552693E+02  0.55694727600E+03  0.21493550687E+04  0.22203753248E+04  0.12699999809E+01 0.  1.
</event>
<event>
 5   0  0.7032692E-06  0.2780367E+04  0.7818609E-02  0.8309390E-01
        1   -1    0    0  501    0  0.00000000000E+00  0.00000000000E+00  0.76108938776E+03  0.76108938778E+03  0.50400001928E-02 0. -1.
       -1   -1    0    0    0  501  0.00000000000E+00  0.00000000000E+00 -0.25392676079E+04  0.25392676079E+04  0.50400001928E-02 0.  1.
    10030    2    1    2    0    0  0.00000000000E+00  0.00000000000E+00 -0.17781782201E+04  0.33003569956E+04  0.27803666154E+04 0.  0.
        5    1    3    3  502    0 -0.28591425120E+03  0.18645378207E+03  0.71056399062E+03  0.78831164310E+03  0.46999998093E+01 0. -1.
       -5    1    3    3    0  502  0.28591425120E+03 -0.18645378207E+03 -0.24887422107E+04  0.25120453525E+04  0.46999998093E+01 0.  1.
</event>
<event>
 5   0  0.5329891E-06  0.2645294E+04  0.7818609E-02  0.8352977E-01
       -1   -1    0    0    0  501  0.00000000000E+00  0.00000000000E+00  0.11810787252E+04  0.11810787252E+04  0.50400001928E-02 0. -1.
        1   -1    0    0  501    0  0.00000000000E+00  0.00000000000E+00 -0.14811837436E+04  0.14811837436E+04  0.50400001928E-02 0.  1.
    10030    2    1    2    0    0  0.00000000000E+00  0.00000000000E+00 -0.30010501842E+03  0.26622624688E+04  0.26452936379E+04 0.  0.
        4    1    3    3  502    0 -0.10318695538E+04 -0.48093400508E+03 -0.82767738153E+03  0.14075168752E+04  0.12699999809E+01 0.  1.
       -4    1    3    3    0  502  0.10318695538E+04  0.48093400508E+03  0.52757236311E+03  0.12547455935E+04  0.12699999809E+01 0. -1.
</event>
<event>
 5   0  0.5730920E-06  0.2977715E+04  0.7818609E-02  0.8250123E-01
       -1   -1    0    0    0  501  0.00000000000E+00  0.00000000000E+00  0.15220276565E+04  0.15220276565E+04  0.50400001928E-02 0.  1.
        1   -1    0    0  501    0  0.00000000000E+00  0.00000000000E+00 -0.14564100278E+04  0.14564100278E+04  0.50400001928E-02 0. -1.
    10030    2    1    2    0    0  0.00000000000E+00  0.00000000000E+00  0.65617628734E+02  0.29784376843E+04  0.29777147892E+04 0.  0.
        1    1    3    3  502    0 -0.54763542319E+03  0.49689959106E+03 -0.12597442673E+04  0.14607427492E+04  0.50400001928E-02 0. -1.
       -1    1    3    3    0  502  0.54763542319E+03 -0.49689959106E+03  0.13253618961E+04  0.15176949350E+04  0.50400001928E-02 0.  1.
</event>
<event>
 5   0  0.1388724E-05  0.3022718E+04  0.7818609E-02  0.8237273E-01
        2   -1    0    0  501    0  0.00000000000E+00  0.00000000000E+00  0.13387864778E+04  0.13387864778E+04  0.25500000920E-02 0.  1.
       -2   -1    0    0    0  501  0.00000000000E+00  0.00000000000E+00 -0.17061764297E+04  0.17061764297E+04  0.25500000920E-02 0. -1.
    10030    2    1    2    0    0  0.00000000000E+00  0.00000000000E+00 -0.36738995193E+03  0.30449629076E+04  0.30227179378E+04 0.  0.
        4    1    3    3  502    0 -0.15726875069E+03  0.15002274953E+04 -0.27813093081E+03  0.15338756224E+04  0.12699999809E+01 0.  1.
       -4    1    3    3    0  502  0.15726875069E+03 -0.15002274953E+04 -0.89259021119E+02  0.15110872851E+04  0.12699999809E+01 0. -1.
</event>
<event>
 5   0  0.5329891E-06  0.3044703E+04  0.7818609E-02  0.8231080E-01
       -1   -1    0    0    0  501  0.00000000000E+00  0.00000000000E+00  0.15072688570E+04  0.15072688570E+04  0.50400001928E-02 0.  1.
        1   -1    0    0  501    0  0.00000000000E+00  0.00000000000E+00 -0.15375849516E+04  0.15375849516E+04  0.50400001928E-02 0. -1.
    10030    2    1    2    0    0  0.00000000000E+00  0.00000000000E+00 -0.30316094544E+02  0.30448538086E+04  0.30447028838E+04 0.  0.
        4    1    3    3  502    0 -0.93915501561E+03  0.19712675136E+03  0.11667132104E+04  0.15106596002E+04  0.12699999809E+01 0.  1.
       -4    1    3    3    0  502  0.93915501561E+03 -0.19712675136E+03 -0.11970293049E+04  0.15341942084E+04  0.12699999809E+01 0. -1.
</event>
<event>
 5   0  0.5730920E-06  0.3012926E+04  0.7818609E-02  0.8240049E-01
        1   -1    0    0  501    0  0.00000000000E+00  0.00000000000E+00  0.10986269916E+04  0.10986269916E+04  0.50400001928E-02 0. -1.
       -1   -1    0    0    0  501  0.00000000000E+00  0.00000000000E+00 -0.20656971127E+04  0.20656971127E+04  0.50400001928E-02 0.  1.
    10030    2    1    2    0    0  0.00000000000E+00  0.00000000000E+00 -0.96707012107E+03  0.31643241044E+04  0.30129258899E+04 0.  0.
        1    1    3    3  502    0 -0.92340299440E+03 -0.11884381932E+04 -0.41409001041E+03  0.15609384888E+04  0.50400001928E-02 0. -1.
       -1    1    3    3    0  502  0.92340299440E+03  0.11884381932E+04 -0.55298011066E+03  0.16033856155E+04  0.50400001928E-02 0.  1.
</event>
<event>
 5   0  0.5522695E-06  0.2941521E+04  0.7818609E-02  0.8260630E-01
        1   -1    0    0  501    0  0.00000000000E+00  0.00000000000E+00  0.26530839045E+04  0.26530839045E+04  0.50400001928E-02 0.  1.
       -1   -1    0    0    0  501  0.00000000000E+00  0.00000000000E+00 -0.81532892275E+03  0.81532892276E+03  0.50400001928E-02 0. -1.
    10030    2    1    2    0    0  0.00000000000E+00  0.00000000000E+00  0.18377549818E+04  0.34684128273E+04  0.29415207236E+04 0.  0.
        3    1    3    3  502    0 -0.96689422217E+03  0.62662950199E+03  0.19967185530E+04  0.23053056109E+04  0.10100000352E+00 0.  1.
       -3    1    3    3    0  502  0.96689422217E+03 -0.62662950199E+03 -0.15896357122E+03  0.11631072164E+04  0.10100000352E+00 0. -1.
</event>
<event>
 5   0  0.5522695E-06  0.1929115E+04  0.7818609E-02  0.8640498E-01
        1   -1    0    0  501    0  0.00000000000E+00  0.00000000000E+00  0.12832416475E+04  0.12832416476E+04  0.50400001928E-02 0.  1.
       -1   -1    0    0    0  501  0.00000000000E+00  0.00000000000E+00 -0.72501648262E+03  0.72501648264E+03  0.50400001928E-02 0. -1.
    10030    2    1    2    0    0  0.00000000000E+00  0.00000000000E+00  0.55822516492E+03  0.20082581302E+04  0.19291151813E+04 0.  0.
        3    1    3    3  502    0 -0.16086763590E+03  0.95043243643E+03  0.31473821853E+03  0.10140317396E+04  0.10100000352E+00 0.  1.
       -3    1    3    3    0  502  0.16086763590E+03 -0.95043243643E+03  0.24348694639E+03  0.99422639060E+03  0.10100000352E+00 0. -1.
</event>
<event>
 5   0  0.1388724E-05  0.3049242E+04  0.7818609E-02  0.8229808E-01
       -2   -1    0    0    0  501  0.00000000000E+00  0.00000000000E+00  0.92448878901E+03  0.92448878901E+03  0.25500000920E-02 0.  1.
        2   -1    0    0  501    0  0.00000000000E+00  0.00000000000E+00 -0.25143290026E+04  0.25143290026E+04  0.25500000920E-02 0. -1.
    10030    2    1    2    0    0  0.00000000000E+00  0.00000000000E+00 -0.15898402136E+04  0.34388177916E+04  0.30492418564E+04 0.  0.
        4    1    3    3  502    0 -0.10813365240E+04  0.99305170826E+03 -0.33126470985E+03  0.15050509275E+04  0.12699999809E+01 0.  1.
       -4    1    3    3    0  502  0.10813365240E+04 -0.99305170826E+03 -0.12585755037E+04  0.19337668641E+04  0.12699999809E+01 0. -1.
</event>
<event>
 5   0  0.5392262E-06  0.2223259E+04  0.7818609E-02  0.8508809E-01
        1   -1    0    0  501    0  0.00000000000E+00  0.00000000000E+00  0.18066688689E+04  0.18066688689E+04  0.50400001928E-02 0. -1.
       -1   -1    0    0    0  501  0.00000000000E+00  0.00000000000E+00 -0.68397716290E+03  0.68397716292E+03  0.50400001928E-02 0.  1.
    10030    2    1    2    0    0  0.00000000000E+00  0.00000000000E+00  0.11226917060E+04  0.24906460318E+04  0.22232590918E+04 0.  0.
        2    1    3    3  502    0 -0.28643342470E+03 -0.12527767943E+03 -0.63371373816E+03  0.70663406774E+03  0.25500000920E-02 0.  1.
       -2    1    3    3    0  502  0.28643342470E+03  0.12527767943E+03  0.17564054442E+04  0.17840119641E+04  0.25500000920E-02 0. -1.
</event>
<event>
 5   0  0.5329891E-06  0.2998922E+04  0.7818609E-02  0.8244039E-01
       -1   -1    0    0    0  501  0.00000000000E+00  0.00000000000E+00  0.95026973209E+03  0.95026973211E+03  0.50400001928E-02 0.  1.
        1   -1    0    0  501    0  0.00000000000E+00  0.00000000000E+00 -0.23660468683E+04  0.23660468683E+04  0.50400001928E-02 0. -1.
    10030    2    1    2    0    0  0.00000000000E+00  0.00000000000E+00 -0.14157771362E+04  0.33163166004E+04  0.29989216220E+04 0.  0.
        4    1    3    3  502    0 -0.43722928619E+03 -0.60776375808E+03 -0.21445546800E+04  0.22714890761E+04  0.12699999809E+01 0. -1.
       -4    1    3    3    0  502  0.43722928619E+03  0.60776375808E+03  0.72877754380E+03  0.10448275243E+04  0.12699999809E+01 0.  1.
</event>
<event>
 5   0  0.1388724E-05  0.2355120E+04  0.7818609E-02  0.8456500E-01
       -2   -1    0    0    0  501  0.00000000000E+00  0.00000000000E+00  0.92207676628E+03  0.92207676629E+03  0.25500000920E-02 0.  1.
        2   -1    0    0  501    0  0.00000000000E+00  0.00000000000E+00 -0.15038305772E+04  0.15038305772E+04  0.25500000920E-02 0. -1.
    10030    2    1    2    0    0  0.00000000000E+00  0.00000000000E+00 -0.58175381094E+03  0.24259073435E+04  0.23551197300E+04 0.  0.
        4    1    3    3  502    0 -0.58142284437E+03  0.97222997806E+03  0.40285939158E+02  0.11335379235E+04  0.12699999809E+01 0. -1.
       -4    1    3    3    0  502  0.58142284437E+03 -0.97222997806E+03 -0.62203975009E+03  0.12923694200E+04  0.12699999809E+01 0.  1.
</event>
<event>
 5   0  0.1523029E-05  0.2932046E+04  0.7818609E-02  0.8263406E-01
       -2   -1    0    0    0  501  0.00000000000E+00  0.00000000000E+00  0.97583963095E+03  0.97583963095E+03  0.25500000920E-02 0.  1.
        2   -1    0    0  501    0  0.00000000000E+00  0.00000000000E+00 -0.22024351024E+04  0.22024351024E+04  0.25500000920E-02 0. -1.
    10030    2    1    2    0    0  0.00000000000E+00  0.00000000000E+00 -0.12265954715E+04  0.31782747334E+04  0.29320460143E+04 0.  0.
        5    1    3    3  502    0 -0.96238984727E+03  0.29778544035E+02  0.58503562045E+03  0.11266631027E+04  0.46999998093E+01 0.  1.
       -5    1    3    3    0  502  0.96238984727E+03 -0.29778544035E+02 -0.18116310919E+04  0.20516116306E+04  0.46999998093E+01 0. -1.
</event>
<event>
 5   0  0.5329891E-06  0.1564240E+04  0.7818609E-02  0.8842823E-01
       -1   -1    0    0    0  501  0.00000000000E+00  0.00000000000E+00  0.54632487472E+03  0.54632487475E+03  0.50400001928E-02 0.  1.
        1   -1    0    0  501    0  0.00000000000E+00  0.00000000000E+00 -0.11196844319E+04  0.11196844319E+04  0.50400001928E-02 0. -1.
    10030    2    1    2    0    0  0.00000000000E+00  0.00000000000E+00 -0.57335955721E+03  0.16660093067E+04  0.15642396965E+04 0.  0.
        4    1    3    3  502    0 -0.32175201911E+03 -0.10494928058E+03  0.46429797404E+03  0.57455455346E+03  0.12699999809E+01 0.  1.
       -4    1    3    3    0  502  0.32175201911E+03  0.10494928058E+03 -0.10376575312E+04  0.10914547532E+04  0.12699999809E+01 0. -1.
</event>
<event>
 5   0  0.1388724E-05  0.3028612E+04  0.7818609E-02  0.8235608E-01
        2   -1    0    0  501    0  0.00000000000E+00  0.00000000000E+00  0.22667262061E+04  0.22667262061E+04  0.25500000920E-02 0. -1.
       -2   -1    0    0    0  501  0.00000000000E+00  0.00000000000E+00 -0.10116448889E+04  0.10116448889E+04  0.25500000920E-02 0.  1.
    10030    2    1    2    0    0  0.00000000000E+00  0.00000000000E+00  0.12550813172E+04  0.32783710950E+04  0.30286115505E+04 0.  0.
        4    1    3    3  502    0  0.19073819405E+03  0.47185775019E+03 -0.91628969135E+03  0.10481503740E+04  0.12699999809E+01 0.  1.
       -4    1    3    3    0  502 -0.19073819405E+03 -0.47185775019E+03  0.21713710085E+04  0.22302207210E+04  0.12699999809E+01 0. -1.
</event>
<event>
 5   0  0.1423692E-05  0.3005705E+04  0.7818609E-02  0.8242104E-01
        2   -1    0    0  501    0  0.00000000000E+00  0.00000000000E+00  0.13811002262E+04  0.13811002262E+04  0.25500000920E-02 0. -1.
       -2   -1    0    0    0  501  0.00000000000E+00  0.00000000000E+00 -0.16353379393E+04  0.16353379393E+04  0.25500000920E-02 0.  1.
    10030    2    1    2    0    0  0.00000000000E+00  0.00000000000E+00 -0.25423771303E+03  0.30164381655E+04  0.30057049741E+04 0.  0.
        3    1    3    3  502    0 -0.10972171852E+04  0.11679817025E+03 -0.11510751389E+04  0.15945222951E+04  0.10100000352E+00 0.  1.
       -3    1    3    3    0  502  0.10972171852E+04 -0.11679817025E+03  0.89683742583E+03  0.14219158704E+04  0.10100000352E+00 0. -1.
</event>
<event>
 5   0  0.7032692E-06  0.2906552E+04  0.7818609E-02  0.8270931E-01
        1   -1    0    0  501    0  0.00000000000E+00  0.00000000000E+00  0.13369782095E+04  0.13369782095E+04  0.50400001928E-02 0.  1.
       -1   -1    0    0    0  501  0.00000000000E+00  0.00000000000E+00 -0.15796904683E+04  0.15796904683E+04  0.50400001928E-02 0. -1.
    10030    2    1    2    0    0  0.00000000000E+00  0.00000000000E+00 -0.24271225886E+03  0.29166686778E+04  0.29065524140E+04 0.  0.
        5    1    3    3  502    0  0.56004472215E+03 -0.63386724573E+02  0.12228290124E+04  0.13464772004E+04  0.46999998093E+01 0.  1.
       -5    1    3    3    0  502 -0.56004472215E+03  0.63386724573E+02 -0.14655412713E+04  0.15701914774E+04  0.46999998093E+01 0. -1.
</event>
<event>
 5   0  0.1345931E-05  0.3141797E+04  0.7818609E-02  0.8204360E-01
       -2   -1    0    0    0  501  0.00000000000E+00  0.00000000000E+00  0.10877498254E+04  0.10877498254E+04  0.25500000920E-02 0. -1.
        2   -1    0    0  501    0  0.00000000000E+00  0.00000000000E+00 -0.22686484805E+04  0.22686484805E+04  0.25500000920E-02 0.  1.
    10030    2    1    2    0    0  0.00000000000E+00  0.00000000000E+00 -0.11808986551E+04  0.33563983059E+04  0.31417969307E+04 0.  0.
        2    1    3    3  502    0  0.41981556756E+03  0.13830284418E+04 -0.12478775048E+04  0.19095054460E+04  0.25500000920E-02 0.  1.
       -2    1    3    3    0  502 -0.41981556756E+03 -0.13830284418E+04  0.66978849680E+02  0.14468928598E+04  0.25500000920E-02 0. -1.
</event>
<event>
 5   0  0.4806125E-06  0.2988986E+04  0.7818609E-02  0.8246883E-01
        3   -1    0    0  501    0  0.00000000000E+00  0.00000000000E+00  0.17815906207E+04  0.17815906235E+04  0.10100000352E+00 0.  1.
       -3   -1    0    0    0  501  0.00000000000E+00  0.00000000000E+00 -0.12536599622E+04  0.12536599663E+04  0.10100000352E+00 0. -1.
    10030    2    1    2    0    0  0.00000000000E+00  0.00000000000E+00  0.52793065848E+03  0.30352505898E+04  0.29889856746E+04 0.  0.
        3    1    3    3  502    0  0.15497165441E+03 -0.72507517610E+02 -0.12436817576E+04  0.12553955067E+04  0.10100000352E+00 0. -1.
       -3    1    3    3    0  502 -0.15497165441E+03  0.72507517610E+02  0.17716124161E+04  0.17798550831E+04  0.10100000352E+00 0.  1.
</event>
<event>
 5   0  0.1345931E-05  0.3069886E+04  0.7818609E-02  0.8224051E-01
        2   -1    0    0  501    0  0.00000000000E+00  0.00000000000E+00  0.18391738512E+04  0.18391738512E+04  0.25500000920E-02 0.  1.
       -2   -1    0    0    0  501  0.00000000000E+00  0.00000000000E+00 -0.12810375248E+04  0.12810375248E+04  0.25500000920E-02 0. -1.
    10030    2    1    2    0    0  0.00000000000E+00  0.00000000000E+00  0.55813632644E+03  0.31202113760E+04  0.30698864591E+04 0.  0.
        2    1    3    3  502    0  0.56896386797E+03 -0.31145200102E+03  0.16930344255E+04  0.18130327626E+04  0.25500000920E-02 0.  1.
       -2    1    3    3    0  502 -0.56896386797E+03  0.31145200102E+03 -0.11348980991E+04  0.13071786134E+04  0.25500000920E-02 0. -1.
</event>
<event>
 5   0  0.5522695E-06  0.3014225E+04  0.7818609E-02  0.8239680E-01
        1   -1    0    0  501    0  0.00000000000E+00  0.00000000000E+00  0.25718976805E+04  0.25718976805E+04  0.50400001928E-02 0. -1.
       -1   -1    0    0    0  501  0.00000000000E+00  0.00000000000E+00 -0.88315668626E+03  0.88315668628E+03  0.50400001928E-02 0.  1.
    10030    2    1    2    0    0  0.00000000000E+00  0.00000000000E+00  0.16887409943E+04  0.34550543668E+04  0.30142253618E+04 0.  0.
        3    1    3    3  502    0 -0.89909798022E+01 -0.57004088034E+03  0.24435266850E+04  0.25091532662E+04  0.10100000352E+00 0. -1.
       -3    1    3    3    0  502  0.89909798022E+01  0.57004088034E+03 -0.75478569072E+03  0.94590110059E+03  0.10100000352E+00 0.  1.
</event>
<event>
 5   0  0.1423692E-05  0.3066898E+04  0.7818609E-02  0.8224882E-01
        2   -1    0    0  501    0  0.00000000000E+00  0.00000000000E+00  0.23166394687E+04  0.23166394687E+04  0.25500000920E-02 0.  1.
       -2   -1    0    0    0  501  0.00000000000E+00  0.00000000000E+00 -0.10150333146E+04  0.10150333146E+04  0.25500000920E-02 0. -1.
    10030    2    1    2    0    0  0.00000000000E+00  0.00000000000E+00  0.13016061542E+04  0.33316727833E+04  0.30668982628E+04 0.  0.
        3    1    3    3  502    0  0.12446856290E+04  0.35601082294E+01  0.16237907602E+04  0.20459597827E+04  0.10100000352E+00 0.  1.
       -3    1    3    3    0  502 -0.12446856290E+04 -0.35601082294E+01 -0.32218460604E+03  0.12857130006E+04  0.10100000352E+00 0. -1.
</event>
<event>
 5   0  0.5329891E-06  0.2949053E+04  0.7818609E-02  0.8258430E-01
       -1   -1    0    0    0  501  0.00000000000E+00  0.00000000000E+00  0.12741146937E+04  0.12741146937E+04  0.50400001928E-02 0.  1.
        1   -1    0    0  501    0  0.00000000000E+00  0.00000000000E+00 -0.17064626070E+04  0.17064626070E+04  0.50400001928E-02 0. -1.
    10030    2    1    2    0    0  0.00000000000E+00  0.00000000000E+00 -0.43234791333E+03  0.29805773007E+04  0.29490534629E+04 0.  0.
        4    1    3    3  502    0 -0.51496226580E+03  0.11282010155E+04  0.58997607240E+03  0.13733524840E+04  0.12699999809E+01 0.  1.
       -4    1    3    3    0  502  0.51496226580E+03 -0.11282010155E+04 -0.10223239857E+04  0.16072248166E+04  0.12699999809E+01 0. -1.
</event>
<event>
 5   0  0.5730920E-06  0.2987427E+04  0.7818609E-02  0.8247330E-01
       -1   -1    0    0    0  501  0.00000000000E+00  0.00000000000E+00  0.78988872887E+03  0.78988872888E+03  0.50400001928E-02 0.  1.
        1   -1    0    0  501    0  0.00000000000E+00  0.00000000000E+00 -0.28246755154E+04  0.28246755154E+04  0.50400001928E-02 0. -1.
    10030    2    1    2    0    0  0.00000000000E+00  0.00000000000E+00 -0.20347867866E+04  0.36145642443E+04  0.29874265530E+04 0.  0.
        1    1    3    3  502    0 -0.32496005084E+03 -0.42189185373E+03 -0.27059172837E+04  0.27578216254E+04  0.50400001928E-02 0. -1.
       -1    1    3    3    0  502  0.32496005084E+03  0.42189185373E+03  0.67113049717E+03  0.85674261896E+03  0.50400001928E-02 0.  1.
</event>
<event>
 5   0  0.1345931E-05  0.2983620E+04  0.7818609E-02  0.8248424E-01
        2   -1    0    0  501    0  0.00000000000E+00  0.00000000000E+00  0.13898144634E+04  0.13898144634E+04  0.25500000920E-02 0.  1.
       -2   -1    0    0    0  501  0.00000000000E+00  0.00000000000E+00 -0.16012903828E+04  0.16012903828E+04  0.25500000920E-02 0. -1.
    10030    2    1    2    0    0  0.00000000000E+00  0.00000000000E+00 -0.21147591939E+03  0.29911048462E+04  0.29836196367E+04 0.  0.
        2    1    3    3  502    0  0.48222013311E+03 -0.11321845009E+04  0.73965607386E+03  0.14357817064E+04  0.25500000920E-02 0.  1.
       -2    1    3    3    0  502 -0.48222013311E+03  0.11321845009E+04 -0.95113199325E+03  0.15553231399E+04  0.25500000920E-02 0. -1.
</event>
<event>
 5   0  0.5522695E-06  0.2518082E+04  0.7818609E-02  0.8396572E-01
       -1   -1    0    0    0  501  0.00000000000E+00  0.00000000000E+00  0.20719692166E+04  0.20719692166E+04  0.50400001928E-02 0. -1.
        1   -1    0    0  501    0  0.00000000000E+00  0.00000000000E+00 -0.76506175668E+03  0.76506175669E+03  0.50400001928E-02 0.  1.
    10030    2    1    2    0    0  0.00000000000E+00  0.00000000000E+00  0.13069074599E+04  0.28370309733E+04  0.25180821342E+04 0.  0.
        3    1    3    3  502    0 -0.15407697428E+03  0.34233065117E+03  0.20074455376E+04  0.20422457211E+04  0.10100000352E+00 0. -1.
       -3    1    3    3    0  502  0.15407697428E+03 -0.34233065117E+03 -0.70053807764E+03  0.79478525223E+03  0.10100000352E+00 0.  1.
</event>
<event>
 5   0  0.1388724E-05  0.3209927E+04  0.7818609E-02  0.8186200E-01
       -2   -1    0    0    0  501  0.00000000000E+00  0.00000000000E+00  0.15261379893E+04  0.15261379893E+04  0.25500000920E-02 0. -1.
        2   -1    0    0  501    0  0.00000000000E+00  0.00000000000E+00 -0.16878604374E+04  0.16878604374E+04  0.25500000920E-02 0.  1.
    10030    2    1    2    0    0  0.00000000000E+00  0.00000000000E+00 -0.16172244808E+03  0.32139984267E+04  0.32099270610E+04 0.  0.
        4    1    3    3  502    0 -0.12877148254E+04  0.42377410566E+03 -0.94108557811E+03  0.16502841096E+04  0.12699999809E+01 0.  1.
       -4    1    3    3    0  502  0.12877148254E+04 -0.42377410566E+03  0.77936313002E+03  0.15637143171E+04  0.12699999809E+01 0. -1.
</event>
<event>
 5   0  0.1423692E-05  0.2881259E+04  0.7818609E-02  0.8278475E-01
       -2   -1    0    0    0  501  0.00000000000E+00  0.00000000000E+00  0.13862584453E+04  0.13862584453E+04  0.25500000920E-02 0. -1.
        2   -1    0    0  501    0  0.00000000000E+00  0.00000000000E+00 -0.14971330751E+04  0.14971330751E+04  0.25500000920E-02 0.  1.
    10030    2    1    2    0    0  0.00000000000E+00  0.00000000000E+00 -0.11087462986E+03  0.28833915204E+04  0.28812590089E+04 0.  0.
        3    1    3    3  502    0 -0.20560964556E+03  0.82364700265E+03  0.11093587047E+04  0.13969060302E+04  0.10100000352E+00 0. -1.
       -3    1    3    3    0  502  0.20560964556E+03 -0.82364700265E+03 -0.12202333346E+04  0.14864854901E+04  0.10100000352E+00 0.  1.
</event>
<event>
 5   0  0.1523029E-05  0.3021206E+04  0.7818609E-02  0.8237701E-01
       -2   -1    0    0    0  501  0.00000000000E+00  0.00000000000E+00  0.90129090592E+03  0.90129090592E+03  0.25500000920E-02 0. -1.
        2   -1    0    0  501    0  0.00000000000E+00  0.00000000000E+00 -0.25318360438E+04  0.25318360438E+04  0.25500000920E-02 0.  1.
    10030    2    1    2    0    0  0.00000000000E+00  0.00000000000E+00 -0.16305451379E+04  0.34331269497E+04  0.30212055882E+04 0.  0.
        5    1    3    3  502    0  0.86355353379E+03  0.10207115928E+04 -0.16331976071E+02  0.13371109471E+04  0.46999998093E+01 0. -1.
       -5    1    3    3    0  502 -0.86355353379E+03 -0.10207115928E+04 -0.16142131618E+04  0.20960160026E+04  0.46999998093E+01 0.  1.
</event>
<event>
 5   0  0.5329891E-06  0.3009001E+04  0.7818609E-02  0.8241165E-01
        1   -1    0    0  501    0  0.00000000000E+00  0.00000000000E+00  0.20429140284E+04  0.20429140284E+04  0.50400001928E-02 0.  1.
       -1   -1    0    0    0  501  0.00000000000E+00  0.00000000000E+00 -0.11079870777E+04  0.11079870777E+04  0.50400001928E-02 0. -1.
    10030    2    1    2    0    0  0.00000000000E+00  0.00000000000E+00  0.93492695070E+03  0.31509011061E+04  0.30090013920E+04 0.  0.
        4    1    3    3  502    0 -0.47297773126E+03 -0.37214190686E+03 -0.97644730060E+03  0.11470172086E+04  0.12699999809E+01 0. -1.
       -4    1    3    3    0  502  0.47297773126E+03  0.37214190686E+03  0.19113742513E+04  0.20038838975E+04  0.12699999809E+01 0.  1.
</event>
<event>
 5   0  0.5522695E-06  0.2705511E+04  0.7818609E-02  0.8333219E-01
        1   -1    0    0  501    0  0.00000000000E+00  0.00000000000E+00  0.16997861751E+04  0.16997861752E+04  0.50400001928E-02 0.  1.
       -1   -1    0    0    0  501  0.00000000000E+00  0.00000000000E+00 -0.10765751751E+04  0.10765751751E+04  0.50400001928E-02 0. -1.
    10030    2    1    2    0    0  0.00000000000E+00  0.00000000000E+00  0.62321100009E+03  0.27763613502E+04  0.27055111156E+04 0.  0.
        3    1    3    3  502    0  0.12593219344E+04  0.16793357626E+03 -0.16516226821E+03  0.12811604136E+04  0.10100000352E+00 0.  1.
       -3    1    3    3    0  502 -0.12593219344E+04 -0.16793357626E+03  0.78837326829E+03  0.14952009366E+04  0.10100000352E+00 0. -1.
</event>
<event>
 5   0  0.7216421E-06  0.1552008E+04  0.7818609E-02  0.8850586E-01
        1   -1    0    0  501    0  0.00000000000E+00  0.00000000000E+00  0.79774986148E+03  0.79774986150E+03  0.50400001928E-02 0.  1.
       -1   -1    0    0    0  501  0.00000000000E+00  0.00000000000E+00 -0.75485086688E+03  0.75485086690E+03  0.50400001928E-02 0. -1.
    10030    2    1    2    0    0  0.00000000000E+00  0.00000000000E+00  0.42898994603E+02  0.15526007284E+04  0.15520079568E+04 0.  0.
        5    1    3    3  502    0  0.30589505168E+03 -0.32311289660E+03  0.65744884128E+03  0.79387328680E+03  0.46999998093E+01 0.  1.
       -5    1    3    3    0  502 -0.30589505168E+03  0.32311289660E+03 -0.61454984667E+03  0.75872744160E+03  0.46999998093E+01 0. -1.
</event>
<event>
 5   0  0.1345931E-05  0.2225310E+04  0.7818609E-02  0.8507967E-01
       -2   -1    0    0    0  501  0.00000000000E+00  0.00000000000E+00  0.61861937477E+03  0.61861937478E+03  0.25500000920E-02 0.  1.
        2   -1    0    0  501    0  0.00000000000E+00  0.00000000000E+00 -0.20012327157E+04  0.20012327157E+04  0.25500000920E-02 0. -1.
    10030    2    1    2    0    0  0.00000000000E+00  0.00000000000E+00 -0.13826133410E+04  0.26198520905E+04  0.22253101639E+04 0.  0.
        2    1    3    3  502    0 -0.13033758321E+03  0.33319680155E+03  0.54904948827E+03  0.65533452124E+03  0.25500000920E-02 0.  1.
       -2    1    3    3    0  502  0.13033758321E+03 -0.33319680155E+03 -0.19316628292E+04  0.19645175693E+04  0.25500000920E-02 0. -1.
</event>
<event>
 5   0  0.1388724E-05  0.2108761E+04  0.7818609E-02  0.8557394E-01
       -2   -1    0    0    0  501  0.00000000000E+00  0.00000000000E+00  0.12823009426E+04  0.12823009426E+04  0.25500000920E-02 0. -1.
        2   -1    0    0  501    0  0.00000000000E+00  0.00000000000E+00 -0.86697155244E+03  0.86697155245E+03  0.25500000920E-02 0.  1.
    10030    2    1    2    0    0  0.00000000000E+00  0.00000000000E+00  0.41532939018E+03  0.21492724951E+04  0.21087611898E+04 0.  0.
        4    1    3    3  502    0 -0.23785278375E+03  0.54954141548E+03  0.10921772227E+04  0.12455610835E+04  0.12699999809E+01 0. -1.
       -4    1    3    3    0  502  0.23785278375E+03 -0.54954141548E+03 -0.67684783253E+03  0.90371141155E+03  0.12699999809E+01 0.  1.
</event>
<event>
 5   0  0.1523029E-05  0.2883015E+04  0.7818609E-02  0.8277949E-01
       -2   -1    0    0    0  501  0.00000000000E+00  0.00000000000E+00  0.11009847701E+04  0.11009847701E+04  0.25500000920E-02 0.  1.
        2   -1    0    0  501    0  0.00000000000E+00  0.00000000000E+00 -0.18873502088E+04  0.18873502088E+04  0.25500000920E-02 0. -1.
    10030    2    1    2    0    0  0.00000000000E+00  0.00000000000E+00 -0.78636543866E+03  0.29883349789E+04  0.28830149745E+04 0.  0.
        5    1    3    3  502    0  0.50788429292E+03  0.24646388184E+03 -0.17679962439E+04  0.18559428085E+04  0.46999998093E+01 0. -1.
       -5    1    3    3    0  502 -0.50788429292E+03 -0.24646388184E+03  0.98163080520E+03  0.11323921705E+04  0.46999998093E+01 0.  1.
</event>
<event>
 5   0  0.1388724E-05  0.2955144E+04  0.7818609E-02  0.8256657E-01
        2   -1    0    0  501    0  0.00000000000E+00  0.00000000000E+00  0.23820949836E+04  0.23820949836E+04  0.25500000920E-02 0.  1.
       -2   -1    0    0    0  501  0.00000000000E+00  0.00000000000E+00 -0.91651201913E+03  0.91651201913E+03  0.25500000920E-02 0. -1.
    10030    2    1    2    0    0  0.00000000000E+00  0.00000000000E+00  0.14655829645E+04  0.32986070028E+04  0.29551437753E+04 0.  0.
        4    1    3    3  502    0  0.56752535721E+03  0.18458278548E+03  0.22415804954E+04  0.23196638907E+04  0.12699999809E+01 0.  1.
       -4    1    3    3    0  502 -0.56752535721E+03 -0.18458278548E+03 -0.77599753088E+03  0.97894311203E+03  0.12699999809E+01 0. -1.
</event>
<event>
 5   0  0.1345931E-05  0.3097650E+04  0.7818609E-02  0.8216383E-01
       -2   -1    0    0    0  501  0.00000000000E+00  0.00000000000E+00  0.13077866967E+04  0.13077866967E+04  0.25500000920E-02 0. -1.
        2   -1    0    0  501    0  0.00000000000E+00  0.00000000000E+00 -0.18342891168E+04  0.18342891168E+04  0.25500000920E-02 0.  1.
    10030    2    1    2    0    0  0.00000000000E+00  0.00000000000E+00 -0.52650242016E+03  0.31420758135E+04  0.30976500156E+04 0.  0.
        2    1    3    3  502    0 -0.80379377925E+03  0.10941756098E+04 -0.10192960078E+04  0.16977246703E+04  0.25500000920E-02 0.  1.
       -2    1    3    3    0  502  0.80379377925E+03 -0.10941756098E+04  0.49279358767E+03  0.14443511432E+04  0.25500000920E-02 0. -1.
</event>
<event>
 5   0  0.1523029E-05  0.2959231E+04  0.7818609E-02  0.8255469E-01
       -2   -1    0    0    0  501  0.00000000000E+00  0.00000000000E+00  0.11967228981E+04  0.11967228981E+04  0.25500000920E-02 0. -1.
        2   -1    0    0  501    0  0.00000000000E+00  0.00000000000E+00 -0.18293812681E+04  0.18293812681E+04  0.25500000920E-02 0.  1.
    10030    2    1    2    0    0  0.00000000000E+00  0.00000000000E+00 -0.63265837001E+03  0.30261041662E+04  0.29592312872E+04 0.  0.
        5    1    3    3  502    0 -0.10292111415E+04  0.42027403508E+02  0.76984060589E+03  0.12859698771E+04  0.46999998093E+01 0. -1.
       -5    1    3    3    0  502  0.10292111415E+04 -0.42027403508E+02 -0.14024989759E+04  0.17401342890E+04  0.46999998093E+01 0.  1.
</event>
<event>
 5   0  0.1523029E-05  0.3037152E+04  0.7818609E-02  0.8233201E-01
        2   -1    0    0  501    0  0.00000000000E+00  0.00000000000E+00  0.88599499094E+03  0.88599499094E+03  0.25500000920E-02 0.  1.
       -2   -1    0    0    0  501  0.00000000000E+00  0.00000000000E+00 -0.26028063021E+04  0.26028063021E+04  0.25500000920E-02 0. -1.
    10030    2    1    2    0    0  0.00000000000E+00  0.00000000000E+00 -0.17168113111E+04  0.34888012930E+04  0.30371521832E+04 0.  0.
        5    1    3    3  502    0 -0.78095372783E+03  0.12442851634E+04 -0.41661281704E+03  0.15269979117E+04  0.46999998093E+01 0.  1.
       -5    1    3    3    0  502  0.78095372783E+03 -0.12442851634E+04 -0.13001984941E+04  0.19618033813E+04  0.46999998093E+01 0. -1.
</event>
<event>
 5   0  0.5392262E-06  0.2927267E+04  0.7818609E-02  0.8264811E-01
       -1   -1    0    0    0  501  0.00000000000E+00  0.00000000000E+00  0.14593062935E+04  0.14593062935E+04  0.50400001928E-02 0. -1.
        1   -1    0    0  501    0  0.00000000000E+00  0.00000000000E+00 -0.14679739891E+04  0.14679739891E+04  0.50400001928E-02 0.  1.
    10030    2    1    2    0    0  0.00000000000E+00  0.00000000000E+00 -0.86676956740E+01  0.29272802826E+04  0.29272674500E+04 0.  0.
        2    1    3    3  502    0  0.94860861266E+02 -0.10295249580E+04  0.10316742937E+04  0.14605725146E+04  0.25500000920E-02 0. -1.
       -2    1    3    3    0  502 -0.94860861266E+02  0.10295249580E+04 -0.10403419894E+04  0.14667077681E+04  0.25500000920E-02 0.  1.
</event>
<event>
 5   0  0.5392262E-06  0.3061805E+04  0.7818609E-02  0.8226299E-01
       -1   -1    0    0    0  501  0.00000000000E+00  0.00000000000E+00  0.12465453980E+04  0.12465453981E+04  0.50400001928E-02 0. -1.
        1   -1    0    0  501    0  0.00000000000E+00  0.00000000000E+00 -0.18801259434E+04  0.18801259434E+04  0.50400001928E-02 0.  1.
    10030    2    1    2    0    0  0.00000000000E+00  0.00000000000E+00 -0.63358054537E+03  0.31266713415E+04  0.30618049203E+04 0.  0.
        2    1    3    3  502    0 -0.65143233948E+03  0.29491466123E+03  0.10655208516E+04  0.12832277411E+04  0.25500000920E-02 0. -1.
       -2    1    3    3    0  502  0.65143233948E+03 -0.29491466123E+03 -0.16991013970E+04  0.18434436003E+04  0.25500000920E-02 0.  1.
</event>
<event>
 5   0  0.5392262E-06  0.3062086E+04  0.7818609E-02  0.8226221E-01
       -1   -1    0    0    0  501  0.00000000000E+00  0.00000000000E+00  0.24803470474E+04  0.24803470474E+04  0.50400001928E-02 0.  1.
        1   -1    0    0  501    0  0.00000000000E+00  0.00000000000E+00 -0.94506620527E+03  0.94506620528E+03  0.50400001928E-02 0. -1.
    10030    2    1    2    0    0  0.00000000000E+00  0.00000000000E+00  0.15352808421E+04  0.34254132527E+04  0.30620856760E+04 0.  0.
        2    1    3    3  502    0 -0.50664355779E+03 -0.24738658548E+03  0.23599857487E+04  0.24264007401E+04  0.25500000920E-02 0.  1.
       -2    1    3    3    0  502  0.50664355779E+03  0.24738658548E+03 -0.82470490660E+03  0.99901251258E+03  0.25500000920E-02 0. -1.
</event>
<event>
 5   0  0.7032692E-06  0.2854019E+04  0.7818609E-02  0.8286691E-01
       -1   -1    0    0    0  501  0.00000000000E+00  0.00000000000E+00  0.12275133806E+04  0.12275133806E+04  0.50400001928E-02 0.  1.
        1   -1    0    0  501    0  0.00000000000E+00  0.00000000000E+00 -0.16589274612E+04  0.16589274612E+04  0.50400001928E-02 0. -1.
    10030    2    1    2    0    0  0.00000000000E+00  0.00000000000E+00 -0.43141408061E+03  0.28864408417E+04  0.28540186797E+04 0.  0.
        5    1    3    3  502    0  0.27301479223E+02 -0.41109288275E+03 -0.15974600349E+04  0.16497403984E+04  0.46999998093E+01 0. -1.
       -5    1    3    3    0  502 -0.27301479223E+02  0.41109288275E+03  0.11660459543E+04  0.12367004433E+04  0.46999998093E+01 0.  1.
</event>
<event>
 5   0  0.1423692E-05  0.2833818E+04  0.7818609E-02  0.8292846E-01
       -2   -1    0    0    0  501  0.00000000000E+00  0.00000000000E+00  0.18159459595E+04  0.18159459595E+04  0.25500000920E-02 0. -1.
        2   -1    0    0  501    0  0.00000000000E+00  0.00000000000E+00 -0.11055563669E+04  0.11055563669E+04  0.25500000920E-02 0.  1.
    10030    2    1    2    0    0  0.00000000000E+00  0.00000000000E+00  0.71038959263E+03  0.29215023265E+04  0.28338176494E+04 0.  0.
        3    1    3    3  502    0 -0.26548039717E+03 -0.50761685477E+02  0.17891216928E+04  0.18094233976E+04  0.10100000352E+00 0. -1.
       -3    1    3    3    0  502  0.26548039717E+03  0.50761685477E+02 -0.10787321001E+04  0.11120789289E+04  0.10100000352E+00 0.  1.
</event>
<event>
 5   0  0.5730920E-06  0.2998360E+04  0.7818609E-02  0.8244199E-01
       -1   -1    0    0    0  501  0.00000000000E+00  0.00000000000E+00  0.12629475144E+04  0.12629475144E+04  0.50400001928E-02 0.  1.
        1   -1    0    0  501    0  0.00000000000E+00  0.00000000000E+00 -0.17795999524E+04  0.17795999524E+04  0.50400001928E-02 0. -1.
    10030    2    1    2    0    0  0.00000000000E+00  0.00000000000E+00 -0.51665243801E+03  0.30425474668E+04  0.29983604430E+04 0.  0.
        1    1    3    3  502    0 -0.41490185841E+03 -0.87701459815E+03  0.90142687701E+03  0.13243370312E+04  0.50400001928E-02 0.  1.
       -1    1    3    3    0  502  0.41490185841E+03  0.87701459815E+03 -0.14180793150E+04  0.17182104357E+04  0.50400001928E-02 0. -1.
</event>
<event>
 5   0  0.5392262E-06  0.3006150E+04  0.7818609E-02  0.8241977E-01
        1   -1    0    0  501    0  0.00000000000E+00  0.00000000000E+00  0.11703341980E+04  0.11703341980E+04  0.50400001928E-02 0. -1.
       -1   -1    0    0    0  501  0.00000000000E+00  0.00000000000E+00 -0.19304177389E+04  0.19304177389E+04  0.50400001928E-02 0.  1.
    10030    2    1    2    0    0  0.00000000000E+00  0.00000000000E+00 -0.76008354094E+03  0.31007519369E+04  0.30061496279E+04 0.  0.
        2    1    3    3  502    0 -0.89700188983E+03 -0.10023242739E+04  0.31186412450E+03  0.13807699202E+04  0.25500000920E-02 0. -1.
       -2    1    3    3    0  502  0.89700188983E+03  0.10023242739E+04 -0.10719476654E+04  0.17199820167E+04  0.25500000920E-02 0.  1.
</event>
<event>
 5   0  0.7032692E-06  0.3133884E+04  0.7818609E-02  0.8206500E-01
        1   -1    0    0  501    0  0.00000000000E+00  0.00000000000E+00  0.18738198719E+04  0.18738198720E+04  0.50400001928E-02 0.  1.
       -1   -1    0    0    0  501  0.00000000000E+00  0.00000000000E+00 -0.13103221921E+04  0.13103221921E+04  0.50400001928E-02 0. -1.
    10030    2    1    2    0    0  0.00000000000E+00  0.00000000000E+00  0.56349767989E+03  0.31841420640E+04  0.31338843387E+04 0.  0.
        5    1    3    3  502    0 -0.42162826201E+03 -0.50548244716E+03  0.17265242646E+04  0.18477529656E+04  0.46999998093E+01 0.  1.
       -5    1    3    3    0  502  0.42162826201E+03  0.50548244716E+03 -0.11630265847E+04  0.13363890984E+04  0.46999998093E+01 0. -1.
</event>
<event>
 5   0  0.1345931E-05  0.2148521E+04  0.7818609E-02  0.8540166E-01
        2   -1    0    0  501    0  0.00000000000E+00  0.00000000000E+00  0.16730034002E+04  0.16730034002E+04  0.25500000920E-02 0.  1.
       -2   -1    0    0    0  501  0.00000000000E+00  0.00000000000E+00 -0.68979854551E+03  0.68979854552E+03  0.25500000920E-02 0. -1.
    10030    2    1    2    0    0  0.00000000000E+00  0.00000000000E+00  0.98320485472E+03  0.23628019458E+04  0.21485207117E+04 0.  0.
        2    1    3    3  502    0 -0.55765149087E+03 -0.20596851426E+03 -0.49242143467E+03  0.77193075043E+03  0.25500000920E-02 0. -1.
       -2    1    3    3    0  502  0.55765149087E+03  0.20596851426E+03  0.14756262894E+04  0.15908711953E+04  0.25500000920E-02 0.  1.
</event>
<event>
 5   0  0.1388724E-05  0.2913831E+04  0.7818609E-02  0.8268774E-01
       -2   -1    0    0    0  501  0.00000000000E+00  0.00000000000E+00  0.97244916725E+03  0.97244916725E+03  0.25500000920E-02 0.  1.
        2   -1    0    0  501    0  0.00000000000E+00  0.00000000000E+00 -0.21827392272E+04  0.21827392272E+04  0.25500000920E-02 0. -1.
    10030    2    1    2    0    0  0.00000000000E+00  0.00000000000E+00 -0.12102900599E+04  0.31551883944E+04  0.29138311164E+04 0.  0.
        4    1    3    3  502    0  0.53655913159E+03  0.12643106367E+04 -0.78857412231E+02  0.13757169738E+04  0.12699999809E+01 0.  1.
       -4    1    3    3    0  502 -0.53655913159E+03 -0.12643106367E+04 -0.11314326477E+04  0.17794714206E+04  0.12699999809E+01 0. -1.
</event>
<event>
 5   0  0.5522695E-06  0.2626736E+04  0.7818609E-02  0.8359176E-01
        1   -1    0    0  501    0  0.00000000000E+00  0.00000000000E+00  0.12099456897E+04  0.12099456897E+04  0.50400001928E-02 0. -1.
       -1   -1    0    0    0  501  0.00000000000E+00  0.00000000000E+00 -0.14256303151E+04  0.14256303151E+04  0.50400001928E-02 0.  1.
    10030    2    1    2    0    0  0.00000000000E+00  0.00000000000E+00 -0.21568462537E+03  0.26355760048E+04  0.26267358107E+04 0.  0.
        3    1    3    3  502    0 -0.22639065359E+03  0.89670735232E+03  0.82781868412E+03  0.12412173813E+04  0.10100000352E+00 0. -1.
       -3    1    3    3    0  502  0.22639065359E+03 -0.89670735232E+03 -0.10435033095E+04  0.13943586235E+04  0.10100000352E+00 0.  1.
</event>
<event>
 5   0  0.1345931E-05  0.3060567E+04  0.7818609E-02  0.8226644E-01
       -2   -1    0    0    0  501  0.00000000000E+00  0.00000000000E+00  0.12720956101E+04  0.12720956101E+04  0.25500000920E-02 0.  1.
        2   -1    0    0  501    0  0.00000000000E+00  0.00000000000E+00 -0.18408743588E+04  0.18408743588E+04  0.25500000920E-02 0. -1.
    10030    2    1    2    0    0  0.00000000000E+00  0.00000000000E+00 -0.56877874872E+03  0.31129699688E+04  0.30605673921E+04 0.  0.
        2    1    3    3  502    0  0.44730727392E+03  0.13100549871E+04 -0.94781510206E+03  0.16777012053E+04  0.25500000920E-02 0.  1.
       -2    1    3    3    0  502 -0.44730727392E+03 -0.13100549871E+04  0.37903635334E+03  0.14352687636E+04  0.25500000920E-02 0. -1.
</event>
<event>
 5   0  0.7032692E-06  0.2898581E+04  0.7818609E-02  0.8273300E-01
        1   -1    0    0  501    0  0.00000000000E+00  0.00000000000E+00  0.22475456755E+04  0.22475456755E+04  0.50400001928E-02 0.  1.
       -1   -1    0    0    0  501  0.00000000000E+00  0.00000000000E+00 -0.93454956373E+03  0.93454956375E+03  0.50400001928E-02 0. -1.
    10030    2    1    2    0    0  0.00000000000E+00  0.00000000000E+00  0.13129961117E+04  0.31820952392E+04  0.28985809152E+04 0.  0.
        5    1    3    3  502    0 -0.34215301850E+03 -0.93058657754E+03 -0.50394660977E+03  0.11122249511E+04  0.46999998093E+01 0. -1.
       -5    1    3    3    0  502  0.34215301850E+03  0.93058657754E+03  0.18169427215E+04  0.20698702881E+04  0.46999998093E+01 0.  1.
</event>
<event>
 5   0  0.5329891E-06  0.2923309E+04  0.7818609E-02  0.8265976E-01
       -1   -1    0    0    0  501  0.00000000000E+00  0.00000000000E+00  0.15646962705E+04  0.15646962705E+04  0.50400001928E-02 0.  1.
        1   -1    0    0  501    0  0.00000000000E+00  0.00000000000E+00 -0.13653983809E+04  0.13653983809E+04  0.50400001928E-02 0. -1.
    10030    2    1    2    0    0  0.00000000000E+00  0.00000000000E+00  0.19929788962E+03  0.29300946513E+04  0.29233089158E+04 0.  0.
        4    1    3    3  502    0 -0.79767590626E+03 -0.80813218379E+03  0.10221481275E+04  0.15277934694E+04  0.12699999809E+01 0.  1.
       -4    1    3    3    0  502  0.79767590626E+03  0.80813218379E+03 -0.82285023786E+03  0.14023011819E+04  0.12699999809E+01 0. -1.
</event>
<event>
 5   0  0.5392262E-06  0.2783471E+04  0.7818609E-02  0.8308418E-01
        1   -1    0    0  501    0  0.00000000000E+00  0.00000000000E+00  0.14027426039E+04  0.14027426039E+04  0.50400001928E-02 0. -1.
       -1   -1    0    0    0  501  0.00000000000E+00  0.00000000000E+00 -0.13808151555E+04  0.13808151555E+04  0.50400001928E-02 0.  1.
    10030    2    1    2    0    0  0.00000000000E+00  0.00000000000E+00  0.21927448378E+02  0.27835577595E+04  0.27834713915E+04 0.  0.
        2    1    3    3  502    0  0.11662231100E+04 -0.56738404472E+02 -0.74644518568E+03  0.13858123986E+04  0.25500000920E-02 0.  1.
       -2    1    3    3    0  502 -0.11662231100E+04  0.56738404472E+02  0.76837263406E+03  0.13977453608E+04  0.25500000920E-02 0. -1.
</event>
<event>
 5   0  0.7032692E-06  0.2872262E+04  0.7818609E-02  0.8281178E-01
       -1   -1    0    0    0  501  0.00000000000E+00  0.00000000000E+00  0.22144381847E+04  0.22144381847E+04  0.50400001928E-02 0. -1.
        1   -1    0    0  501    0  0.00000000000E+00  0.00000000000E+00 -0.93137515731E+03  0.93137515733E+03  0.50400001928E-02 0.  1.
    10030    2    1    2    0    0  0.00000000000E+00  0.00000000000E+00  0.12830630273E+04  0.31458133420E+04  0.28722623227E+04 0.  0.
        5    1    3    3  502    0  0.94878054441E+03  0.29174135661E+02 -0.53879607584E+03  0.10914939088E+04  0.46999998093E+01 0.  1.
       -5    1    3    3    0  502 -0.94878054441E+03 -0.29174135661E+02  0.18218591032E+04  0.20543194332E+04  0.46999998093E+01 0. -1.
</event>
<event>
 5   0  0.5730920E-06  0.3017675E+04  0.7818609E-02  0.8238702E-01
       -1   -1    0    0    0  501  0.00000000000E+00  0.00000000000E+00  0.10687272653E+04  0.10687272653E+04  0.50400001928E-02 0. -1.
        1   -1    0    0  501    0  0.00000000000E+00  0.00000000000E+00 -0.21301891485E+04  0.21301891485E+04  0.50400001928E-02 0.  1.
    10030    2    1    2    0    0  0.00000000000E+00  0.00000000000E+00 -0.10614618832E+04  0.31989164138E+04  0.30176754121E+04 0.  0.
        1    1    3    3  502    0  0.53335495585E+03 -0.53625222128E+03  0.85326930219E+03  0.11402203541E+04  0.50400001928E-02 0. -1.
       -1    1    3    3    0  502 -0.53335495585E+03  0.53625222128E+03 -0.19147311854E+04  0.20586960597E+04  0.50400001928E-02 0.  1.
</event>
<event>
 5   0  0.1423692E-05  0.2928717E+04  0.7818609E-02  0.8264384E-01
        2   -1    0    0  501    0  0.00000000000E+00  0.00000000000E+00  0.15227548084E+04  0.15227548084E+04  0.25500000920E-02 0. -1.
       -2   -1    0    0    0  501  0.00000000000E+00  0.00000000000E+00 -0.14082012697E+04  0.14082012697E+04  0.25500000920E-02 0.  1.
    10030    2    1    2    0    0  0.00000000000E+00  0.00000000000E+00  0.11455353871E+03  0.29309560780E+04  0.29287166162E+04 0.  0.
        3    1    3    3  502    0  0.17872174826E+03  0.14207374241E+04 -0.24940323288E+03  0.14534917524E+04  0.10100000352E+00 0.  1.
       -3    1    3    3    0  502 -0.17872174826E+03 -0.14207374241E+04  0.36395677159E+03  0.14774643256E+04  0.10100000352E+00 0. -1.
</event>
<event>
 5   0  0.1423692E-05  0.2977892E+04  0.7818609E-02  0.8250072E-01
       -2   -1    0    0    0  501  0.00000000000E+00  0.00000000000E+00  0.14622501742E+04  0.14622501742E+04  0.25500000920E-02 0.  1.
        2   -1    0    0  501    0  0.00000000000E+00  0.00000000000E+00 -0.15161295905E+04  0.15161295905E+04  0.25500000920E-02 0. -1.
    10030    2    1    2    0    0  0.00000000000E+00  0.00000000000E+00 -0.53879416322E+02  0.29783797647E+04  0.29778923807E+04 0.  0.
        3    1    3    3  502    0  0.10240653947E+04  0.90555873392E+03  0.56325363839E+03  0.14785131804E+04  0.10100000352E+00 0. -1.
       -3    1    3    3    0  502 -0.10240653947E+04 -0.90555873392E+03 -0.61713305471E+03  0.14998665843E+04  0.10100000352E+00 0.  1.
</event>
<event>
 5   0  0.7032692E-06  0.2926932E+04  0.7818609E-02  0.8264909E-01
       -1   -1    0    0    0  501  0.00000000000E+00  0.00000000000E+00  0.11657826708E+04  0.11657826708E+04  0.50400001928E-02 0.  1.
        1   -1    0    0  501    0  0.00000000000E+00  0.00000000000E+00 -0.18371625063E+04  0.18371625063E+04  0.50400001928E-02 0. -1.
    10030    2    1    2    0    0  0.00000000000E+00  0.00000000000E+00 -0.67137983549E+03  0.30029451772E+04  0.29269316448E+04 0.  0.
        5    1    3    3  502    0 -0.47222950947E+03  0.11870362917E+04  0.39675108944E+03  0.13377179764E+04  0.46999998093E+01 0.  1.
       -5    1    3    3    0  502  0.47222950947E+03 -0.11870362917E+04 -0.10681309249E+04  0.16652272008E+04  0.46999998093E+01 0. -1.
</event>
<event>
 5   0  0.5522695E-06  0.2775378E+04  0.7818609E-02  0.8310953E-01
        1   -1    0    0  501    0  0.00000000000E+00  0.00000000000E+00  0.12480476481E+04  0.12480476481E+04  0.50400001928E-02 0. -1.
       -1   -1    0    0    0  501  0.00000000000E+00  0.00000000000E+00 -0.15429547234E+04  0.15429547234E+04  0.50400001928E-02 0.  1.
    10030    2    1    2    0    0  0.00000000000E+00  0.00000000000E+00 -0.29490707527E+03  0.27910023715E+04  0.27753781823E+04 0.  0.
        3    1    3    3  502    0 -0.95750331929E+03 -0.97215359086E+03 -0.40143382752E+03  0.14223376318E+04  0.10100000352E+00 0.  1.
       -3    1    3    3    0  502  0.95750331929E+03  0.97215359086E+03  0.10652675225E+03  0.13686647397E+04  0.10100000352E+00 0. -1.
</event>
<event>
 5   0  0.5522695E-06  0.2998791E+04  0.7818609E-02  0.8244076E-01
        1   -1    0    0  501    0  0.00000000000E+00  0.00000000000E+00  0.22354251618E+04  0.22354251618E+04  0.50400001928E-02 0.  1.
       -1   -1    0    0    0  501  0.00000000000E+00  0.00000000000E+00 -0.10057090832E+04  0.10057090832E+04  0.50400001928E-02 0. -1.
    10030    2    1    2    0    0  0.00000000000E+00  0.00000000000E+00  0.12297160786E+04  0.32411342450E+04  0.29987913499E+04 0.  0.
        3    1    3    3  502    0  0.10628852950E+04  0.85060506779E+03 -0.64365328210E+02  0.13628635432E+04  0.10100000352E+00 0. -1.
       -3    1    3    3    0  502 -0.10628852950E+04 -0.85060506779E+03  0.12940814068E+04  0.18782707018E+04  0.10100000352E+00 0.  1.
</event>
<event>
 5   0  0.1345931E-05  0.2947613E+04  0.7818609E-02  0.8258851E-01
        2   -1    0    0  501    0  0.00000000000E+00  0.00000000000E+00  0.16594304327E+04  0.16594304327E+04  0.25500000920E-02 0.  1.
       -2   -1    0    0    0  501  0.00000000000E+00  0.00000000000E+00 -0.13089460945E+04  0.13089460945E+04  0.25500000920E-02 0. -1.
    10030    2    1    2    0    0  0.00000000000E+00  0.00000000000E+00  0.35048433821E+03  0.29683765271E+04  0.29476125823E+04 0.  0.
        2    1    3    3  502    0  0.45402318502E+03 -0.27806878728E+03 -0.12087187672E+04  0.13207802092E+04  0.25500000920E-02 0. -1.
       -2    1    3    3    0  502 -0.45402318502E+03  0.27806878728E+03  0.15592031054E+04  0.16475963179E+04  0.25500000920E-02 0.  1.
</event>
<event>
 5   0  0.1345931E-05  0.3012692E+04  0.7818609E-02  0.8240116E-01
        2   -1    0    0  501    0  0.00000000000E+00  0.00000000000E+00  0.23576218746E+04  0.23576218746E+04  0.25500000920E-02 0. -1.
       -2   -1    0    0    0  501  0.00000000000E+00  0.00000000000E+00 -0.96244343587E+03  0.96244343587E+03  0.25500000920E-02 0.  1.
    10030    2    1    2    0    0  0.00000000000E+00  0.00000000000E+00  0.13951784388E+04  0.33200653105E+04  0.30126916188E+04 0.  0.
        2    1    3    3  502    0 -0.66627749843E+03  0.12339343700E+04  0.91416703127E+02  0.14053030805E+04  0.25500000920E-02 0.  1.
       -2    1    3    3    0  502  0.66627749843E+03 -0.12339343700E+04  0.13037617356E+04  0.19147622300E+04  0.25500000920E-02 0. -1.
</event>
<event>
 5   0  0.5329891E-06  0.2906022E+04  0.7818609E-02  0.8271088E-01
        1   -1    0    0  501    0  0.00000000000E+00  0.00000000000E+00  0.13272173928E+04  0.13272173928E+04  0.50400001928E-02 0.  1.
       -1   -1    0    0    0  501  0.00000000000E+00  0.00000000000E+00 -0.15907273165E+04  0.15907273165E+04  0.50400001928E-02 0. -1.
    10030    2    1    2    0    0  0.00000000000E+00  0.00000000000E+00 -0.26350992365E+03  0.29179447093E+04  0.29060219969E+04 0.  0.
        4    1    3    3  502    0 -0.83908904082E+02  0.72411310316E+03 -0.13938361861E+04  0.15729467305E+04  0.12699999809E+01 0. -1.
       -4    1    3    3    0  502  0.83908904082E+02 -0.72411310316E+03  0.11303262625E+04  0.13449979788E+04  0.12699999809E+01 0.  1.
</event>
<event>
 5   0  0.1480547E-05  0.2518795E+04  0.7818609E-02  0.8396320E-01
        2   -1    0    0  501    0  0.00000000000E+00  0.00000000000E+00  0.18332111560E+04  0.18332111560E+04  0.25500000920E-02 0. -1.
       -2   -1    0    0    0  501  0.00000000000E+00  0.00000000000E+00 -0.86519301370E+03  0.86519301370E+03  0.25500000920E-02 0.  1.
    10030    2    1    2    0    0  0.00000000000E+00  0.00000000000E+00  0.96801814226E+03  0.26984041697E+04  0.25187945409E+04 0.  0.
        1    1    3    3  502    0 -0.25283322563E+03  0.16867691099E+03  0.17933316741E+04  0.18189048995E+04  0.50400001928E-02 0. -1.
       -1    1    3    3    0  502  0.25283322563E+03 -0.16867691099E+03 -0.82531353183E+03  0.87949927011E+03  0.50400001928E-02 0.  1.
</event>
<event>
 5   0  0.1523029E-05  0.2241735E+04  0.7818609E-02  0.8501255E-01
        2   -1    0    0  501    0  0.00000000000E+00  0.00000000000E+00  0.13693956341E+04  0.13693956341E+04  0.25500000920E-02 0.  1.
       -2   -1    0    0    0  501  0.00000000000E+00  0.00000000000E+00 -0.91744443085E+03  0.91744443086E+03  0.25500000920E-02 0. -1.
    10030    2    1    2    0    0  0.00000000000E+00  0.00000000000E+00  0.45195120324E+03  0.22868400650E+04  0.22417353975E+04 0.  0.
        5    1    3    3  502    0  0.38877555499E+03  0.18884107839E+03 -0.82900595487E+03  0.93492264293E+03  0.46999998093E+01 0. -1.
       -5    1    3    3    0  502 -0.38877555499E+03 -0.18884107839E+03  0.12809571581E+04  0.13519174220E+04  0.46999998093E+01 0.  1.
</event>
<event>
 5   0  0.1523029E-05  0.2901717E+04  0.7818609E-02  0.8272367E-01
       -2   -1    0    0    0  501  0.00000000000E+00  0.00000000000E+00  0.95710446880E+03  0.95710446880E+03  0.25500000920E-02 0.  1.
        2   -1    0    0  501    0  0.00000000000E+00  0.00000000000E+00 -0.21993317630E+04  0.21993317630E+04  0.25500000920E-02 0. -1.
    10030    2    1    2    0    0  0.00000000000E+00  0.00000000000E+00 -0.12422272942E+04  0.31564362318E+04  0.29017169116E+04 0.  0.
        5    1    3    3  502    0 -0.19651858549E+03  0.10319660026E+04 -0.17096542712E+04  0.20066173531E+04  0.46999998093E+01 0. -1.
       -5    1    3    3    0  502  0.19651858549E+03 -0.10319660026E+04  0.46742697700E+03  0.11498188787E+04  0.46999998093E+01 0.  1.
</event>
<event>
 5   0  0.1345931E-05  0.1985172E+04  0.7818609E-02  0.8613585E-01
        2   -1    0    0  501    0  0.00000000000E+00  0.00000000000E+00  0.16545628161E+04  0.16545628161E+04  0.25500000920E-02 0.  1.
       -2   -1    0    0    0  501  0.00000000000E+00  0.00000000000E+00 -0.59546057977E+03  0.59546057977E+03  0.25500000920E-02 0. -1.
    10030    2    1    2    0    0  0.00000000000E+00  0.00000000000E+00  0.10591022364E+04  0.22500233959E+04  0.19851719661E+04 0.  0.
        2    1    3    3  502    0 -0.74261689022E+03  0.40397258493E+03 -0.59991585650E+02  0.84750969633E+03  0.25500000920E-02 0. -1.
       -2    1    3    3    0  502  0.74261689022E+03 -0.40397258493E+03  0.11190938220E+04  0.14025136996E+04  0.25500000920E-02 0.  1.
</event>
<event>
 5   0  0.4806125E-06  0.2981179E+04  0.7818609E-02  0.8249126E-01
       -3   -1    0    0    0  501  0.00000000000E+00  0.00000000000E+00  0.13665925947E+04  0.13665925984E+04  0.10100000352E+00 0.  1.
        3   -1    0    0  501    0  0.00000000000E+00  0.00000000000E+00 -0.16258375444E+04  0.16258375475E+04  0.10100000352E+00 0. -1.
    10030    2    1    2    0    0  0.00000000000E+00  0.00000000000E+00 -0.25924494972E+03  0.29924301459E+04  0.29811793361E+04 0.  0.
        4    1    3    3  502    0  0.82793441089E+03  0.81038333150E+03 -0.10710636657E+04  0.15777754978E+04  0.12699999809E+01 0. -1.
       -4    1    3    3    0  502 -0.82793441089E+03 -0.81038333150E+03  0.81181871599E+03  0.14146546480E+04  0.12699999809E+01 0.  1.
</event>
<event>
 5   0  0.1423692E-05  0.3045765E+04  0.7818609E-02  0.8230782E-01
        2   -1    0    0  501    0  0.00000000000E+00  0.00000000000E+00  0.16633735167E+04  0.16633735167E+04  0.25500000920E-02 0. -1.
       -2   -1    0    0    0  501  0.00000000000E+00  0.00000000000E+00 -0.13942573491E+04  0.13942573491E+04  0.25500000920E-02 0.  1.
    10030    2    1    2    0    0  0.00000000000E+00  0.00000000000E+00  0.26911616759E+03  0.30576308659E+04  0.30457647644E+04 0.  0.
        3    1    3    3  502    0  0.15843832636E+03 -0.65474085079E+03 -0.12365529933E+04  0.14081376355E+04  0.10100000352E+00 0.  1.
       -3    1    3    3    0  502 -0.15843832636E+03  0.65474085079E+03  0.15056691609E+04  0.16494932304E+04  0.10100000352E+00 0. -1.
</event>
<event>
 5   0  0.5522695E-06  0.3119357E+04  0.7818609E-02  0.8210445E-01
        1   -1    0    0  501    0  0.00000000000E+00  0.00000000000E+00  0.13347789139E+04  0.13347789139E+04  0.50400001928E-02 0.  1.
       -1   -1    0    0    0  501  0.00000000000E+00  0.00000000000E+00 -0.18224723426E+04  0.18224723426E+04  0.50400001928E-02 0. -1.
    10030    2    1    2    0    0  0.00000000000E+00  0.00000000000E+00 -0.48769342867E+03  0.31572512565E+04  0.31193574044E+04 0.  0.
        3    1    3    3  502    0  0.32677952656E+03  0.74127637225E+02  0.12979167522E+04  0.13404729283E+04  0.10100000352E+00 0.  1.
       -3    1    3    3    0  502 -0.32677952656E+03 -0.74127637225E+02 -0.17856101809E+04  0.18167783282E+04  0.10100000352E+00 0. -1.
</event>
<event>
 5   0  0.1388724E-05  0.2862709E+04  0.7818609E-02  0.8284060E-01
        2   -1    0    0  501    0  0.00000000000E+00  0.00000000000E+00  0.16300501177E+04  0.16300501177E+04  0.25500000920E-02 0. -1.
       -2   -1    0    0    0  501  0.00000000000E+00  0.00000000000E+00 -0.12568788431E+04  0.12568788431E+04  0.25500000920E-02 0.  1.
    10030    2    1    2    0    0  0.00000000000E+00  0.00000000000E+00  0.37317127464E+03  0.28869289607E+04  0.28627088612E+04 0.  0.
        4    1    3    3  502    0 -0.87028316075E+03 -0.10629667010E+04  0.59183486223E+03  0.14958479549E+04  0.12699999809E+01 0.  1.
       -4    1    3    3    0  502  0.87028316075E+03  0.10629667010E+04 -0.21866358759E+03  0.13910810058E+04  0.12699999809E+01 0. -1.
</event>
<event>
 5   0  0.5392262E-06  0.2125950E+04  0.7818609E-02  0.8549898E-01
       -1   -1    0    0    0  501  0.00000000000E+00  0.00000000000E+00  0.10584097997E+04  0.10584097997E+04  0.50400001928E-02 0.  1.
        1   -1    0    0  501    0  0.00000000000E+00  0.00000000000E+00 -0.10675594228E+04  0.10675594229E+04  0.50400001928E-02 0. -1.
    10030    2    1    2    0    0  0.00000000000E+00  0.00000000000E+00 -0.91496231299E+01  0.21259692226E+04  0.21259495337E+04 0.  0.
        2    1    3    3  502    0 -0.11912783168E+03  0.10561760855E+04  0.10121958304E+02  0.10629213602E+04  0.25500000920E-02 0.  1.
       -2    1    3    3    0  502  0.11912783168E+03 -0.10561760855E+04 -0.19271581434E+02  0.10630478624E+04  0.25500000920E-02 0. -1.
</event>
<event>
 5   0  0.5730920E-06  0.2990870E+04  0.7818609E-02  0.8246343E-01
       -1   -1    0    0    0  501  0.00000000000E+00  0.00000000000E+00  0.19480418540E+04  0.19480418541E+04  0.50400001928E-02 0. -1.
        1   -1    0    0  501    0  0.00000000000E+00  0.00000000000E+00 -0.11479863136E+04  0.11479863136E+04  0.50400001928E-02 0.  1.
    10030    2    1    2    0    0  0.00000000000E+00  0.00000000000E+00  0.80005554049E+03  0.30960281676E+04  0.29908696974E+04 0.  0.
        1    1    3    3  502    0 -0.49547868078E+03  0.51607460012E+03 -0.95934373652E+03  0.11967341061E+04  0.50400001928E-02 0.  1.
       -1    1    3    3    0  502  0.49547868078E+03 -0.51607460012E+03  0.17593992770E+04  0.18992940615E+04  0.50400001928E-02 0. -1.
</event>
<event>
 5   0  0.1523029E-05  0.2973529E+04  0.7818609E-02  0.8251331E-01
        2   -1    0    0  501    0  0.00000000000E+00  0.00000000000E+00  0.17039512567E+04  0.17039512567E+04  0.25500000920E-02 0.  1.
       -2   -1    0    0    0  501  0.00000000000E+00  0.00000000000E+00 -0.12972601333E+04  0.12972601333E+04  0.25500000920E-02 0. -1.
    10030    2    1    2    0    0  0.00000000000E+00  0.00000000000E+00  0.40669112338E+03  0.30012113900E+04  0.29735285668E+04 0.  0.
        5    1    3    3  502    0  0.80598471348E+03  0.12442418433E+04  0.31707475905E+03  0.15160170236E+04  0.46999998093E+01 0.  1.
       -5    1    3    3    0  502 -0.80598471348E+03 -0.12442418433E+04  0.89616364332E+02  0.14851943663E+04  0.46999998093E+01 0. -1.
</event>
<event>
 5   0  0.7032692E-06  0.2893059E+04  0.7818609E-02  0.8274946E-01
        1   -1    0    0  501    0  0.00000000000E+00  0.00000000000E+00  0.15058767164E+04  0.15058767164E+04  0.50400001928E-02 0. -1.
       -1   -1    0    0    0  501  0.00000000000E+00  0.00000000000E+00 -0.13895210362E+04  0.13895210362E+04  0.50400001928E-02 0.  1.
    10030    2    1    2    0    0  0.00000000000E+00  0.00000000000E+00  0.11635568016E+03  0.28953977526E+04  0.28930588486E+04 0.  0.
        5    1    3    3  502    0  0.19036189409E+03  0.11054400863E+04 -0.85590049522E+03  0.14109653372E+04  0.46999998093E+01 0.  1.
       -5    1    3    3    0  502 -0.19036189409E+03 -0.11054400863E+04  0.97225617538E+03  0.14844324153E+04  0.46999998093E+01 0. -1.
</event>
<event>
 5   0  0.1423692E-05  0.3002501E+04  0.7818609E-02  0.8243017E-01
        2   -1    0    0  501    0  0.00000000000E+00  0.00000000000E+00  0.19195762842E+04  0.19195762842E+04  0.25500000920E-02 0.  1.
       -2   -1    0    0    0  501  0.00000000000E+00  0.00000000000E+00 -0.11740891714E+04  0.11740891714E+04  0.25500000920E-02 0. -1.
    10030    2    1    2    0    0  0.00000000000E+00  0.00000000000E+00  0.74548711285E+03  0.30936654556E+04  0.30025014431E+04 0.  0.
        3    1    3    3  502    0 -0.99116804307E+03  0.94875483903E+03 -0.25502040378E+03  0.13955591176E+04  0.10100000352E+00 0. -1.
       -3    1    3    3    0  502  0.99116804307E+03 -0.94875483903E+03  0.10005075166E+04  0.16981063380E+04  0.10100000352E+00 0.  1.
</event>
<event>
 5   0  0.1480547E-05  0.2972315E+04  0.7818609E-02  0.8251681E-01
        2   -1    0    0  501    0  0.00000000000E+00  0.00000000000E+00  0.20896757525E+04  0.20896757525E+04  0.25500000920E-02 0.  1.
       -2   -1    0    0    0  501  0.00000000000E+00  0.00000000000E+00 -0.10569410321E+04  0.10569410321E+04  0.25500000920E-02 0. -1.
    10030    2    1    2    0    0  0.00000000000E+00  0.00000000000E+00  0.10327347204E+04  0.31466167846E+04  0.29723149541E+04 0.  0.
        1    1    3    3  502    0 -0.14791675453E+04 -0.13667801575E+03  0.46847578727E+03  0.15575901484E+04  0.50400001928E-02 0. -1.
       -1    1    3    3    0  502  0.14791675453E+04  0.13667801575E+03  0.56425893312E+03  0.15890266362E+04  0.50400001928E-02 0.  1.
</event>
<event>
 5   0  0.5392262E-06  0.1896292E+04  0.7818609E-02  0.8656704E-01
       -1   -1    0    0    0  501  0.00000000000E+00  0.00000000000E+00  0.67396652388E+03  0.67396652390E+03  0.50400001928E-02 0.  1.
        1   -1    0    0  501    0  0.00000000000E+00  0.00000000000E+00 -0.13338656230E+04  0.13338656230E+04  0.50400001928E-02 0. -1.
    10030    2    1    2    0    0  0.00000000000E+00  0.00000000000E+00 -0.65989909908E+03  0.20078321469E+04  0.18962919367E+04 0.  0.
        2    1    3    3  502    0 -0.46469025871E+02 -0.26119007833E+03 -0.12937674119E+04  0.13206868454E+04  0.25500000920E-02 0. -1.
       -2    1    3    3    0  502  0.46469025871E+02  0.26119007833E+03  0.63386831283E+03  0.68714530151E+03  0.25500000920E-02 0.  1.
</event>
<event>
 5   0  0.5392262E-06  0.2869175E+04  0.7818609E-02  0.8282108E-01
        1   -1    0    0  501    0  0.00000000000E+00  0.00000000000E+00  0.19115019286E+04  0.19115019287E+04  0.50400001928E-02 0.  1.
       -1   -1    0    0    0  501  0.00000000000E+00  0.00000000000E+00 -0.10766617351E+04  0.10766617351E+04  0.50400001928E-02 0. -1.
    10030    2    1    2    0    0  0.00000000000E+00  0.00000000000E+00  0.83484019358E+03  0.29881636637E+04  0.28691747825E+04 0.  0.
        2    1    3    3  502    0  0.46478344142E+03  0.13149948190E+04  0.67625254586E+02  0.13963553260E+04  0.25500000920E-02 0. -1.
       -2    1    3    3    0  502 -0.46478344142E+03 -0.13149948190E+04  0.76721493899E+03  0.15918083377E+04  0.25500000920E-02 0.  1.
</event>
<event>
 5   0  0.1423692E-05  0.2042053E+04  0.7818609E-02  0.8587208E-01
       -2   -1    0    0    0  501  0.00000000000E+00  0.00000000000E+00  0.96881118392E+03  0.96881118393E+03  0.25500000920E-02 0.  1.
        2   -1    0    0  501    0  0.00000000000E+00  0.00000000000E+00 -0.10760562139E+04  0.10760562140E+04  0.25500000920E-02 0. -1.
    10030    2    1    2    0    0  0.00000000000E+00  0.00000000000E+00 -0.10724503003E+03  0.20448673979E+04  0.20420531772E+04 0.  0.
        3    1    3    3  502    0 -0.15027489449E+03  0.67066256138E+03 -0.80972896695E+03  0.10620884263E+04  0.10100000352E+00 0. -1.
       -3    1    3    3    0  502  0.15027489449E+03 -0.67066256138E+03  0.70248393693E+03  0.98277897158E+03  0.10100000352E+00 0.  1.
</event>
<event>
 5   0  0.1423692E-05  0.3070633E+04  0.7818609E-02  0.8223844E-01
        2   -1    0    0  501    0  0.00000000000E+00  0.00000000000E+00  0.18794888755E+04  0.18794888755E+04  0.25500000920E-02 0.  1.
       -2   -1    0    0    0  501  0.00000000000E+00  0.00000000000E+00 -0.12541688689E+04  0.12541688689E+04  0.25500000920E-02 0. -1.
    10030    2    1    2    0    0  0.00000000000E+00  0.00000000000E+00  0.62532000656E+03  0.31336577443E+04  0.30706327928E+04 0.  0.
        3    1    3    3  502    0 -0.38728906464E+03  0.13217924384E+04 -0.37954520042E+03  0.14286996322E+04  0.10100000352E+00 0. -1.
       -3    1    3    3    0  502  0.38728906464E+03 -0.13217924384E+04  0.10048652070E+04  0.17049581121E+04  0.10100000352E+00 0.  1.
</event>
<event>
 5   0  0.5329891E-06  0.2227419E+04  0.7818609E-02  0.8507102E-01
        1   -1    0    0  501    0  0.00000000000E+00  0.00000000000E+00  0.14147007311E+04  0.14147007311E+04  0.50400001928E-02 0. -1.
       -1   -1    0    0    0  501  0.00000000000E+00  0.00000000000E+00 -0.87675727930E+03  0.87675727931E+03  0.50400001928E-02 0.  1.
    10030    2    1    2    0    0  0.00000000000E+00  0.00000000000E+00  0.53794345178E+03  0.22914580104E+04  0.22274192816E+04 0.  0.
        4    1    3    3  502    0  0.39853477443E+03  0.10117402091E+04  0.51651248158E+03  0.12038417561E+04  0.12699999809E+01 0.  1.
       -4    1    3    3    0  502 -0.39853477443E+03 -0.10117402091E+04  0.21430970202E+02  0.10876162543E+04  0.12699999809E+01 0. -1.
</event>
<event>
 5   0  0.5329891E-06  0.2743020E+04  0.7818609E-02  0.8321180E-01
        1   -1    0    0  501    0  0.00000000000E+00  0.00000000000E+00  0.16008722997E+04  0.16008722997E+04  0.50400001928E-02 0.  1.
       -1   -1    0    0    0  501  0.00000000000E+00  0.00000000000E+00 -0.11750088706E+04  0.11750088707E+04  0.50400001928E-02 0. -1.
    10030    2    1    2    0    0  0.00000000000E+00  0.00000000000E+00  0.42586342907E+03  0.27758811704E+04  0.27430196157E+04 0.  0.
        4    1    3    3  502    0 -0.88126464676E+03  0.55778568111E+03 -0.68840416621E+03  0.12496616153E+04  0.12699999809E+01 0. -1.
       -4    1    3    3    0  502  0.88126464676E+03 -0.55778568111E+03  0.11142675953E+04  0.15262195551E+04  0.12699999809E+01 0.  1.
</event>
<event>
 5   0  0.5730920E-06  0.1531369E+04  0.7818609E-02  0.8863857E-01
        1   -1    0    0  501    0  0.00000000000E+00  0.00000000000E+00  0.11192082487E+04  0.11192082487E+04  0.50400001928E-02 0. -1.
       -1   -1    0    0    0  501  0.00000000000E+00  0.00000000000E+00 -0.52382817499E+03  0.52382817501E+03  0.50400001928E-02 0.  1.
    10030    2    1    2    0    0  0.00000000000E+00  0.00000000000E+00  0.59538007368E+03  0.16430364237E+04  0.15313690794E+04 0.  0.
        1    1    3    3  502    0  0.50915954897E+03  0.45130303233E+03  0.67452014278E+03  0.95806852382E+03  0.50400001928E-02 0. -1.
       -1    1    3    3    0  502 -0.50915954897E+03 -0.45130303233E+03 -0.79140069102E+02  0.68496789987E+03  0.50400001928E-02 0.  1.
</event>
<event>
 5   0  0.5730920E-06  0.3006148E+04  0.7818609E-02  0.8241977E-01
       -1   -1    0    0    0  501  0.00000000000E+00  0.00000000000E+00  0.15363007216E+04  0.15363007216E+04  0.50400001928E-02 0. -1.
        1   -1    0    0  501    0  0.00000000000E+00  0.00000000000E+00 -0.14705662158E+04  0.14705662158E+04  0.50400001928E-02 0.  1.
    10030    2    1    2    0    0  0.00000000000E+00  0.00000000000E+00  0.65734505837E+02  0.30068669374E+04  0.30061483253E+04 0.  0.
        1    1    3    3  502    0  0.29078250134E+03  0.73682438234E+03  0.13105790897E+04  0.15313661168E+04  0.50400001928E-02 0. -1.
       -1    1    3    3    0  502 -0.29078250134E+03 -0.73682438234E+03 -0.12448445838E+04  0.14755008205E+04  0.50400001928E-02 0.  1.
</event>
<event>
 5   0  0.5392262E-06  0.3016685E+04  0.7818609E-02  0.8238982E-01
        1   -1    0    0  501    0  0.00000000000E+00  0.00000000000E+00  0.96741974786E+03  0.96741974788E+03  0.50400001928E-02 0. -1.
       -1   -1    0    0    0  501  0.00000000000E+00  0.00000000000E+00 -0.23517160016E+04  0.23517160016E+04  0.50400001928E-02 0.  1.
    10030    2    1    2    0    0  0.00000000000E+00  0.00000000000E+00 -0.13842962538E+04  0.33191357495E+04  0.30166846049E+04 0.  0.
        2    1    3    3  502    0  0.85419149822E+03 -0.10751901396E+04 -0.13787484177E+04  0.19459250117E+04  0.25500000920E-02 0. -1.
       -2    1    3    3    0  502 -0.85419149822E+03  0.10751901396E+04 -0.55478360706E+01  0.13732107378E+04  0.25500000920E-02 0.  1.
</event>
<event>
 5   0  0.7032692E-06  0.3001631E+04  0.7818609E-02  0.8243265E-01
       -1   -1    0    0    0  501  0.00000000000E+00  0.00000000000E+00  0.15565902513E+04  0.15565902513E+04  0.50400001928E-02 0. -1.
        1   -1    0    0  501    0  0.00000000000E+00  0.00000000000E+00 -0.14470392939E+04  0.14470392939E+04  0.50400001928E-02 0.  1.
    10030    2    1    2    0    0  0.00000000000E+00  0.00000000000E+00  0.10955095740E+03  0.30036295452E+04  0.30016310620E+04 0.  0.
        5    1    3    3  502    0 -0.76076578138E+03 -0.10866721522E+04  0.75724303194E+03  0.15274357727E+04  0.46999998093E+01 0. -1.
       -5    1    3    3    0  502  0.76076578138E+03  0.10866721522E+04 -0.64769207454E+03  0.14761937725E+04  0.46999998093E+01 0.  1.
</event>
<event>
 5   0  0.5392262E-06  0.2206581E+04  0.7818609E-02  0.8515694E-01
        1   -1    0    0  501    0  0.00000000000E+00  0.00000000000E+00  0.11179474733E+04  0.11179474733E+04  0.50400001928E-02 0. -1.
       -1   -1    0    0    0  501  0.00000000000E+00  0.00000000000E+00 -0.10888253669E+04  0.10888253670E+04  0.50400001928E-02 0.  1.
    10030    2    1    2    0    0  0.00000000000E+00  0.00000000000E+00  0.29122106341E+02  0.22067728403E+04  0.22065806741E+04 0.  0.
        2    1    3    3  502    0 -0.76114567017E+03  0.63253268175E+03 -0.47313830657E+03  0.10969504008E+04  0.25500000920E-02 0.  1.
       -2    1    3    3    0  502  0.76114567017E+03 -0.63253268175E+03  0.50226041291E+03  0.11098224394E+04  0.25500000920E-02 0. -1.
</event>
<event>
 5   0  0.1480547E-05  0.1932992E+04  0.7818609E-02  0.8638606E-01
       -2   -1    0    0    0  501  0.00000000000E+00  0.00000000000E+00  0.12782181243E+04  0.12782181243E+04  0.25500000920E-02 0. -1.
        2   -1    0    0  501    0  0.00000000000E+00  0.00000000000E+00 -0.73079423103E+03  0.73079423103E+03  0.25500000920E-02 0.  1.
    10030    2    1    2    0    0  0.00000000000E+00  0.00000000000E+00  0.54742389332E+03  0.20090123554E+04  0.19329919102E+04 0.  0.
        1    1    3    3  502    0 -0.93985698962E+03  0.19847034979E+03  0.16277719177E+03  0.97427822251E+03  0.50400001928E-02 0.  1.
       -1    1    3    3    0  502  0.93985698962E+03 -0.19847034979E+03  0.38464670155E+03  0.10347341329E+04  0.50400001928E-02 0. -1.
</event>
<event>
 5   0  0.1480547E-05  0.2790814E+04  0.7818609E-02  0.8306126E-01
        2   -1    0    0  501    0  0.00000000000E+00  0.00000000000E+00  0.22595498369E+04  0.22595498369E+04  0.25500000920E-02 0. -1.
       -2   -1    0    0    0  501  0.00000000000E+00  0.00000000000E+00 -0.86174699564E+03  0.86174699564E+03  0.25500000920E-02 0.  1.
    10030    2    1    2    0    0  0.00000000000E+00  0.00000000000E+00  0.13978028413E+04  0.31212968326E+04  0.27908137046E+04 0.  0.
        1    1    3    3  502    0  0.34327052012E+03 -0.12796360120E+04  0.20901725696E+03  0.13412647714E+04  0.50400001928E-02 0.  1.
       -1    1    3    3    0  502 -0.34327052012E+03  0.12796360120E+04  0.11887855843E+04  0.17800320612E+04  0.50400001928E-02 0. -1.
</event>
<event>
 5   0  0.1345931E-05  0.2981641E+04  0.7818609E-02  0.8248993E-01
        2   -1    0    0  501    0  0.00000000000E+00  0.00000000000E+00  0.20818101952E+04  0.20818101952E+04  0.25500000920E-02 0.  1.
       -2   -1    0    0    0  501  0.00000000000E+00  0.00000000000E+00 -0.10676025734E+04  0.10676025734E+04  0.25500000920E-02 0. -1.
    10030    2    1    2    0    0  0.00000000000E+00  0.00000000000E+00  0.10142076218E+04  0.31494127686E+04  0.29816411063E+04 0.  0.
        2    1    3    3  502    0 -0.11572850891E+04 -0.36657770694E+01 -0.48557688239E+03  0.12550327184E+04  0.25500000920E-02 0. -1.
       -2    1    3    3    0  502  0.11572850891E+04  0.36657770694E+01  0.14997845042E+04  0.18943800502E+04  0.25500000920E-02 0.  1.
</event>
<event>
 5   0  0.5329891E-06  0.2955991E+04  0.7818609E-02  0.8256411E-01
       -1   -1    0    0    0  501  0.00000000000E+00  0.00000000000E+00  0.11187275851E+04  0.11187275851E+04  0.50400001928E-02 0.  1.
        1   -1    0    0  501    0  0.00000000000E+00  0.00000000000E+00 -0.19526383539E+04  0.19526383539E+04  0.50400001928E-02 0. -1.
    10030    2    1    2    0    0  0.00000000000E+00  0.00000000000E+00 -0.83391076875E+03  0.30713659390E+04  0.29559907917E+04 0.  0.
        4    1    3    3  502    0 -0.68990653015E+03  0.33491768227E+03  0.89581732362E+03  0.11792502552E+04  0.12699999809E+01 0.  1.
       -4    1    3    3    0  502  0.68990653015E+03 -0.33491768227E+03 -0.17297280924E+04  0.18921156837E+04  0.12699999809E+01 0. -1.
</event>
<event>
 5   0  0.5329891E-06  0.3069612E+04  0.7818609E-02  0.8224127E-01
        1   -1    0    0  501    0  0.00000000000E+00  0.00000000000E+00  0.15217408240E+04  0.15217408240E+04  0.50400001928E-02 0. -1.
       -1   -1    0    0    0  501  0.00000000000E+00  0.00000000000E+00 -0.15479833799E+04  0.15479833799E+04  0.50400001928E-02 0.  1.
    10030    2    1    2    0    0  0.00000000000E+00  0.00000000000E+00 -0.26242555956E+02  0.30697242039E+04  0.30696120302E+04 0.  0.
        4    1    3    3  502    0 -0.78151719311E+03 -0.13132758895E+04 -0.15513071372E+03  0.15360761167E+04  0.12699999809E+01 0.  1.
       -4    1    3    3    0  502  0.78151719311E+03  0.13132758895E+04  0.12888815776E+03  0.15336480872E+04  0.12699999809E+01 0. -1.
</event>
<event>
 5   0  0.5730920E-06  0.3006939E+04  0.7818609E-02  0.8241752E-01
       -1   -1    0    0    0  501  0.00000000000E+00  0.00000000000E+00  0.22185432411E+04  0.22185432411E+04  0.50400001928E-02 0. -1.
        1   -1    0    0  501    0  0.00000000000E+00  0.00000000000E+00 -0.10188763358E+04  0.10188763358E+04  0.50400001928E-02 0.  1.
    10030    2    1    2    0    0  0.00000000000E+00  0.00000000000E+00  0.11996669053E+04  0.32374195769E+04  0.30069394462E+04 0.  0.
        1    1    3    3  502    0 -0.43253324077E+03 -0.66188444164E+03 -0.77695034476E+03  0.11085250817E+04  0.50400001928E-02 0.  1.
       -1    1    3    3    0  502  0.43253324077E+03  0.66188444164E+03  0.19766172501E+04  0.21288944952E+04  0.50400001928E-02 0. -1.
</event>
<event>
 5   0  0.5392262E-06  0.3193453E+04  0.7818609E-02  0.8190548E-01
       -1   -1    0    0    0  501  0.00000000000E+00  0.00000000000E+00  0.19940674563E+04  0.19940674563E+04  0.50400001928E-02 0. -1.
        1   -1    0    0  501    0  0.00000000000E+00  0.00000000000E+00 -0.12785599633E+04  0.12785599633E+04  0.50400001928E-02 0.  1.
    10030    2    1    2    0    0  0.00000000000E+00  0.00000000000E+00  0.71550749299E+03  0.32726274197E+04  0.31934525604E+04 0.  0.
        2    1    3    3  502    0  0.47401346056E+03 -0.75145324019E+03  0.17173584957E+04  0.19335694804E+04  0.25500000920E-02 0. -1.
       -2    1    3    3    0  502 -0.47401346056E+03  0.75145324019E+03 -0.10018510027E+04  0.13390579392E+04  0.25500000920E-02 0.  1.
</event>
<event>
 5   0  0.5392262E-06  0.1640666E+04  0.7818609E-02  0.8795948E-01
       -1   -1    0    0    0  501  0.00000000000E+00  0.00000000000E+00  0.28647883581E+03  0.28647883585E+03  0.50400001928E-02 0. -1.
        1   -1    0    0  501    0  0.00000000000E+00  0.00000000000E+00 -0.23490261760E+04  0.23490261760E+04  0.50400001928E-02 0.  1.
    10030    2    1    2    0    0  0.00000000000E+00  0.00000000000E+00 -0.20625473402E+04  0.26355050119E+04  0.16406660650E+04 0.  0.
        2    1    3    3  502    0 -0.74426299151E+03 -0.33995840230E+03 -0.11255873960E+04  0.13915624679E+04  0.25500000920E-02 0.  1.
       -2    1    3    3    0  502  0.74426299151E+03  0.33995840230E+03 -0.93695994415E+03  0.12439425440E+04  0.25500000920E-02 0. -1.
</event>
<event>
 5   0  0.1423692E-05  0.3178604E+04  0.7818609E-02  0.8194491E-01
        2   -1    0    0  501    0  0.00000000000E+00  0.00000000000E+00  0.15007010937E+04  0.15007010937E+04  0.25500000920E-02 0. -1.
       -2   -1    0    0    0  501  0.00000000000E+00  0.00000000000E+00 -0.16831334329E+04  0.16831334329E+04  0.25500000920E-02 0.  1.
    10030    2    1    2    0    0  0.00000000000E+00  0.00000000000E+00 -0.18243233919E+03  0.31838345265E+04  0.31786035824E+04 0.  0.
        3    1    3    3  502    0 -0.14560586459E+04  0.49617995421E+03  0.30891444356E+03  0.15689899525E+04  0.10100000352E+00 0. -1.
       -3    1    3    3    0  502  0.14560586459E+04 -0.49617995421E+03 -0.49134678275E+03  0.16148445741E+04  0.10100000352E+00 0.  1.
</event>
<event>
 5   0  0.1480547E-05  0.2710866E+04  0.7818609E-02  0.8331488E-01
        2   -1    0    0  501    0  0.00000000000E+00  0.00000000000E+00  0.10368973567E+04  0.10368973567E+04  0.25500000920E-02 0. -1.
       -2   -1    0    0    0  501  0.00000000000E+00  0.00000000000E+00 -0.17718224480E+04  0.17718224480E+04  0.25500000920E-02 0.  1.
    10030    2    1    2    0    0  0.00000000000E+00  0.00000000000E+00 -0.73492509133E+03  0.28087198046E+04  0.27108655539E+04 0.  0.
        1    1    3    3  502    0  0.35067711620E+03  0.12271877270E+04  0.10533597365E+03  0.12806482048E+04  0.50400001928E-02 0. -1.
       -1    1    3    3    0  502 -0.35067711620E+03 -0.12271877270E+04 -0.84026106497E+03  0.15280715999E+04  0.50400001928E-02 0.  1.
</event>
<event>
 5   0  0.1423692E-05  0.2968333E+04  0.7818609E-02  0.8252832E-01
       -2   -1    0    0    0  501  0.00000000000E+00  0.00000000000E+00  0.77926455343E+03  0.77926455343E+03  0.25500000920E-02 0.  1.
        2   -1    0    0  501    0  0.00000000000E+00  0.00000000000E+00 -0.28267031910E+04  0.28267031910E+04  0.25500000920E-02 0. -1.
    10030    2    1    2    0    0  0.00000000000E+00  0.00000000000E+00 -0.20474386375E+04  0.36059677444E+04  0.29683325958E+04 0.  0.
        3    1    3    3  502    0 -0.10909565757E+04  0.52014688958E+03  0.22720645559E+02  0.12088239222E+04  0.10100000352E+00 0.  1.
       -3    1    3    3    0  502  0.10909565757E+04 -0.52014688958E+03 -0.20701592831E+04  0.23971438222E+04  0.10100000352E+00 0. -1.
</event>
<event>
 5   0  0.5730920E-06  0.2986695E+04  0.7818609E-02  0.8247541E-01
        1   -1    0    0  501    0  0.00000000000E+00  0.00000000000E+00  0.14576601211E+04  0.14576601211E+04  0.50400001928E-02 0.  1.
       -1   -1    0    0    0  501  0.00000000000E+00  0.00000000000E+00 -0.15299082063E+04  0.15299082063E+04  0.50400001928E-02 0. -1.
    10030    2    1    2    0    0  0.00000000000E+00  0.00000000000E+00 -0.72248085234E+02  0.29875683274E+04  0.29866946153E+04 0.  0.
        1    1    3    3  502    0 -0.43144832389E+03 -0.71076646360E+03  0.12047022815E+04  0.14637773768E+04  0.50400001928E-02 0.  1.
       -1    1    3    3    0  502  0.43144832389E+03  0.71076646360E+03 -0.12769503667E+04  0.15237909505E+04  0.50400001928E-02 0. -1.
</event>
<event>
 5   0  0.1345931E-05  0.3035354E+04  0.7818609E-02  0.8233707E-01
       -2   -1    0    0    0  501  0.00000000000E+00  0.00000000000E+00  0.13045573139E+04  0.13045573139E+04  0.25500000920E-02 0.  1.
        2   -1    0    0  501    0  0.00000000000E+00  0.00000000000E+00 -0.17656132012E+04  0.17656132012E+04  0.25500000920E-02 0. -1.
    10030    2    1    2    0    0  0.00000000000E+00  0.00000000000E+00 -0.46105588732E+03  0.30701705152E+04  0.30353540915E+04 0.  0.
        2    1    3    3  502    0  0.89992237506E+03  0.61307632076E+03 -0.12998299094E+04  0.16956652528E+04  0.25500000920E-02 0. -1.
       -2    1    3    3    0  502 -0.89992237506E+03 -0.61307632076E+03  0.83877402204E+03  0.13745052624E+04  0.25500000920E-02 0.  1.
</event>
<event>
 5   0  0.1345931E-05  0.2890956E+04  0.7818609E-02  0.8275573E-01
        2   -1    0    0  501    0  0.00000000000E+00  0.00000000000E+00  0.26028868877E+04  0.26028868877E+04  0.25500000920E-02 0.  1.
       -2   -1    0    0    0  501  0.00000000000E+00  0.00000000000E+00 -0.80272685218E+03  0.80272685218E+03  0.25500000920E-02 0. -1.
    10030    2    1    2    0    0  0.00000000000E+00  0.00000000000E+00  0.18001600355E+04  0.34056137399E+04  0.28909563801E+04 0.  0.
        2    1    3    3  502    0  0.10910544024E+04 -0.52424924045E+03  0.18307707160E+04  0.21947570229E+04  0.25500000920E-02 0.  1.
       -2    1    3    3    0  502 -0.10910544024E+04  0.52424924045E+03 -0.30610680504E+02  0.12108567169E+04  0.25500000920E-02 0. -1.
</event>
<event>
 5   0  0.5329891E-06  0.3015092E+04  0.7818609E-02  0.8239434E-01
       -1   -1    0    0    0  501  0.00000000000E+00  0.00000000000E+00  0.14169481423E+04  0.14169481423E+04  0.50400001928E-02 0.  1.
        1   -1    0    0  501    0  0.00000000000E+00  0.00000000000E+00 -0.16039370790E+04  0.16039370790E+04  0.50400001928E-02 0. -1.
    10030    2    1    2    0    0  0.00000000000E+00  0.00000000000E+00 -0.18698893674E+03  0.30208852213E+04  0.30150924792E+04 0.  0.
        4    1    3    3  502    0 -0.34583528708E+03  0.29911557636E+03  0.13457966614E+04  0.14213523281E+04  0.12699999809E+01 0.  1.
       -4    1    3    3    0  502  0.34583528708E+03 -0.29911557636E+03 -0.15327855981E+04  0.15995328932E+04  0.12699999809E+01 0. -1.
</event>
<event>
 5   0  0.5329891E-06  0.3121124E+04  0.7818609E-02  0.8209964E-01
        1   -1    0    0  501    0  0.00000000000E+00  0.00000000000E+00  0.27238758720E+04  0.27238758720E+04  0.50400001928E-02 0. -1.
       -1   -1    0    0    0  501  0.00000000000E+00  0.00000000000E+00 -0.89407654753E+03  0.89407654755E+03  0.50400001928E-02 0.  1.
    10030    2    1    2    0    0  0.00000000000E+00  0.00000000000E+00  0.18297993245E+04  0.36179524196E+04  0.31211238589E+04 0.  0.
        4    1    3    3  502    0 -0.29189300984E+03 -0.74504007737E+03  0.24679731962E+04  0.25944516870E+04  0.12699999809E+01 0. -1.
       -4    1    3    3    0  502  0.29189300984E+03  0.74504007737E+03 -0.63817387173E+03  0.10235007326E+04  0.12699999809E+01 0.  1.
</event>
<event>
 5   0  0.7032692E-06  0.3036733E+04  0.7818609E-02  0.8233319E-01
        1   -1    0    0  501    0  0.00000000000E+00  0.00000000000E+00  0.16963567188E+04  0.16963567188E+04  0.50400001928E-02 0. -1.
       -1   -1    0    0    0  501  0.00000000000E+00  0.00000000000E+00 -0.13590522911E+04  0.13590522911E+04  0.50400001928E-02 0.  1.
    10030    2    1    2    0    0  0.00000000000E+00  0.00000000000E+00  0.33730442770E+03  0.30554090098E+04  0.30367334326E+04 0.  0.
        5    1    3    3  502    0  0.13855171187E+04 -0.19398783719E+03 -0.42499875529E+03  0.14621679107E+04  0.46999998093E+01 0.  1.
       -5    1    3    3    0  502 -0.13855171187E+04  0.19398783719E+03  0.76230318299E+03  0.15932410991E+04  0.46999998093E+01 0. -1.
</event>
<event>
 5   0  0.1388724E-05  0.2900026E+04  0.7818609E-02  0.8272870E-01
       -2   -1    0    0    0  501  0.00000000000E+00  0.00000000000E+00  0.13608333190E+04  0.13608333190E+04  0.25500000920E-02 0. -1.
        2   -1    0    0  501    0  0.00000000000E+00  0.00000000000E+00 -0.15450364008E+04  0.15450364008E+04  0.25500000920E-02 0.  1.
    10030    2    1    2    0    0  0.00000000000E+00  0.00000000000E+00 -0.18420308179E+03  0.29058697198E+04  0.29000255263E+04 0.  0.
        4    1    3    3  502    0 -0.25738260299E+03 -0.11051281485E+04 -0.99668399537E+03  0.15102763418E+04  0.12699999809E+01 0.  1.
       -4    1    3    3    0  502  0.25738260299E+03  0.11051281485E+04  0.81248091359E+03  0.13955933780E+04  0.12699999809E+01 0. -1.
</event>
<event>
 5   0  0.7032692E-06  0.2906162E+04  0.7818609E-02  0.8271047E-01
        1   -1    0    0  501    0  0.00000000000E+00  0.00000000000E+00  0.20121180331E+04  0.20121180331E+04  0.50400001928E-02 0.  1.
       -1   -1    0    0    0  501  0.00000000000E+00  0.00000000000E+00 -0.10493638562E+04  0.10493638562E+04  0.50400001928E-02 0. -1.
    10030    2    1    2    0    0  0.00000000000E+00  0.00000000000E+00  0.96275417696E+03  0.30614818893E+04  0.29061616874E+04 0.  0.
        5    1    3    3  502    0  0.13046455280E+03  0.30790562451E+02 -0.10428283515E+04  0.10514190976E+04  0.46999998093E+01 0. -1.
       -5    1    3    3    0  502 -0.13046455280E+03 -0.30790562451E+02  0.20055825284E+04  0.20100627917E+04  0.46999998093E+01 0.  1.
</event>
<event>
 5   0  0.1480547E-05  0.2234141E+04  0.7818609E-02  0.8504351E-01
        2   -1    0    0  501    0  0.00000000000E+00  0.00000000000E+00  0.96240325661E+03  0.96240325661E+03  0.25500000920E-02 0.  1.
       -2   -1    0    0    0  501  0.00000000000E+00  0.00000000000E+00 -0.12965946429E+04  0.12965946429E+04  0.25500000920E-02 0. -1.
    10030    2    1    2    0    0  0.00000000000E+00  0.00000000000E+00 -0.33419138630E+03  0.22589978995E+04  0.22341413624E+04 0.  0.
        1    1    3    3  502    0  0.47004022681E+03  0.99939729422E+03  0.24425123238E+01  0.11044178251E+04  0.50400001928E-02 0. -1.
       -1    1    3    3    0  502 -0.47004022681E+03 -0.99939729422E+03 -0.33663389862E+03  0.11545800744E+04  0.50400001928E-02 0.  1.
</event>
<event>
 5   0  0.7032692E-06  0.2485662E+04  0.7818609E-02  0.8408111E-01
       -1   -1    0    0    0  501  0.00000000000E+00  0.00000000000E+00  0.11167601109E+04  0.11167601109E+04  0.50400001928E-02 0.  1.
        1   -1    0    0  501    0  0.00000000000E+00  0.00000000000E+00 -0.13831344594E+04  0.13831344594E+04  0.50400001928E-02 0. -1.
    10030    2    1    2    0    0  0.00000000000E+00  0.00000000000E+00 -0.26637434855E+03  0.24998945703E+04  0.24856624005E+04 0.  0.
        5    1    3    3  502    0 -0.19401890488E+03 -0.12171592342E+04  0.27374550177E+02  0.12328387537E+04  0.46999998093E+01 0.  1.
       -5    1    3    3    0  502  0.19401890488E+03  0.12171592342E+04 -0.29374889873E+03  0.12670558166E+04  0.46999998093E+01 0. -1.
</event>
<event>
 5   0  0.5522695E-06  0.3014595E+04  0.7818609E-02  0.8239576E-01
       -1   -1    0    0    0  501  0.00000000000E+00  0.00000000000E+00  0.13465839791E+04  0.13465839791E+04  0.50400001928E-02 0. -1.
        1   -1    0    0  501    0  0.00000000000E+00  0.00000000000E+00 -0.16871915141E+04  0.16871915141E+04  0.50400001928E-02 0.  1.
    10030    2    1    2    0    0  0.00000000000E+00  0.00000000000E+00 -0.34060753501E+03  0.30337754933E+04  0.30145945417E+04 0.  0.
        3    1    3    3  502    0  0.14880100755E+04  0.11549347193E+03 -0.38243472505E+03  0.15407040780E+04  0.10100000352E+00 0.  1.
       -3    1    3    3    0  502 -0.14880100755E+04 -0.11549347193E+03  0.41827190042E+02  0.14930714152E+04  0.10100000352E+00 0. -1.
</event>
<event>
 5   0  0.5522695E-06  0.3111253E+04  0.7818609E-02  0.8212656E-01
       -1   -1    0    0    0  501  0.00000000000E+00  0.00000000000E+00  0.15626034703E+04  0.15626034703E+04  0.50400001928E-02 0. -1.
        1   -1    0    0  501    0  0.00000000000E+00  0.00000000000E+00 -0.15486805119E+04  0.15486805119E+04  0.50400001928E-02 0.  1.
    10030    2    1    2    0    0  0.00000000000E+00  0.00000000000E+00  0.13922958429E+02  0.31112839822E+04  0.31112528296E+04 0.  0.
        3    1    3    3  502    0  0.28166487210E+03 -0.89146460958E+03  0.12503279741E+04  0.15612060412E+04  0.10100000352E+00 0. -1.
       -3    1    3    3    0  502 -0.28166487210E+03  0.89146460958E+03 -0.12364050156E+04  0.15500779410E+04  0.10100000352E+00 0.  1.
</event>
<event>
 5   0  0.4806125E-06  0.2013271E+04  0.7818609E-02  0.8600441E-01
        3   -1    0    0  501    0  0.00000000000E+00  0.00000000000E+00  0.11118090080E+04  0.11118090126E+04  0.10100000352E+00 0.  1.
       -3   -1    0    0    0  501  0.00000000000E+00  0.00000000000E+00 -0.91141131220E+03  0.91141131779E+03  0.10100000352E+00 0. -1.
    10030    2    1    2    0    0  0.00000000000E+00  0.00000000000E+00  0.20039769580E+03  0.20232203304E+04  0.20132712854E+04 0.  0.
        2    1    3    3  502    0  0.35873350248E+03 -0.33059186661E+03 -0.78468336648E+03  0.92396357813E+03  0.25500000920E-02 0. -1.
       -2    1    3    3    0  502 -0.35873350248E+03  0.33059186661E+03  0.98508106229E+03  0.10992567522E+04  0.25500000920E-02 0.  1.
</event>
<event>
 5   0  0.1388724E-05  0.2977735E+04  0.7818609E-02  0.8250118E-01
        2   -1    0    0  501    0  0.00000000000E+00  0.00000000000E+00  0.22780377433E+04  0.22780377433E+04  0.25500000920E-02 0. -1.
       -2   -1    0    0    0  501  0.00000000000E+00  0.00000000000E+00 -0.97308589917E+03  0.97308589917E+03  0.25500000920E-02 0.  1.
    10030    2    1    2    0    0  0.00000000000E+00  0.00000000000E+00  0.13049518441E+04  0.32511236424E+04  0.29777349820E+04 0.  0.
        4    1    3    3  502    0 -0.13825409114E+04 -0.33413536938E+03  0.11329459032E+04  0.18184152027E+04  0.12699999809E+01 0. -1.
       -4    1    3    3    0  502  0.13825409114E+04  0.33413536938E+03  0.17200594090E+03  0.14327084398E+04  0.12699999809E+01 0.  1.
</event>
<event>
 5   0  0.1423692E-05  0.2954114E+04  0.7818609E-02  0.8256957E-01
       -2   -1    0    0    0  501  0.00000000000E+00  0.00000000000E+00  0.78714330460E+03  0.78714330460E+03  0.25500000920E-02 0.  1.
        2   -1    0    0  501    0  0.00000000000E+00  0.00000000000E+00 -0.27716644331E+04  0.27716644331E+04  0.25500000920E-02 0. -1.
    10030    2    1    2    0    0  0.00000000000E+00  0.00000000000E+00 -0.19845211285E+04  0.35588077377E+04  0.29541138103E+04 0.  0.
        3    1    3    3  502    0  0.34905165768E+03 -0.11076653266E+04 -0.20917309222E+04  0.23925086827E+04  0.10100000352E+00 0. -1.
       -3    1    3    3    0  502 -0.34905165768E+03  0.11076653266E+04  0.10720979375E+03  0.11662990550E+04  0.10100000352E+00 0.  1.
</event>
<event>
 5   0  0.1345931E-05  0.3060946E+04  0.7818609E-02  0.8226538E-01
        2   -1    0    0  501    0  0.00000000000E+00  0.00000000000E+00  0.20812441408E+04  0.20812441408E+04  0.25500000920E-02 0. -1.
       -2   -1    0    0    0  501  0.00000000000E+00  0.00000000000E+00 -0.11254558375E+04  0.11254558375E+04  0.25500000920E-02 0.  1.
    10030    2    1    2    0    0  0.00000000000E+00  0.00000000000E+00  0.95578830338E+03  0.32066999783E+04  0.30609464990E+04 0.  0.
        2    1    3    3  502    0  0.12136414784E+03 -0.81612010592E+03  0.18282913557E+04  0.20058490883E+04  0.25500000920E-02 0. -1.
       -2    1    3    3    0  502 -0.12136414784E+03  0.81612010592E+03 -0.87250305234E+03  0.12008508900E+04  0.25500000920E-02 0.  1.
</event>
<event>
 5   0  0.1480547E-05  0.3071318E+04  0.7818609E-02  0.8223654E-01
       -2   -1    0    0    0  501  0.00000000000E+00  0.00000000000E+00  0.14670704208E+04  0.14670704208E+04  0.25500000920E-02 0. -1.
        2   -1    0    0  501    0  0.00000000000E+00  0.00000000000E+00 -0.16074537341E+04  0.16074537341E+04  0.25500000920E-02 0.  1.
    10030    2    1    2    0    0  0.00000000000E+00  0.00000000000E+00 -0.14038331323E+03  0.30745241549E+04  0.30713175193E+04 0.  0.
        1    1    3    3  502    0  0.11758051811E+04  0.19017141636E+02 -0.10588301635E+04  0.15824034854E+04  0.50400001928E-02 0.  1.
       -1    1    3    3    0  502 -0.11758051811E+04 -0.19017141636E+02  0.91844685024E+03  0.14921206695E+04  0.50400001928E-02 0. -1.
</event>
<event>
 5   0  0.1523029E-05  0.3019936E+04  0.7818609E-02  0.8238061E-01
       -2   -1    0    0    0  501  0.00000000000E+00  0.00000000000E+00  0.17549959654E+04  0.17549959654E+04  0.25500000920E-02 0. -1.
        2   -1    0    0  501    0  0.00000000000E+00  0.00000000000E+00 -0.12991502307E+04  0.12991502307E+04  0.25500000920E-02 0.  1.
    10030    2    1    2    0    0  0.00000000000E+00  0.00000000000E+00  0.45584573470E+03  0.30541461960E+04  0.30199360346E+04 0.  0.
        5    1    3    3  502    0  0.92991605995E+03  0.68181088412E+03 -0.75799048542E+03  0.13799208768E+04  0.46999998093E+01 0.  1.
       -5    1    3    3    0  502 -0.92991605995E+03 -0.68181088412E+03  0.12138362201E+04  0.16742253192E+04  0.46999998093E+01 0. -1.
</event>
<event>
 5   0  0.1423692E-05  0.3004594E+04  0.7818609E-02  0.8242420E-01
        2   -1    0    0  501    0  0.00000000000E+00  0.00000000000E+00  0.15757243971E+04  0.15757243972E+04  0.25500000920E-02 0. -1.
       -2   -1    0    0    0  501  0.00000000000E+00  0.00000000000E+00 -0.14322915806E+04  0.14322915806E+04  0.25500000920E-02 0.  1.
    10030    2    1    2    0    0  0.00000000000E+00  0.00000000000E+00  0.14343281656E+03  0.30080159777E+04  0.30045943403E+04 0.  0.
        3    1    3    3  502    0  0.49035782398E+03  0.13237655603E+04 -0.44276639937E+03  0.14794756331E+04  0.10100000352E+00 0.  1.
       -3    1    3    3    0  502 -0.49035782398E+03 -0.13237655603E+04  0.58619921593E+03  0.15285403447E+04  0.10100000352E+00 0. -1.
</event>
<event>
 5   0  0.5730920E-06  0.2994886E+04  0.7818609E-02  0.8245193E-01
       -1   -1    0    0    0  501  0.00000000000E+00  0.00000000000E+00  0.77773135695E+03  0.77773135697E+03  0.50400001928E-02 0. -1.
        1   -1    0    0  501    0  0.00000000000E+00  0.00000000000E+00 -0.28831742037E+04  0.28831742037E+04  0.50400001928E-02 0.  1.
    10030    2    1    2    0    0  0.00000000000E+00  0.00000000000E+00 -0.21054428467E+04  0.36609055607E+04  0.29948856311E+04 0.  0.
        1    1    3    3  502    0  0.54010570820E+03  0.44976133587E+03  0.56357375646E+03  0.90089667237E+03  0.50400001928E-02 0. -1.
       -1    1    3    3    0  502 -0.54010570820E+03 -0.44976133587E+03 -0.26690166032E+04  0.27600088883E+04  0.50400001928E-02 0.  1.
</event>
<event>
 5   0  0.5522695E-06  0.2822923E+04  0.7818609E-02  0.8296187E-01
       -1   -1    0    0    0  501  0.00000000000E+00  0.00000000000E+00  0.10175132087E+04  0.10175132087E+04  0.50400001928E-02 0. -1.
        1   -1    0    0  501    0  0.00000000000E+00  0.00000000000E+00 -0.19579342974E+04  0.19579342974E+04  0.50400001928E-02 0.  1.
    10030    2    1    2    0    0  0.00000000000E+00  0.00000000000E+00 -0.94042108871E+03  0.29754475061E+04  0.28229233141E+04 0.  0.
        3    1    3    3  502    0 -0.12712726014E+04 -0.23542604887E+03 -0.10670790807E+04  0.16763702533E+04  0.10100000352E+00 0.  1.
       -3    1    3    3    0  502  0.12712726014E+04  0.23542604887E+03  0.12665799196E+03  0.12990772528E+04  0.10100000352E+00 0. -1.
</event>
<event>
 5   0  0.7032692E-06  0.2990063E+04  0.7818609E-02  0.8246574E-01
       -1   -1    0    0    0  501  0.00000000000E+00  0.00000000000E+00  0.18978574167E+04  0.18978574167E+04  0.50400001928E-02 0. -1.
        1   -1    0    0  501    0  0.00000000000E+00  0.00000000000E+00 -0.11777064403E+04  0.11777064403E+04  0.50400001928E-02 0.  1.
    10030    2    1    2    0    0  0.00000000000E+00  0.00000000000E+00  0.72015097639E+03  0.30755638570E+04  0.29900628104E+04 0.  0.
        5    1    3    3  502    0 -0.64879515665E+03  0.62392358569E+03 -0.86774178103E+03  0.12502854413E+04  0.46999998093E+01 0.  1.
       -5    1    3    3    0  502  0.64879515665E+03 -0.62392358569E+03  0.15878927574E+04  0.18252784158E+04  0.46999998093E+01 0. -1.
</event>
<event>
 5   0  0.5522695E-06  0.2382567E+04  0.7818609E-02  0.8446059E-01
        1   -1    0    0  501    0  0.00000000000E+00  0.00000000000E+00  0.18278259275E+04  0.18278259275E+04  0.50400001928E-02 0. -1.
       -1   -1    0    0    0  501  0.00000000000E+00  0.00000000000E+00 -0.77641791465E+03  0.77641791466E+03  0.50400001928E-02 0.  1.
    10030    2    1    2    0    0  0.00000000000E+00  0.00000000000E+00  0.10514080129E+04  0.26042438422E+04  0.23825673506E+04 0.  0.
        3    1    3    3  502    0  0.80765468942E+03  0.74014230454E+03  0.14142059952E+02  0.10955896752E+04  0.10100000352E+00 0.  1.
       -3    1    3    3    0  502 -0.80765468942E+03 -0.74014230454E+03  0.10372659529E+04  0.15086541670E+04  0.10100000352E+00 0. -1.
</event>
<event>
 5   0  0.1345931E-05  0.2085664E+04  0.7818609E-02  0.8567585E-01
       -2   -1    0    0    0  501  0.00000000000E+00  0.00000000000E+00  0.66902889568E+03  0.66902889569E+03  0.25500000920E-02 0.  1.
        2   -1    0    0  501    0  0.00000000000E+00  0.00000000000E+00 -0.16254882301E+04  0.16254882301E+04  0.25500000920E-02 0. -1.
    10030    2    1    2    0    0  0.00000000000E+00  0.00000000000E+00 -0.95645933438E+03  0.22945171257E+04  0.20856640147E+04 0.  0.
        2    1    3    3  502    0 -0.23677452125E+03  0.13515375211E+03 -0.15855877799E+04  0.16088559036E+04  0.25500000920E-02 0. -1.
       -2    1    3    3    0  502  0.23677452125E+03 -0.13515375211E+03  0.62912844553E+03  0.68566122218E+03  0.25500000920E-02 0.  1.
</event>
<event>
 5   0  0.1423692E-05  0.2753391E+04  0.7818609E-02  0.8317886E-01
       -2   -1    0    0    0  501  0.00000000000E+00  0.00000000000E+00  0.78182512551E+03  0.78182512551E+03  0.25500000920E-02 0.  1.
        2   -1    0    0  501    0  0.00000000000E+00  0.00000000000E+00 -0.24241870446E+04  0.24241870446E+04  0.25500000920E-02 0. -1.
    10030    2    1    2    0    0  0.00000000000E+00  0.00000000000E+00 -0.16423619191E+04  0.32060121701E+04  0.27533908843E+04 0.  0.
        3    1    3    3  502    0  0.23718066297E+03  0.79139286667E+03  0.46109025501E+03  0.94612978484E+03  0.10100000352E+00 0.  1.
       -3    1    3    3    0  502 -0.23718066297E+03 -0.79139286667E+03 -0.21034521741E+04  0.22598823852E+04  0.10100000352E+00 0. -1.
</event>
<event>
 5   0  0.5522695E-06  0.2995434E+04  0.7818609E-02  0.8245036E-01
       -1   -1    0    0    0  501  0.00000000000E+00  0.00000000000E+00  0.11277893090E+04  0.11277893090E+04  0.50400001928E-02 0.  1.
        1   -1    0    0  501    0  0.00000000000E+00  0.00000000000E+00 -0.19889853761E+04  0.19889853761E+04  0.50400001928E-02 0. -1.
    10030    2    1    2    0    0  0.00000000000E+00  0.00000000000E+00 -0.86119606710E+03  0.31167746851E+04  0.29954341541E+04 0.  0.
        3    1    3    3  502    0 -0.19989857923E+03  0.12308568306E+04 -0.12937739634E+04  0.17968914987E+04  0.10100000352E+00 0. -1.
       -3    1    3    3    0  502  0.19989857923E+03 -0.12308568306E+04  0.43257789632E+03  0.13198831865E+04  0.10100000352E+00 0.  1.
</event>
<event>
 5   0  0.5392262E-06  0.3054704E+04  0.7818609E-02  0.8228280E-01
       -1   -1    0    0    0  501  0.00000000000E+00  0.00000000000E+00  0.16318653938E+04  0.16318653938E+04  0.50400001928E-02 0. -1.
        1   -1    0    0  501    0  0.00000000000E+00  0.00000000000E+00 -0.14295323989E+04  0.14295323989E+04  0.50400001928E-02 0.  1.
    10030    2    1    2    0    0  0.00000000000E+00  0.00000000000E+00  0.20233299491E+03  0.30613977928E+04  0.30547042090E+04 0.  0.
        2    1    3    3  502    0 -0.72288778086E+02 -0.86717225151E+03  0.13591425008E+04  0.16138406733E+04  0.25500000920E-02 0. -1.
       -2    1    3    3    0  502  0.72288778086E+02  0.86717225151E+03 -0.11568095059E+04  0.14475571195E+04  0.25500000920E-02 0.  1.
</event>
<event>
 5   0  0.1345931E-05  0.2680885E+04  0.7818609E-02  0.8341234E-01
        2   -1    0    0  501    0  0.00000000000E+00  0.00000000000E+00  0.15235448453E+04  0.15235448453E+04  0.25500000920E-02 0.  1.
       -2   -1    0    0    0  501  0.00000000000E+00  0.00000000000E+00 -0.11793460273E+04  0.11793460273E+04  0.25500000920E-02 0. -1.
    10030    2    1    2    0    0  0.00000000000E+00  0.00000000000E+00  0.34419881798E+03  0.27028908726E+04  0.26808853469E+04 0.  0.
        2    1    3    3  502    0 -0.10687845620E+04  0.73828394462E+03  0.50560602675E+03  0.13939157353E+04  0.25500000920E-02 0. -1.
       -2    1    3    3    0  502  0.10687845620E+04 -0.73828394462E+03 -0.16140720877E+03  0.13089751373E+04  0.25500000920E-02 0.  1.
</event>
<event>
 5   0  0.5329891E-06  0.3031561E+04  0.7818609E-02  0.8234776E-01
        1   -1    0    0  501    0  0.00000000000E+00  0.00000000000E+00  0.14853915413E+04  0.14853915413E+04  0.50400001928E-02 0. -1.
       -1   -1    0    0    0  501  0.00000000000E+00  0.00000000000E+00 -0.15467910079E+04  0.15467910080E+04  0.50400001928E-02 0.  1.
    10030    2    1    2    0    0  0.00000000000E+00  0.00000000000E+00 -0.61399466658E+02  0.30321825492E+04  0.30315608385E+04 0.  0.
        4    1    3    3  502    0 -0.77879537453E+03 -0.29394252458E+03 -0.12977129369E+04  0.15417473602E+04  0.12699999809E+01 0.  1.
       -4    1    3    3    0  502  0.77879537453E+03  0.29394252458E+03  0.12363134702E+04  0.14904351891E+04  0.12699999809E+01 0. -1.
</event>
<event>
 5   0  0.1480547E-05  0.2611924E+04  0.7818609E-02  0.8364162E-01
       -2   -1    0    0    0  501  0.00000000000E+00  0.00000000000E+00  0.14024356270E+04  0.14024356270E+04  0.25500000920E-02 0.  1.
        2   -1    0    0  501    0  0.00000000000E+00  0.00000000000E+00 -0.12161246696E+04  0.12161246696E+04  0.25500000920E-02 0. -1.
    10030    2    1    2    0    0  0.00000000000E+00  0.00000000000E+00  0.18631095738E+03  0.26185602966E+04  0.26119238607E+04 0.  0.
        1    1    3    3  502    0 -0.85207846950E+03  0.15224446236E+03  0.10735565827E+04  0.13790358337E+04  0.50400001928E-02 0.  1.
       -1    1    3    3    0  502  0.85207846950E+03 -0.15224446236E+03 -0.88724562528E+03  0.12395244629E+04  0.50400001928E-02 0. -1.
</event>
<event>
 5   0  0.5329891E-06  0.2951204E+04  0.7818609E-02  0.8257804E-01
        1   -1    0    0  501    0  0.00000000000E+00  0.00000000000E+00  0.25865453594E+04  0.25865453594E+04  0.50400001928E-02 0. -1.
       -1   -1    0    0    0  501  0.00000000000E+00  0.00000000000E+00 -0.84181810901E+03  0.84181810902E+03  0.50400001928E-02 0.  1.
    10030    2    1    2    0    0  0.00000000000E+00  0.00000000000E+00  0.17447272504E+04  0.34283634684E+04  0.29512036347E+04 0.  0.
        4    1    3    3  502    0  0.14619957583E+04  0.13455028069E+03  0.10441346314E+04  0.18015976568E+04  0.12699999809E+01 0. -1.
       -4    1    3    3    0  502 -0.14619957583E+04 -0.13455028069E+03  0.70059261893E+03  0.16267658116E+04  0.12699999809E+01 0.  1.
</event>
<event>
 5   0  0.5522695E-06  0.3010772E+04  0.7818609E-02  0.8240661E-01
        1   -1    0    0  501    0  0.00000000000E+00  0.00000000000E+00  0.14600576688E+04  0.14600576688E+04  0.50400001928E-02 0.  1.
       -1   -1    0    0    0  501  0.00000000000E+00  0.00000000000E+00 -0.15521218466E+04  0.15521218466E+04  0.50400001928E-02 0. -1.
    10030    2    1    2    0    0  0.00000000000E+00  0.00000000000E+00 -0.92064177800E+02  0.30121795155E+04  0.30107722632E+04 0.  0.
        3    1    3    3  502    0  0.57730332284E+03  0.10741933745E+04  0.83699977156E+03  0.14791007945E+04  0.10100000352E+00 0.  1.
       -3    1    3    3    0  502 -0.57730332284E+03 -0.10741933745E+04 -0.92906394936E+03  0.15330787210E+04  0.10100000352E+00 0. -1.
</event>
<event>
 5   0  0.5392262E-06  0.2961552E+04  0.7818609E-02  0.8254796E-01
       -1   -1    0    0    0  501  0.00000000000E+00  0.00000000000E+00  0.12826888623E+04  0.12826888623E+04  0.50400001928E-02 0.  1.
        1   -1    0    0  501    0  0.00000000000E+00  0.00000000000E+00 -0.17094537016E+04  0.17094537016E+04  0.50400001928E-02 0. -1.
    10030    2    1    2    0    0  0.00000000000E+00  0.00000000000E+00 -0.42676483927E+03  0.29921425639E+04  0.29615517714E+04 0.  0.
        2    1    3    3  502    0 -0.11656761325E+03 -0.11560178576E+03 -0.17002307095E+04  0.17081382399E+04  0.25500000920E-02 0. -1.
       -2    1    3    3    0  502  0.11656761325E+03  0.11560178576E+03  0.12734658702E+04  0.12840043239E+04  0.25500000920E-02 0.  1.
</event>
<event>
 5   0  0.1388724E-05  0.2589074E+04  0.7818609E-02  0.8371922E-01
        2   -1    0    0  501    0  0.00000000000E+00  0.00000000000E+00  0.24636294126E+04  0.24636294126E+04  0.25500000920E-02 0.  1.
       -2   -1    0    0    0  501  0.00000000000E+00  0.00000000000E+00 -0.68022666969E+03  0.68022666969E+03  0.25500000920E-02 0. -1.
    10030    2    1    2    0    0  0.00000000000E+00  0.00000000000E+00  0.17834027429E+04  0.31438560823E+04  0.25890742984E+04 0.  0.
        4    1    3    3  502    0  0.22228756072E+03  0.90732156982E+03  0.19799415485E+04  0.21892497206E+04  0.12699999809E+01 0.  1.
       -4    1    3    3    0  502 -0.22228756072E+03 -0.90732156982E+03 -0.19653880563E+03  0.95460636166E+03  0.12699999809E+01 0. -1.
</event>
<event>
 5   0  0.1523029E-05  0.2909353E+04  0.7818609E-02  0.8270100E-01
        2   -1    0    0  501    0  0.00000000000E+00  0.00000000000E+00  0.18393403285E+04  0.18393403285E+04  0.25500000920E-02 0. -1.
       -2   -1    0    0    0  501  0.00000000000E+00  0.00000000000E+00 -0.11504582746E+04  0.11504582746E+04  0.25500000920E-02 0.  1.
    10030    2    1    2    0    0  0.00000000000E+00  0.00000000000E+00  0.68888205398E+03  0.29897986031E+04  0.29093533994E+04 0.  0.
        5    1    3    3  502    0 -0.80250608592E+03 -0.12120679229E+04  0.40013876739E+03  0.15077326656E+04  0.46999998093E+01 0.  1.
       -5    1    3    3    0  502  0.80250608592E+03  0.12120679229E+04  0.28874328659E+03  0.14820659375E+04  0.46999998093E+01 0. -1.
</event>
<event>
 5   0  0.7032692E-06  0.3013174E+04  0.7818609E-02  0.8239979E-01
        1   -1    0    0  501    0  0.00000000000E+00  0.00000000000E+00  0.17323046935E+04  0.17323046935E+04  0.50400001928E-02 0.  1.
       -1   -1    0    0    0  501  0.00000000000E+00  0.00000000000E+00 -0.13102802174E+04  0.13102802174E+04  0.50400001928E-02 0. -1.
    10030    2    1    2    0    0  0.00000000000E+00  0.00000000000E+00  0.42202447616E+03  0.30425849109E+04  0.30131741207E+04 0.  0.
        5    1    3    3  502    0 -0.54439039564E+03 -0.13262387087E+04  0.67868787371E+03  0.15861618250E+04  0.46999998093E+01 0.  1.
       -5    1    3    3    0  502  0.54439039564E+03  0.13262387087E+04 -0.25666339755E+03  0.14564230858E+04  0.46999998093E+01 0. -1.
</event>
<event>
 5   0  0.1388724E-05  0.3096283E+04  0.7818609E-02  0.8216759E-01
        2   -1    0    0  501    0  0.00000000000E+00  0.00000000000E+00  0.85441514392E+03  0.85441514392E+03  0.25500000920E-02 0.  1.
       -2   -1    0    0    0  501  0.00000000000E+00  0.00000000000E+00 -0.28051257898E+04  0.28051257898E+04  0.25500000920E-02 0. -1.
    10030    2    1    2    0    0  0.00000000000E+00  0.00000000000E+00 -0.19507106459E+04  0.36595409337E+04  0.30962829040E+04 0.  0.
        4    1    3    3  502    0 -0.47888863506E+03 -0.14533337559E+04 -0.12531102339E+04  0.19778271416E+04  0.12699999809E+01 0. -1.
       -4    1    3    3    0  502  0.47888863506E+03  0.14533337559E+04 -0.69760041194E+03  0.16817137921E+04  0.12699999809E+01 0.  1.
</event>
<event>
 5   0  0.5730920E-06  0.2997350E+04  0.7818609E-02  0.8244488E-01
       -1   -1    0    0    0  501  0.00000000000E+00  0.00000000000E+00  0.13327151854E+04  0.13327151854E+04  0.50400001928E-02 0.  1.
        1   -1    0    0  501    0  0.00000000000E+00  0.00000000000E+00 -0.16853014926E+04  0.16853014926E+04  0.50400001928E-02 0. -1.
    10030    2    1    2    0    0  0.00000000000E+00  0.00000000000E+00 -0.35258630725E+03  0.30180166780E+04  0.29973500905E+04 0.  0.
        1    1    3    3  502    0 -0.35046456481E+03 -0.10938780209E+04  0.79296149850E+03  0.13957730739E+04  0.50400001928E-02 0.  1.
       -1    1    3    3    0  502  0.35046456481E+03  0.10938780209E+04 -0.11455478057E+04  0.16222436041E+04  0.50400001928E-02 0. -1.
</event>
<event>
 5   0  0.7032692E-06  0.2378382E+04  0.7818609E-02  0.8447642E-01
        1   -1    0    0  501    0  0.00000000000E+00  0.00000000000E+00  0.96967672015E+03  0.96967672017E+03  0.50400001928E-02 0. -1.
       -1   -1    0    0    0  501  0.00000000000E+00  0.00000000000E+00 -0.14583984384E+04  0.14583984384E+04  0.50400001928E-02 0.  1.
    10030    2    1    2    0    0  0.00000000000E+00  0.00000000000E+00 -0.48872171826E+03  0.24280751586E+04  0.23783818150E+04 0.  0.
        5    1    3    3  502    0  0.59590795734E+03  0.10290908838E+04 -0.24876181616E+03  0.12149234017E+04  0.46999998093E+01 0. -1.
       -5    1    3    3    0  502 -0.59590795734E+03 -0.10290908838E+04 -0.23995990210E+03  0.12131517569E+04  0.46999998093E+01 0.  1.
</event>
<event>
 5   0  0.5392262E-06  0.1613534E+04  0.7818609E-02  0.8812276E-01
        1   -1    0    0  501    0  0.00000000000E+00  0.00000000000E+00  0.99079011919E+03  0.99079011920E+03  0.50400001928E-02 0. -1.
       -1   -1    0    0    0  501  0.00000000000E+00  0.00000000000E+00 -0.65692311782E+03  0.65692311784E+03  0.50400001928E-02 0.  1.
    10030    2    1    2    0    0  0.00000000000E+00  0.00000000000E+00  0.33386700137E+03  0.16477132370E+04  0.16135339280E+04 0.  0.
        2    1    3    3  502    0 -0.38963403760E+03 -0.37994255023E+03 -0.44125092147E+03  0.70062357970E+03  0.25500000920E-02 0.  1.
       -2    1    3    3    0  502  0.38963403760E+03  0.37994255023E+03  0.77511792283E+03  0.94708965734E+03  0.25500000920E-02 0. -1.
</event>
<event>
 5   0  0.5392262E-06  0.2799372E+04  0.7818609E-02  0.8303463E-01
        1   -1    0    0  501    0  0.00000000000E+00  0.00000000000E+00  0.13672829263E+04  0.13672829263E+04  0.50400001928E-02 0.  1.
       -1   -1    0    0    0  501  0.00000000000E+00  0.00000000000E+00 -0.14328569371E+04  0.14328569371E+04  0.50400001928E-02 0. -1.
    10030    2    1    2    0    0  0.00000000000E+00  0.00000000000E+00 -0.65574010777E+02  0.28001398634E+04  0.27993719481E+04 0.  0.
        2    1    3    3  502    0  0.10484824771E+04  0.42466068550E+03  0.79173798156E+03  0.13807611068E+04  0.25500000920E-02 0.  1.
       -2    1    3    3    0  502 -0.10484824771E+04 -0.42466068550E+03 -0.85731199234E+03  0.14193787566E+04  0.25500000920E-02 0. -1.
</event>
<event>
 5   0  0.4806125E-06  0.2517814E+04  0.7818609E-02  0.8396666E-01
        3   -1    0    0  501    0  0.00000000000E+00  0.00000000000E+00  0.10472640559E+04  0.10472640608E+04  0.10100000352E+00 0.  1.
       -3   -1    0    0    0  501  0.00000000000E+00  0.00000000000E+00 -0.15133217015E+04  0.15133217048E+04  0.10100000352E+00 0. -1.
    10030    2    1    2    0    0  0.00000000000E+00  0.00000000000E+00 -0.46605764552E+03  0.25605857656E+04  0.25178144757E+04 0.  0.
        4    1    3    3  502    0  0.27861665575E+03 -0.65941839644E+03  0.82012342774E+03  0.10886064082E+04  0.12699999809E+01 0.  1.
       -4    1    3    3    0  502 -0.27861665575E+03  0.65941839644E+03 -0.12861810733E+04  0.14719793574E+04  0.12699999809E+01 0. -1.
</event>
<event>
 5   0  0.4806125E-06  0.1556680E+04  0.7818609E-02  0.8847612E-01
        3   -1    0    0  501    0  0.00000000000E+00  0.00000000000E+00  0.86795679662E+03  0.86795680249E+03  0.10100000352E+00 0.  1.
       -3   -1    0    0    0  501  0.00000000000E+00  0.00000000000E+00 -0.69797656479E+03  0.69797657210E+03  0.10100000352E+00 0. -1.
    10030    2    1    2    0    0  0.00000000000E+00  0.00000000000E+00  0.16998023183E+03  0.15659333746E+04  0.15566804600E+04 0.  0.
        2    1    3    3  502    0  0.17475766449E+02 -0.11215481626E+03  0.85958620849E+03  0.86704818497E+03  0.25500000920E-02 0.  1.
       -2    1    3    3    0  502 -0.17475766449E+02  0.11215481626E+03 -0.68960597666E+03  0.69888518962E+03  0.25500000920E-02 0. -1.
</event>
<event>
 5   0  0.5392262E-06  0.2998486E+04  0.7818609E-02  0.8244163E-01
       -1   -1    0    0    0  501  0.00000000000E+00  0.00000000000E+00  0.10527087297E+04  0.10527087297E+04  0.50400001928E-02 0.  1.
        1   -1    0    0  501    0  0.00000000000E+00  0.00000000000E+00 -0.21351865027E+04  0.21351865027E+04  0.50400001928E-02 0. -1.
    10030    2    1    2    0    0  0.00000000000E+00  0.00000000000E+00 -0.10824777730E+04  0.31878952324E+04  0.29984859319E+04 0.  0.
        2    1    3    3  502    0  0.32785982164E+03 -0.38988258398E+03 -0.20403548346E+04  0.21029855785E+04  0.25500000920E-02 0. -1.
       -2    1    3    3    0  502 -0.32785982164E+03  0.38988258398E+03  0.95787706164E+03  0.10849096539E+04  0.25500000920E-02 0.  1.
</event>
<event>
 5   0  0.5465381E-06  0.1557329E+04  0.7818609E-02  0.8847200E-01
        1   -1    0    0  501    0  0.00000000000E+00  0.00000000000E+00  0.12691929039E+04  0.12691929039E+04  0.50400001928E-02 0. -1.
       -1   -1    0    0    0  501  0.00000000000E+00  0.00000000000E+00 -0.47771945916E+03  0.47771945919E+03  0.50400001928E-02 0.  1.
    10030    2    1    2    0    0  0.00000000000E+00  0.00000000000E+00  0.79147344477E+03  0.17469123631E+04  0.15573286714E+04 0.  0.
        2    1    3    3  502    0  0.75266832867E+03  0.13765383140E+03  0.55774885827E+03  0.94685900703E+03  0.25500000920E-02 0. -1.
       -2    1    3    3    0  502 -0.75266832867E+03 -0.13765383140E+03  0.23372458650E+03  0.80005335611E+03  0.25500000920E-02 0.  1.
</event>
<event>
 5   0  0.4806125E-06  0.2969380E+04  0.7818609E-02  0.8252529E-01
        4   -1    0    0  501    0  0.00000000000E+00  0.00000000000E+00  0.14028143263E+04  0.14028149012E+04  0.12699999809E+01 0.  1.
       -4   -1    0    0    0  501  0.00000000000E+00  0.00000000000E+00 -0.15713431634E+04  0.15713436766E+04  0.12699999809E+01 0. -1.
    10030    2    1    2    0    0  0.00000000000E+00  0.00000000000E+00 -0.16852883709E+03  0.29741585778E+04  0.29693799482E+04 0.  0.
        5    1    3    3  502    0 -0.68305363171E+03  0.13322562301E+03  0.12293227537E+04  0.14126456927E+04  0.46999998093E+01 0.  1.
       -5    1    3    3    0  502  0.68305363171E+03 -0.13322562301E+03 -0.13978515908E+04  0.15615128851E+04  0.46999998093E+01 0. -1.
</event>
<event>
 5   0  0.1480547E-05  0.2993511E+04  0.7818609E-02  0.8245586E-01
        2   -1    0    0  501    0  0.00000000000E+00  0.00000000000E+00  0.17750650011E+04  0.17750650011E+04  0.25500000920E-02 0.  1.
       -2   -1    0    0    0  501  0.00000000000E+00  0.00000000000E+00 -0.12620821005E+04  0.12620821005E+04  0.25500000920E-02 0. -1.
    10030    2    1    2    0    0  0.00000000000E+00  0.00000000000E+00  0.51298290056E+03  0.30371471016E+04  0.29935114933E+04 0.  0.
        1    1    3    3  502    0  0.97704537772E+03  0.47262570431E+02  0.14058892780E+04  0.17127101573E+04  0.50400001928E-02 0.  1.
       -1    1    3    3    0  502 -0.97704537772E+03 -0.47262570431E+02 -0.89290637746E+03  0.13244369444E+04  0.50400001928E-02 0. -1.
</event>
<event>
 5   0  0.7032692E-06  0.2304016E+04  0.7818609E-02  0.8476339E-01
        1   -1    0    0  501    0  0.00000000000E+00  0.00000000000E+00  0.16710165698E+04  0.16710165698E+04  0.50400001928E-02 0.  1.
       -1   -1    0    0    0  501  0.00000000000E+00  0.00000000000E+00 -0.79420043158E+03  0.79420043160E+03  0.50400001928E-02 0. -1.
    10030    2    1    2    0    0  0.00000000000E+00  0.00000000000E+00  0.87681613826E+03  0.24652170014E+04  0.23040156952E+04 0.  0.
        5    1    3    3  502    0 -0.45981001819E+03  0.25234303857E+03 -0.65902267369E+03  0.84227978509E+03  0.46999998093E+01 0. -1.
       -5    1    3    3    0  502  0.45981001819E+03 -0.25234303857E+03  0.15358388119E+04  0.16229372164E+04  0.46999998093E+01 0.  1.
</event>
<event>
 5   0  0.5392262E-06  0.2940347E+04  0.7818609E-02  0.8260973E-01
       -1   -1    0    0    0  501  0.00000000000E+00  0.00000000000E+00  0.15070257891E+04  0.15070257892E+04  0.50400001928E-02 0.  1.
        1   -1    0    0  501    0  0.00000000000E+00  0.00000000000E+00 -0.14342219414E+04  0.14342219414E+04  0.50400001928E-02 0. -1.
    10030    2    1    2    0    0  0.00000000000E+00  0.00000000000E+00  0.72803847751E+02  0.29412477306E+04  0.29403465463E+04 0.  0.
        2    1    3    3  502    0  0.93894698248E+03 -0.10632644065E+04  0.42285803302E+03  0.14801897007E+04  0.25500000920E-02 0.  1.
       -2    1    3    3    0  502 -0.93894698248E+03  0.10632644065E+04 -0.35005418527E+03  0.14610580299E+04  0.25500000920E-02 0. -1.
</event>
<event>
 5   0  0.5730920E-06  0.2830060E+04  0.7818609E-02  0.8293996E-01
        1   -1    0    0  501    0  0.00000000000E+00  0.00000000000E+00  0.10389212577E+04  0.10389212578E+04  0.50400001928E-02 0.  1.
       -1   -1    0    0    0  501  0.00000000000E+00  0.00000000000E+00 -0.19272973232E+04  0.19272973233E+04  0.50400001928E-02 0. -1.
    10030    2    1    2    0    0  0.00000000000E+00  0.00000000000E+00 -0.88837606550E+03  0.29662185810E+04  0.28300601825E+04 0.  0.
        1    1    3    3  502    0 -0.12899333945E+04 -0.12052567488E+03  0.15227448557E+03  0.13044700531E+04  0.50400001928E-02 0. -1.
       -1    1    3    3    0  502  0.12899333945E+04  0.12052567488E+03 -0.10406505511E+04  0.16617485279E+04  0.50400001928E-02 0.  1.
</event>
<event>
 5   0  0.1523029E-05  0.2995701E+04  0.7818609E-02  0.8244959E-01
        2   -1    0    0  501    0  0.00000000000E+00  0.00000000000E+00  0.24343103405E+04  0.24343103405E+04  0.25500000920E-02 0.  1.
       -2   -1    0    0    0  501  0.00000000000E+00  0.00000000000E+00 -0.92163954843E+03  0.92163954843E+03  0.25500000920E-02 0. -1.
    10030    2    1    2    0    0  0.00000000000E+00  0.00000000000E+00  0.15126707920E+04  0.33559498889E+04  0.29957013756E+04 0.  0.
        5    1    3    3  502    0 -0.40359152242E+03  0.10169587539E+04  0.19023095258E+04  0.21945147177E+04  0.46999998093E+01 0.  1.
       -5    1    3    3    0  502  0.40359152242E+03 -0.10169587539E+04 -0.38963873381E+03  0.11614351712E+04  0.46999998093E+01 0. -1.
</event>
<event>
 5   0  0.1523029E-05  0.3035764E+04  0.7818609E-02  0.8233591E-01
       -2   -1    0    0    0  501  0.00000000000E+00  0.00000000000E+00  0.10222549849E+04  0.10222549849E+04  0.25500000920E-02 0. -1.
        2   -1    0    0  501    0  0.00000000000E+00  0.00000000000E+00 -0.22538067030E+04  0.22538067030E+04  0.25500000920E-02 0.  1.
    10030    2    1    2    0    0  0.00000000000E+00  0.00000000000E+00 -0.12315517181E+04  0.32760616879E+04  0.30357635858E+04 0.  0.
        5    1    3    3  502    0  0.86528332587E+03 -0.50730963482E+03 -0.18451918051E+04  0.21001983685E+04  0.46999998093E+01 0.  1.
       -5    1    3    3    0  502 -0.86528332587E+03  0.50730963482E+03  0.61364008694E+03  0.11758633194E+04  0.46999998093E+01 0. -1.
</event>
<event>
 5   0  0.1388724E-05  0.3051509E+04  0.7818609E-02  0.8229173E-01
       -2   -1    0    0    0  501  0.00000000000E+00  0.00000000000E+00  0.17364512705E+04  0.17364512705E+04  0.25500000920E-02 0.  1.
        2   -1    0    0  501    0  0.00000000000E+00  0.00000000000E+00 -0.13406235022E+04  0.13406235022E+04  0.25500000920E-02 0. -1.
    10030    2    1    2    0    0  0.00000000000E+00  0.00000000000E+00  0.39582776832E+03  0.30770747727E+04  0.30515093863E+04 0.  0.
        4    1    3    3  502    0  0.99372473299E+02 -0.14413398819E+04  0.69252324412E+03  0.16021627883E+04  0.12699999809E+01 0. -1.
       -4    1    3    3    0  502 -0.99372473299E+02  0.14413398819E+04 -0.29669547580E+03  0.14749119845E+04  0.12699999809E+01 0.  1.
</event>
<event>
 5   0  0.7032692E-06  0.2979569E+04  0.7818609E-02  0.8249589E-01
       -1   -1    0    0    0  501  0.00000000000E+00  0.00000000000E+00  0.11301039863E+04  0.11301039863E+04  0.50400001928E-02 0. -1.
        1   -1    0    0  501    0  0.00000000000E+00  0.00000000000E+00 -0.19639417448E+04  0.19639417448E+04  0.50400001928E-02 0.  1.
    10030    2    1    2    0    0  0.00000000000E+00  0.00000000000E+00 -0.83383775848E+03  0.30940457311E+04  0.29795693612E+04 0.  0.
        5    1    3    3  502    0  0.14092586554E+04 -0.19066408745E+03 -0.87790452382E+03  0.16712573695E+04  0.46999998093E+01 0.  1.
       -5    1    3    3    0  502 -0.14092586554E+04  0.19066408745E+03  0.44066765347E+02  0.14227883616E+04  0.46999998093E+01 0. -1.
</event>
<event>
 5   0  0.1345931E-05  0.2731624E+04  0.7818609E-02  0.8324816E-01
        2   -1    0    0  501    0  0.00000000000E+00  0.00000000000E+00  0.24190270715E+04  0.24190270715E+04  0.25500000920E-02 0.  1.
       -2   -1    0    0    0  501  0.00000000000E+00  0.00000000000E+00 -0.77115426847E+03  0.77115426848E+03  0.25500000920E-02 0. -1.
    10030    2    1    2    0    0  0.00000000000E+00  0.00000000000E+00  0.16478728031E+04  0.31901813400E+04  0.27316244630E+04 0.  0.
        2    1    3    3  502    0 -0.19201639674E+03  0.79735925859E+01  0.24031575424E+04  0.24108297427E+04  0.25500000920E-02 0.  1.
       -2    1    3    3    0  502  0.19201639674E+03 -0.79735925859E+01 -0.75528473931E+03  0.77935159732E+03  0.25500000920E-02 0. -1.
</event>
<event>
 5   0  0.5392262E-06  0.3000998E+04  0.7818609E-02  0.8243446E-01
        1   -1    0    0  501    0  0.00000000000E+00  0.00000000000E+00  0.22483699949E+04  0.22483699949E+04  0.50400001928E-02 0.  1.
       -1   -1    0    0    0  501  0.00000000000E+00  0.00000000000E+00 -0.10013910771E+04  0.10013910772E+04  0.50400001928E-02 0. -1.
    10030    2    1    2    0    0  0.00000000000E+00  0.00000000000E+00  0.12469789177E+04  0.32497610720E+04  0.30009982679E+04 0.  0.
        2    1    3    3  502    0  0.28602666376E+03 -0.14105121598E+04  0.10831031861E+04  0.18012407716E+04  0.25500000920E-02 0.  1.
       -2    1    3    3    0  502 -0.28602666376E+03  0.14105121598E+04  0.16387573164E+03  0.14485203005E+04  0.25500000920E-02 0. -1.
</event>
<event>
 5   0  0.1345931E-05  0.2905717E+04  0.7818609E-02  0.8271179E-01
        2   -1    0    0  501    0  0.00000000000E+00  0.00000000000E+00  0.21893500311E+04  0.21893500311E+04  0.25500000920E-02 0. -1.
       -2   -1    0    0    0  501  0.00000000000E+00  0.00000000000E+00 -0.96412077879E+03  0.96412077879E+03  0.25500000920E-02 0.  1.
    10030    2    1    2    0    0  0.00000000000E+00  0.00000000000E+00  0.12252292523E+04  0.31534708099E+04  0.29057170248E+04 0.  0.
        2    1    3    3  502    0 -0.85862928521E+03 -0.10517678982E+04  0.11737475617E+04  0.17947543842E+04  0.25500000920E-02 0. -1.
       -2    1    3    3    0  502  0.85862928521E+03  0.10517678982E+04  0.51481690608E+02  0.13587164257E+04  0.25500000920E-02 0.  1.
</event>
<event>
 5   0  0.7032692E-06  0.3797086E+04  0.7818609E-02  0.8046781E-01
        1   -1    0    0  501    0  0.00000000000E+00  0.00000000000E+00  0.17155550265E+04  0.17155550265E+04  0.50400001928E-02 0. -1.
       -1   -1    0    0    0  501  0.00000000000E+00  0.00000000000E+00 -0.21010487152E+04  0.21010487152E+04  0.50400001928E-02 0.  1.
    10030    2    1    2    0    0  0.00000000000E+00  0.00000000000E+00 -0.38549368867E+03  0.38166037416E+04  0.37970855583E+04 0.  0.
        5    1    3    3  502    0 -0.44968095864E+02 -0.49166931557E+03 -0.20353863683E+04  0.20944165306E+04  0.46999998093E+01 0.  1.
       -5    1    3    3    0  502  0.44968095864E+02  0.49166931557E+03  0.16498926796E+04  0.17221872110E+04  0.46999998093E+01 0. -1.
</event>
<event>
 5   0  0.1388724E-05  0.2993234E+04  0.7818609E-02  0.8245666E-01
        2   -1    0    0  501    0  0.00000000000E+00  0.00000000000E+00  0.14723534482E+04  0.14723534482E+04  0.25500000920E-02 0.  1.
       -2   -1    0    0    0  501  0.00000000000E+00  0.00000000000E+00 -0.15212802778E+04  0.15212802778E+04  0.25500000920E-02 0. -1.
    10030    2    1    2    0    0  0.00000000000E+00  0.00000000000E+00 -0.48926829572E+02  0.29936337260E+04  0.29932338784E+04 0.  0.
        4    1    3    3  502    0 -0.61222098724E+03  0.26067035008E+03  0.13162741581E+04  0.14749043497E+04  0.12699999809E+01 0.  1.
       -4    1    3    3    0  502  0.61222098724E+03 -0.26067035008E+03 -0.13652009877E+04  0.15187293763E+04  0.12699999809E+01 0. -1.
</event>
<event>
 5   0  0.5730920E-06  0.2986028E+04  0.7818609E-02  0.8247732E-01
        1   -1    0    0  501    0  0.00000000000E+00  0.00000000000E+00  0.73154728359E+03  0.73154728361E+03  0.50400001928E-02 0. -1.
       -1   -1    0    0    0  501  0.00000000000E+00  0.00000000000E+00 -0.30470906027E+04  0.30470906027E+04  0.50400001928E-02 0.  1.
    10030    2    1    2    0    0  0.00000000000E+00  0.00000000000E+00 -0.23155433191E+04  0.37786378863E+04  0.29860280329E+04 0.  0.
        1    1    3    3  502    0  0.37439715668E+03  0.70437208285E+03  0.43927999335E+03  0.91064821672E+03  0.50400001928E-02 0. -1.
       -1    1    3    3    0  502 -0.37439715668E+03 -0.70437208285E+03 -0.27548233124E+04  0.28679896696E+04  0.50400001928E-02 0.  1.
</event>
<event>
 5   0  0.7032692E-06  0.2962032E+04  0.7818609E-02  0.8254657E-01
       -1   -1    0    0    0  501  0.00000000000E+00  0.00000000000E+00  0.14862507975E+04  0.14862507975E+04  0.50400001928E-02 0.  1.
        1   -1    0    0  501    0  0.00000000000E+00  0.00000000000E+00 -0.14758001207E+04  0.14758001207E+04  0.50400001928E-02 0. -1.
    10030    2    1    2    0    0  0.00000000000E+00  0.00000000000E+00  0.10450676812E+02  0.29620509182E+04  0.29620324822E+04 0.  0.
        5    1    3    3  502    0 -0.16300655368E+03 -0.64981418476E+03  0.13260505054E+04  0.14856855805E+04  0.46999998093E+01 0.  1.
       -5    1    3    3    0  502  0.16300655368E+03  0.64981418476E+03 -0.13155998286E+04  0.14763653377E+04  0.46999998093E+01 0. -1.
</event>
<event>
 5   0  0.5329891E-06  0.2009019E+04  0.7818609E-02  0.8602416E-01
       -1   -1    0    0    0  501  0.00000000000E+00  0.00000000000E+00  0.58368596898E+03  0.58368596900E+03  0.50400001928E-02 0. -1.
        1   -1    0    0  501    0  0.00000000000E+00  0.00000000000E+00 -0.17287365056E+04  0.17287365056E+04  0.50400001928E-02 0.  1.
    10030    2    1    2    0    0  0.00000000000E+00  0.00000000000E+00 -0.11450505366E+04  0.23124224746E+04  0.20090189072E+04 0.  0.
        4    1    3    3  502    0 -0.48947730547E+03 -0.83401026809E+03 -0.88537531519E+03  0.13111263179E+04  0.12699999809E+01 0.  1.
       -4    1    3    3    0  502  0.48947730547E+03  0.83401026809E+03 -0.25967522140E+03  0.10012961567E+04  0.12699999809E+01 0. -1.
</event>
<event>
 5   0  0.1345931E-05  0.2981662E+04  0.7818609E-02  0.8248987E-01
        2   -1    0    0  501    0  0.00000000000E+00  0.00000000000E+00  0.89025322214E+03  0.89025322215E+03  0.25500000920E-02 0. -1.
       -2   -1    0    0    0  501  0.00000000000E+00  0.00000000000E+00 -0.24965670954E+04  0.24965670954E+04  0.25500000920E-02 0.  1.
    10030    2    1    2    0    0  0.00000000000E+00  0.00000000000E+00 -0.16063138733E+04  0.33868203176E+04  0.29816618863E+04 0.  0.
        2    1    3    3  502    0  0.75299577882E+03 -0.83835948422E+03  0.30555351986E+03  0.11675667952E+04  0.25500000920E-02 0. -1.
       -2    1    3    3    0  502 -0.75299577882E+03  0.83835948422E+03 -0.19118673931E+04  0.22192535224E+04  0.25500000920E-02 0.  1.
</event>
<event>
 5   0  0.1480547E-05  0.2810444E+04  0.7818609E-02  0.8300033E-01
       -2   -1    0    0    0  501  0.00000000000E+00  0.00000000000E+00  0.94542420465E+03  0.94542420465E+03  0.25500000920E-02 0.  1.
        2   -1    0    0  501    0  0.00000000000E+00  0.00000000000E+00 -0.20886385424E+04  0.20886385424E+04  0.25500000920E-02 0. -1.
    10030    2    1    2    0    0  0.00000000000E+00  0.00000000000E+00 -0.11432143378E+04  0.30340627471E+04  0.28104444010E+04 0.  0.
        1    1    3    3  502    0 -0.12249903975E+04 -0.57098178737E+03 -0.98696379167E+03  0.16735349419E+04  0.50400001928E-02 0.  1.
       -1    1    3    3    0  502  0.12249903975E+04  0.57098178737E+03 -0.15625054611E+03  0.13605278052E+04  0.50400001928E-02 0. -1.
</event>
<event>
 5   0  0.7032692E-06  0.2731261E+04  0.7818609E-02  0.8324933E-01
       -1   -1    0    0    0  501  0.00000000000E+00  0.00000000000E+00  0.15608424578E+04  0.15608424578E+04  0.50400001928E-02 0.  1.
        1   -1    0    0  501    0  0.00000000000E+00  0.00000000000E+00 -0.11948334198E+04  0.11948334198E+04  0.50400001928E-02 0. -1.
    10030    2    1    2    0    0  0.00000000000E+00  0.00000000000E+00  0.36600903802E+03  0.27556758775E+04  0.27312610505E+04 0.  0.
        5    1    3    3  502    0 -0.10806759110E+04  0.41508455396E+03 -0.54788043469E+03  0.12807617547E+04  0.46999998093E+01 0. -1.
       -5    1    3    3    0  502  0.10806759110E+04 -0.41508455396E+03  0.91388947272E+03  0.14749141229E+04  0.46999998093E+01 0.  1.
</event>
<event>
 5   0  0.1523029E-05  0.2980484E+04  0.7818609E-02  0.8249326E-01
       -2   -1    0    0    0  501  0.00000000000E+00  0.00000000000E+00  0.11287952396E+04  0.11287952396E+04  0.25500000920E-02 0. -1.
        2   -1    0    0  501    0  0.00000000000E+00  0.00000000000E+00 -0.19674255579E+04  0.19674255579E+04  0.25500000920E-02 0.  1.
    10030    2    1    2    0    0  0.00000000000E+00  0.00000000000E+00 -0.83863031836E+03  0.30962207975E+04  0.29804835876E+04 0.  0.
        5    1    3    3  502    0  0.12325854475E+04  0.34058142875E+03  0.37560216069E+03  0.13328021864E+04  0.46999998093E+01 0. -1.
       -5    1    3    3    0  502 -0.12325854475E+04 -0.34058142875E+03 -0.12142324790E+04  0.17634186111E+04  0.46999998093E+01 0.  1.
</event>
<event>
 5   0  0.1523029E-05  0.1885763E+04  0.7818609E-02  0.8661976E-01
       -2   -1    0    0    0  501  0.00000000000E+00  0.00000000000E+00  0.90154965521E+03  0.90154965522E+03  0.25500000920E-02 0.  1.
        2   -1    0    0  501    0  0.00000000000E+00  0.00000000000E+00 -0.98610805017E+03  0.98610805018E+03  0.25500000920E-02 0. -1.
    10030    2    1    2    0    0  0.00000000000E+00  0.00000000000E+00 -0.84558394962E+02  0.18876577054E+04  0.18857628405E+04 0.  0.
        5    1    3    3  502    0 -0.85830372120E+03  0.36079699601E+03  0.10667735887E+03  0.93715628315E+03  0.46999998093E+01 0. -1.
       -5    1    3    3    0  502  0.85830372120E+03 -0.36079699601E+03 -0.19123575383E+03  0.95050142225E+03  0.46999998093E+01 0.  1.
</event>
<event>
 5   0  0.1523029E-05  0.2962904E+04  0.7818609E-02  0.8254404E-01
        2   -1    0    0  501    0  0.00000000000E+00  0.00000000000E+00  0.16541805031E+04  0.16541805031E+04  0.25500000920E-02 0.  1.
       -2   -1    0    0    0  501  0.00000000000E+00  0.00000000000E+00 -0.13267598677E+04  0.13267598677E+04  0.25500000920E-02 0. -1.
    10030    2    1    2    0    0  0.00000000000E+00  0.00000000000E+00  0.32742063538E+03  0.29809403708E+04  0.29629041871E+04 0.  0.
        5    1    3    3  502    0 -0.12126057492E+04 -0.78785825646E+03  0.48745302626E+03  0.15260294487E+04  0.46999998093E+01 0.  1.
       -5    1    3    3    0  502  0.12126057492E+04  0.78785825646E+03 -0.16003239089E+03  0.14549109222E+04  0.46999998093E+01 0. -1.
</event>
<event>
 5   0  0.5730920E-06  0.3252607E+04  0.7818609E-02  0.8175060E-01
        1   -1    0    0  501    0  0.00000000000E+00  0.00000000000E+00  0.17735466269E+04  0.17735466269E+04  0.50400001928E-02 0.  1.
       -1   -1    0    0    0  501  0.00000000000E+00  0.00000000000E+00 -0.14912846893E+04  0.14912846893E+04  0.50400001928E-02 0. -1.
    10030    2    1    2    0    0  0.00000000000E+00  0.00000000000E+00  0.28226193753E+03  0.32648313162E+04  0.32526069117E+04 0.  0.
        1    1    3    3  502    0  0.85658928481E+02 -0.16658840623E+03  0.17626819183E+04  0.17726073153E+04  0.50400001928E-02 0.  1.
       -1    1    3    3    0  502 -0.85658928481E+02  0.16658840623E+03 -0.14804199808E+04  0.14922240009E+04  0.50400001928E-02 0. -1.
</event>
<event>
 5   0  0.1388724E-05  0.1994383E+04  0.7818609E-02  0.8609251E-01
       -2   -1    0    0    0  501  0.00000000000E+00  0.00000000000E+00  0.10507270726E+04  0.10507270726E+04  0.25500000920E-02 0. -1.
        2   -1    0    0  501    0  0.00000000000E+00  0.00000000000E+00 -0.94638354571E+03  0.94638354571E+03  0.25500000920E-02 0.  1.
    10030    2    1    2    0    0  0.00000000000E+00  0.00000000000E+00  0.10434352691E+03  0.19971106183E+04  0.19943829247E+04 0.  0.
        4    1    3    3  502    0  0.70585067034E+03 -0.34162213613E+03 -0.56467263997E+03  0.96632688876E+03  0.12699999809E+01 0.  1.
       -4    1    3    3    0  502 -0.70585067034E+03  0.34162213613E+03  0.66901616688E+03  0.10307837296E+04  0.12699999809E+01 0. -1.
</event>
<event>
 5   0  0.5730920E-06  0.2849800E+04  0.7818609E-02  0.8287972E-01
        1   -1    0    0  501    0  0.00000000000E+00  0.00000000000E+00  0.18374778933E+04  0.18374778933E+04  0.50400001928E-02 0. -1.
       -1   -1    0    0    0  501  0.00000000000E+00  0.00000000000E+00 -0.11049600647E+04  0.11049600647E+04  0.50400001928E-02 0.  1.
    10030    2    1    2    0    0  0.00000000000E+00  0.00000000000E+00  0.73251782860E+03  0.29424379580E+04  0.28497997767E+04 0.  0.
        1    1    3    3  502    0  0.50676066036E+03  0.13126490154E+04  0.59825356074E+03  0.15289738806E+04  0.50400001928E-02 0. -1.
       -1    1    3    3    0  502 -0.50676066036E+03 -0.13126490154E+04  0.13426426786E+03  0.14134640774E+04  0.50400001928E-02 0.  1.
</event>
<event>
 5   0  0.5730920E-06  0.1533735E+04  0.7818609E-02  0.8862325E-01
       -1   -1    0    0    0  501  0.00000000000E+00  0.00000000000E+00  0.80373096972E+03  0.80373096973E+03  0.50400001928E-02 0. -1.
        1   -1    0    0  501    0  0.00000000000E+00  0.00000000000E+00 -0.73169441049E+03  0.73169441050E+03  0.50400001928E-02 0.  1.
    10030    2    1    2    0    0  0.00000000000E+00  0.00000000000E+00  0.72036559229E+02  0.15354253802E+04  0.15337346030E+04 0.  0.
        1    1    3    3  502    0 -0.35959692837E+03  0.65123879670E+03  0.22240498682E+03  0.77645727468E+03  0.50400001928E-02 0. -1.
       -1    1    3    3    0  502  0.35959692837E+03 -0.65123879670E+03 -0.15036842759E+03  0.75896810556E+03  0.50400001928E-02 0.  1.
</event>
<event>
 5   0  0.5392262E-06  0.2897747E+04  0.7818609E-02  0.8273548E-01
        1   -1    0    0  501    0  0.00000000000E+00  0.00000000000E+00  0.20510330282E+04  0.20510330282E+04  0.50400001928E-02 0. -1.
       -1   -1    0    0    0  501  0.00000000000E+00  0.00000000000E+00 -0.10235012210E+04  0.10235012210E+04  0.50400001928E-02 0.  1.
    10030    2    1    2    0    0  0.00000000000E+00  0.00000000000E+00  0.10275318072E+04  0.30745342492E+04  0.28977472690E+04 0.  0.
        2    1    3    3  502    0 -0.58117234935E+03 -0.10240891941E+03  0.19177434341E+04  0.20064866721E+04  0.25500000920E-02 0. -1.
       -2    1    3    3    0  502  0.58117234935E+03  0.10240891941E+03 -0.89021162684E+03  0.10680475771E+04  0.25500000920E-02 0.  1.
</event>
<event>
 5   0  0.1388724E-05  0.3049299E+04  0.7818609E-02  0.8229792E-01
       -2   -1    0    0    0  501  0.00000000000E+00  0.00000000000E+00  0.92156342730E+03  0.92156342731E+03  0.25500000920E-02 0.  1.
        2   -1    0    0  501    0  0.00000000000E+00  0.00000000000E+00 -0.25224049670E+04  0.25224049670E+04  0.25500000920E-02 0. -1.
    10030    2    1    2    0    0  0.00000000000E+00  0.00000000000E+00 -0.16008415397E+04  0.34439683943E+04  0.30492990450E+04 0.  0.
        4    1    3    3  502    0  0.13652432019E+04  0.67871823487E+03 -0.80343255162E+03  0.17233841477E+04  0.12699999809E+01 0. -1.
       -4    1    3    3    0  502 -0.13652432019E+04 -0.67871823487E+03 -0.79740898809E+03  0.17205842466E+04  0.12699999809E+01 0.  1.
</event>
<event>
 5   0  0.5329891E-06  0.2940590E+04  0.7818609E-02  0.8260902E-01
        1   -1    0    0  501    0  0.00000000000E+00  0.00000000000E+00  0.99075312545E+03  0.99075312546E+03  0.50400001928E-02 0.  1.
       -1   -1    0    0    0  501  0.00000000000E+00  0.00000000000E+00 -0.21819440050E+04  0.21819440050E+04  0.50400001928E-02 0. -1.
    10030    2    1    2    0    0  0.00000000000E+00  0.00000000000E+00 -0.11911908796E+04  0.31726971305E+04  0.29405903098E+04 0.  0.
        4    1    3    3  502    0  0.10344098827E+04 -0.15623716296E+03 -0.17102697807E+04  0.20048536585E+04  0.12699999809E+01 0. -1.
       -4    1    3    3    0  502 -0.10344098827E+04  0.15623716296E+03  0.51907890113E+03  0.11678434719E+04  0.12699999809E+01 0.  1.
</event>
<event>
 5   0  0.5522695E-06  0.1535300E+04  0.7818609E-02  0.8861312E-01
       -1   -1    0    0    0  501  0.00000000000E+00  0.00000000000E+00  0.62236119588E+03  0.62236119590E+03  0.50400001928E-02 0. -1.
        1   -1    0    0  501    0  0.00000000000E+00  0.00000000000E+00 -0.94685591203E+03  0.94685591205E+03  0.50400001928E-02 0.  1.
    10030    2    1    2    0    0  0.00000000000E+00  0.00000000000E+00 -0.32449471615E+03  0.15692171079E+04  0.15352998115E+04 0.  0.
        3    1    3    3  502    0 -0.22855156328E+03 -0.71612755615E+02 -0.90768939693E+03  0.93875676048E+03  0.10100000352E+00 0.  1.
       -3    1    3    3    0  502  0.22855156328E+03  0.71612755615E+02  0.58319468078E+03  0.63046034747E+03  0.10100000352E+00 0. -1.
</event>
<event>
 5   0  0.1480547E-05  0.2902536E+04  0.7818609E-02  0.8272123E-01
       -2   -1    0    0    0  501  0.00000000000E+00  0.00000000000E+00  0.12721227391E+04  0.12721227391E+04  0.25500000920E-02 0.  1.
        2   -1    0    0  501    0  0.00000000000E+00  0.00000000000E+00 -0.16556416722E+04  0.16556416722E+04  0.25500000920E-02 0. -1.
    10030    2    1    2    0    0  0.00000000000E+00  0.00000000000E+00 -0.38351893309E+03  0.29277644113E+04  0.29025364211E+04 0.  0.
        1    1    3    3  502    0  0.13172286802E+03  0.10084810992E+04 -0.12360327967E+04  0.16006755186E+04  0.50400001928E-02 0. -1.
       -1    1    3    3    0  502 -0.13172286802E+03 -0.10084810992E+04  0.85251386362E+03  0.13270888927E+04  0.50400001928E-02 0.  1.
</event>
<event>
 5   0  0.1523029E-05  0.2999467E+04  0.7818609E-02  0.8243883E-01
       -2   -1    0    0    0  501  0.00000000000E+00  0.00000000000E+00  0.98000956444E+03  0.98000956444E+03  0.25500000920E-02 0.  1.
        2   -1    0    0  501    0  0.00000000000E+00  0.00000000000E+00 -0.22950795063E+04  0.22950795063E+04  0.25500000920E-02 0. -1.
    10030    2    1    2    0    0  0.00000000000E+00  0.00000000000E+00 -0.13150699418E+04  0.32750890707E+04  0.29994665308E+04 0.  0.
        5    1    3    3  502    0  0.61759456539E+03  0.12015034669E+04  0.53573473177E+02  0.13520080751E+04  0.46999998093E+01 0.  1.
       -5    1    3    3    0  502 -0.61759456539E+03 -0.12015034669E+04 -0.13686434150E+04  0.19230809956E+04  0.46999998093E+01 0. -1.
</event>
<event>
 5   0  0.5329891E-06  0.2020395E+04  0.7818609E-02  0.8597144E-01
        1   -1    0    0  501    0  0.00000000000E+00  0.00000000000E+00  0.17515877000E+04  0.17515877000E+04  0.50400001928E-02 0.  1.
       -1   -1    0    0    0  501  0.00000000000E+00  0.00000000000E+00 -0.58261379103E+03  0.58261379105E+03  0.50400001928E-02 0. -1.
    10030    2    1    2    0    0  0.00000000000E+00  0.00000000000E+00  0.11689739090E+04  0.23342014911E+04  0.20203951596E+04 0.  0.
        4    1    3    3  502    0 -0.46385767227E+02 -0.95672354502E+03  0.21365653701E+03  0.98138795066E+03  0.12699999809E+01 0.  1.
       -4    1    3    3    0  502  0.46385767227E+02  0.95672354502E+03  0.95531737196E+03  0.13528135404E+04  0.12699999809E+01 0. -1.
</event>
<event>
 5   0  0.1388724E-05  0.2463271E+04  0.7818609E-02  0.8416188E-01
       -2   -1    0    0    0  501  0.00000000000E+00  0.00000000000E+00  0.69484484593E+03  0.69484484593E+03  0.25500000920E-02 0.  1.
        2   -1    0    0  501    0  0.00000000000E+00  0.00000000000E+00 -0.21831147656E+04  0.21831147656E+04  0.25500000920E-02 0. -1.
    10030    2    1    2    0    0  0.00000000000E+00  0.00000000000E+00 -0.14882699197E+04  0.28779596115E+04  0.24632710309E+04 0.  0.
        4    1    3    3  502    0 -0.20709555991E+03 -0.41674183602E+02  0.67351993571E+03  0.70587252759E+03  0.12699999809E+01 0.  1.
       -4    1    3    3    0  502  0.20709555991E+03  0.41674183602E+02 -0.21617898554E+04  0.21720870839E+04  0.12699999809E+01 0. -1.
</event>
<event>
 5   0  0.1345931E-05  0.2974770E+04  0.7818609E-02  0.8250972E-01
       -2   -1    0    0    0  501  0.00000000000E+00  0.00000000000E+00  0.10935348322E+04  0.10935348322E+04  0.25500000920E-02 0. -1.
        2   -1    0    0  501    0  0.00000000000E+00  0.00000000000E+00 -0.20230857179E+04  0.20230857179E+04  0.25500000920E-02 0.  1.
    10030    2    1    2    0    0  0.00000000000E+00  0.00000000000E+00 -0.92955088574E+03  0.31166205501E+04  0.29747703784E+04 0.  0.
        2    1    3    3  502    0 -0.87727647124E+03  0.82440914785E+03 -0.13799565614E+04  0.18312685661E+04  0.25500000920E-02 0.  1.
       -2    1    3    3    0  502  0.87727647124E+03 -0.82440914785E+03  0.45040567561E+03  0.12853519840E+04  0.25500000920E-02 0. -1.
</event>
<event>
 5   0  0.5730920E-06  0.3079747E+04  0.7818609E-02  0.8221318E-01
        1   -1    0    0  501    0  0.00000000000E+00  0.00000000000E+00  0.29380292472E+04  0.29380292472E+04  0.50400001928E-02 0. -1.
       -1   -1    0    0    0  501  0.00000000000E+00  0.00000000000E+00 -0.80707509355E+03  0.80707509356E+03  0.50400001928E-02 0.  1.
    10030    2    1    2    0    0  0.00000000000E+00  0.00000000000E+00  0.21309541537E+04  0.37451043408E+04  0.30797468919E+04 0.  0.
        1    1    3    3  502    0  0.80845283567E+03 -0.85415764762E+03 -0.14326525613E+03  0.11847810803E+04  0.50400001928E-02 0.  1.
       -1    1    3    3    0  502 -0.80845283567E+03  0.85415764762E+03  0.22742194098E+04  0.25603232606E+04  0.50400001928E-02 0. -1.
</event>
<event>
 5   0  0.1345931E-05  0.2998267E+04  0.7818609E-02  0.8244226E-01
       -2   -1    0    0    0  501  0.00000000000E+00  0.00000000000E+00  0.13219294481E+04  0.13219294481E+04  0.25500000920E-02 0.  1.
        2   -1    0    0  501    0  0.00000000000E+00  0.00000000000E+00 -0.17000917636E+04  0.17000917636E+04  0.25500000920E-02 0. -1.
    10030    2    1    2    0    0  0.00000000000E+00  0.00000000000E+00 -0.37816231559E+03  0.30220212117E+04  0.29982670773E+04 0.  0.
        2    1    3    3  502    0 -0.84903412681E+03  0.12232913265E+04 -0.14210943383E+02  0.14891281237E+04  0.25500000920E-02 0. -1.
       -2    1    3    3    0  502  0.84903412681E+03 -0.12232913265E+04 -0.36395137220E+03  0.15328930880E+04  0.25500000920E-02 0.  1.
</event>
<event>
 5   0  0.5392262E-06  0.2960169E+04  0.7818609E-02  0.8255197E-01
       -1   -1    0    0    0  501  0.00000000000E+00  0.00000000000E+00  0.11735956937E+04  0.11735956937E+04  0.50400001928E-02 0. -1.
        1   -1    0    0  501    0  0.00000000000E+00  0.00000000000E+00 -0.18666139184E+04  0.18666139184E+04  0.50400001928E-02 0.  1.
    10030    2    1    2    0    0  0.00000000000E+00  0.00000000000E+00 -0.69301822464E+03  0.30402096121E+04  0.29601689522E+04 0.  0.
        2    1    3    3  502    0 -0.60509535508E+03  0.66300359074E+03  0.86214453265E+03  0.12445912362E+04  0.25500000920E-02 0. -1.
       -2    1    3    3    0  502  0.60509535508E+03 -0.66300359074E+03 -0.15551627573E+04  0.17956183759E+04  0.25500000920E-02 0.  1.
</event>
<event>
 5   0  0.5329891E-06  0.3017433E+04  0.7818609E-02  0.8238770E-01
        1   -1    0    0  501    0  0.00000000000E+00  0.00000000000E+00  0.15268931330E+04  0.15268931330E+04  0.50400001928E-02 0. -1.
       -1   -1    0    0    0  501  0.00000000000E+00  0.00000000000E+00 -0.14907565663E+04  0.14907565663E+04  0.50400001928E-02 0.  1.
    10030    2    1    2    0    0  0.00000000000E+00  0.00000000000E+00  0.36136566673E+02  0.30176496992E+04  0.30174333225E+04 0.  0.
        4    1    3    3  502    0 -0.66319151487E+03 -0.13235559045E+04  0.30895188056E+03  0.15123082011E+04  0.12699999809E+01 0. -1.
       -4    1    3    3    0  502  0.66319151487E+03  0.13235559045E+04 -0.27281531389E+03  0.15053414982E+04  0.12699999809E+01 0.  1.
</event>
<event>
 5   0  0.1480547E-05  0.2822776E+04  0.7818609E-02  0.8296232E-01
       -2   -1    0    0    0  501  0.00000000000E+00  0.00000000000E+00  0.12795298174E+04  0.12795298174E+04  0.25500000920E-02 0.  1.
        2   -1    0    0  501    0  0.00000000000E+00  0.00000000000E+00 -0.15568343118E+04  0.15568343118E+04  0.25500000920E-02 0. -1.
    10030    2    1    2    0    0  0.00000000000E+00  0.00000000000E+00 -0.27730449435E+03  0.28363641292E+04  0.28227758839E+04 0.  0.
        1    1    3    3  502    0  0.54519142899E+03 -0.96670834103E+03 -0.10147768178E+04  0.15038386552E+04  0.50400001928E-02 0. -1.
       -1    1    3    3    0  502 -0.54519142899E+03  0.96670834103E+03  0.73747232346E+03  0.13325254740E+04  0.50400001928E-02 0.  1.
</event>
<event>
 5   0  0.1345931E-05  0.2716230E+04  0.7818609E-02  0.8329758E-01
       -2   -1    0    0    0  501  0.00000000000E+00  0.00000000000E+00  0.17432884018E+04  0.17432884018E+04  0.25500000920E-02 0. -1.
        2   -1    0    0  501    0  0.00000000000E+00  0.00000000000E+00 -0.10580445847E+04  0.10580445847E+04  0.25500000920E-02 0.  1.
    10030    2    1    2    0    0  0.00000000000E+00  0.00000000000E+00  0.68524381708E+03  0.28013329865E+04  0.27162303680E+04 0.  0.
        2    1    3    3  502    0  0.35673999422E+03  0.29852070721E+03  0.16585692626E+04  0.17225649581E+04  0.25500000920E-02 0. -1.
       -2    1    3    3    0  502 -0.35673999422E+03 -0.29852070721E+03 -0.97332544552E+03  0.10787680284E+04  0.25500000920E-02 0.  1.
</event>
<event>
 5   0  0.5730920E-06  0.2892642E+04  0.7818609E-02  0.8275070E-01
        1   -1    0    0  501    0  0.00000000000E+00  0.00000000000E+00  0.15317619200E+04  0.15317619200E+04  0.50400001928E-02 0.  1.
       -1   -1    0    0    0  501  0.00000000000E+00  0.00000000000E+00 -0.13656459935E+04  0.13656459935E+04  0.50400001928E-02 0. -1.
    10030    2    1    2    0    0  0.00000000000E+00  0.00000000000E+00  0.16611592651E+03  0.28974079136E+04  0.28926420650E+04 0.  0.
        1    1    3    3  502    0  0.24660231455E+03  0.65046871001E+03  0.13531859091E+04  0.15215236932E+04  0.50400001928E-02 0.  1.
       -1    1    3    3    0  502 -0.24660231455E+03 -0.65046871001E+03 -0.11870699826E+04  0.13758842204E+04  0.50400001928E-02 0. -1.
</event>
<event>
 5   0  0.5392262E-06  0.2985276E+04  0.7818609E-02  0.8247948E-01
        1   -1    0    0  501    0  0.00000000000E+00  0.00000000000E+00  0.21458049153E+04  0.21458049153E+04  0.50400001928E-02 0. -1.
       -1   -1    0    0    0  501  0.00000000000E+00  0.00000000000E+00 -0.10382903873E+04  0.10382903873E+04  0.50400001928E-02 0.  1.
    10030    2    1    2    0    0  0.00000000000E+00  0.00000000000E+00  0.11075145280E+04  0.31840953025E+04  0.29852762797E+04 0.  0.
        2    1    3    3  502    0 -0.14395802215E+04 -0.39099513431E+03  0.60918154544E+03  0.16113257165E+04  0.25500000920E-02 0. -1.
       -2    1    3    3    0  502  0.14395802215E+04  0.39099513431E+03  0.49833298256E+03  0.15727695861E+04  0.25500000920E-02 0.  1.
</event>
<event>
 5   0  0.1480547E-05  0.2478119E+04  0.7818609E-02  0.8410822E-01
        2   -1    0    0  501    0  0.00000000000E+00  0.00000000000E+00  0.91556699283E+03  0.91556699283E+03  0.25500000920E-02 0. -1.
       -2   -1    0    0    0  501  0.00000000000E+00  0.00000000000E+00 -0.16768505025E+04  0.16768505025E+04  0.25500000920E-02 0.  1.
    10030    2    1    2    0    0  0.00000000000E+00  0.00000000000E+00 -0.76128350964E+03  0.25924174953E+04  0.24781194257E+04 0.  0.
        1    1    3    3  502    0 -0.63785620901E+02  0.79372029220E+03  0.61246364345E+03  0.10045756429E+04  0.50400001928E-02 0. -1.
       -1    1    3    3    0  502  0.63785620901E+02 -0.79372029220E+03 -0.13737471531E+04  0.15878418524E+04  0.50400001928E-02 0.  1.
</event>
<event>
 5   0  0.5392262E-06  0.2910791E+04  0.7818609E-02  0.8269674E-01
       -1   -1    0    0    0  501  0.00000000000E+00  0.00000000000E+00  0.18429271781E+04  0.18429271781E+04  0.50400001928E-02 0. -1.
        1   -1    0    0  501    0  0.00000000000E+00  0.00000000000E+00 -0.11493539099E+04  0.11493539099E+04  0.50400001928E-02 0.  1.
    10030    2    1    2    0    0  0.00000000000E+00  0.00000000000E+00  0.69357326814E+03  0.29922810880E+04  0.29107906540E+04 0.  0.
        2    1    3    3  502    0  0.97246456046E+03 -0.34453850981E+03  0.14020641644E+04  0.17407406547E+04  0.25500000920E-02 0. -1.
       -2    1    3    3    0  502 -0.97246456046E+03  0.34453850981E+03 -0.70849089621E+03  0.12515404333E+04  0.25500000920E-02 0.  1.
</event>
<event>
 5   0  0.5522695E-06  0.2994565E+04  0.7818609E-02  0.8245285E-01
        1   -1    0    0  501    0  0.00000000000E+00  0.00000000000E+00  0.18206038735E+04  0.18206038735E+04  0.50400001928E-02 0. -1.
       -1   -1    0    0    0  501  0.00000000000E+00  0.00000000000E+00 -0.12313794793E+04  0.12313794793E+04  0.50400001928E-02 0.  1.
    10030    2    1    2    0    0  0.00000000000E+00  0.00000000000E+00  0.58922439423E+03  0.30519833528E+04  0.29945645759E+04 0.  0.
        3    1    3    3  502    0  0.10277471318E+04  0.10066333848E+04  0.71763621734E+03  0.16076618703E+04  0.10100000352E+00 0. -1.
       -3    1    3    3    0  502 -0.10277471318E+04 -0.10066333848E+04 -0.12841182311E+03  0.14443214826E+04  0.10100000352E+00 0.  1.
</event>
<event>
 5   0  0.1388724E-05  0.3020104E+04  0.7818609E-02  0.8238013E-01
        2   -1    0    0  501    0  0.00000000000E+00  0.00000000000E+00  0.17828462637E+04  0.17828462637E+04  0.25500000920E-02 0.  1.
       -2   -1    0    0    0  501  0.00000000000E+00  0.00000000000E+00 -0.12789982096E+04  0.12789982096E+04  0.25500000920E-02 0. -1.
    10030    2    1    2    0    0  0.00000000000E+00  0.00000000000E+00  0.50384805408E+03  0.30618444734E+04  0.30201040905E+04 0.  0.
        4    1    3    3  502    0  0.33715525081E+03 -0.12034922847E+04 -0.60724844804E+03  0.13895393600E+04  0.12699999809E+01 0. -1.
       -4    1    3    3    0  502 -0.33715525081E+03  0.12034922847E+04  0.11110965021E+04  0.16723051134E+04  0.12699999809E+01 0.  1.
</event>
<event>
 5   0  0.1388724E-05  0.3244001E+04  0.7818609E-02  0.8177292E-01
       -2   -1    0    0    0  501  0.00000000000E+00  0.00000000000E+00  0.12437305729E+04  0.12437305729E+04  0.25500000920E-02 0. -1.
        2   -1    0    0  501    0  0.00000000000E+00  0.00000000000E+00 -0.21153184927E+04  0.21153184927E+04  0.25500000920E-02 0.  1.
    10030    2    1    2    0    0  0.00000000000E+00  0.00000000000E+00 -0.87158791980E+03  0.33590490657E+04  0.32440014062E+04 0.  0.
        4    1    3    3  502    0 -0.10689528053E+03  0.98744476438E+03 -0.17636178795E+04  0.20240611161E+04  0.12699999809E+01 0.  1.
       -4    1    3    3    0  502  0.10689528053E+03 -0.98744476438E+03  0.89202995971E+03  0.13349879496E+04  0.12699999809E+01 0. -1.
</event>
<event>
 5   0  0.1388724E-05  0.2930906E+04  0.7818609E-02  0.8263741E-01
       -2   -1    0    0    0  501  0.00000000000E+00  0.00000000000E+00  0.13227585991E+04  0.13227585991E+04  0.25500000920E-02 0. -1.
        2   -1    0    0  501    0  0.00000000000E+00  0.00000000000E+00 -0.16235404360E+04  0.16235404360E+04  0.25500000920E-02 0.  1.
    10030    2    1    2    0    0  0.00000000000E+00  0.00000000000E+00 -0.30078183690E+03  0.29462990351E+04  0.29309057117E+04 0.  0.
        4    1    3    3  502    0  0.51160502792E+03  0.12338823553E+04  0.45555605868E+03  0.14112895900E+04  0.12699999809E+01 0. -1.
       -4    1    3    3    0  502 -0.51160502792E+03 -0.12338823553E+04 -0.75633789559E+03  0.15350094451E+04  0.12699999809E+01 0.  1.
</event>
<event>
 5   0  0.1423692E-05  0.2971276E+04  0.7818609E-02  0.8251981E-01
        2   -1    0    0  501    0  0.00000000000E+00  0.00000000000E+00  0.19078897360E+04  0.19078897360E+04  0.25500000920E-02 0. -1.
       -2   -1    0    0    0  501  0.00000000000E+00  0.00000000000E+00 -0.11568384239E+04  0.11568384239E+04  0.25500000920E-02 0.  1.
    10030    2    1    2    0    0  0.00000000000E+00  0.00000000000E+00  0.75105131210E+03  0.30647281599E+04  0.29712759246E+04 0.  0.
        3    1    3    3  502    0  0.65492036221E+03 -0.12640254518E+04  0.81366709136E+03  0.16397363109E+04  0.10100000352E+00 0. -1.
       -3    1    3    3    0  502 -0.65492036221E+03  0.12640254518E+04 -0.62615779258E+02  0.14249918489E+04  0.10100000352E+00 0.  1.
</event>
<event>
 5   0  0.5730920E-06  0.1636392E+04  0.7818609E-02  0.8798498E-01
        1   -1    0    0  501    0  0.00000000000E+00  0.00000000000E+00  0.12167444887E+04  0.12167444887E+04  0.50400001928E-02 0. -1.
       -1   -1    0    0    0  501  0.00000000000E+00  0.00000000000E+00 -0.55019355484E+03  0.55019355486E+03  0.50400001928E-02 0.  1.
    10030    2    1    2    0    0  0.00000000000E+00  0.00000000000E+00  0.66655093390E+03  0.17669380436E+04  0.16363923437E+04 0.  0.
        1    1    3    3  502    0  0.66620665342E+03 -0.23144491079E+03 -0.11460006668E+03  0.71451467941E+03  0.50400001928E-02 0.  1.
       -1    1    3    3    0  502 -0.66620665342E+03  0.23144491079E+03  0.78115100058E+03  0.10524233642E+04  0.50400001928E-02 0. -1.
</event>
<event>
 5   0  0.1345931E-05  0.3116771E+04  0.7818609E-02  0.8211150E-01
       -2   -1    0    0    0  501  0.00000000000E+00  0.00000000000E+00  0.10801537906E+04  0.10801537906E+04  0.25500000920E-02 0.  1.
        2   -1    0    0  501    0  0.00000000000E+00  0.00000000000E+00 -0.22483516336E+04  0.22483516336E+04  0.25500000920E-02 0. -1.
    10030    2    1    2    0    0  0.00000000000E+00  0.00000000000E+00 -0.11681978430E+04  0.33285054242E+04  0.31167711111E+04 0.  0.
        2    1    3    3  502    0  0.10937123630E+04  0.10451232275E+04 -0.98379198033E+03  0.18045320597E+04  0.25500000920E-02 0. -1.
       -2    1    3    3    0  502 -0.10937123630E+04 -0.10451232275E+04 -0.18440586263E+03  0.15239733646E+04  0.25500000920E-02 0.  1.
</event>
<event>
 5   0  0.1480547E-05  0.2984527E+04  0.7818609E-02  0.8248163E-01
        2   -1    0    0  501    0  0.00000000000E+00  0.00000000000E+00  0.22648693873E+04  0.22648693873E+04  0.25500000920E-02 0. -1.
       -2   -1    0    0    0  501  0.00000000000E+00  0.00000000000E+00 -0.98321371246E+03  0.98321371246E+03  0.25500000920E-02 0.  1.
    10030    2    1    2    0    0  0.00000000000E+00  0.00000000000E+00  0.12816556749E+04  0.32480830998E+04  0.29845271911E+04 0.  0.
        1    1    3    3  502    0  0.10883491626E+04 -0.27958512525E+03  0.17094653191E+04  0.20457134255E+04  0.50400001928E-02 0. -1.
       -1    1    3    3    0  502 -0.10883491626E+04  0.27958512525E+03 -0.42780964424E+03  0.12023696743E+04  0.50400001928E-02 0.  1.
</event>
<event>
 5   0  0.5392262E-06  0.2640117E+04  0.7818609E-02  0.8354701E-01
       -1   -1    0    0    0  501  0.00000000000E+00  0.00000000000E+00  0.11309629271E+04  0.11309629271E+04  0.50400001928E-02 0. -1.
        1   -1    0    0  501    0  0.00000000000E+00  0.00000000000E+00 -0.15407709662E+04  0.15407709662E+04  0.50400001928E-02 0.  1.
    10030    2    1    2    0    0  0.00000000000E+00  0.00000000000E+00 -0.40980803906E+03  0.26717338933E+04  0.26401173019E+04 0.  0.
        2    1    3    3  502    0 -0.13594200222E+03 -0.80134808115E+03 -0.12575121534E+04  0.14973228747E+04  0.25500000920E-02 0.  1.
       -2    1    3    3    0  502  0.13594200222E+03  0.80134808115E+03  0.84770411437E+03  0.11744110186E+04  0.25500000920E-02 0. -1.
</event>
<event>
 5   0  0.5392262E-06  0.3012229E+04  0.7818609E-02  0.8240248E-01
       -1   -1    0    0    0  501  0.00000000000E+00  0.00000000000E+00  0.11084988734E+04  0.11084988734E+04  0.50400001928E-02 0. -1.
        1   -1    0    0  501    0  0.00000000000E+00  0.00000000000E+00 -0.20463532289E+04  0.20463532289E+04  0.50400001928E-02 0.  1.
    10030    2    1    2    0    0  0.00000000000E+00  0.00000000000E+00 -0.93785435552E+03  0.31548521024E+04  0.30122285763E+04 0.  0.
        2    1    3    3  502    0 -0.12182211708E+04  0.78864412957E+03 -0.46912315565E+02  0.14519721587E+04  0.25500000920E-02 0. -1.
       -2    1    3    3    0  502  0.12182211708E+04 -0.78864412957E+03 -0.89094203996E+03  0.17028799437E+04  0.25500000920E-02 0.  1.
</event>
<event>
 5   0  0.1388724E-05  0.3139261E+04  0.7818609E-02  0.8205045E-01
        2   -1    0    0  501    0  0.00000000000E+00  0.00000000000E+00  0.16638100770E+04  0.16638100770E+04  0.25500000920E-02 0.  1.
       -2   -1    0    0    0  501  0.00000000000E+00  0.00000000000E+00 -0.14807821217E+04  0.14807821217E+04  0.25500000920E-02 0. -1.
    10030    2    1    2    0    0  0.00000000000E+00  0.00000000000E+00  0.18302795528E+03  0.31445921987E+04  0.31392611971E+04 0.  0.
        4    1    3    3  502    0  0.15574874203E+03 -0.11451643706E+04  0.11554284916E+04  0.16342202173E+04  0.12699999809E+01 0.  1.
       -4    1    3    3    0  502 -0.15574874203E+03  0.11451643706E+04 -0.97240053636E+03  0.15103719814E+04  0.12699999809E+01 0. -1.
</event>
<event>
 5   0  0.1388724E-05  0.2983501E+04  0.7818609E-02  0.8248458E-01
       -2   -1    0    0    0  501  0.00000000000E+00  0.00000000000E+00  0.14574827811E+04  0.14574827811E+04  0.25500000920E-02 0. -1.
        2   -1    0    0  501    0  0.00000000000E+00  0.00000000000E+00 -0.15268238956E+04  0.15268238956E+04  0.25500000920E-02 0.  1.
    10030    2    1    2    0    0  0.00000000000E+00  0.00000000000E+00 -0.69341114523E+02  0.29843066768E+04  0.29835009889E+04 0.  0.
        4    1    3    3  502    0  0.96062095707E+03  0.91819588235E+02  0.11032193732E+04  0.14657141803E+04  0.12699999809E+01 0. -1.
       -4    1    3    3    0  502 -0.96062095707E+03 -0.91819588235E+02 -0.11725604878E+04  0.15185924965E+04  0.12699999809E+01 0.  1.
</event>
<event>
 5   0  0.1388724E-05  0.2943985E+04  0.7818609E-02  0.8259910E-01
       -2   -1    0    0    0  501  0.00000000000E+00  0.00000000000E+00  0.10120613401E+04  0.10120613401E+04  0.25500000920E-02 0. -1.
        2   -1    0    0  501    0  0.00000000000E+00  0.00000000000E+00 -0.21409388332E+04  0.21409388332E+04  0.25500000920E-02 0.  1.
    10030    2    1    2    0    0  0.00000000000E+00  0.00000000000E+00 -0.11288774931E+04  0.31530001733E+04  0.29439846634E+04 0.  0.
        4    1    3    3  502    0 -0.11480205791E+04 -0.47860237052E+03  0.27869434496E+03  0.12746307818E+04  0.12699999809E+01 0. -1.
       -4    1    3    3    0  502  0.11480205791E+04  0.47860237052E+03 -0.14075718381E+04  0.18783693916E+04  0.12699999809E+01 0.  1.
</event>
<event>
 5   0  0.5522695E-06  0.2213871E+04  0.7818609E-02  0.8512677E-01
       -1   -1    0    0    0  501  0.00000000000E+00  0.00000000000E+00  0.18119848638E+04  0.18119848638E+04  0.50400001928E-02 0. -1.
        1   -1    0    0  501    0  0.00000000000E+00  0.00000000000E+00 -0.67622328089E+03  0.67622328091E+03  0.50400001928E-02 0.  1.
    10030    2    1    2    0    0  0.00000000000E+00  0.00000000000E+00  0.11357615829E+04  0.24882081447E+04  0.22138711340E+04 0.  0.
        3    1    3    3  502    0 -0.53821834289E+03 -0.67783699175E+03 -0.20767459070E+03  0.89009590373E+03  0.10100000352E+00 0.  1.
       -3    1    3    3    0  502  0.53821834289E+03  0.67783699175E+03  0.13434361736E+04  0.15981122410E+04  0.10100000352E+00 0. -1.
</event>
<event>
 5   0  0.7032692E-06  0.2957224E+04  0.7818609E-02  0.8256052E-01
       -1   -1    0    0    0  501  0.00000000000E+00  0.00000000000E+00  0.88197131591E+03  0.88197131592E+03  0.50400001928E-02 0.  1.
        1   -1    0    0  501    0  0.00000000000E+00  0.00000000000E+00 -0.24788716743E+04  0.24788716743E+04  0.50400001928E-02 0. -1.
    10030    2    1    2    0    0  0.00000000000E+00  0.00000000000E+00 -0.15969003584E+04  0.33608429902E+04  0.29572241799E+04 0.  0.
        5    1    3    3  502    0 -0.93628026967E+03  0.93163555720E+03 -0.15537696112E+04  0.20393105819E+04  0.46999998093E+01 0. -1.
       -5    1    3    3    0  502  0.93628026967E+03 -0.93163555720E+03 -0.43130747177E+02  0.13215324083E+04  0.46999998093E+01 0.  1.
</event>
<event>
 5   0  0.1345931E-05  0.2685475E+04  0.7818609E-02  0.8339733E-01
       -2   -1    0    0    0  501  0.00000000000E+00  0.00000000000E+00  0.12309888699E+04  0.12309888699E+04  0.25500000920E-02 0.  1.
        2   -1    0    0  501    0  0.00000000000E+00  0.00000000000E+00 -0.14646305156E+04  0.14646305157E+04  0.25500000920E-02 0. -1.
    10030    2    1    2    0    0  0.00000000000E+00  0.00000000000E+00 -0.23364164574E+03  0.26956193856E+04  0.26854749027E+04 0.  0.
        2    1    3    3  502    0  0.16905583939E+02 -0.13033479645E+04 -0.44043930508E+03  0.13758591849E+04  0.25500000920E-02 0. -1.
       -2    1    3    3    0  502 -0.16905583939E+02  0.13033479645E+04  0.20679765934E+03  0.13197602006E+04  0.25500000920E-02 0.  1.
</event>
<event>
 5   0  0.5392262E-06  0.2129705E+04  0.7818609E-02  0.8548270E-01
       -1   -1    0    0    0  501  0.00000000000E+00  0.00000000000E+00  0.11302537563E+04  0.11302537563E+04  0.50400001928E-02 0.  1.
        1   -1    0    0  501    0  0.00000000000E+00  0.00000000000E+00 -0.10032354572E+04  0.10032354573E+04  0.50400001928E-02 0. -1.
    10030    2    1    2    0    0  0.00000000000E+00  0.00000000000E+00  0.12701829901E+03  0.21334892135E+04  0.21297048096E+04 0.  0.
        2    1    3    3  502    0 -0.11488446937E+03 -0.52917382654E+02 -0.99568321108E+03  0.10036850838E+04  0.25500000920E-02 0. -1.
       -2    1    3    3    0  502  0.11488446937E+03  0.52917382654E+02  0.11227015101E+04  0.11298041297E+04  0.25500000920E-02 0.  1.
</event>
<event>
 5   0  0.5392262E-06  0.2927574E+04  0.7818609E-02  0.8264721E-01
        1   -1    0    0  501    0  0.00000000000E+00  0.00000000000E+00  0.13274377924E+04  0.13274377924E+04  0.50400001928E-02 0. -1.
       -1   -1    0    0    0  501  0.00000000000E+00  0.00000000000E+00 -0.16141409297E+04  0.16141409297E+04  0.50400001928E-02 0.  1.
    10030    2    1    2    0    0  0.00000000000E+00  0.00000000000E+00 -0.28670313733E+03  0.29415787221E+04  0.29275735156E+04 0.  0.
        2    1    3    3  502    0 -0.54266185004E+03 -0.14938589781E+03 -0.15010647221E+04  0.16031198738E+04  0.25500000920E-02 0.  1.
       -2    1    3    3    0  502  0.54266185004E+03  0.14938589781E+03  0.12143615848E+04  0.13384588483E+04  0.25500000920E-02 0. -1.
</event>
<event>
 5   0  0.5730920E-06  0.2419061E+04  0.7818609E-02  0.8432402E-01
       -1   -1    0    0    0  501  0.00000000000E+00  0.00000000000E+00  0.87708151933E+03  0.87708151934E+03  0.50400001928E-02 0. -1.
        1   -1    0    0  501    0  0.00000000000E+00  0.00000000000E+00 -0.16679904732E+04  0.16679904732E+04  0.50400001928E-02 0.  1.
    10030    2    1    2    0    0  0.00000000000E+00  0.00000000000E+00 -0.79090895386E+03  0.25450719925E+04  0.24190606594E+04 0.  0.
        1    1    3    3  502    0  0.11823264623E+04 -0.15089858429E+03 -0.61183093445E+03  0.13397773467E+04  0.50400001928E-02 0.  1.
       -1    1    3    3    0  502 -0.11823264623E+04  0.15089858429E+03 -0.17907801941E+03  0.12052946459E+04  0.50400001928E-02 0. -1.
</event>
<event>
 5   0  0.1345931E-05  0.2446633E+04  0.7818609E-02  0.8422248E-01
        2   -1    0    0  501    0  0.00000000000E+00  0.00000000000E+00  0.19165308029E+04  0.19165308029E+04  0.25500000920E-02 0. -1.
       -2   -1    0    0    0  501  0.00000000000E+00  0.00000000000E+00 -0.78083943566E+03  0.78083943566E+03  0.25500000920E-02 0.  1.
    10030    2    1    2    0    0  0.00000000000E+00  0.00000000000E+00  0.11356913672E+04  0.26973702385E+04  0.24466326496E+04 0.  0.
        2    1    3    3  502    0 -0.43947827647E+02 -0.89515742582E+02 -0.77635086169E+03  0.78272928921E+03  0.25500000920E-02 0.  1.
       -2    1    3    3    0  502  0.43947827647E+02  0.89515742582E+02  0.19120422289E+04  0.19146409493E+04  0.25500000920E-02 0. -1.
</event>
<event>
 5   0  0.1388724E-05  0.2882351E+04  0.7818609E-02  0.8278148E-01
       -2   -1    0    0    0  501  0.00000000000E+00  0.00000000000E+00  0.23268407936E+04  0.23268407936E+04  0.25500000920E-02 0. -1.
        2   -1    0    0  501    0  0.00000000000E+00  0.00000000000E+00 -0.89262111077E+03  0.89262111077E+03  0.25500000920E-02 0.  1.
    10030    2    1    2    0    0  0.00000000000E+00  0.00000000000E+00  0.14342196828E+04  0.32194619043E+04  0.28823512720E+04 0.  0.
        4    1    3    3  502    0 -0.49938801181E+03 -0.97820615304E+03 -0.32514311020E+03  0.11454236418E+04  0.12699999809E+01 0.  1.
       -4    1    3    3    0  502  0.49938801181E+03  0.97820615304E+03  0.17593627930E+04  0.20740382625E+04  0.12699999809E+01 0. -1.
</event>
<event>
 5   0  0.5730920E-06  0.1613230E+04  0.7818609E-02  0.8812461E-01
        1   -1    0    0  501    0  0.00000000000E+00  0.00000000000E+00  0.17803622896E+04  0.17803622896E+04  0.50400001928E-02 0.  1.
       -1   -1    0    0    0  501  0.00000000000E+00  0.00000000000E+00 -0.36544685320E+03  0.36544685323E+03  0.50400001928E-02 0. -1.
    10030    2    1    2    0    0  0.00000000000E+00  0.00000000000E+00  0.14149154364E+04  0.21458091428E+04  0.16132300472E+04 0.  0.
        1    1    3    3  502    0  0.21704021016E+03  0.75637708234E+03  0.47170121250E+03  0.91745014982E+03  0.50400001928E-02 0. -1.
       -1    1    3    3    0  502 -0.21704021016E+03 -0.75637708234E+03  0.94321422390E+03  0.12283589930E+04  0.50400001928E-02 0.  1.
</event>
<event>
 5   0  0.1480547E-05  0.3062254E+04  0.7818609E-02  0.8226174E-01
       -2   -1    0    0    0  501  0.00000000000E+00  0.00000000000E+00  0.14417390117E+04  0.14417390117E+04  0.25500000920E-02 0. -1.
        2   -1    0    0  501    0  0.00000000000E+00  0.00000000000E+00 -0.16260569883E+04  0.16260569883E+04  0.25500000920E-02 0.  1.
    10030    2    1    2    0    0  0.00000000000E+00  0.00000000000E+00 -0.18431797664E+03  0.30677960000E+04  0.30622539380E+04 0.  0.
        1    1    3    3  502    0  0.13861211768E+04 -0.46090152106E+03  0.36756984303E+03  0.15062767735E+04  0.50400001928E-02 0.  1.
       -1    1    3    3    0  502 -0.13861211768E+04  0.46090152106E+03 -0.55188781967E+03  0.15615192264E+04  0.50400001928E-02 0. -1.
</event>
<event>
 5   0  0.5392262E-06  0.1506378E+04  0.7818609E-02  0.8880223E-01
        1   -1    0    0  501    0  0.00000000000E+00  0.00000000000E+00  0.13068346623E+04  0.13068346623E+04  0.50400001928E-02 0.  1.
       -1   -1    0    0    0  501  0.00000000000E+00  0.00000000000E+00 -0.43409759832E+03  0.43409759835E+03  0.50400001928E-02 0. -1.
    10030    2    1    2    0    0  0.00000000000E+00  0.00000000000E+00  0.87273706394E+03  0.17409322606E+04  0.15063781575E+04 0.  0.
        2    1    3    3  502    0  0.59143841622E+03 -0.41763395589E+03  0.19650352576E+03  0.75022073880E+03  0.25500000920E-02 0. -1.
       -2    1    3    3    0  502 -0.59143841622E+03  0.41763395589E+03  0.67623353819E+03  0.99071152182E+03  0.25500000920E-02 0.  1.
</event>
<event>
 5   0  0.5730920E-06  0.2999089E+04  0.7818609E-02  0.8243991E-01
        1   -1    0    0  501    0  0.00000000000E+00  0.00000000000E+00  0.15161476112E+04  0.15161476112E+04  0.50400001928E-02 0.  1.
       -1   -1    0    0    0  501  0.00000000000E+00  0.00000000000E+00 -0.14831227334E+04  0.14831227334E+04  0.50400001928E-02 0. -1.
    10030    2    1    2    0    0  0.00000000000E+00  0.00000000000E+00  0.33024877814E+02  0.29992703447E+04  0.29990885212E+04 0.  0.
        1    1    3    3  502    0 -0.70340895382E+03  0.89292531423E+03 -0.96157201649E+03  0.14888655131E+04  0.50400001928E-02 0.  1.
       -1    1    3    3    0  502  0.70340895382E+03 -0.89292531423E+03  0.99459689430E+03  0.15104048316E+04  0.50400001928E-02 0. -1.
</event>
<event>
 5   0  0.5730920E-06  0.2974174E+04  0.7818609E-02  0.8251144E-01
       -1   -1    0    0    0  501  0.00000000000E+00  0.00000000000E+00  0.18152806583E+04  0.18152806583E+04  0.50400001928E-02 0.  1.
        1   -1    0    0  501    0  0.00000000000E+00  0.00000000000E+00 -0.12182293835E+04  0.12182293835E+04  0.50400001928E-02 0. -1.
    10030    2    1    2    0    0  0.00000000000E+00  0.00000000000E+00  0.59705127476E+03  0.30335100418E+04  0.29741743307E+04 0.  0.
        1    1    3    3  502    0  0.13048090452E+04 -0.64362754707E+03 -0.15256525171E+02  0.14549968472E+04  0.50400001928E-02 0.  1.
       -1    1    3    3    0  502 -0.13048090452E+04  0.64362754707E+03  0.61230779993E+03  0.15785131946E+04  0.50400001928E-02 0. -1.
</event>
<event>
 5   0  0.5730920E-06  0.2909836E+04  0.7818609E-02  0.8269957E-01
       -1   -1    0    0    0  501  0.00000000000E+00  0.00000000000E+00  0.27951303332E+04  0.27951303332E+04  0.50400001928E-02 0.  1.
        1   -1    0    0  501    0  0.00000000000E+00  0.00000000000E+00 -0.75731231187E+03  0.75731231188E+03  0.50400001928E-02 0. -1.
    10030    2    1    2    0    0  0.00000000000E+00  0.00000000000E+00  0.20378180213E+04  0.35524426450E+04  0.29098361566E+04 0.  0.
        1    1    3    3  502    0 -0.51464161515E+03 -0.27053400872E+03 -0.60931822686E+03  0.84220742311E+03  0.50400001928E-02 0. -1.
       -1    1    3    3    0  502  0.51464161515E+03  0.27053400872E+03  0.26471362482E+04  0.27102352219E+04  0.50400001928E-02 0.  1.
</event>
<event>
 5   0  0.5730920E-06  0.3007463E+04  0.7818609E-02  0.8241603E-01
        1   -1    0    0  501    0  0.00000000000E+00  0.00000000000E+00  0.26774570635E+04  0.26774570635E+04  0.50400001928E-02 0.  1.
       -1   -1    0    0    0  501  0.00000000000E+00  0.00000000000E+00 -0.84453609363E+03  0.84453609364E+03  0.50400001928E-02 0. -1.
    10030    2    1    2    0    0  0.00000000000E+00  0.00000000000E+00  0.18329209699E+04  0.35219931571E+04  0.30074634690E+04 0.  0.
        1    1    3    3  502    0 -0.11059231340E+04  0.94781236348E+03  0.47860199857E+03  0.15331256073E+04  0.50400001928E-02 0. -1.
       -1    1    3    3    0  502  0.11059231340E+04 -0.94781236348E+03  0.13543189713E+04  0.19888675498E+04  0.50400001928E-02 0.  1.
</event>
<event>
 5   0  0.5392262E-06  0.2973796E+04  0.7818609E-02  0.8251253E-01
        1   -1    0    0  501    0  0.00000000000E+00  0.00000000000E+00  0.19046837765E+04  0.19046837765E+04  0.50400001928E-02 0. -1.
       -1   -1    0    0    0  501  0.00000000000E+00  0.00000000000E+00 -0.11607520042E+04  0.11607520042E+04  0.50400001928E-02 0.  1.
    10030    2    1    2    0    0  0.00000000000E+00  0.00000000000E+00  0.74393177226E+03  0.30654357807E+04  0.29737958982E+04 0.  0.
        2    1    3    3  502    0  0.67730730109E+03  0.61075902228E+03 -0.83857080952E+03  0.12389401785E+04  0.25500000920E-02 0.  1.
       -2    1    3    3    0  502 -0.67730730109E+03 -0.61075902228E+03  0.15825025818E+04  0.18264956022E+04  0.25500000920E-02 0. -1.
</event>
<event>
 5   0  0.5329891E-06  0.3029905E+04  0.7818609E-02  0.8235242E-01
        1   -1    0    0  501    0  0.00000000000E+00  0.00000000000E+00  0.96268885906E+03  0.96268885907E+03  0.50400001928E-02 0.  1.
       -1   -1    0    0    0  501  0.00000000000E+00  0.00000000000E+00 -0.23840323892E+04  0.23840323892E+04  0.50400001928E-02 0. -1.
    10030    2    1    2    0    0  0.00000000000E+00  0.00000000000E+00 -0.14213435301E+04  0.33467212483E+04  0.30299052267E+04 0.  0.
        4    1    3    3  502    0  0.43501785712E+03  0.14354055334E+04 -0.94615420227E+03  0.17733693831E+04  0.12699999809E+01 0. -1.
       -4    1    3    3    0  502 -0.43501785712E+03 -0.14354055334E+04 -0.47518932785E+03  0.15733518652E+04  0.12699999809E+01 0.  1.
</event>
<event>
 5   0  0.1345931E-05  0.3088730E+04  0.7818609E-02  0.8218838E-01
        2   -1    0    0  501    0  0.00000000000E+00  0.00000000000E+00  0.10808254189E+04  0.10808254189E+04  0.25500000920E-02 0.  1.
       -2   -1    0    0    0  501  0.00000000000E+00  0.00000000000E+00 -0.22067058477E+04  0.22067058477E+04  0.25500000920E-02 0. -1.
    10030    2    1    2    0    0  0.00000000000E+00  0.00000000000E+00 -0.11258804288E+04  0.32875312666E+04  0.30887303361E+04 0.  0.
        2    1    3    3  502    0 -0.59988905327E+03  0.34440871602E+03  0.90672143549E+03  0.11404507887E+04  0.25500000920E-02 0.  1.
       -2    1    3    3    0  502  0.59988905327E+03 -0.34440871602E+03 -0.20326018643E+04  0.21470804779E+04  0.25500000920E-02 0. -1.
</event>
<event>
 5   0  0.5392262E-06  0.2976575E+04  0.7818609E-02  0.8250452E-01
        1   -1    0    0  501    0  0.00000000000E+00  0.00000000000E+00  0.22632694019E+04  0.22632694019E+04  0.50400001928E-02 0. -1.
       -1   -1    0    0    0  501  0.00000000000E+00  0.00000000000E+00 -0.97867236469E+03  0.97867236471E+03  0.50400001928E-02 0.  1.
    10030    2    1    2    0    0  0.00000000000E+00  0.00000000000E+00  0.12845970372E+04  0.32419417666E+04  0.29765746875E+04 0.  0.
        2    1    3    3  502    0  0.66775700743E+03  0.93289069850E+02 -0.80278759771E+03  0.10483654890E+04  0.25500000920E-02 0.  1.
       -2    1    3    3    0  502 -0.66775700743E+03 -0.93289069850E+02  0.20873846349E+04  0.21935762776E+04  0.25500000920E-02 0. -1.
</event>
<event>
 5   0  0.7032692E-06  0.3001567E+04  0.7818609E-02  0.8243284E-01
        1   -1    0    0  501    0  0.00000000000E+00  0.00000000000E+00  0.11746468942E+04  0.11746468943E+04  0.50400001928E-02 0. -1.
       -1   -1    0    0    0  501  0.00000000000E+00  0.00000000000E+00 -0.19174710636E+04  0.19174710636E+04  0.50400001928E-02 0.  1.
    10030    2    1    2    0    0  0.00000000000E+00  0.00000000000E+00 -0.74282416939E+03  0.30921179579E+04  0.30015672105E+04 0.  0.
        5    1    3    3  502    0  0.26239087154E+03  0.45578592147E+03 -0.18194263117E+04  0.18939176247E+04  0.46999998093E+01 0.  1.
       -5    1    3    3    0  502 -0.26239087154E+03 -0.45578592147E+03  0.10766021423E+04  0.11982003332E+04  0.46999998093E+01 0. -1.
</event>
<event>
 5   0  0.1388724E-05  0.3058990E+04  0.7818609E-02  0.8227084E-01
        2   -1    0    0  501    0  0.00000000000E+00  0.00000000000E+00  0.11950390192E+04  0.11950390192E+04  0.25500000920E-02 0.  1.
       -2   -1    0    0    0  501  0.00000000000E+00  0.00000000000E+00 -0.19575547625E+04  0.19575547625E+04  0.25500000920E-02 0. -1.
    10030    2    1    2    0    0  0.00000000000E+00  0.00000000000E+00 -0.76251574325E+03  0.31525937817E+04  0.30589895870E+04 0.  0.
        4    1    3    3  502    0 -0.48482437415E+03  0.46271122456E+03  0.10356560818E+04  0.12335888634E+04  0.12699999809E+01 0.  1.
       -4    1    3    3    0  502  0.48482437415E+03 -0.46271122456E+03 -0.17981718251E+04  0.19190049183E+04  0.12699999809E+01 0. -1.
</event>
<event>
 5   0  0.1480547E-05  0.2794874E+04  0.7818609E-02  0.8304862E-01
        2   -1    0    0  501    0  0.00000000000E+00  0.00000000000E+00  0.16747028023E+04  0.16747028023E+04  0.25500000920E-02 0.  1.
       -2   -1    0    0    0  501  0.00000000000E+00  0.00000000000E+00 -0.11660754717E+04  0.11660754717E+04  0.25500000920E-02 0. -1.
    10030    2    1    2    0    0  0.00000000000E+00  0.00000000000E+00  0.50862733064E+03  0.28407782740E+04  0.27948737790E+04 0.  0.
        1    1    3    3  502    0 -0.67178220787E+03  0.12178985612E+04  0.11695856564E+03  0.13957963843E+04  0.50400001928E-02 0.  1.
       -1    1    3    3    0  502  0.67178220787E+03 -0.12178985612E+04  0.39166876500E+03  0.14449818898E+04  0.50400001928E-02 0. -1.
</event>
<event>
 5   0  0.1345931E-05  0.3130919E+04  0.7818609E-02  0.8207303E-01
        2   -1    0    0  501    0  0.00000000000E+00  0.00000000000E+00  0.31640150404E+04  0.31640150404E+04  0.25500000920E-02 0.  1.
       -2   -1    0    0    0  501  0.00000000000E+00  0.00000000000E+00 -0.77454214289E+03  0.77454214289E+03  0.25500000920E-02 0. -1.
    10030    2    1    2    0    0  0.00000000000E+00  0.00000000000E+00  0.23894728975E+04  0.39385571833E+04  0.31309187083E+04 0.  0.
        2    1    3    3  502    0 -0.66631855085E+03  0.92501912472E+03  0.25443431100E+04  0.27880679069E+04  0.25500000920E-02 0.  1.
       -2    1    3    3    0  502  0.66631855085E+03 -0.92501912472E+03 -0.15487021247E+03  0.11504892764E+04  0.25500000920E-02 0. -1.
</event>
<event>
 5   0  0.1523029E-05  0.3005453E+04  0.7818609E-02  0.8242175E-01
       -2   -1    0    0    0  501  0.00000000000E+00  0.00000000000E+00  0.15799023636E+04  0.15799023636E+04  0.25500000920E-02 0. -1.
        2   -1    0    0  501    0  0.00000000000E+00  0.00000000000E+00 -0.14293207299E+04  0.14293207299E+04  0.25500000920E-02 0.  1.
    10030    2    1    2    0    0  0.00000000000E+00  0.00000000000E+00  0.15058163378E+03  0.30092230935E+04  0.30054531768E+04 0.  0.
        5    1    3    3  502    0  0.13538920794E+04 -0.40440383681E+02 -0.57629881265E+03  0.14720059778E+04  0.46999998093E+01 0.  1.
       -5    1    3    3    0  502 -0.13538920794E+04  0.40440383681E+02  0.72688044643E+03  0.15372171157E+04  0.46999998093E+01 0. -1.
</event>
<event>
 5   0  0.5329891E-06  0.2900536E+04  0.7818609E-02  0.8272718E-01
       -1   -1    0    0    0  501  0.00000000000E+00  0.00000000000E+00  0.15922567226E+04  0.15922567226E+04  0.50400001928E-02 0. -1.
        1   -1    0    0  501    0  0.00000000000E+00  0.00000000000E+00 -0.13209413570E+04  0.13209413570E+04  0.50400001928E-02 0.  1.
    10030    2    1    2    0    0  0.00000000000E+00  0.00000000000E+00  0.27131536556E+03  0.29131980796E+04  0.29005363338E+04 0.  0.
        4    1    3    3  502    0 -0.11762971437E+04 -0.74674911912E+03  0.53986565451E+03  0.14942442087E+04  0.12699999809E+01 0. -1.
       -4    1    3    3    0  502  0.11762971437E+04  0.74674911912E+03 -0.26855028896E+03  0.14189538709E+04  0.12699999809E+01 0.  1.
</event>
<event>
 5   0  0.1480547E-05  0.3093481E+04  0.7818609E-02  0.8217529E-01
        2   -1    0    0  501    0  0.00000000000E+00  0.00000000000E+00  0.16857709292E+04  0.16857709292E+04  0.25500000920E-02 0. -1.
       -2   -1    0    0    0  501  0.00000000000E+00  0.00000000000E+00 -0.14191762466E+04  0.14191762466E+04  0.25500000920E-02 0.  1.
    10030    2    1    2    0    0  0.00000000000E+00  0.00000000000E+00  0.26659468263E+03  0.31049471758E+04  0.30934809260E+04 0.  0.
        1    1    3    3  502    0  0.97762974291E+03 -0.67830386372E+03 -0.85857097750E+03  0.14673105224E+04  0.50400001928E-02 0.  1.
       -1    1    3    3    0  502 -0.97762974291E+03  0.67830386372E+03  0.11251656601E+04  0.16376366534E+04  0.50400001928E-02 0. -1.
</event>
<event>
 5   0  0.5730920E-06  0.1580502E+04  0.7818609E-02  0.8832617E-01
        1   -1    0    0  501    0  0.00000000000E+00  0.00000000000E+00  0.13659246030E+04  0.13659246030E+04  0.50400001928E-02 0. -1.
       -1   -1    0    0    0  501  0.00000000000E+00  0.00000000000E+00 -0.45719706185E+03  0.45719706187E+03  0.50400001928E-02 0.  1.
    10030    2    1    2    0    0  0.00000000000E+00  0.00000000000E+00  0.90872754119E+03  0.18231216649E+04  0.15805020914E+04 0.  0.
        1    1    3    3  502    0  0.32453373703E+03 -0.62372439793E+03  0.87049475763E+03  0.11189796219E+04  0.50400001928E-02 0. -1.
       -1    1    3    3    0  502 -0.32453373703E+03  0.62372439793E+03  0.38232783559E+02  0.70414204306E+03  0.50400001928E-02 0.  1.
</event>
<event>
 5   0  0.5392262E-06  0.2236914E+04  0.7818609E-02  0.8503219E-01
        1   -1    0    0  501    0  0.00000000000E+00  0.00000000000E+00  0.99553874704E+03  0.99553874706E+03  0.50400001928E-02 0. -1.
       -1   -1    0    0    0  501  0.00000000000E+00  0.00000000000E+00 -0.12565516821E+04  0.12565516821E+04  0.50400001928E-02 0.  1.
    10030    2    1    2    0    0  0.00000000000E+00  0.00000000000E+00 -0.26101293509E+03  0.22520904292E+04  0.22369138448E+04 0.  0.
        2    1    3    3  502    0  0.80429996421E+03  0.49841907778E+03 -0.73089618443E+03  0.11956292243E+04  0.25500000920E-02 0.  1.
       -2    1    3    3    0  502 -0.80429996421E+03 -0.49841907778E+03  0.46988324934E+03  0.10564612049E+04  0.25500000920E-02 0. -1.
</event>
<event>
 5   0  0.5730920E-06  0.2972127E+04  0.7818609E-02  0.8251735E-01
       -1   -1    0    0    0  501  0.00000000000E+00  0.00000000000E+00  0.10783897680E+04  0.10783897680E+04  0.50400001928E-02 0. -1.
        1   -1    0    0  501    0  0.00000000000E+00  0.00000000000E+00 -0.20478535774E+04  0.20478535774E+04  0.50400001928E-02 0.  1.
    10030    2    1    2    0    0  0.00000000000E+00  0.00000000000E+00 -0.96946380943E+03  0.31262433454E+04  0.29721267430E+04 0.  0.
        1    1    3    3  502    0 -0.92352835811E+03 -0.55584560749E+03  0.59130771350E+03  0.12294363667E+04  0.50400001928E-02 0. -1.
       -1    1    3    3    0  502  0.92352835811E+03  0.55584560749E+03 -0.15607715229E+04  0.18968069787E+04  0.50400001928E-02 0.  1.
</event>
<event>
 5   0  0.7032692E-06  0.3012126E+04  0.7818609E-02  0.8240277E-01
        1   -1    0    0  501    0  0.00000000000E+00  0.00000000000E+00  0.17611016931E+04  0.17611016932E+04  0.50400001928E-02 0. -1.
       -1   -1    0    0    0  501  0.00000000000E+00  0.00000000000E+00 -0.12879581505E+04  0.12879581505E+04  0.50400001928E-02 0.  1.
    10030    2    1    2    0    0  0.00000000000E+00  0.00000000000E+00  0.47314354264E+03  0.30490598437E+04  0.30121256810E+04 0.  0.
        5    1    3    3  502    0  0.32056057706E+03 -0.12118887480E+04 -0.60839087251E+03  0.13934112691E+04  0.46999998093E+01 0.  1.
       -5    1    3    3    0  502 -0.32056057706E+03  0.12118887480E+04  0.10815344151E+04  0.16556485745E+04  0.46999998093E+01 0. -1.
</event>
<event>
 5   0  0.5392262E-06  0.3121200E+04  0.7818609E-02  0.8209944E-01
       -1   -1    0    0    0  501  0.00000000000E+00  0.00000000000E+00  0.23820776968E+04  0.23820776968E+04  0.50400001928E-02 0. -1.
        1   -1    0    0  501    0  0.00000000000E+00  0.00000000000E+00 -0.10224148431E+04  0.10224148431E+04  0.50400001928E-02 0.  1.
    10030    2    1    2    0    0  0.00000000000E+00  0.00000000000E+00  0.13596628537E+04  0.34044925400E+04  0.31211995096E+04 0.  0.
        2    1    3    3  502    0 -0.14932437066E+03  0.17082714913E+03  0.23639910289E+04  0.23748543676E+04  0.25500000920E-02 0. -1.
       -2    1    3    3    0  502  0.14932437066E+03 -0.17082714913E+03 -0.10043281752E+04  0.10296381724E+04  0.25500000920E-02 0.  1.
</event>
<event>
 5   0  0.1480547E-05  0.2816178E+04  0.7818609E-02  0.8298263E-01
        2   -1    0    0  501    0  0.00000000000E+00  0.00000000000E+00  0.21222428089E+04  0.21222428089E+04  0.25500000920E-02 0.  1.
       -2   -1    0    0    0  501  0.00000000000E+00  0.00000000000E+00 -0.93425454556E+03  0.93425454557E+03  0.25500000920E-02 0. -1.
    10030    2    1    2    0    0  0.00000000000E+00  0.00000000000E+00  0.11879882633E+04  0.30564973545E+04  0.28161782550E+04 0.  0.
        1    1    3    3  502    0 -0.32521978289E+03  0.12803793213E+04  0.11230055602E+04  0.17338629132E+04  0.50400001928E-02 0. -1.
       -1    1    3    3    0  502  0.32521978289E+03 -0.12803793213E+04  0.64982703183E+02  0.13226344413E+04  0.50400001928E-02 0.  1.
</event>
<event>
 5   0  0.1423692E-05  0.2993341E+04  0.7818609E-02  0.8245635E-01
        2   -1    0    0  501    0  0.00000000000E+00  0.00000000000E+00  0.15943186895E+04  0.15943186895E+04  0.25500000920E-02 0. -1.
       -2   -1    0    0    0  501  0.00000000000E+00  0.00000000000E+00 -0.14050029327E+04  0.14050029327E+04  0.25500000920E-02 0.  1.
    10030    2    1    2    0    0  0.00000000000E+00  0.00000000000E+00  0.18931575673E+03  0.29993216222E+04  0.29933408990E+04 0.  0.
        3    1    3    3  502    0 -0.38948125160E+03  0.68170942615E+03  0.13714090095E+04  0.15802487363E+04  0.10100000352E+00 0. -1.
       -3    1    3    3    0  502  0.38948125160E+03 -0.68170942615E+03 -0.11820932528E+04  0.14190728859E+04  0.10100000352E+00 0.  1.
</event>
<event>
 5   0  0.5730920E-06  0.1570836E+04  0.7818609E-02  0.8838668E-01
       -1   -1    0    0    0  501  0.00000000000E+00  0.00000000000E+00  0.59554513990E+03  0.59554513992E+03  0.50400001928E-02 0.  1.
        1   -1    0    0  501    0  0.00000000000E+00  0.00000000000E+00 -0.10358266507E+04  0.10358266508E+04  0.50400001928E-02 0. -1.
    10030    2    1    2    0    0  0.00000000000E+00  0.00000000000E+00 -0.44028151085E+03  0.16313717907E+04  0.15708361183E+04 0.  0.
        1    1    3    3  502    0  0.50352317606E+03  0.10531705880E+03 -0.83652310548E+03  0.98203776798E+03  0.50400001928E-02 0. -1.
       -1    1    3    3    0  502 -0.50352317606E+03 -0.10531705880E+03  0.39624159463E+03  0.64933402271E+03  0.50400001928E-02 0.  1.
</event>
<event>
 5   0  0.5392262E-06  0.1815459E+04  0.7818609E-02  0.8698122E-01
        1   -1    0    0  501    0  0.00000000000E+00  0.00000000000E+00  0.77133351510E+03  0.77133351512E+03  0.50400001928E-02 0.  1.
       -1   -1    0    0    0  501  0.00000000000E+00  0.00000000000E+00 -0.10682443644E+04  0.10682443644E+04  0.50400001928E-02 0. -1.
    10030    2    1    2    0    0  0.00000000000E+00  0.00000000000E+00 -0.29691084933E+03  0.18395778796E+04  0.18154588187E+04 0.  0.
        2    1    3    3  502    0  0.32062349648E+02  0.48745946899E+03 -0.92368692074E+03  0.10449125589E+04  0.25500000920E-02 0. -1.
       -2    1    3    3    0  502 -0.32062349648E+02 -0.48745946899E+03  0.62677607141E+03  0.79466532067E+03  0.25500000920E-02 0.  1.
</event>
<event>
 5   0  0.5730920E-06  0.3019446E+04  0.7818609E-02  0.8238200E-01
        1   -1    0    0  501    0  0.00000000000E+00  0.00000000000E+00  0.15160997674E+04  0.15160997674E+04  0.50400001928E-02 0.  1.
       -1   -1    0    0    0  501  0.00000000000E+00  0.00000000000E+00 -0.15033727169E+04  0.15033727169E+04  0.50400001928E-02 0. -1.
    10030    2    1    2    0    0  0.00000000000E+00  0.00000000000E+00  0.12727050565E+02  0.30194724843E+04  0.30194456620E+04 0.  0.
        1    1    3    3  502    0 -0.55192794830E+03 -0.13889156710E+04 -0.20706710638E+03  0.15088366339E+04  0.50400001928E-02 0. -1.
       -1    1    3    3    0  502  0.55192794830E+03  0.13889156710E+04  0.21979415695E+03  0.15106358504E+04  0.50400001928E-02 0.  1.
</event>
<event>
 5   0  0.5392262E-06  0.3019006E+04  0.7818609E-02  0.8238324E-01
        1   -1    0    0  501    0  0.00000000000E+00  0.00000000000E+00  0.20299909383E+04  0.20299909383E+04  0.50400001928E-02 0.  1.
       -1   -1    0    0    0  501  0.00000000000E+00  0.00000000000E+00 -0.11224678341E+04  0.11224678341E+04  0.50400001928E-02 0. -1.
    10030    2    1    2    0    0  0.00000000000E+00  0.00000000000E+00  0.90752310419E+03  0.31524587724E+04  0.30190061489E+04 0.  0.
        2    1    3    3  502    0  0.21627107381E+03  0.25759627200E+03  0.19903641229E+04  0.20185832552E+04  0.25500000920E-02 0.  1.
       -2    1    3    3    0  502 -0.21627107381E+03 -0.25759627200E+03 -0.10828410187E+04  0.11338755172E+04  0.25500000920E-02 0. -1.
</event>
<event>
 5   0  0.5522695E-06  0.2461665E+04  0.7818609E-02  0.8416771E-01
        1   -1    0    0  501    0  0.00000000000E+00  0.00000000000E+00  0.11721056147E+04  0.11721056147E+04  0.50400001928E-02 0. -1.
       -1   -1    0    0    0  501  0.00000000000E+00  0.00000000000E+00 -0.12925017869E+04  0.12925017869E+04  0.50400001928E-02 0.  1.
    10030    2    1    2    0    0  0.00000000000E+00  0.00000000000E+00 -0.12039617216E+03  0.24646074016E+04  0.24616649662E+04 0.  0.
        3    1    3    3  502    0 -0.32200844878E+03  0.96886778624E+03  0.62804949251E+03  0.11986827785E+04  0.10100000352E+00 0. -1.
       -3    1    3    3    0  502  0.32200844878E+03 -0.96886778624E+03 -0.74844566466E+03  0.12659246231E+04  0.10100000352E+00 0.  1.
</event>
<event>
 5   0  0.1480547E-05  0.1562194E+04  0.7818609E-02  0.8844116E-01
        2   -1    0    0  501    0  0.00000000000E+00  0.00000000000E+00  0.24064521444E+04  0.24064521444E+04  0.25500000920E-02 0. -1.
       -2   -1    0    0    0  501  0.00000000000E+00  0.00000000000E+00 -0.25353206207E+03  0.25353206208E+03  0.25500000920E-02 0.  1.
    10030    2    1    2    0    0  0.00000000000E+00  0.00000000000E+00  0.21529200824E+04  0.26599842065E+04  0.15621943214E+04 0.  0.
        1    1    3    3  502    0  0.73861480802E+03  0.24101548539E+03  0.12134469971E+04  0.14408656820E+04  0.50400001928E-02 0. -1.
       -1    1    3    3    0  502 -0.73861480802E+03 -0.24101548539E+03  0.93947308529E+03  0.12191185245E+04  0.50400001928E-02 0.  1.
</event>
<event>
 5   0  0.1203973E-05  0.1495157E+04  0.7818609E-02  0.8887680E-01
       -1   -1    0    0    0  501  0.00000000000E+00  0.00000000000E+00  0.73058168535E+03  0.73058168537E+03  0.50400001928E-02 0. -1.
        1   -1    0    0  501    0  0.00000000000E+00  0.00000000000E+00 -0.76497100239E+03  0.76497100241E+03  0.50400001928E-02 0.  1.
    10030    2    1    2    0    0  0.00000000000E+00  0.00000000000E+00 -0.34389317035E+02  0.14955526878E+04  0.14951572549E+04 0.  0.
        5    1    3    3  502    0 -0.78168454839E+02  0.43116268418E+02  0.72521615964E+03  0.73070506234E+03  0.46999998093E+01 0. -1.
       -5    1    3    3    0  502  0.78168454839E+02 -0.43116268418E+02 -0.75960547668E+03  0.76484762543E+03  0.46999998093E+01 0.  1.
</event>
<event>
 5   0  0.1345931E-05  0.2830075E+04  0.7818609E-02  0.8293992E-01
       -2   -1    0    0    0  501  0.00000000000E+00  0.00000000000E+00  0.94903659430E+03  0.94903659431E+03  0.25500000920E-02 0.  1.
        2   -1    0    0  501    0  0.00000000000E+00  0.00000000000E+00 -0.21098567146E+04  0.21098567146E+04  0.25500000920E-02 0. -1.
    10030    2    1    2    0    0  0.00000000000E+00  0.00000000000E+00 -0.11608201203E+04  0.30588933090E+04  0.28300750739E+04 0.  0.
        2    1    3    3  502    0  0.12497459044E+04  0.27142776114E+03  0.74191619213E+02  0.12810317137E+04  0.25500000920E-02 0.  1.
       -2    1    3    3    0  502 -0.12497459044E+04 -0.27142776114E+03 -0.12350117396E+04  0.17778615953E+04  0.25500000920E-02 0. -1.
</event>
<event>
 5   0  0.5392262E-06  0.2461362E+04  0.7818609E-02  0.8416881E-01
        1   -1    0    0  501    0  0.00000000000E+00  0.00000000000E+00  0.11077972681E+04  0.11077972681E+04  0.50400001928E-02 0. -1.
       -1   -1    0    0    0  501  0.00000000000E+00  0.00000000000E+00 -0.13671953720E+04  0.13671953720E+04  0.50400001928E-02 0.  1.
    10030    2    1    2    0    0  0.00000000000E+00  0.00000000000E+00 -0.25939810393E+03  0.24749926401E+04  0.24613616541E+04 0.  0.
        2    1    3    3  502    0  0.57711593300E+03 -0.49954335155E+03 -0.11004307256E+04  0.13392364026E+04  0.25500000920E-02 0.  1.
       -2    1    3    3    0  502 -0.57711593300E+03  0.49954335155E+03  0.84103262170E+03  0.11357562375E+04  0.25500000920E-02 0. -1.
</event>
<event>
 5   0  0.1423692E-05  0.3015302E+04  0.7818609E-02  0.8239375E-01
        2   -1    0    0  501    0  0.00000000000E+00  0.00000000000E+00  0.15654895894E+04  0.15654895894E+04  0.25500000920E-02 0.  1.
       -2   -1    0    0    0  501  0.00000000000E+00  0.00000000000E+00 -0.14519491197E+04  0.14519491197E+04  0.25500000920E-02 0. -1.
    10030    2    1    2    0    0  0.00000000000E+00  0.00000000000E+00  0.11354046968E+03  0.30174387091E+04  0.30153017967E+04 0.  0.
        3    1    3    3  502    0  0.53909339662E+03 -0.86284475990E+02  0.14630933685E+04  0.15616366147E+04  0.10100000352E+00 0.  1.
       -3    1    3    3    0  502 -0.53909339662E+03  0.86284475990E+02 -0.13495528989E+04  0.14558020944E+04  0.10100000352E+00 0. -1.
</event>
<event>
 5   0  0.5730920E-06  0.2984504E+04  0.7818609E-02  0.8248170E-01
       -1   -1    0    0    0  501  0.00000000000E+00  0.00000000000E+00  0.95728787214E+03  0.95728787216E+03  0.50400001928E-02 0. -1.
        1   -1    0    0  501    0  0.00000000000E+00  0.00000000000E+00 -0.23261725078E+04  0.23261725078E+04  0.50400001928E-02 0.  1.
    10030    2    1    2    0    0  0.00000000000E+00  0.00000000000E+00 -0.13688846356E+04  0.32834603799E+04  0.29845044682E+04 0.  0.
        1    1    3    3  502    0  0.14294888824E+03 -0.14805254880E+04 -0.55230000020E+03  0.15866396552E+04  0.50400001928E-02 0.  1.
       -1    1    3    3    0  502 -0.14294888824E+03  0.14805254880E+04 -0.81658463544E+03  0.16968207248E+04  0.50400001928E-02 0. -1.
</event>
<event>
 5   0  0.1423692E-05  0.2994644E+04  0.7818609E-02  0.8245262E-01
        2   -1    0    0  501    0  0.00000000000E+00  0.00000000000E+00  0.74824683471E+03  0.74824683471E+03  0.25500000920E-02 0.  1.
       -2   -1    0    0    0  501  0.00000000000E+00  0.00000000000E+00 -0.29963024841E+04  0.29963024841E+04  0.25500000920E-02 0. -1.
    10030    2    1    2    0    0  0.00000000000E+00  0.00000000000E+00 -0.22480556494E+04  0.37445493188E+04  0.29946444527E+04 0.  0.
        3    1    3    3  502    0  0.15200412386E+03 -0.44101660533E+03 -0.29031245063E+04  0.29403627003E+04  0.10100000352E+00 0. -1.
       -3    1    3    3    0  502 -0.15200412386E+03  0.44101660533E+03  0.65506885694E+03  0.80418661851E+03  0.10100000352E+00 0.  1.
</event>
<event>
 5   0  0.5522695E-06  0.3038595E+04  0.7818609E-02  0.8232795E-01
       -1   -1    0    0    0  501  0.00000000000E+00  0.00000000000E+00  0.13169905319E+04  0.13169905319E+04  0.50400001928E-02 0.  1.
        1   -1    0    0  501    0  0.00000000000E+00  0.00000000000E+00 -0.17526818679E+04  0.17526818679E+04  0.50400001928E-02 0. -1.
    10030    2    1    2    0    0  0.00000000000E+00  0.00000000000E+00 -0.43569133605E+03  0.30696723998E+04  0.30385953501E+04 0.  0.
        3    1    3    3  502    0 -0.11918540426E+04 -0.26870497645E+03  0.69446689542E+03  0.14053478937E+04  0.10100000352E+00 0.  1.
       -3    1    3    3    0  502  0.11918540426E+04  0.26870497645E+03 -0.11301582315E+04  0.16643245061E+04  0.10100000352E+00 0. -1.
</event>
<event>
 5   0  0.7032692E-06  0.3029359E+04  0.7818609E-02  0.8235397E-01
       -1   -1    0    0    0  501  0.00000000000E+00  0.00000000000E+00  0.13228533553E+04  0.13228533553E+04  0.50400001928E-02 0.  1.
        1   -1    0    0  501    0  0.00000000000E+00  0.00000000000E+00 -0.17343226046E+04  0.17343226046E+04  0.50400001928E-02 0. -1.
    10030    2    1    2    0    0  0.00000000000E+00  0.00000000000E+00 -0.41146924927E+03  0.30571759599E+04  0.30293593228E+04 0.  0.
        5    1    3    3  502    0 -0.14972503628E+03  0.12165005165E+02 -0.17267792750E+04  0.17333073381E+04  0.46999998093E+01 0. -1.
       -5    1    3    3    0  502  0.14972503628E+03 -0.12165005165E+02  0.13153100257E+04  0.13238686217E+04  0.46999998093E+01 0.  1.
</event>
<event>
 5   0  0.5522695E-06  0.1989599E+04  0.7818609E-02  0.8611499E-01
       -1   -1    0    0    0  501  0.00000000000E+00  0.00000000000E+00  0.11207324808E+04  0.11207324808E+04  0.50400001928E-02 0. -1.
        1   -1    0    0  501    0  0.00000000000E+00  0.00000000000E+00 -0.88301705945E+03  0.88301705946E+03  0.50400001928E-02 0.  1.
    10030    2    1    2    0    0  0.00000000000E+00  0.00000000000E+00  0.23771542138E+03  0.20037495403E+04  0.19895988537E+04 0.  0.
        3    1    3    3  502    0 -0.77135036000E+03 -0.53836360610E+03 -0.20718724895E+03  0.96319432960E+03  0.10100000352E+00 0. -1.
       -3    1    3    3    0  502  0.77135036000E+03  0.53836360610E+03  0.44490267033E+03  0.10405552107E+04  0.10100000352E+00 0.  1.
</event>
<event>
 5   0  0.1523029E-05  0.2859496E+04  0.7818609E-02  0.8285032E-01
       -2   -1    0    0    0  501  0.00000000000E+00  0.00000000000E+00  0.10541668441E+04  0.10541668441E+04  0.25500000920E-02 0.  1.
        2   -1    0    0  501    0  0.00000000000E+00  0.00000000000E+00 -0.19391423907E+04  0.19391423907E+04  0.25500000920E-02 0. -1.
    10030    2    1    2    0    0  0.00000000000E+00  0.00000000000E+00 -0.88497554663E+03  0.29933092349E+04  0.28594961894E+04 0.  0.
        5    1    3    3  502    0 -0.12349388573E+04 -0.62999000418E+03 -0.80841169611E+03  0.16048404740E+04  0.46999998093E+01 0. -1.
       -5    1    3    3    0  502  0.12349388573E+04  0.62999000418E+03 -0.76563850522E+02  0.13884687608E+04  0.46999998093E+01 0.  1.
</event>
<event>
 5   0  0.1480547E-05  0.2804148E+04  0.7818609E-02  0.8301982E-01
        2   -1    0    0  501    0  0.00000000000E+00  0.00000000000E+00  0.84911128146E+03  0.84911128147E+03  0.25500000920E-02 0. -1.
       -2   -1    0    0    0  501  0.00000000000E+00  0.00000000000E+00 -0.23151408224E+04  0.23151408224E+04  0.25500000920E-02 0.  1.
    10030    2    1    2    0    0  0.00000000000E+00  0.00000000000E+00 -0.14660295409E+04  0.31642521038E+04  0.28041484914E+04 0.  0.
        1    1    3    3  502    0  0.10921325205E+04  0.76358520618E+03 -0.12248761620E+04  0.18100103375E+04  0.50400001928E-02 0. -1.
       -1    1    3    3    0  502 -0.10921325205E+04 -0.76358520618E+03 -0.24115337887E+03  0.13542417663E+04  0.50400001928E-02 0.  1.
</event>
<event>
 5   0  0.1480547E-05  0.3047742E+04  0.7818609E-02  0.8230228E-01
       -2   -1    0    0    0  501  0.00000000000E+00  0.00000000000E+00  0.10999412726E+04  0.10999412726E+04  0.25500000920E-02 0. -1.
        2   -1    0    0  501    0  0.00000000000E+00  0.00000000000E+00 -0.21111879537E+04  0.21111879537E+04  0.25500000920E-02 0.  1.
    10030    2    1    2    0    0  0.00000000000E+00  0.00000000000E+00 -0.10112466810E+04  0.32111292263E+04  0.30477419605E+04 0.  0.
        1    1    3    3  502    0  0.14381506079E+04 -0.49876695515E+03 -0.58113940677E+03  0.16293460825E+04  0.50400001928E-02 0. -1.
       -1    1    3    3    0  502 -0.14381506079E+04  0.49876695515E+03 -0.43010727426E+03  0.15817831438E+04  0.50400001928E-02 0.  1.
</event>
<event>
 5   0  0.5392262E-06  0.2924642E+04  0.7818609E-02  0.8265583E-01
       -1   -1    0    0    0  501  0.00000000000E+00  0.00000000000E+00  0.11646203763E+04  0.11646203763E+04  0.50400001928E-02 0.  1.
        1   -1    0    0  501    0  0.00000000000E+00  0.00000000000E+00 -0.18361205345E+04  0.18361205345E+04  0.50400001928E-02 0. -1.
    10030    2    1    2    0    0  0.00000000000E+00  0.00000000000E+00 -0.67150015821E+03  0.30007409109E+04  0.29246424656E+04 0.  0.
        2    1    3    3  502    0  0.84212036468E+03 -0.29438780909E+01  0.89085127246E+03  0.12258839116E+04  0.25500000920E-02 0.  1.
       -2    1    3    3    0  502 -0.84212036468E+03  0.29438780909E+01 -0.15623514307E+04  0.17748569993E+04  0.25500000920E-02 0. -1.
</event>
<event>
 5   0  0.4806125E-06  0.2999312E+04  0.7818609E-02  0.8243928E-01
       -4   -1    0    0    0  501  0.00000000000E+00  0.00000000000E+00  0.11012477258E+04  0.11012484581E+04  0.12699999809E+01 0. -1.
        4   -1    0    0  501    0  0.00000000000E+00  0.00000000000E+00 -0.20421977892E+04  0.20421981841E+04  0.12699999809E+01 0.  1.
    10030    2    1    2    0    0  0.00000000000E+00  0.00000000000E+00 -0.94095006332E+03  0.31434466422E+04  0.29993115494E+04 0.  0.
        1    1    3    3  502    0  0.20642736965E+03 -0.96517915336E+02 -0.20239470792E+04  0.20367350703E+04  0.50400001928E-02 0.  1.
       -1    1    3    3    0  502 -0.20642736965E+03  0.96517915336E+02  0.10829970159E+04  0.11067115719E+04  0.50400001928E-02 0. -1.
</event>
<event>
 5   0  0.1345931E-05  0.2916407E+04  0.7818609E-02  0.8268013E-01
       -2   -1    0    0    0  501  0.00000000000E+00  0.00000000000E+00  0.89201106135E+03  0.89201106135E+03  0.25500000920E-02 0.  1.
        2   -1    0    0  501    0  0.00000000000E+00  0.00000000000E+00 -0.23837785938E+04  0.23837785938E+04  0.25500000920E-02 0. -1.
    10030    2    1    2    0    0  0.00000000000E+00  0.00000000000E+00 -0.14917675325E+04  0.32757896552E+04  0.29164066064E+04 0.  0.
        2    1    3    3  502    0  0.19430136518E+03  0.99858350822E+03  0.42757231028E+03  0.11035126297E+04  0.25500000920E-02 0.  1.
       -2    1    3    3    0  502 -0.19430136518E+03 -0.99858350822E+03 -0.19193398428E+04  0.21722770255E+04  0.25500000920E-02 0. -1.
</event>
<event>
 5   0  0.7032692E-06  0.2715225E+04  0.7818609E-02  0.8330082E-01
        1   -1    0    0  501    0  0.00000000000E+00  0.00000000000E+00  0.11803796762E+04  0.11803796762E+04  0.50400001928E-02 0.  1.
       -1   -1    0    0    0  501  0.00000000000E+00  0.00000000000E+00 -0.15614567056E+04  0.15614567057E+04  0.50400001928E-02 0. -1.
    10030    2    1    2    0    0  0.00000000000E+00  0.00000000000E+00 -0.38107702942E+03  0.27418363819E+04  0.27152250446E+04 0.  0.
        5    1    3    3  502    0 -0.35416249511E+03 -0.43330777986E+03  0.10584764658E+04  0.11973225229E+04  0.46999998093E+01 0.  1.
       -5    1    3    3    0  502  0.35416249511E+03  0.43330777986E+03 -0.14395534953E+04  0.15445138590E+04  0.46999998093E+01 0. -1.
</event>
<event>
 5   0  0.5329891E-06  0.1665001E+04  0.7818609E-02  0.8781581E-01
        1   -1    0    0  501    0  0.00000000000E+00  0.00000000000E+00  0.71247749119E+03  0.71247749121E+03  0.50400001928E-02 0. -1.
       -1   -1    0    0    0  501  0.00000000000E+00  0.00000000000E+00 -0.97274206323E+03  0.97274206324E+03  0.50400001928E-02 0.  1.
    10030    2    1    2    0    0  0.00000000000E+00  0.00000000000E+00 -0.26026457203E+03  0.16852195544E+04  0.16650006905E+04 0.  0.
        4    1    3    3  502    0  0.54796593555E+03  0.87184879934E+02 -0.75830356433E+03  0.93962427512E+03  0.12699999809E+01 0.  1.
       -4    1    3    3    0  502 -0.54796593555E+03 -0.87184879934E+02  0.49803899230E+03  0.74559527933E+03  0.12699999809E+01 0. -1.
</event>
<event>
 5   0  0.5522695E-06  0.3017005E+04  0.7818609E-02  0.8238892E-01
       -1   -1    0    0    0  501  0.00000000000E+00  0.00000000000E+00  0.12908391385E+04  0.12908391385E+04  0.50400001928E-02 0. -1.
        1   -1    0    0  501    0  0.00000000000E+00  0.00000000000E+00 -0.17628683165E+04  0.17628683165E+04  0.50400001928E-02 0.  1.
    10030    2    1    2    0    0  0.00000000000E+00  0.00000000000E+00 -0.47202917804E+03  0.30537074550E+04  0.30170047524E+04 0.  0.
        3    1    3    3  502    0 -0.13054758301E+04 -0.53777322090E+03 -0.77361846471E+03  0.16099542600E+04  0.10100000352E+00 0.  1.
       -3    1    3    3    0  502  0.13054758301E+04  0.53777322090E+03  0.30158928667E+03  0.14437531950E+04  0.10100000352E+00 0. -1.
</event>
<event>
 5   0  0.7032692E-06  0.2908138E+04  0.7818609E-02  0.8270460E-01
        1   -1    0    0  501    0  0.00000000000E+00  0.00000000000E+00  0.15447854421E+04  0.15447854421E+04  0.50400001928E-02 0. -1.
       -1   -1    0    0    0  501  0.00000000000E+00  0.00000000000E+00 -0.13686798660E+04  0.13686798660E+04  0.50400001928E-02 0.  1.
    10030    2    1    2    0    0  0.00000000000E+00  0.00000000000E+00  0.17610557613E+03  0.29134653081E+04  0.29081380516E+04 0.  0.
        5    1    3    3  502    0  0.12437429908E+04  0.72282625416E+03  0.30038494651E+03  0.14695671563E+04  0.46999998093E+01 0.  1.
       -5    1    3    3    0  502 -0.12437429908E+04 -0.72282625416E+03 -0.12427937038E+03  0.14438981518E+04  0.46999998093E+01 0. -1.
</event>
<event>
 5   0  0.1345931E-05  0.2994438E+04  0.7818609E-02  0.8245321E-01
        2   -1    0    0  501    0  0.00000000000E+00  0.00000000000E+00  0.11420938767E+04  0.11420938767E+04  0.25500000920E-02 0.  1.
       -2   -1    0    0    0  501  0.00000000000E+00  0.00000000000E+00 -0.19627678230E+04  0.19627678230E+04  0.25500000920E-02 0. -1.
    10030    2    1    2    0    0  0.00000000000E+00  0.00000000000E+00 -0.82067394635E+03  0.31048616997E+04  0.29944382525E+04 0.  0.
        2    1    3    3  502    0  0.13890708512E+04 -0.18170068013E+03 -0.95814933034E+03  0.16972280655E+04  0.25500000920E-02 0. -1.
       -2    1    3    3    0  502 -0.13890708512E+04  0.18170068013E+03  0.13747538399E+03  0.14076336342E+04  0.25500000920E-02 0.  1.
</event>
<event>
 5   0  0.1345931E-05  0.3062471E+04  0.7818609E-02  0.8226113E-01
        2   -1    0    0  501    0  0.00000000000E+00  0.00000000000E+00  0.20395724645E+04  0.20395724645E+04  0.25500000920E-02 0.  1.
       -2   -1    0    0    0  501  0.00000000000E+00  0.00000000000E+00 -0.11495951217E+04  0.11495951217E+04  0.25500000920E-02 0. -1.
    10030    2    1    2    0    0  0.00000000000E+00  0.00000000000E+00  0.88997734278E+03  0.31891675863E+04  0.30624712607E+04 0.  0.
        2    1    3    3  502    0 -0.62892710542E+03 -0.87035472667E+03  0.15817609245E+04  0.19118143939E+04  0.25500000920E-02 0.  1.
       -2    1    3    3    0  502  0.62892710542E+03  0.87035472667E+03 -0.69178358176E+03  0.12773531924E+04  0.25500000920E-02 0. -1.
</event>
<event>
 5   0  0.5329891E-06  0.2912457E+04  0.7818609E-02  0.8269181E-01
       -1   -1    0    0    0  501  0.00000000000E+00  0.00000000000E+00  0.89642875381E+03  0.89642875382E+03  0.50400001928E-02 0. -1.
        1   -1    0    0  501    0  0.00000000000E+00  0.00000000000E+00 -0.23656114972E+04  0.23656114972E+04  0.50400001928E-02 0.  1.
    10030    2    1    2    0    0  0.00000000000E+00  0.00000000000E+00 -0.14691827434E+04  0.32620402510E+04  0.29124574960E+04 0.  0.
        4    1    3    3  502    0 -0.61453690346E+03  0.13194185683E+04 -0.78566756582E+03  0.16540242141E+04  0.12699999809E+01 0. -1.
       -4    1    3    3    0  502  0.61453690346E+03 -0.13194185683E+04 -0.68351517755E+03  0.16080160369E+04  0.12699999809E+01 0.  1.
</event>
<event>
 5   0  0.5730920E-06  0.1758261E+04  0.7818609E-02  0.8728816E-01
       -1   -1    0    0    0  501  0.00000000000E+00  0.00000000000E+00  0.36160327051E+03  0.36160327054E+03  0.50400001928E-02 0.  1.
        1   -1    0    0  501    0  0.00000000000E+00  0.00000000000E+00 -0.21373425911E+04  0.21373425911E+04  0.50400001928E-02 0. -1.
    10030    2    1    2    0    0  0.00000000000E+00  0.00000000000E+00 -0.17757393206E+04  0.24989458617E+04  0.17582605850E+04 0.  0.
        1    1    3    3  502    0 -0.51654720937E+03  0.71001351923E+03 -0.82543354791E+03  0.12051061194E+04  0.50400001928E-02 0.  1.
       -1    1    3    3    0  502  0.51654720937E+03 -0.71001351923E+03 -0.95030577271E+03  0.12938397423E+04  0.50400001928E-02 0. -1.
</event>
<event>
 5   0  0.5730920E-06  0.2856282E+04  0.7818609E-02  0.8286005E-01
       -1   -1    0    0    0  501  0.00000000000E+00  0.00000000000E+00  0.13135561225E+04  0.13135561225E+04  0.50400001928E-02 0.  1.
        1   -1    0    0  501    0  0.00000000000E+00  0.00000000000E+00 -0.15527210159E+04  0.15527210159E+04  0.50400001928E-02 0. -1.
    10030    2    1    2    0    0  0.00000000000E+00  0.00000000000E+00 -0.23916489347E+03  0.28662771384E+04  0.28562816367E+04 0.  0.
        1    1    3    3  502    0 -0.11457239436E+04  0.71542482466E+03 -0.58496193028E+03  0.14719702764E+04  0.50400001928E-02 0. -1.
       -1    1    3    3    0  502  0.11457239436E+04 -0.71542482466E+03  0.34579703680E+03  0.13943068620E+04  0.50400001928E-02 0.  1.
</event>
<event>
 5   0  0.7032692E-06  0.2707096E+04  0.7818609E-02  0.8332706E-01
        1   -1    0    0  501    0  0.00000000000E+00  0.00000000000E+00  0.11814378004E+04  0.11814378004E+04  0.50400001928E-02 0. -1.
       -1   -1    0    0    0  501  0.00000000000E+00  0.00000000000E+00 -0.15507305298E+04  0.15507305298E+04  0.50400001928E-02 0.  1.
    10030    2    1    2    0    0  0.00000000000E+00  0.00000000000E+00 -0.36929272944E+03  0.27321683302E+04  0.27070956142E+04 0.  0.
        5    1    3    3  502    0  0.16257955728E+03  0.13156426525E+04 -0.46053114179E+03  0.14033740499E+04  0.46999998093E+01 0.  1.
       -5    1    3    3    0  502 -0.16257955728E+03 -0.13156426525E+04  0.91238412350E+02  0.13287942803E+04  0.46999998093E+01 0. -1.
</event>
<event>
 5   0  0.1388724E-05  0.3082710E+04  0.7818609E-02  0.8220499E-01
       -2   -1    0    0    0  501  0.00000000000E+00  0.00000000000E+00  0.14408154235E+04  0.14408154235E+04  0.25500000920E-02 0. -1.
        2   -1    0    0  501    0  0.00000000000E+00  0.00000000000E+00 -0.16489100328E+04  0.16489100328E+04  0.25500000920E-02 0.  1.
    10030    2    1    2    0    0  0.00000000000E+00  0.00000000000E+00 -0.20809460922E+03  0.30897254563E+04  0.30827098516E+04 0.  0.
        4    1    3    3  502    0  0.10292158284E+03 -0.45911943967E+03  0.13670770696E+04  0.14457817399E+04  0.12699999809E+01 0. -1.
       -4    1    3    3    0  502 -0.10292158284E+03  0.45911943967E+03 -0.15751716788E+04  0.16439437164E+04  0.12699999809E+01 0.  1.
</event>
<event>
 5   0  0.1423692E-05  0.2890841E+04  0.7818609E-02  0.8275608E-01
       -2   -1    0    0    0  501  0.00000000000E+00  0.00000000000E+00  0.71696360079E+03  0.71696360080E+03  0.25500000920E-02 0. -1.
        2   -1    0    0  501    0  0.00000000000E+00  0.00000000000E+00 -0.29140122742E+04  0.29140122742E+04  0.25500000920E-02 0.  1.
    10030    2    1    2    0    0  0.00000000000E+00  0.00000000000E+00 -0.21970486734E+04  0.36309758750E+04  0.28908412152E+04 0.  0.
        3    1    3    3  502    0 -0.12853933657E+04 -0.57080070954E+03 -0.15173509519E+04  0.20689135979E+04  0.10100000352E+00 0.  1.
       -3    1    3    3    0  502  0.12853933657E+04  0.57080070954E+03 -0.67969772153E+03  0.15620622770E+04  0.10100000352E+00 0. -1.
</event>
<event>
 5   0  0.1480547E-05  0.2987703E+04  0.7818609E-02  0.8247251E-01
        2   -1    0    0  501    0  0.00000000000E+00  0.00000000000E+00  0.24483696837E+04  0.24483696837E+04  0.25500000920E-02 0.  1.
       -2   -1    0    0    0  501  0.00000000000E+00  0.00000000000E+00 -0.91146047221E+03  0.91146047222E+03  0.25500000920E-02 0. -1.
    10030    2    1    2    0    0  0.00000000000E+00  0.00000000000E+00  0.15369092115E+04  0.33598301559E+04  0.29877029223E+04 0.  0.
        1    1    3    3  502    0  0.11722014499E+03  0.91196087081E+02 -0.90313762772E+03  0.91526764573E+03  0.50400001928E-02 0. -1.
       -1    1    3    3    0  502 -0.11722014499E+03 -0.91196087081E+02  0.24400468392E+04  0.24445625102E+04  0.50400001928E-02 0.  1.
</event>
<event>
 5   0  0.1423692E-05  0.2970587E+04  0.7818609E-02  0.8252180E-01
       -2   -1    0    0    0  501  0.00000000000E+00  0.00000000000E+00  0.93218522398E+03  0.93218522398E+03  0.25500000920E-02 0.  1.
        2   -1    0    0  501    0  0.00000000000E+00  0.00000000000E+00 -0.23665862683E+04  0.23665862683E+04  0.25500000920E-02 0. -1.
    10030    2    1    2    0    0  0.00000000000E+00  0.00000000000E+00 -0.14344010443E+04  0.32987714922E+04  0.29705869794E+04 0.  0.
        3    1    3    3  502    0  0.10610848300E+04  0.10031595037E+04 -0.41538997798E+03  0.15181498115E+04  0.10100000352E+00 0. -1.
       -3    1    3    3    0  502 -0.10610848300E+04 -0.10031595037E+04 -0.10190110663E+04  0.17806216807E+04  0.10100000352E+00 0.  1.
</event>
<event>
 5   0  0.1523029E-05  0.2868821E+04  0.7818609E-02  0.8282215E-01
        2   -1    0    0  501    0  0.00000000000E+00  0.00000000000E+00  0.17469766235E+04  0.17469766235E+04  0.25500000920E-02 0. -1.
       -2   -1    0    0    0  501  0.00000000000E+00  0.00000000000E+00 -0.11777678402E+04  0.11777678402E+04  0.25500000920E-02 0.  1.
    10030    2    1    2    0    0  0.00000000000E+00  0.00000000000E+00  0.56920878329E+03  0.29247444637E+04  0.28688205832E+04 0.  0.
        5    1    3    3  502    0 -0.17693688160E+03  0.62850754189E+03 -0.10174700174E+04  0.12089647293E+04  0.46999998093E+01 0.  1.
       -5    1    3    3    0  502  0.17693688160E+03 -0.62850754189E+03  0.15866788007E+04  0.17157797344E+04  0.46999998093E+01 0. -1.
</event>
<event>
 5   0  0.4806125E-06  0.1538089E+04  0.7818609E-02  0.8859512E-01
       -4   -1    0    0    0  501  0.00000000000E+00  0.00000000000E+00  0.47311060782E+03  0.47311231239E+03  0.12699999809E+01 0. -1.
        4   -1    0    0  501    0  0.00000000000E+00  0.00000000000E+00 -0.12500825491E+04  0.12500831942E+04  0.12699999809E+01 0.  1.
    10030    2    1    2    0    0  0.00000000000E+00  0.00000000000E+00 -0.77697194128E+03  0.17231955066E+04  0.15380888649E+04 0.  0.
        4    1    3    3  502    0 -0.56341684596E+03  0.27543290353E+03 -0.88716803785E+03  0.10864486030E+04  0.12699999809E+01 0.  1.
       -4    1    3    3    0  502  0.56341684596E+03 -0.27543290353E+03  0.11019609657E+03  0.63674690361E+03  0.12699999809E+01 0. -1.
</event>
<event>
 5   0  0.5730920E-06  0.3021358E+04  0.7818609E-02  0.8237658E-01
        1   -1    0    0  501    0  0.00000000000E+00  0.00000000000E+00  0.22431099597E+04  0.22431099597E+04  0.50400001928E-02 0.  1.
       -1   -1    0    0    0  501  0.00000000000E+00  0.00000000000E+00 -0.10174049434E+04  0.10174049434E+04  0.50400001928E-02 0. -1.
    10030    2    1    2    0    0  0.00000000000E+00  0.00000000000E+00  0.12257050163E+04  0.32605149031E+04  0.30213580799E+04 0.  0.
        1    1    3    3  502    0  0.22036477563E+03 -0.10328039766E+03 -0.99611127007E+03  0.10254097412E+04  0.50400001928E-02 0. -1.
       -1    1    3    3    0  502 -0.22036477563E+03  0.10328039766E+03  0.22218162863E+04  0.22351051620E+04  0.50400001928E-02 0.  1.
</event>
<event>
 5   0  0.1388724E-05  0.2861989E+04  0.7818609E-02  0.8284277E-01
        2   -1    0    0  501    0  0.00000000000E+00  0.00000000000E+00  0.24311421371E+04  0.24311421371E+04  0.25500000920E-02 0.  1.
       -2   -1    0    0    0  501  0.00000000000E+00  0.00000000000E+00 -0.84229779328E+03  0.84229779328E+03  0.25500000920E-02 0. -1.
    10030    2    1    2    0    0  0.00000000000E+00  0.00000000000E+00  0.15888443438E+04  0.32734399304E+04  0.28619892783E+04 0.  0.
        4    1    3    3  502    0  0.97374727376E+03 -0.10428441396E+04  0.91990506681E+03  0.16976261654E+04  0.12699999809E+01 0.  1.
       -4    1    3    3    0  502 -0.97374727376E+03  0.10428441396E+04  0.66893927704E+03  0.15758137650E+04  0.12699999809E+01 0. -1.
</event>
<event>
 5   0  0.5522695E-06  0.2466510E+04  0.7818609E-02  0.8415015E-01
        1   -1    0    0  501    0  0.00000000000E+00  0.00000000000E+00  0.31248316904E+04  0.31248316904E+04  0.50400001928E-02 0.  1.
       -1   -1    0    0    0  501  0.00000000000E+00  0.00000000000E+00 -0.48671982805E+03  0.48671982808E+03  0.50400001928E-02 0. -1.
    10030    2    1    2    0    0  0.00000000000E+00  0.00000000000E+00  0.26381118623E+04  0.36115515185E+04  0.24665097146E+04 0.  0.
        3    1    3    3  502    0  0.32070426627E+03 -0.87855500229E+03  0.14200040011E+03  0.94597792907E+03  0.10100000352E+00 0. -1.
       -3    1    3    3    0  502 -0.32070426627E+03  0.87855500229E+03  0.24961114622E+04  0.26655735894E+04  0.10100000352E+00 0.  1.
</event>
<event>
 5   0  0.5392262E-06  0.3185073E+04  0.7818609E-02  0.8192771E-01
        1   -1    0    0  501    0  0.00000000000E+00  0.00000000000E+00  0.26111636081E+04  0.26111636081E+04  0.50400001928E-02 0. -1.
       -1   -1    0    0    0  501  0.00000000000E+00  0.00000000000E+00 -0.97128028431E+03  0.97128028432E+03  0.50400001928E-02 0.  1.
    10030    2    1    2    0    0  0.00000000000E+00  0.00000000000E+00  0.16398833237E+04  0.35824438924E+04  0.31850725151E+04 0.  0.
        2    1    3    3  502    0 -0.10462143879E+04 -0.11044677928E+04  0.29027846168E+03  0.15487657137E+04  0.25500000920E-02 0.  1.
       -2    1    3    3    0  502  0.10462143879E+04  0.11044677928E+04  0.13496048621E+04  0.20336781787E+04  0.25500000920E-02 0. -1.
</event>
<event>
 5   0  0.5329891E-06  0.2921228E+04  0.7818609E-02  0.8266590E-01
        1   -1    0    0  501    0  0.00000000000E+00  0.00000000000E+00  0.25824923532E+04  0.25824923532E+04  0.50400001928E-02 0.  1.
       -1   -1    0    0    0  501  0.00000000000E+00  0.00000000000E+00 -0.82609836311E+03  0.82609836312E+03  0.50400001928E-02 0. -1.
    10030    2    1    2    0    0  0.00000000000E+00  0.00000000000E+00  0.17563939901E+04  0.34085907163E+04  0.29212276226E+04 0.  0.
        4    1    3    3  502    0 -0.77067669411E+03  0.79002246081E+03 -0.23813733966E+03  0.11290655698E+04  0.12699999809E+01 0. -1.
       -4    1    3    3    0  502  0.77067669411E+03 -0.79002246081E+03  0.19945313297E+04  0.22795251465E+04  0.12699999809E+01 0.  1.
</event>
<event>
 5   0  0.1388724E-05  0.2295600E+04  0.7818609E-02  0.8479658E-01
        2   -1    0    0  501    0  0.00000000000E+00  0.00000000000E+00  0.82390676295E+03  0.82390676295E+03  0.25500000920E-02 0.  1.
       -2   -1    0    0    0  501  0.00000000000E+00  0.00000000000E+00 -0.15990219252E+04  0.15990219252E+04  0.25500000920E-02 0. -1.
    10030    2    1    2    0    0  0.00000000000E+00  0.00000000000E+00 -0.77511516223E+03  0.24229286881E+04  0.22956001205E+04 0.  0.
        4    1    3    3  502    0  0.32644480257E+03 -0.29105326031E+03 -0.15076282801E+04  0.15697843333E+04  0.12699999809E+01 0. -1.
       -4    1    3    3    0  502 -0.32644480257E+03  0.29105326031E+03  0.73251311782E+03  0.85314435480E+03  0.12699999809E+01 0.  1.
</event>
<event>
 5   0  0.4806125E-06  0.1697388E+04  0.7818609E-02  0.8762856E-01
       -3   -1    0    0    0  501  0.00000000000E+00  0.00000000000E+00  0.48729130455E+03  0.48729131502E+03  0.10100000352E+00 0. -1.
        3   -1    0    0  501    0  0.00000000000E+00  0.00000000000E+00 -0.14781328695E+04  0.14781328730E+04  0.10100000352E+00 0.  1.
    10030    2    1    2    0    0  0.00000000000E+00  0.00000000000E+00 -0.99084156495E+03  0.19654241880E+04  0.16973877671E+04 0.  0.
        4    1    3    3  502    0  0.46761081999E+03  0.54693148210E+03 -0.10164624829E+04  0.12453880990E+04  0.12699999809E+01 0.  1.
       -4    1    3    3    0  502 -0.46761081999E+03 -0.54693148210E+03  0.25620917956E+02  0.72003608897E+03  0.12699999809E+01 0. -1.
</event>
<event>
 5   0  0.7032692E-06  0.2624947E+04  0.7818609E-02  0.8359776E-01
        1   -1    0    0  501    0  0.00000000000E+00  0.00000000000E+00  0.15233680647E+04  0.15233680647E+04  0.50400001928E-02 0.  1.
       -1   -1    0    0    0  501  0.00000000000E+00  0.00000000000E+00 -0.11307751188E+04  0.11307751188E+04  0.50400001928E-02 0. -1.
    10030    2    1    2    0    0  0.00000000000E+00  0.00000000000E+00  0.39259294590E+03  0.26541431835E+04  0.26249470123E+04 0.  0.
        5    1    3    3  502    0  0.12576160086E+04 -0.34621144325E+03  0.49407727897E+02  0.13053442466E+04  0.46999998093E+01 0. -1.
       -5    1    3    3    0  502 -0.12576160086E+04  0.34621144325E+03  0.34318521800E+03  0.13487989370E+04  0.46999998093E+01 0.  1.
</event>
<event>
 5   0  0.7032692E-06  0.1821271E+04  0.7818609E-02  0.8695069E-01
       -1   -1    0    0    0  501  0.00000000000E+00  0.00000000000E+00  0.68741789326E+03  0.68741789328E+03  0.50400001928E-02 0.  1.
        1   -1    0    0  501    0  0.00000000000E+00  0.00000000000E+00 -0.12063365678E+04  0.12063365678E+04  0.50400001928E-02 0. -1.
    10030    2    1    2    0    0  0.00000000000E+00  0.00000000000E+00 -0.51891867449E+03  0.18937544610E+04  0.18212713603E+04 0.  0.
        5    1    3    3  502    0  0.68087775505E+03 -0.44993161028E+03 -0.67952010561E+03  0.10619805249E+04  0.46999998093E+01 0. -1.
       -5    1    3    3    0  502 -0.68087775505E+03  0.44993161028E+03  0.16060143111E+03  0.83177393619E+03  0.46999998093E+01 0.  1.
</event>
<event>
 5   0  0.1523029E-05  0.3040971E+04  0.7818609E-02  0.8232127E-01
       -2   -1    0    0    0  501  0.00000000000E+00  0.00000000000E+00  0.13037495923E+04  0.13037495923E+04  0.25500000920E-02 0.  1.
        2   -1    0    0  501    0  0.00000000000E+00  0.00000000000E+00 -0.17732522566E+04  0.17732522566E+04  0.25500000920E-02 0. -1.
    10030    2    1    2    0    0  0.00000000000E+00  0.00000000000E+00 -0.46950266424E+03  0.30770018489E+04  0.30409714938E+04 0.  0.
        5    1    3    3  502    0  0.15234156142E+03  0.20644307155E+03 -0.17511835510E+04  0.17698849151E+04  0.46999998093E+01 0. -1.
       -5    1    3    3    0  502 -0.15234156142E+03 -0.20644307155E+03  0.12816808868E+04  0.13071169338E+04  0.46999998093E+01 0.  1.
</event>
<event>
 5   0  0.1480547E-05  0.2907303E+04  0.7818609E-02  0.8270708E-01
        2   -1    0    0  501    0  0.00000000000E+00  0.00000000000E+00  0.16276627235E+04  0.16276627235E+04  0.25500000920E-02 0.  1.
       -2   -1    0    0    0  501  0.00000000000E+00  0.00000000000E+00 -0.12982433318E+04  0.12982433318E+04  0.25500000920E-02 0. -1.
    10030    2    1    2    0    0  0.00000000000E+00  0.00000000000E+00  0.32941939168E+03  0.29259060553E+04  0.29073027205E+04 0.  0.
        1    1    3    3  502    0 -0.66720432144E+03 -0.10609168715E+04  0.90589770901E+03  0.15464012655E+04  0.50400001928E-02 0.  1.
       -1    1    3    3    0  502  0.66720432144E+03  0.10609168715E+04 -0.57647831732E+03  0.13795047898E+04  0.50400001928E-02 0. -1.
</event>
<event>
 5   0  0.5392262E-06  0.2947353E+04  0.7818609E-02  0.8258926E-01
       -1   -1    0    0    0  501  0.00000000000E+00  0.00000000000E+00  0.16868075480E+04  0.16868075480E+04  0.50400001928E-02 0. -1.
        1   -1    0    0  501    0  0.00000000000E+00  0.00000000000E+00 -0.12874745735E+04  0.12874745736E+04  0.50400001928E-02 0.  1.
    10030    2    1    2    0    0  0.00000000000E+00  0.00000000000E+00  0.39933297448E+03  0.29742821216E+04  0.29473525942E+04 0.  0.
        2    1    3    3  502    0  0.82515596162E+03  0.13270379129E+02 -0.10324162017E+04  0.13217192128E+04  0.25500000920E-02 0.  1.
       -2    1    3    3    0  502 -0.82515596162E+03 -0.13270379129E+02  0.14317491762E+04  0.16525629088E+04  0.25500000920E-02 0. -1.
</event>
<event>
 5   0  0.1523029E-05  0.2987715E+04  0.7818609E-02  0.8247248E-01
        2   -1    0    0  501    0  0.00000000000E+00  0.00000000000E+00  0.13738359766E+04  0.13738359766E+04  0.25500000920E-02 0. -1.
       -2   -1    0    0    0  501  0.00000000000E+00  0.00000000000E+00 -0.16243644078E+04  0.16243644078E+04  0.25500000920E-02 0.  1.
    10030    2    1    2    0    0  0.00000000000E+00  0.00000000000E+00 -0.25052843127E+03  0.29982003844E+04  0.29877150216E+04 0.  0.
        5    1    3    3  502    0  0.60356883089E+03  0.13007082275E+04  0.29507445045E+03  0.14639768605E+04  0.46999998093E+01 0. -1.
       -5    1    3    3    0  502 -0.60356883089E+03 -0.13007082275E+04 -0.54560288172E+03  0.15342235239E+04  0.46999998093E+01 0.  1.
</event>
<event>
 5   0  0.1480547E-05  0.3128200E+04  0.7818609E-02  0.8208041E-01
        2   -1    0    0  501    0  0.00000000000E+00  0.00000000000E+00  0.15136503636E+04  0.15136503636E+04  0.25500000920E-02 0. -1.
       -2   -1    0    0    0  501  0.00000000000E+00  0.00000000000E+00 -0.16162314564E+04  0.16162314564E+04  0.25500000920E-02 0.  1.
    10030    2    1    2    0    0  0.00000000000E+00  0.00000000000E+00 -0.10258109286E+03  0.31298818200E+04  0.31282003335E+04 0.  0.
        1    1    3    3  502    0  0.12753917509E+04  0.77330028443E+03  0.41991045638E+03  0.15494974151E+04  0.50400001928E-02 0. -1.
       -1    1    3    3    0  502 -0.12753917509E+04 -0.77330028443E+03 -0.52249154925E+03  0.15803844049E+04  0.50400001928E-02 0.  1.
</event>
<event>
 5   0  0.1480547E-05  0.2527034E+04  0.7818609E-02  0.8393417E-01
       -2   -1    0    0    0  501  0.00000000000E+00  0.00000000000E+00  0.71796174712E+03  0.71796174712E+03  0.25500000920E-02 0. -1.
        2   -1    0    0  501    0  0.00000000000E+00  0.00000000000E+00 -0.22236213293E+04  0.22236213293E+04  0.25500000920E-02 0.  1.
    10030    2    1    2    0    0  0.00000000000E+00  0.00000000000E+00 -0.15056595822E+04  0.29415830764E+04  0.25270338775E+04 0.  0.
        1    1    3    3  502    0 -0.52610764591E+03  0.10157793782E+04 -0.12826955080E+03  0.11511081956E+04  0.50400001928E-02 0. -1.
       -1    1    3    3    0  502  0.52610764591E+03 -0.10157793782E+04 -0.13773900314E+04  0.17904748808E+04  0.50400001928E-02 0.  1.
</event>
<event>
 5   0  0.1423692E-05  0.2905082E+04  0.7818609E-02  0.8271367E-01
        2   -1    0    0  501    0  0.00000000000E+00  0.00000000000E+00  0.20084093576E+04  0.20084093576E+04  0.25500000920E-02 0. -1.
       -2   -1    0    0    0  501  0.00000000000E+00  0.00000000000E+00 -0.10505203842E+04  0.10505203842E+04  0.25500000920E-02 0.  1.
    10030    2    1    2    0    0  0.00000000000E+00  0.00000000000E+00  0.95788897345E+03  0.30589297418E+04  0.29050817337E+04 0.  0.
        3    1    3    3  502    0 -0.83491670191E+03  0.90811393452E+03  0.12864461674E+04  0.17823300954E+04  0.10100000352E+00 0. -1.
       -3    1    3    3    0  502  0.83491670191E+03 -0.90811393452E+03 -0.32855719394E+03  0.12765996464E+04  0.10100000352E+00 0.  1.
</event>
<event>
 5   0  0.5329891E-06  0.2098015E+04  0.7818609E-02  0.8562118E-01
        1   -1    0    0  501    0  0.00000000000E+00  0.00000000000E+00  0.10252314493E+04  0.10252314493E+04  0.50400001928E-02 0.  1.
       -1   -1    0    0    0  501  0.00000000000E+00  0.00000000000E+00 -0.10733350737E+04  0.10733350737E+04  0.50400001928E-02 0. -1.
    10030    2    1    2    0    0  0.00000000000E+00  0.00000000000E+00 -0.48103624466E+02  0.20985665230E+04  0.20980151317E+04 0.  0.
        4    1    3    3  502    0 -0.78967965260E+03 -0.58599118593E+03 -0.38943624505E+03  0.10576586527E+04  0.12699999809E+01 0. -1.
       -4    1    3    3    0  502  0.78967965260E+03  0.58599118593E+03  0.34133262058E+03  0.10409078703E+04  0.12699999809E+01 0.  1.
</event>
<event>
 5   0  0.5329891E-06  0.2941020E+04  0.7818609E-02  0.8260776E-01
        1   -1    0    0  501    0  0.00000000000E+00  0.00000000000E+00  0.13531486324E+04  0.13531486324E+04  0.50400001928E-02 0. -1.
       -1   -1    0    0    0  501  0.00000000000E+00  0.00000000000E+00 -0.15980507709E+04  0.15980507709E+04  0.50400001928E-02 0.  1.
    10030    2    1    2    0    0  0.00000000000E+00  0.00000000000E+00 -0.24490213847E+03  0.29511994034E+04  0.29410203775E+04 0.  0.
        4    1    3    3  502    0 -0.76875219354E+03 -0.48712367333E+03 -0.12814938458E+04  0.15717816317E+04  0.12699999809E+01 0.  1.
       -4    1    3    3    0  502  0.76875219354E+03  0.48712367333E+03  0.10365917073E+04  0.13794177716E+04  0.12699999809E+01 0. -1.
</event>
<event>
 5   0  0.5730920E-06  0.3023236E+04  0.7818609E-02  0.8237127E-01
       -1   -1    0    0    0  501  0.00000000000E+00  0.00000000000E+00  0.17182616167E+04  0.17182616167E+04  0.50400001928E-02 0. -1.
        1   -1    0    0  501    0  0.00000000000E+00  0.00000000000E+00 -0.13298258743E+04  0.13298258743E+04  0.50400001928E-02 0.  1.
    10030    2    1    2    0    0  0.00000000000E+00  0.00000000000E+00  0.38843574238E+03  0.30480874909E+04  0.30232358536E+04 0.  0.
        1    1    3    3  502    0 -0.62355767383E+03 -0.36199186578E+03 -0.11452839657E+04  0.13533431367E+04  0.50400001928E-02 0.  1.
       -1    1    3    3    0  502  0.62355767383E+03  0.36199186578E+03  0.15337197081E+04  0.16947443543E+04  0.50400001928E-02 0. -1.
</event>
<event>
 5   0  0.1523029E-05  0.3064405E+04  0.7818609E-02  0.8225575E-01
        2   -1    0    0  501    0  0.00000000000E+00  0.00000000000E+00  0.34073997214E+04  0.34073997214E+04  0.25500000920E-02 0.  1.
       -2   -1    0    0    0  501  0.00000000000E+00  0.00000000000E+00 -0.68898429260E+03  0.68898429260E+03  0.25500000920E-02 0. -1.
    10030    2    1    2    0    0  0.00000000000E+00  0.00000000000E+00  0.27184154288E+04  0.40963840140E+04  0.30644052517E+04 0.  0.
        5    1    3    3  502    0 -0.57068052932E+03 -0.47727587765E+03  0.31497490683E+04  0.32364192889E+04  0.46999998093E+01 0.  1.
       -5    1    3    3    0  502  0.57068052932E+03  0.47727587765E+03 -0.43133363951E+03  0.85996472515E+03  0.46999998093E+01 0. -1.
</event>
<event>
 5   0  0.5730920E-06  0.2930794E+04  0.7818609E-02  0.8263774E-01
       -1   -1    0    0    0  501  0.00000000000E+00  0.00000000000E+00  0.96538484406E+03  0.96538484408E+03  0.50400001928E-02 0. -1.
        1   -1    0    0  501    0  0.00000000000E+00  0.00000000000E+00 -0.22243850750E+04  0.22243850750E+04  0.50400001928E-02 0.  1.
    10030    2    1    2    0    0  0.00000000000E+00  0.00000000000E+00 -0.12590002309E+04  0.31897699191E+04  0.29307935027E+04 0.  0.
        1    1    3    3  502    0  0.55997153131E+02 -0.14192263364E+04 -0.10219885989E+04  0.17497999233E+04  0.50400001928E-02 0.  1.
       -1    1    3    3    0  502 -0.55997153131E+02  0.14192263364E+04 -0.23701163202E+03  0.14399699958E+04  0.50400001928E-02 0. -1.
</event>
<event>
 5   0  0.1523029E-05  0.2935875E+04  0.7818609E-02  0.8262283E-01
        2   -1    0    0  501    0  0.00000000000E+00  0.00000000000E+00  0.11829281428E+04  0.11829281428E+04  0.25500000920E-02 0.  1.
       -2   -1    0    0    0  501  0.00000000000E+00  0.00000000000E+00 -0.18216154726E+04  0.18216154726E+04  0.25500000920E-02 0. -1.
    10030    2    1    2    0    0  0.00000000000E+00  0.00000000000E+00 -0.63868732982E+03  0.30045436155E+04  0.29358747984E+04 0.  0.
        5    1    3    3  502    0 -0.90448262402E+03 -0.11320723748E+04 -0.79029135170E+02  0.14511872289E+04  0.46999998093E+01 0. -1.
       -5    1    3    3    0  502  0.90448262402E+03  0.11320723748E+04 -0.55965819465E+03  0.15533563866E+04  0.46999998093E+01 0.  1.
</event>
<event>
 5   0  0.1480547E-05  0.2619110E+04  0.7818609E-02  0.8361739E-01
       -2   -1    0    0    0  501  0.00000000000E+00  0.00000000000E+00  0.86455040261E+03  0.86455040262E+03  0.25500000920E-02 0. -1.
        2   -1    0    0  501    0  0.00000000000E+00  0.00000000000E+00 -0.19836136928E+04  0.19836136928E+04  0.25500000920E-02 0.  1.
    10030    2    1    2    0    0  0.00000000000E+00  0.00000000000E+00 -0.11190632902E+04  0.28481640954E+04  0.26191097852E+04 0.  0.
        1    1    3    3  502    0  0.69794035849E+03  0.64259884547E+02 -0.17624770965E+04  0.18967276010E+04  0.50400001928E-02 0.  1.
       -1    1    3    3    0  502 -0.69794035849E+03 -0.64259884547E+02  0.64341380628E+03  0.95143649442E+03  0.50400001928E-02 0. -1.
</event>
<event>
 5   0  0.1388724E-05  0.3014410E+04  0.7818609E-02  0.8239628E-01
       -2   -1    0    0    0  501  0.00000000000E+00  0.00000000000E+00  0.19318191393E+04  0.19318191393E+04  0.25500000920E-02 0. -1.
        2   -1    0    0  501    0  0.00000000000E+00  0.00000000000E+00 -0.11759209431E+04  0.11759209431E+04  0.25500000920E-02 0.  1.
    10030    2    1    2    0    0  0.00000000000E+00  0.00000000000E+00  0.75589819622E+03  0.31077400823E+04  0.30144097824E+04 0.  0.
        4    1    3    3  502    0 -0.72467523150E+03 -0.50369753313E+03  0.16375795465E+04  0.18602509992E+04  0.12699999809E+01 0. -1.
       -4    1    3    3    0  502  0.72467523150E+03  0.50369753313E+03 -0.88168135033E+03  0.12474890831E+04  0.12699999809E+01 0.  1.
</event>
<event>
 5   0  0.1523029E-05  0.1550210E+04  0.7818609E-02  0.8851733E-01
        2   -1    0    0  501    0  0.00000000000E+00  0.00000000000E+00  0.75058044583E+03  0.75058044583E+03  0.25500000920E-02 0.  1.
       -2   -1    0    0    0  501  0.00000000000E+00  0.00000000000E+00 -0.80043130606E+03  0.80043130606E+03  0.25500000920E-02 0. -1.
    10030    2    1    2    0    0  0.00000000000E+00  0.00000000000E+00 -0.49850860229E+02  0.15510117519E+04  0.15502104200E+04 0.  0.
        5    1    3    3  502    0 -0.50759353616E+02  0.17510580204E+03 -0.77865902018E+03  0.79973152595E+03  0.46999998093E+01 0. -1.
       -5    1    3    3    0  502  0.50759353616E+02 -0.17510580204E+03  0.72880815995E+03  0.75128022594E+03  0.46999998093E+01 0.  1.
</event>
<event>
 5   0  0.5329891E-06  0.2989588E+04  0.7818609E-02  0.8246710E-01
       -1   -1    0    0    0  501  0.00000000000E+00  0.00000000000E+00  0.14144464225E+04  0.14144464225E+04  0.50400001928E-02 0. -1.
        1   -1    0    0  501    0  0.00000000000E+00  0.00000000000E+00 -0.15797056617E+04  0.15797056617E+04  0.50400001928E-02 0.  1.
    10030    2    1    2    0    0  0.00000000000E+00  0.00000000000E+00 -0.16525923915E+03  0.29941520842E+04  0.29895879461E+04 0.  0.
        4    1    3    3  502    0  0.84101382882E+03 -0.43477540921E+03  0.10758876335E+04  0.14331328374E+04  0.12699999809E+01 0. -1.
       -4    1    3    3    0  502 -0.84101382882E+03  0.43477540921E+03 -0.12411468726E+04  0.15610192469E+04  0.12699999809E+01 0.  1.
</event>
<event>
 5   0  0.1480547E-05  0.3051813E+04  0.7818609E-02  0.8229088E-01
        2   -1    0    0  501    0  0.00000000000E+00  0.00000000000E+00  0.11703993344E+04  0.11703993344E+04  0.25500000920E-02 0. -1.
       -2   -1    0    0    0  501  0.00000000000E+00  0.00000000000E+00 -0.19893984386E+04  0.19893984386E+04  0.25500000920E-02 0.  1.
    10030    2    1    2    0    0  0.00000000000E+00  0.00000000000E+00 -0.81899910416E+03  0.31597977730E+04  0.30518129748E+04 0.  0.
        1    1    3    3  502    0  0.19966846925E+03 -0.70991276797E+03 -0.17926370817E+04  0.19383991701E+04  0.50400001928E-02 0.  1.
       -1    1    3    3    0  502 -0.19966846925E+03  0.70991276797E+03  0.97363797757E+03  0.12213986029E+04  0.50400001928E-02 0. -1.
</event>
<event>
 5   0  0.5329891E-06  0.2982761E+04  0.7818609E-02  0.8248671E-01
        1   -1    0    0  501    0  0.00000000000E+00  0.00000000000E+00  0.83601708908E+03  0.83601708909E+03  0.50400001928E-02 0.  1.
       -1   -1    0    0    0  501  0.00000000000E+00  0.00000000000E+00 -0.26604905464E+04  0.26604905464E+04  0.50400001928E-02 0. -1.
    10030    2    1    2    0    0  0.00000000000E+00  0.00000000000E+00 -0.18244734573E+04  0.34965076355E+04  0.29827608434E+04 0.  0.
        4    1    3    3  502    0  0.19386086603E+03  0.27231635800E+03  0.79153697226E+03  0.85922676028E+03  0.12699999809E+01 0.  1.
       -4    1    3    3    0  502 -0.19386086603E+03 -0.27231635800E+03 -0.26160104296E+04  0.26372808752E+04  0.12699999809E+01 0. -1.
</event>
<event>
 5   0  0.5392262E-06  0.2678996E+04  0.7818609E-02  0.8341852E-01
        1   -1    0    0  501    0  0.00000000000E+00  0.00000000000E+00  0.15778550233E+04  0.15778550233E+04  0.50400001928E-02 0.  1.
       -1   -1    0    0    0  501  0.00000000000E+00  0.00000000000E+00 -0.11371481976E+04  0.11371481976E+04  0.50400001928E-02 0. -1.
    10030    2    1    2    0    0  0.00000000000E+00  0.00000000000E+00  0.44070682567E+03  0.27150032210E+04  0.26789960776E+04 0.  0.
        2    1    3    3  502    0 -0.12550059451E+04 -0.21335658746E+03 -0.20201431774E+03  0.12889417133E+04  0.25500000920E-02 0. -1.
       -2    1    3    3    0  502  0.12550059451E+04  0.21335658746E+03  0.64272114341E+03  0.14260615077E+04  0.25500000920E-02 0.  1.
</event>
<event>
 5   0  0.5392262E-06  0.3003956E+04  0.7818609E-02  0.8242602E-01
       -1   -1    0    0    0  501  0.00000000000E+00  0.00000000000E+00  0.13431306334E+04  0.13431306334E+04  0.50400001928E-02 0. -1.
        1   -1    0    0  501    0  0.00000000000E+00  0.00000000000E+00 -0.16796116889E+04  0.16796116889E+04  0.50400001928E-02 0.  1.
    10030    2    1    2    0    0  0.00000000000E+00  0.00000000000E+00 -0.33648105551E+03  0.30227423224E+04  0.30039559995E+04 0.  0.
        2    1    3    3  502    0 -0.12261840046E+04 -0.21963436739E+03 -0.10126376881E+04  0.16053664864E+04  0.25500000920E-02 0.  1.
       -2    1    3    3    0  502  0.12261840046E+04  0.21963436739E+03  0.67615663256E+03  0.14173758359E+04  0.25500000920E-02 0. -1.
</event>
<event>
 5   0  0.5730920E-06  0.3109406E+04  0.7818609E-02  0.8213161E-01
       -1   -1    0    0    0  501  0.00000000000E+00  0.00000000000E+00  0.12443646760E+04  0.12443646760E+04  0.50400001928E-02 0.  1.
        1   -1    0    0  501    0  0.00000000000E+00  0.00000000000E+00 -0.19424386607E+04  0.19424386607E+04  0.50400001928E-02 0. -1.
    10030    2    1    2    0    0  0.00000000000E+00  0.00000000000E+00 -0.69807398465E+03  0.31868033367E+04  0.31094064094E+04 0.  0.
        1    1    3    3  502    0  0.32072384831E+03 -0.77254400203E+03  0.99408443412E+03  0.12991889332E+04  0.50400001928E-02 0.  1.
       -1    1    3    3    0  502 -0.32072384831E+03  0.77254400203E+03 -0.16921584188E+04  0.18876144035E+04  0.50400001928E-02 0. -1.
</event>
<event>
 5   0  0.5329891E-06  0.2948671E+04  0.7818609E-02  0.8258542E-01
       -1   -1    0    0    0  501  0.00000000000E+00  0.00000000000E+00  0.79234350302E+03  0.79234350304E+03  0.50400001928E-02 0. -1.
        1   -1    0    0  501    0  0.00000000000E+00  0.00000000000E+00 -0.27433360741E+04  0.27433360741E+04  0.50400001928E-02 0.  1.
    10030    2    1    2    0    0  0.00000000000E+00  0.00000000000E+00 -0.19509925711E+04  0.35356795772E+04  0.29486705580E+04 0.  0.
        4    1    3    3  502    0 -0.11651377776E+04 -0.99072063571E+02  0.10120542734E+03  0.11737143886E+04  0.12699999809E+01 0. -1.
       -4    1    3    3    0  502  0.11651377776E+04  0.99072063571E+02 -0.20521979984E+04  0.23619651886E+04  0.12699999809E+01 0.  1.
</event>
<event>
 5   0  0.1388724E-05  0.2033446E+04  0.7818609E-02  0.8591141E-01
        2   -1    0    0  501    0  0.00000000000E+00  0.00000000000E+00  0.10717859722E+04  0.10717859722E+04  0.25500000920E-02 0.  1.
       -2   -1    0    0    0  501  0.00000000000E+00  0.00000000000E+00 -0.96448882180E+03  0.96448882180E+03  0.25500000920E-02 0. -1.
    10030    2    1    2    0    0  0.00000000000E+00  0.00000000000E+00  0.10729715044E+03  0.20362747941E+04  0.20334459320E+04 0.  0.
        4    1    3    3  502    0 -0.61722727526E+03 -0.78629452307E+03 -0.13233915229E+03  0.10083371710E+04  0.12699999809E+01 0. -1.
       -4    1    3    3    0  502  0.61722727526E+03  0.78629452307E+03  0.23963630274E+03  0.10279376230E+04  0.12699999809E+01 0.  1.
</event>
<event>
 5   0  0.1345931E-05  0.1482402E+04  0.7818609E-02  0.8896240E-01
       -2   -1    0    0    0  501  0.00000000000E+00  0.00000000000E+00  0.40523599704E+03  0.40523599705E+03  0.25500000920E-02 0. -1.
        2   -1    0    0  501    0  0.00000000000E+00  0.00000000000E+00 -0.13557015962E+04  0.13557015962E+04  0.25500000920E-02 0.  1.
    10030    2    1    2    0    0  0.00000000000E+00  0.00000000000E+00 -0.95046559919E+03  0.17609375933E+04  0.14824022235E+04 0.  0.
        2    1    3    3  502    0 -0.26648226014E+03  0.29022139530E+03 -0.12209977536E+04  0.12829952329E+04  0.25500000920E-02 0.  1.
       -2    1    3    3    0  502  0.26648226014E+03 -0.29022139530E+03  0.27053215444E+03  0.47794236039E+03  0.25500000920E-02 0. -1.
</event>
<event>
 5   0  0.7032692E-06  0.1642769E+04  0.7818609E-02  0.8794696E-01
       -1   -1    0    0    0  501  0.00000000000E+00  0.00000000000E+00  0.12546159812E+04  0.12546159812E+04  0.50400001928E-02 0. -1.
        1   -1    0    0  501    0  0.00000000000E+00  0.00000000000E+00 -0.53775218837E+03  0.53775218839E+03  0.50400001928E-02 0.  1.
    10030    2    1    2    0    0  0.00000000000E+00  0.00000000000E+00  0.71686379283E+03  0.17923681696E+04  0.16427689910E+04 0.  0.
        5    1    3    3  502    0  0.12876570355E+03 -0.77359037631E+03  0.62485681269E+03  0.10027416432E+04  0.46999998093E+01 0.  1.
       -5    1    3    3    0  502 -0.12876570355E+03  0.77359037631E+03  0.92006980138E+02  0.78962652635E+03  0.46999998093E+01 0. -1.
</event>
<event>
 5   0  0.1345931E-05  0.3043608E+04  0.7818609E-02  0.8231387E-01
       -2   -1    0    0    0  501  0.00000000000E+00  0.00000000000E+00  0.13444059969E+04  0.13444059969E+04  0.25500000920E-02 0.  1.
        2   -1    0    0  501    0  0.00000000000E+00  0.00000000000E+00 -0.17226097020E+04  0.17226097020E+04  0.25500000920E-02 0. -1.
    10030    2    1    2    0    0  0.00000000000E+00  0.00000000000E+00 -0.37820370506E+03  0.30670156989E+04  0.30436076053E+04 0.  0.
        2    1    3    3  502    0  0.78779944086E+03  0.82458761828E+03 -0.12044793867E+04  0.16587173636E+04  0.25500000920E-02 0. -1.
       -2    1    3    3    0  502 -0.78779944086E+03 -0.82458761828E+03  0.82627568163E+03  0.14082983353E+04  0.25500000920E-02 0.  1.
</event>
<event>
 5   0  0.4806125E-06  0.3037692E+04  0.7818609E-02  0.8233049E-01
        3   -1    0    0  501    0  0.00000000000E+00  0.00000000000E+00  0.17196955209E+04  0.17196955239E+04  0.10100000352E+00 0.  1.
       -3   -1    0    0    0  501  0.00000000000E+00  0.00000000000E+00 -0.13414546152E+04  0.13414546190E+04  0.10100000352E+00 0. -1.
    10030    2    1    2    0    0  0.00000000000E+00  0.00000000000E+00  0.37824090568E+03  0.30611501429E+04  0.30376922185E+04 0.  0.
        2    1    3    3  502    0  0.69487882164E+03  0.68794460693E+02 -0.11701113566E+04  0.13626260828E+04  0.25500000920E-02 0. -1.
       -2    1    3    3    0  502 -0.69487882164E+03 -0.68794460693E+02  0.15483522623E+04  0.16985240601E+04  0.25500000920E-02 0.  1.
</event>
<event>
 5   0  0.1480547E-05  0.2643959E+04  0.7818609E-02  0.8353421E-01
       -2   -1    0    0    0  501  0.00000000000E+00  0.00000000000E+00  0.10482638890E+04  0.10482638890E+04  0.25500000920E-02 0.  1.
        2   -1    0    0  501    0  0.00000000000E+00  0.00000000000E+00 -0.16671663505E+04  0.16671663505E+04  0.25500000920E-02 0. -1.
    10030    2    1    2    0    0  0.00000000000E+00  0.00000000000E+00 -0.61890246146E+03  0.27154302395E+04  0.26439593659E+04 0.  0.
        1    1    3    3  502    0 -0.12727007140E+04  0.31608486178E+03 -0.13773860043E+03  0.13185782758E+04  0.50400001928E-02 0. -1.
       -1    1    3    3    0  502  0.12727007140E+04 -0.31608486178E+03 -0.48116386102E+03  0.13968519637E+04  0.50400001928E-02 0.  1.
</event>
<event>
 5   0  0.1388724E-05  0.2992694E+04  0.7818609E-02  0.8245820E-01
        2   -1    0    0  501    0  0.00000000000E+00  0.00000000000E+00  0.21187405684E+04  0.21187405684E+04  0.25500000920E-02 0. -1.
       -2   -1    0    0    0  501  0.00000000000E+00  0.00000000000E+00 -0.10567857670E+04  0.10567857670E+04  0.25500000920E-02 0.  1.
    10030    2    1    2    0    0  0.00000000000E+00  0.00000000000E+00  0.10619548013E+04  0.31755263354E+04  0.29926943557E+04 0.  0.
        4    1    3    3  502    0  0.12716289516E+04  0.73469267215E+01  0.13678016681E+04  0.18676126965E+04  0.12699999809E+01 0. -1.
       -4    1    3    3    0  502 -0.12716289516E+04 -0.73469267215E+01 -0.30584686675E+03  0.13079136389E+04  0.12699999809E+01 0.  1.
</event>
<event>
 5   0  0.5522695E-06  0.3012750E+04  0.7818609E-02  0.8240099E-01
       -1   -1    0    0    0  501  0.00000000000E+00  0.00000000000E+00  0.13682570812E+04  0.13682570812E+04  0.50400001928E-02 0. -1.
        1   -1    0    0  501    0  0.00000000000E+00  0.00000000000E+00 -0.16584348928E+04  0.16584348928E+04  0.50400001928E-02 0.  1.
    10030    2    1    2    0    0  0.00000000000E+00  0.00000000000E+00 -0.29017781164E+03  0.30266919740E+04  0.30127497645E+04 0.  0.
        3    1    3    3  502    0 -0.91643364887E+03  0.11876335161E+04 -0.71901657128E+01  0.15001252315E+04  0.10100000352E+00 0.  1.
       -3    1    3    3    0  502  0.91643364887E+03 -0.11876335161E+04 -0.28298764593E+03  0.15265667425E+04  0.10100000352E+00 0. -1.
</event>
<event>
 5   0  0.1388724E-05  0.1640073E+04  0.7818609E-02  0.8796301E-01
        2   -1    0    0  501    0  0.00000000000E+00  0.00000000000E+00  0.46476548146E+03  0.46476548147E+03  0.25500000920E-02 0. -1.
       -2   -1    0    0    0  501  0.00000000000E+00  0.00000000000E+00 -0.14468797463E+04  0.14468797463E+04  0.25500000920E-02 0.  1.
    10030    2    1    2    0    0  0.00000000000E+00  0.00000000000E+00 -0.98211426484E+03  0.19116452278E+04  0.16400728788E+04 0.  0.
        4    1    3    3  502    0  0.62245540594E+03 -0.59951325987E+02  0.12726732480E+03  0.63815631215E+03  0.12699999809E+01 0. -1.
       -4    1    3    3    0  502 -0.62245540594E+03  0.59951325987E+02 -0.11093815896E+04  0.12734889156E+04  0.12699999809E+01 0.  1.
</event>
<event>
 5   0  0.1523029E-05  0.2948912E+04  0.7818609E-02  0.8258472E-01
       -2   -1    0    0    0  501  0.00000000000E+00  0.00000000000E+00  0.80832402306E+03  0.80832402306E+03  0.25500000920E-02 0. -1.
        2   -1    0    0  501    0  0.00000000000E+00  0.00000000000E+00 -0.26895414187E+04  0.26895414187E+04  0.25500000920E-02 0.  1.
    10030    2    1    2    0    0  0.00000000000E+00  0.00000000000E+00 -0.18812173956E+04  0.34978654417E+04  0.29489123010E+04 0.  0.
        5    1    3    3  502    0 -0.13028440049E+04 -0.52429702300E+03 -0.40788274042E+03  0.14624227465E+04  0.46999998093E+01 0. -1.
       -5    1    3    3    0  502  0.13028440049E+04  0.52429702300E+03 -0.14733346552E+04  0.20354426952E+04  0.46999998093E+01 0.  1.
</event>
<event>
 5   0  0.1480547E-05  0.2317882E+04  0.7818609E-02  0.8470904E-01
       -2   -1    0    0    0  501  0.00000000000E+00  0.00000000000E+00  0.17331163727E+04  0.17331163727E+04  0.25500000920E-02 0. -1.
        2   -1    0    0  501    0  0.00000000000E+00  0.00000000000E+00 -0.77498772082E+03  0.77498772082E+03  0.25500000920E-02 0.  1.
    10030    2    1    2    0    0  0.00000000000E+00  0.00000000000E+00  0.95812865189E+03  0.25081040935E+04  0.23178817119E+04 0.  0.
        1    1    3    3  502    0 -0.70760080953E+03  0.60648726579E+03  0.12245279929E+04  0.15388289426E+04  0.50400001928E-02 0. -1.
       -1    1    3    3    0  502  0.70760080953E+03 -0.60648726579E+03 -0.26639934104E+03  0.96927515089E+03  0.50400001928E-02 0.  1.
</event>
<event>
 5   0  0.5329891E-06  0.2884951E+04  0.7818609E-02  0.8277369E-01
        1   -1    0    0  501    0  0.00000000000E+00  0.00000000000E+00  0.20216256853E+04  0.20216256853E+04  0.50400001928E-02 0.  1.
       -1   -1    0    0    0  501  0.00000000000E+00  0.00000000000E+00 -0.10292385225E+04  0.10292385226E+04  0.50400001928E-02 0. -1.
    10030    2    1    2    0    0  0.00000000000E+00  0.00000000000E+00  0.99238716272E+03  0.30508642078E+04  0.28849506294E+04 0.  0.
        4    1    3    3  502    0  0.18245568408E+03  0.13841174171E+04  0.87991429508E+03  0.16502490359E+04  0.12699999809E+01 0.  1.
       -4    1    3    3    0  502 -0.18245568408E+03 -0.13841174171E+04  0.11247286763E+03  0.14006151719E+04  0.12699999809E+01 0. -1.
</event>
<event>
 5   0  0.1480547E-05  0.3018823E+04  0.7818609E-02  0.8238376E-01
       -2   -1    0    0    0  501  0.00000000000E+00  0.00000000000E+00  0.11045280182E+04  0.11045280182E+04  0.25500000920E-02 0. -1.
        2   -1    0    0  501    0  0.00000000000E+00  0.00000000000E+00 -0.20627123696E+04  0.20627123696E+04  0.25500000920E-02 0.  1.
    10030    2    1    2    0    0  0.00000000000E+00  0.00000000000E+00 -0.95818435138E+03  0.31672403878E+04  0.30188233507E+04 0.  0.
        1    1    3    3  502    0  0.18823473325E+03  0.94912398857E+03  0.73633369029E+03  0.12159177456E+04  0.50400001928E-02 0. -1.
       -1    1    3    3    0  502 -0.18823473325E+03 -0.94912398857E+03 -0.16945180417E+04  0.19513226422E+04  0.50400001928E-02 0.  1.
</event>
<event>
 5   0  0.5392262E-06  0.2933112E+04  0.7818609E-02  0.8263093E-01
        1   -1    0    0  501    0  0.00000000000E+00  0.00000000000E+00  0.25769805988E+04  0.25769805988E+04  0.50400001928E-02 0. -1.
       -1   -1    0    0    0  501  0.00000000000E+00  0.00000000000E+00 -0.83461497459E+03  0.83461497460E+03  0.50400001928E-02 0.  1.
    10030    2    1    2    0    0  0.00000000000E+00  0.00000000000E+00  0.17423656242E+04  0.34115955734E+04  0.29331120654E+04 0.  0.
        2    1    3    3  502    0 -0.21173569073E+03 -0.14182052287E+04  0.12290202762E+04  0.18885520678E+04  0.25500000920E-02 0. -1.
       -2    1    3    3    0  502  0.21173569073E+03  0.14182052287E+04  0.51334534801E+03  0.15230435056E+04  0.25500000920E-02 0.  1.
</event>
<event>
 5   0  0.1423692E-05  0.3004151E+04  0.7818609E-02  0.8242547E-01
        2   -1    0    0  501    0  0.00000000000E+00  0.00000000000E+00  0.10769887442E+04  0.10769887442E+04  0.25500000920E-02 0.  1.
       -2   -1    0    0    0  501  0.00000000000E+00  0.00000000000E+00 -0.20949437052E+04  0.20949437052E+04  0.25500000920E-02 0. -1.
    10030    2    1    2    0    0  0.00000000000E+00  0.00000000000E+00 -0.10179549610E+04  0.31719324494E+04  0.30041509884E+04 0.  0.
        3    1    3    3  502    0 -0.11513890362E+04  0.80878645010E+03 -0.10640759756E+04  0.17641116537E+04  0.10100000352E+00 0. -1.
       -3    1    3    3    0  502  0.11513890362E+04 -0.80878645010E+03  0.46121014589E+02  0.14078207957E+04  0.10100000352E+00 0.  1.
</event>
<event>
 5   0  0.5329891E-06  0.2754625E+04  0.7818609E-02  0.8317496E-01
        1   -1    0    0  501    0  0.00000000000E+00  0.00000000000E+00  0.14786300790E+04  0.14786300790E+04  0.50400001928E-02 0. -1.
       -1   -1    0    0    0  501  0.00000000000E+00  0.00000000000E+00 -0.12829372451E+04  0.12829372451E+04  0.50400001928E-02 0.  1.
    10030    2    1    2    0    0  0.00000000000E+00  0.00000000000E+00  0.19569283390E+03  0.27615673241E+04  0.27546249110E+04 0.  0.
        4    1    3    3  502    0  0.76781671663E+03  0.15897606006E+03 -0.10373377472E+04  0.13003411524E+04  0.12699999809E+01 0.  1.
       -4    1    3    3    0  502 -0.76781671663E+03 -0.15897606006E+03  0.12330305811E+04  0.14612261717E+04  0.12699999809E+01 0. -1.
</event>
<event>
 5   0  0.5329891E-06  0.2994769E+04  0.7818609E-02  0.8245226E-01
       -1   -1    0    0    0  501  0.00000000000E+00  0.00000000000E+00  0.14988178008E+04  0.14988178008E+04  0.50400001928E-02 0. -1.
        1   -1    0    0  501    0  0.00000000000E+00  0.00000000000E+00 -0.14959527624E+04  0.14959527624E+04  0.50400001928E-02 0.  1.
    10030    2    1    2    0    0  0.00000000000E+00  0.00000000000E+00  0.28650384119E+01  0.29947705633E+04  0.29947691928E+04 0.  0.
        4    1    3    3  502    0 -0.93014804535E+03  0.27443167761E+03  0.11423409625E+04  0.14984767664E+04  0.12699999809E+01 0. -1.
       -4    1    3    3    0  502  0.93014804535E+03 -0.27443167761E+03 -0.11394759241E+04  0.14962937968E+04  0.12699999809E+01 0.  1.
</event>
<event>
 5   0  0.1480547E-05  0.3025278E+04  0.7818609E-02  0.8236549E-01
        2   -1    0    0  501    0  0.00000000000E+00  0.00000000000E+00  0.11101286319E+04  0.11101286319E+04  0.25500000920E-02 0. -1.
       -2   -1    0    0    0  501  0.00000000000E+00  0.00000000000E+00 -0.20610920481E+04  0.20610920481E+04  0.25500000920E-02 0.  1.
    10030    2    1    2    0    0  0.00000000000E+00  0.00000000000E+00 -0.95096341621E+03  0.31712206799E+04  0.30252783643E+04 0.  0.
        1    1    3    3  502    0 -0.89147828308E+03 -0.37587283131E+03  0.74339463698E+03  0.12201022502E+04  0.50400001928E-02 0. -1.
       -1    1    3    3    0  502  0.89147828308E+03  0.37587283131E+03 -0.16943580532E+04  0.19511184298E+04  0.50400001928E-02 0.  1.
</event>
<event>
 5   0  0.1388724E-05  0.3043510E+04  0.7818609E-02  0.8231414E-01
        2   -1    0    0  501    0  0.00000000000E+00  0.00000000000E+00  0.15872490540E+04  0.15872490540E+04  0.25500000920E-02 0. -1.
       -2   -1    0    0    0  501  0.00000000000E+00  0.00000000000E+00 -0.14589630730E+04  0.14589630730E+04  0.25500000920E-02 0.  1.
    10030    2    1    2    0    0  0.00000000000E+00  0.00000000000E+00  0.12828598102E+03  0.30462121270E+04  0.30435096566E+04 0.  0.
        4    1    3    3  502    0 -0.39249233837E+03  0.50834732113E+03 -0.13166721341E+04  0.14649554110E+04  0.12699999809E+01 0.  1.
       -4    1    3    3    0  502  0.39249233837E+03 -0.50834732113E+03  0.14449581151E+04  0.15812567160E+04  0.12699999809E+01 0. -1.
</event>
<event>
 5   0  0.4806125E-06  0.3078824E+04  0.7818609E-02  0.8221573E-01
        3   -1    0    0  501    0  0.00000000000E+00  0.00000000000E+00  0.21520696568E+04  0.21520696592E+04  0.10100000352E+00 0. -1.
       -3   -1    0    0    0  501  0.00000000000E+00  0.00000000000E+00 -0.11011678911E+04  0.11011678957E+04  0.10100000352E+00 0.  1.
    10030    2    1    2    0    0  0.00000000000E+00  0.00000000000E+00  0.10509017658E+04  0.32532375549E+04  0.30788244620E+04 0.  0.
        4    1    3    3  502    0 -0.12146668701E+04  0.54399867148E+03  0.13428619598E+04  0.18906691979E+04  0.12699999809E+01 0. -1.
       -4    1    3    3    0  502  0.12146668701E+04 -0.54399867148E+03 -0.29196019401E+03  0.13625683571E+04  0.12699999809E+01 0.  1.
</event>
<event>
 5   0  0.1480547E-05  0.2979207E+04  0.7818609E-02  0.8249694E-01
       -2   -1    0    0    0  501  0.00000000000E+00  0.00000000000E+00  0.99158525726E+03  0.99158525726E+03  0.25500000920E-02 0. -1.
        2   -1    0    0  501    0  0.00000000000E+00  0.00000000000E+00 -0.22377485332E+04  0.22377485332E+04  0.25500000920E-02 0.  1.
    10030    2    1    2    0    0  0.00000000000E+00  0.00000000000E+00 -0.12461632759E+04  0.32293337905E+04  0.29792069112E+04 0.  0.
        1    1    3    3  502    0  0.69218516299E+03 -0.75727955723E+03  0.54755528086E+03  0.11629313880E+04  0.50400001928E-02 0. -1.
       -1    1    3    3    0  502 -0.69218516299E+03  0.75727955723E+03 -0.17937185568E+04  0.20664024024E+04  0.50400001928E-02 0.  1.
</event>
<event>
 5   0  0.1423692E-05  0.2877648E+04  0.7818609E-02  0.8279559E-01
        2   -1    0    0  501    0  0.00000000000E+00  0.00000000000E+00  0.15901497962E+04  0.15901497962E+04  0.25500000920E-02 0.  1.
       -2   -1    0    0    0  501  0.00000000000E+00  0.00000000000E+00 -0.13018993805E+04  0.13018993805E+04  0.25500000920E-02 0. -1.
    10030    2    1    2    0    0  0.00000000000E+00  0.00000000000E+00  0.28825041566E+03  0.28920491767E+04  0.28776483695E+04 0.  0.
        3    1    3    3  502    0  0.27351755082E+03 -0.12291143265E+04  0.84379965261E+03  0.15157611098E+04  0.10100000352E+00 0.  1.
       -3    1    3    3    0  502 -0.27351755082E+03  0.12291143265E+04 -0.55554923694E+03  0.13762880669E+04  0.10100000352E+00 0. -1.
</event>
<event>
 5   0  0.5730920E-06  0.2941955E+04  0.7818609E-02  0.8260503E-01
       -1   -1    0    0    0  501  0.00000000000E+00  0.00000000000E+00  0.17081139855E+04  0.17081139855E+04  0.50400001928E-02 0.  1.
        1   -1    0    0  501    0  0.00000000000E+00  0.00000000000E+00 -0.12667625733E+04  0.12667625733E+04  0.50400001928E-02 0. -1.
    10030    2    1    2    0    0  0.00000000000E+00  0.00000000000E+00  0.44135141216E+03  0.29748765588E+04  0.29419550423E+04 0.  0.
        1    1    3    3  502    0  0.43567681200E+03  0.72837723327E+03  0.14355472473E+04  0.16676761009E+04  0.50400001928E-02 0.  1.
       -1    1    3    3    0  502 -0.43567681200E+03 -0.72837723327E+03 -0.99419583510E+03  0.13072004579E+04  0.50400001928E-02 0. -1.
</event>
<event>
 5   0  0.5329891E-06  0.3015961E+04  0.7818609E-02  0.8239188E-01
       -1   -1    0    0    0  501  0.00000000000E+00  0.00000000000E+00  0.15659610353E+04  0.15659610353E+04  0.50400001928E-02 0. -1.
        1   -1    0    0  501    0  0.00000000000E+00  0.00000000000E+00 -0.14521470897E+04  0.14521470897E+04  0.50400001928E-02 0.  1.
    10030    2    1    2    0    0  0.00000000000E+00  0.00000000000E+00  0.11381394567E+03  0.30181081250E+04  0.30159613791E+04 0.  0.
        4    1    3    3  502    0 -0.42862287388E+03  0.60234542246E+03 -0.12583597872E+04  0.14594548787E+04  0.12699999809E+01 0.  1.
       -4    1    3    3    0  502  0.42862287388E+03 -0.60234542246E+03  0.13721737329E+04  0.15586532463E+04  0.12699999809E+01 0. -1.
</event>
<event>
 5   0  0.5522695E-06  0.2912960E+04  0.7818609E-02  0.8269032E-01
       -1   -1    0    0    0  501  0.00000000000E+00  0.00000000000E+00  0.11959836139E+04  0.11959836139E+04  0.50400001928E-02 0.  1.
        1   -1    0    0  501    0  0.00000000000E+00  0.00000000000E+00 -0.17737150729E+04  0.17737150729E+04  0.50400001928E-02 0. -1.
    10030    2    1    2    0    0  0.00000000000E+00  0.00000000000E+00 -0.57773145899E+03  0.29696986868E+04  0.29129601185E+04 0.  0.
        3    1    3    3  502    0  0.13485239742E+04  0.15909044856E+03  0.24818484998E+03  0.13803703886E+04  0.10100000352E+00 0.  1.
       -3    1    3    3    0  502 -0.13485239742E+04 -0.15909044856E+03 -0.82591630896E+03  0.15893282982E+04  0.10100000352E+00 0. -1.
</event>
<event>
 5   0  0.7032692E-06  0.2321745E+04  0.7818609E-02  0.8469396E-01
        1   -1    0    0  501    0  0.00000000000E+00  0.00000000000E+00  0.13827206383E+04  0.13827206383E+04  0.50400001928E-02 0.  1.
       -1   -1    0    0    0  501  0.00000000000E+00  0.00000000000E+00 -0.97461832239E+03  0.97461832241E+03  0.50400001928E-02 0. -1.
    10030    2    1    2    0    0  0.00000000000E+00  0.00000000000E+00  0.40810231587E+03  0.23573389607E+04  0.23217449204E+04 0.  0.
        5    1    3    3  502    0  0.98136695167E+02 -0.11407638625E+04  0.39837436650E+03  0.12123106973E+04  0.46999998093E+01 0.  1.
       -5    1    3    3    0  502 -0.98136695167E+02  0.11407638625E+04  0.97279493620E+01  0.11450282634E+04  0.46999998093E+01 0. -1.
</event>
<event>
 5   0  0.5522695E-06  0.3154242E+04  0.7818609E-02  0.8201007E-01
       -1   -1    0    0    0  501  0.00000000000E+00  0.00000000000E+00  0.18686216290E+04  0.18686216290E+04  0.50400001928E-02 0. -1.
        1   -1    0    0  501    0  0.00000000000E+00  0.00000000000E+00 -0.13310936922E+04  0.13310936922E+04  0.50400001928E-02 0.  1.
    10030    2    1    2    0    0  0.00000000000E+00  0.00000000000E+00  0.53752793683E+03  0.31997153212E+04  0.31542418826E+04 0.  0.
        3    1    3    3  502    0 -0.25158564149E+03  0.64721931287E+03  0.17052016127E+04  0.18411683042E+04  0.10100000352E+00 0. -1.
       -3    1    3    3    0  502  0.25158564149E+03 -0.64721931287E+03 -0.11676736759E+04  0.13585470171E+04  0.10100000352E+00 0.  1.
</event>
<event>
 5   0  0.1388724E-05  0.2839595E+04  0.7818609E-02  0.8291080E-01
       -2   -1    0    0    0  501  0.00000000000E+00  0.00000000000E+00  0.13131627255E+04  0.13131627255E+04  0.25500000920E-02 0.  1.
        2   -1    0    0  501    0  0.00000000000E+00  0.00000000000E+00 -0.15350915139E+04  0.15350915139E+04  0.25500000920E-02 0. -1.
    10030    2    1    2    0    0  0.00000000000E+00  0.00000000000E+00 -0.22192878840E+03  0.28482542393E+04  0.28395950107E+04 0.  0.
        4    1    3    3  502    0 -0.36428804452E+03  0.13667361236E+04 -0.23442479914E+03  0.14337468431E+04  0.12699999809E+01 0.  1.
       -4    1    3    3    0  502  0.36428804452E+03 -0.13667361236E+04  0.12496010746E+02  0.14145073962E+04  0.12699999809E+01 0. -1.
</event>
<event>
 5   0  0.1480547E-05  0.1896971E+04  0.7818609E-02  0.8656366E-01
        2   -1    0    0  501    0  0.00000000000E+00  0.00000000000E+00  0.11880836845E+04  0.11880836845E+04  0.25500000920E-02 0. -1.
       -2   -1    0    0    0  501  0.00000000000E+00  0.00000000000E+00 -0.75720640647E+03  0.75720640648E+03  0.25500000920E-02 0.  1.
    10030    2    1    2    0    0  0.00000000000E+00  0.00000000000E+00  0.43087727801E+03  0.19452900910E+04  0.18969708246E+04 0.  0.
        1    1    3    3  502    0 -0.43265538461E+03  0.30612842440E+03 -0.59118426365E+03  0.79397992901E+03  0.50400001928E-02 0.  1.
       -1    1    3    3    0  502  0.43265538461E+03 -0.30612842440E+03  0.10220615417E+04  0.11513101620E+04  0.50400001928E-02 0. -1.
</event>
<event>
 5   0  0.5392262E-06  0.2955375E+04  0.7818609E-02  0.8256590E-01
        1   -1    0    0  501    0  0.00000000000E+00  0.00000000000E+00  0.20590102091E+04  0.20590102091E+04  0.50400001928E-02 0. -1.
       -1   -1    0    0    0  501  0.00000000000E+00  0.00000000000E+00 -0.10604904142E+04  0.10604904142E+04  0.50400001928E-02 0.  1.
    10030    2    1    2    0    0  0.00000000000E+00  0.00000000000E+00  0.99851979488E+03  0.31195006234E+04  0.29553751637E+04 0.  0.
        2    1    3    3  502    0  0.74000568572E+03  0.58631061891E+03 -0.70061505362E+03  0.11756827846E+04  0.25500000920E-02 0.  1.
       -2    1    3    3    0  502 -0.74000568572E+03 -0.58631061891E+03  0.16991348485E+04  0.19438178387E+04  0.25500000920E-02 0. -1.
</event>
<event>
 5   0  0.1523029E-05  0.3104698E+04  0.7818609E-02  0.8214450E-01
       -2   -1    0    0    0  501  0.00000000000E+00  0.00000000000E+00  0.14564164504E+04  0.14564164504E+04  0.25500000920E-02 0.  1.
        2   -1    0    0  501    0  0.00000000000E+00  0.00000000000E+00 -0.16546009357E+04  0.16546009357E+04  0.25500000920E-02 0. -1.
    10030    2    1    2    0    0  0.00000000000E+00  0.00000000000E+00 -0.19818448526E+03  0.31110173861E+04  0.31046983889E+04 0.  0.
        5    1    3    3  502    0 -0.12190556981E+04  0.50995807023E+03 -0.91537402774E+03  0.16075091692E+04  0.46999998093E+01 0. -1.
       -5    1    3    3    0  502  0.12190556981E+04 -0.50995807023E+03  0.71718954248E+03  0.15035082169E+04  0.46999998093E+01 0.  1.
</event>
<event>
 5   0  0.5392262E-06  0.2960280E+04  0.7818609E-02  0.8255165E-01
        1   -1    0    0  501    0  0.00000000000E+00  0.00000000000E+00  0.13847487920E+04  0.13847487920E+04  0.50400001928E-02 0. -1.
       -1   -1    0    0    0  501  0.00000000000E+00  0.00000000000E+00 -0.15821022727E+04  0.15821022727E+04  0.50400001928E-02 0.  1.
    10030    2    1    2    0    0  0.00000000000E+00  0.00000000000E+00 -0.19735348062E+03  0.29668510647E+04  0.29602798590E+04 0.  0.
        2    1    3    3  502    0  0.77290028816E+03 -0.11692118508E+04  0.37817666000E+03  0.14517054776E+04  0.25500000920E-02 0.  1.
       -2    1    3    3    0  502 -0.77290028816E+03  0.11692118508E+04 -0.57553014062E+03  0.15151455871E+04  0.25500000920E-02 0. -1.
</event>
<event>
 5   0  0.1345931E-05  0.2943624E+04  0.7818609E-02  0.8260015E-01
       -2   -1    0    0    0  501  0.00000000000E+00  0.00000000000E+00  0.18600261944E+04  0.18600261944E+04  0.25500000920E-02 0.  1.
        2   -1    0    0  501    0  0.00000000000E+00  0.00000000000E+00 -0.11646234837E+04  0.11646234837E+04  0.25500000920E-02 0. -1.
    10030    2    1    2    0    0  0.00000000000E+00  0.00000000000E+00  0.69540271067E+03  0.30246496781E+04  0.29436237438E+04 0.  0.
        2    1    3    3  502    0  0.87085567255E+03 -0.51229709488E+03  0.14473904228E+04  0.17651563534E+04  0.25500000920E-02 0.  1.
       -2    1    3    3    0  502 -0.87085567255E+03  0.51229709488E+03 -0.75198771210E+03  0.12594933247E+04  0.25500000920E-02 0. -1.
</event>
<event>
 5   0  0.1423692E-05  0.2833769E+04  0.7818609E-02  0.8292861E-01
        2   -1    0    0  501    0  0.00000000000E+00  0.00000000000E+00  0.81443755694E+03  0.81443755695E+03  0.25500000920E-02 0. -1.
       -2   -1    0    0    0  501  0.00000000000E+00  0.00000000000E+00 -0.24649664065E+04  0.24649664065E+04  0.25500000920E-02 0.  1.
    10030    2    1    2    0    0  0.00000000000E+00  0.00000000000E+00 -0.16505288496E+04  0.32794039635E+04  0.28337686695E+04 0.  0.
        3    1    3    3  502    0 -0.55064577462E+03 -0.51865983875E+03 -0.22117274160E+04  0.23375108493E+04  0.10100000352E+00 0.  1.
       -3    1    3    3    0  502  0.55064577462E+03  0.51865983875E+03  0.56119856644E+03  0.94189311421E+03  0.10100000352E+00 0. -1.
</event>
<event>
 5   0  0.1480547E-05  0.2945751E+04  0.7818609E-02  0.8259394E-01
       -2   -1    0    0    0  501  0.00000000000E+00  0.00000000000E+00  0.11046609141E+04  0.11046609141E+04  0.25500000920E-02 0.  1.
        2   -1    0    0  501    0  0.00000000000E+00  0.00000000000E+00 -0.19638267514E+04  0.19638267514E+04  0.25500000920E-02 0. -1.
    10030    2    1    2    0    0  0.00000000000E+00  0.00000000000E+00 -0.85916583728E+03  0.30684876655E+04  0.29457512823E+04 0.  0.
        1    1    3    3  502    0  0.32331707174E+03  0.13633612506E+04  0.43286008883E+02  0.14018421834E+04  0.50400001928E-02 0.  1.
       -1    1    3    3    0  502 -0.32331707174E+03 -0.13633612506E+04 -0.90245184616E+03  0.16666454821E+04  0.50400001928E-02 0. -1.
</event>
<event>
 5   0  0.1388724E-05  0.2981601E+04  0.7818609E-02  0.8249004E-01
        2   -1    0    0  501    0  0.00000000000E+00  0.00000000000E+00  0.26824324703E+04  0.26824324704E+04  0.25500000920E-02 0. -1.
       -2   -1    0    0    0  501  0.00000000000E+00  0.00000000000E+00 -0.82853405440E+03  0.82853405440E+03  0.25500000920E-02 0.  1.
    10030    2    1    2    0    0  0.00000000000E+00  0.00000000000E+00  0.18538984160E+04  0.35109665248E+04  0.29816013485E+04 0.  0.
        4    1    3    3  502    0 -0.92077694363E+03  0.10985661669E+04  0.14093216101E+04  0.20101907413E+04  0.12699999809E+01 0. -1.
       -4    1    3    3    0  502  0.92077694363E+03 -0.10985661669E+04  0.44457680587E+03  0.15007757834E+04  0.12699999809E+01 0.  1.
</event>
<event>
 5   0  0.7032692E-06  0.3006892E+04  0.7818609E-02  0.8241766E-01
        1   -1    0    0  501    0  0.00000000000E+00  0.00000000000E+00  0.20018943233E+04  0.20018943234E+04  0.50400001928E-02 0. -1.
       -1   -1    0    0    0  501  0.00000000000E+00  0.00000000000E+00 -0.11291055751E+04  0.11291055751E+04  0.50400001928E-02 0.  1.
    10030    2    1    2    0    0  0.00000000000E+00  0.00000000000E+00  0.87278874827E+03  0.31309998984E+04  0.30068921106E+04 0.  0.
        5    1    3    3  502    0  0.51264174513E+03 -0.12532369627E+04 -0.24396792867E+03  0.13758440623E+04  0.46999998093E+01 0.  1.
       -5    1    3    3    0  502 -0.51264174513E+03  0.12532369627E+04  0.11167566769E+04  0.17551558361E+04  0.46999998093E+01 0. -1.
</event>
<event>
 5   0  0.5329891E-06  0.2842647E+04  0.7818609E-02  0.8290149E-01
       -1   -1    0    0    0  501  0.00000000000E+00  0.00000000000E+00  0.88119068702E+03  0.88119068704E+03  0.50400001928E-02 0. -1.
        1   -1    0    0  501    0  0.00000000000E+00  0.00000000000E+00 -0.22925342197E+04  0.22925342197E+04  0.50400001928E-02 0.  1.
    10030    2    1    2    0    0  0.00000000000E+00  0.00000000000E+00 -0.14113435326E+04  0.31737249067E+04  0.28426465162E+04 0.  0.
        4    1    3    3  502    0  0.40663641641E+03  0.60809550643E+03 -0.20662179401E+04  0.21918922211E+04  0.12699999809E+01 0.  1.
       -4    1    3    3    0  502 -0.40663641641E+03 -0.60809550643E+03  0.65487440745E+03  0.98183268561E+03  0.12699999809E+01 0. -1.
</event>
<event>
 5   0  0.4806125E-06  0.3021953E+04  0.7818609E-02  0.8237490E-01
       -3   -1    0    0    0  501  0.00000000000E+00  0.00000000000E+00  0.10653885822E+04  0.10653885870E+04  0.10100000352E+00 0. -1.
        3   -1    0    0  501    0  0.00000000000E+00  0.00000000000E+00 -0.21429274262E+04  0.21429274286E+04  0.10100000352E+00 0.  1.
    10030    2    1    2    0    0  0.00000000000E+00  0.00000000000E+00 -0.10775388441E+04  0.32083160156E+04  0.30219532914E+04 0.  0.
        1    1    3    3  502    0  0.10963356755E+04 -0.61505758879E+03  0.35126354665E+03  0.13052332474E+04  0.50400001928E-02 0. -1.
       -1    1    3    3    0  502 -0.10963356755E+04  0.61505758879E+03 -0.14288023907E+04  0.19030827682E+04  0.50400001928E-02 0.  1.
</event>
<event>
 5   0  0.1423692E-05  0.1948487E+04  0.7818609E-02  0.8631091E-01
       -2   -1    0    0    0  501  0.00000000000E+00  0.00000000000E+00  0.55043960341E+03  0.55043960342E+03  0.25500000920E-02 0. -1.
        2   -1    0    0  501    0  0.00000000000E+00  0.00000000000E+00 -0.17243500634E+04  0.17243500634E+04  0.25500000920E-02 0.  1.
    10030    2    1    2    0    0  0.00000000000E+00  0.00000000000E+00 -0.11739104600E+04  0.22747896668E+04  0.19484871722E+04 0.  0.
        3    1    3    3  502    0  0.72760848067E+03  0.84041761385E+02  0.16302005703E+03  0.75036835487E+03  0.10100000352E+00 0. -1.
       -3    1    3    3    0  502 -0.72760848067E+03 -0.84041761385E+02 -0.13369305170E+04  0.15244213120E+04  0.10100000352E+00 0.  1.
</event>
<event>
 5   0  0.1345931E-05  0.3015344E+04  0.7818609E-02  0.8239363E-01
        2   -1    0    0  501    0  0.00000000000E+00  0.00000000000E+00  0.17723487513E+04  0.17723487513E+04  0.25500000920E-02 0. -1.
       -2   -1    0    0    0  501  0.00000000000E+00  0.00000000000E+00 -0.12825209623E+04  0.12825209623E+04  0.25500000920E-02 0.  1.
    10030    2    1    2    0    0  0.00000000000E+00  0.00000000000E+00  0.48982778893E+03  0.30548697136E+04  0.30153437125E+04 0.  0.
        2    1    3    3  502    0 -0.96474328172E+03  0.66740021366E+03 -0.71455998184E+03  0.13735896813E+04  0.25500000920E-02 0.  1.
       -2    1    3    3    0  502  0.96474328172E+03 -0.66740021366E+03  0.12043877708E+04  0.16812800324E+04  0.25500000920E-02 0. -1.
</event>
<event>
 5   0  0.1523029E-05  0.2882839E+04  0.7818609E-02  0.8278002E-01
       -2   -1    0    0    0  501  0.00000000000E+00  0.00000000000E+00  0.12097126573E+04  0.12097126573E+04  0.25500000920E-02 0.  1.
        2   -1    0    0  501    0  0.00000000000E+00  0.00000000000E+00 -0.17175068119E+04  0.17175068119E+04  0.25500000920E-02 0. -1.
    10030    2    1    2    0    0  0.00000000000E+00  0.00000000000E+00 -0.50779415459E+03  0.29272194692E+04  0.28828386908E+04 0.  0.
        5    1    3    3  502    0  0.84649925228E+03 -0.72131708164E+03 -0.11849694579E+04  0.16251258482E+04  0.46999998093E+01 0. -1.
       -5    1    3    3    0  502 -0.84649925228E+03  0.72131708164E+03  0.67717530330E+03  0.13020936210E+04  0.46999998093E+01 0.  1.
</event>
<event>
 5   0  0.5329891E-06  0.3064632E+04  0.7818609E-02  0.8225512E-01
       -1   -1    0    0    0  501  0.00000000000E+00  0.00000000000E+00  0.20170094779E+04  0.20170094779E+04  0.50400001928E-02 0. -1.
        1   -1    0    0  501    0  0.00000000000E+00  0.00000000000E+00 -0.11640954994E+04  0.11640954994E+04  0.50400001928E-02 0.  1.
    10030    2    1    2    0    0  0.00000000000E+00  0.00000000000E+00  0.85291397854E+03  0.31811049773E+04  0.30646315638E+04 0.  0.
        4    1    3    3  502    0 -0.90040760237E+03 -0.67945715331E+03 -0.65006759100E+03  0.13019160339E+04  0.12699999809E+01 0.  1.
       -4    1    3    3    0  502  0.90040760237E+03  0.67945715331E+03  0.15029815695E+04  0.18791889434E+04  0.12699999809E+01 0. -1.
</event>
<event>
 5   0  0.5730920E-06  0.1919523E+04  0.7818609E-02  0.8645199E-01
        1   -1    0    0  501    0  0.00000000000E+00  0.00000000000E+00  0.18822222240E+04  0.18822222240E+04  0.50400001928E-02 0.  1.
       -1   -1    0    0    0  501  0.00000000000E+00  0.00000000000E+00 -0.48939060269E+03  0.48939060272E+03  0.50400001928E-02 0. -1.
    10030    2    1    2    0    0  0.00000000000E+00  0.00000000000E+00  0.13928316213E+04  0.23716128267E+04  0.19195227205E+04 0.  0.
        1    1    3    3  502    0  0.26227317848E+03 -0.48860960564E+03 -0.27141317352E+03  0.61740722190E+03  0.50400001928E-02 0. -1.
       -1    1    3    3    0  502 -0.26227317848E+03  0.48860960564E+03  0.16642447949E+04  0.17542056048E+04  0.50400001928E-02 0.  1.
</event>
<event>
 5   0  0.1345931E-05  0.3025838E+04  0.7818609E-02  0.8236391E-01
       -2   -1    0    0    0  501  0.00000000000E+00  0.00000000000E+00  0.93245489975E+03  0.93245489975E+03  0.25500000920E-02 0. -1.
        2   -1    0    0  501    0  0.00000000000E+00  0.00000000000E+00 -0.24547289736E+04  0.24547289736E+04  0.25500000920E-02 0.  1.
    10030    2    1    2    0    0  0.00000000000E+00  0.00000000000E+00 -0.15222740738E+04  0.33871838733E+04  0.30258381047E+04 0.  0.
        2    1    3    3  502    0  0.38182792855E+03 -0.10680423211E+04  0.35963507761E+03  0.11898925816E+04  0.25500000920E-02 0. -1.
       -2    1    3    3    0  502 -0.38182792855E+03  0.10680423211E+04 -0.18819091514E+04  0.21972912918E+04  0.25500000920E-02 0.  1.
</event>
<event>
 5   0  0.5329891E-06  0.3033085E+04  0.7818609E-02  0.8234346E-01
        1   -1    0    0  501    0  0.00000000000E+00  0.00000000000E+00  0.19728909672E+04  0.19728909672E+04  0.50400001928E-02 0.  1.
       -1   -1    0    0    0  501  0.00000000000E+00  0.00000000000E+00 -0.11657520798E+04  0.11657520799E+04  0.50400001928E-02 0. -1.
    10030    2    1    2    0    0  0.00000000000E+00  0.00000000000E+00  0.80713888732E+03  0.31386430470E+04  0.30330853917E+04 0.  0.
        4    1    3    3  502    0  0.10929273254E+04 -0.37975725988E+03 -0.61095592225E+03  0.13084244216E+04  0.12699999809E+01 0. -1.
       -4    1    3    3    0  502 -0.10929273254E+04  0.37975725988E+03  0.14180948096E+04  0.18302186254E+04  0.12699999809E+01 0.  1.
</event>
<event>
 5   0  0.1388724E-05  0.3099445E+04  0.7818609E-02  0.8215890E-01
       -2   -1    0    0    0  501  0.00000000000E+00  0.00000000000E+00  0.16009322439E+04  0.16009322439E+04  0.25500000920E-02 0.  1.
        2   -1    0    0  501    0  0.00000000000E+00  0.00000000000E+00 -0.15001508993E+04  0.15001508993E+04  0.25500000920E-02 0. -1.
    10030    2    1    2    0    0  0.00000000000E+00  0.00000000000E+00  0.10078134463E+03  0.31010831431E+04  0.30994450763E+04 0.  0.
        4    1    3    3  502    0 -0.10210405177E+03 -0.14215297890E+04  0.65937165929E+03  0.15703326961E+04  0.12699999809E+01 0.  1.
       -4    1    3    3    0  502  0.10210405177E+03  0.14215297890E+04 -0.55859031466E+03  0.15307504470E+04  0.12699999809E+01 0. -1.
</event>
<event>
 5   0  0.7032692E-06  0.2696480E+04  0.7818609E-02  0.8336148E-01
        1   -1    0    0  501    0  0.00000000000E+00  0.00000000000E+00  0.15688652999E+04  0.15688652999E+04  0.50400001928E-02 0.  1.
       -1   -1    0    0    0  501  0.00000000000E+00  0.00000000000E+00 -0.11586407178E+04  0.11586407178E+04  0.50400001928E-02 0. -1.
    10030    2    1    2    0    0  0.00000000000E+00  0.00000000000E+00  0.41022458211E+03  0.27275060176E+04  0.26964800886E+04 0.  0.
        5    1    3    3  502    0 -0.54941668188E+03 -0.59460636279E+03 -0.88539903370E+03  0.11997370361E+04  0.46999998093E+01 0. -1.
       -5    1    3    3    0  502  0.54941668188E+03  0.59460636279E+03  0.12956236158E+04  0.15277689815E+04  0.46999998093E+01 0.  1.
</event>
<event>
 5   0  0.1423692E-05  0.2978755E+04  0.7818609E-02  0.8249824E-01
        2   -1    0    0  501    0  0.00000000000E+00  0.00000000000E+00  0.17661421760E+04  0.17661421760E+04  0.25500000920E-02 0.  1.
       -2   -1    0    0    0  501  0.00000000000E+00  0.00000000000E+00 -0.12559834723E+04  0.12559834723E+04  0.25500000920E-02 0. -1.
    10030    2    1    2    0    0  0.00000000000E+00  0.00000000000E+00  0.51015870364E+03  0.30221256483E+04  0.29787550304E+04 0.  0.
        3    1    3    3  502    0 -0.13893681033E+04 -0.42903397336E+03  0.58199994865E+03  0.15662496057E+04  0.10100000352E+00 0.  1.
       -3    1    3    3    0  502  0.13893681033E+04  0.42903397336E+03 -0.71841245009E+02  0.14558760426E+04  0.10100000352E+00 0. -1.
</event>
<event>
 5   0  0.1480547E-05  0.2520274E+04  0.7818609E-02  0.8395798E-01
        2   -1    0    0  501    0  0.00000000000E+00  0.00000000000E+00  0.98586226010E+03  0.98586226010E+03  0.25500000920E-02 0.  1.
       -2   -1    0    0    0  501  0.00000000000E+00  0.00000000000E+00 -0.16107169727E+04  0.16107169727E+04  0.25500000920E-02 0. -1.
    10030    2    1    2    0    0  0.00000000000E+00  0.00000000000E+00 -0.62485471261E+03  0.25965792328E+04  0.25202738542E+04 0.  0.
        1    1    3    3  502    0 -0.48020616782E+03  0.41153403034E+03 -0.14353753993E+04  0.15685218388E+04  0.50400001928E-02 0. -1.
       -1    1    3    3    0  502  0.48020616782E+03 -0.41153403034E+03  0.81052068672E+03  0.10280573940E+04  0.50400001928E-02 0.  1.
</event>
<event>
 5   0  0.5522695E-06  0.3072994E+04  0.7818609E-02  0.8223189E-01
       -1   -1    0    0    0  501  0.00000000000E+00  0.00000000000E+00  0.19762833109E+04  0.19762833109E+04  0.50400001928E-02 0. -1.
        1   -1    0    0  501    0  0.00000000000E+00  0.00000000000E+00 -0.11945772545E+04  0.11945772545E+04  0.50400001928E-02 0.  1.
    10030    2    1    2    0    0  0.00000000000E+00  0.00000000000E+00  0.78170605636E+03  0.31708605654E+04  0.30729940395E+04 0.  0.
        3    1    3    3  502    0 -0.45529363035E+03 -0.63179513963E+03 -0.97585419605E+03  0.12484986225E+04  0.10100000352E+00 0.  1.
       -3    1    3    3    0  502  0.45529363035E+03  0.63179513963E+03  0.17575602524E+04  0.19223619429E+04  0.10100000352E+00 0. -1.
</event>
<event>
 5   0  0.5329891E-06  0.2985901E+04  0.7818609E-02  0.8247768E-01
        1   -1    0    0  501    0  0.00000000000E+00  0.00000000000E+00  0.26020605739E+04  0.26020605739E+04  0.50400001928E-02 0.  1.
       -1   -1    0    0    0  501  0.00000000000E+00  0.00000000000E+00 -0.85659097090E+03  0.85659097091E+03  0.50400001928E-02 0. -1.
    10030    2    1    2    0    0  0.00000000000E+00  0.00000000000E+00  0.17454696030E+04  0.34586515448E+04  0.29859012665E+04 0.  0.
        4    1    3    3  502    0  0.23961795887E+03  0.11594274174E+04 -0.18077744882E+03  0.11976522038E+04  0.12699999809E+01 0. -1.
       -4    1    3    3    0  502 -0.23961795887E+03 -0.11594274174E+04  0.19262470518E+04  0.22609993410E+04  0.12699999809E+01 0.  1.
</event>
<event>
 5   0  0.5329891E-06  0.3122183E+04  0.7818609E-02  0.8209676E-01
       -1   -1    0    0    0  501  0.00000000000E+00  0.00000000000E+00  0.13697433979E+04  0.13697433979E+04  0.50400001928E-02 0.  1.
        1   -1    0    0  501    0  0.00000000000E+00  0.00000000000E+00 -0.17791698469E+04  0.17791698469E+04  0.50400001928E-02 0. -1.
    10030    2    1    2    0    0  0.00000000000E+00  0.00000000000E+00 -0.40942644905E+03  0.31489132448E+04  0.31221826670E+04 0.  0.
        4    1    3    3  502    0  0.96790558077E+03  0.84718348343E+03 -0.10968447218E+04  0.16904529051E+04  0.12699999809E+01 0. -1.
       -4    1    3    3    0  502 -0.96790558077E+03 -0.84718348343E+03  0.68741827272E+03  0.14584603397E+04  0.12699999809E+01 0.  1.
</event>
<event>
 5   0  0.5329891E-06  0.2936967E+04  0.7818609E-02  0.8261963E-01
       -1   -1    0    0    0  501  0.00000000000E+00  0.00000000000E+00  0.11652680964E+04  0.11652680964E+04  0.50400001928E-02 0.  1.
        1   -1    0    0  501    0  0.00000000000E+00  0.00000000000E+00 -0.18505988004E+04  0.18505988004E+04  0.50400001928E-02 0. -1.
    10030    2    1    2    0    0  0.00000000000E+00  0.00000000000E+00 -0.68533070399E+03  0.30158668968E+04  0.29369669671E+04 0.  0.
        4    1    3    3  502    0  0.77343368941E+03  0.58497632082E+03 -0.14750343228E+04  0.17652548921E+04  0.12699999809E+01 0. -1.
       -4    1    3    3    0  502 -0.77343368941E+03 -0.58497632082E+03  0.78970361882E+03  0.12506120047E+04  0.12699999809E+01 0.  1.
</event>
<event>
 5   0  0.5730920E-06  0.2550376E+04  0.7818609E-02  0.8385255E-01
       -1   -1    0    0    0  501  0.00000000000E+00  0.00000000000E+00  0.11492282566E+04  0.11492282566E+04  0.50400001928E-02 0. -1.
        1   -1    0    0  501    0  0.00000000000E+00  0.00000000000E+00 -0.14149532879E+04  0.14149532879E+04  0.50400001928E-02 0.  1.
    10030    2    1    2    0    0  0.00000000000E+00  0.00000000000E+00 -0.26572503131E+03  0.25641815446E+04  0.25503758941E+04 0.  0.
        1    1    3    3  502    0  0.17914346430E+03  0.20560352687E+03  0.11195688292E+04  0.11523018503E+04  0.50400001928E-02 0. -1.
       -1    1    3    3    0  502 -0.17914346430E+03 -0.20560352687E+03 -0.13852938605E+04  0.14118796942E+04  0.50400001928E-02 0.  1.
</event>
<event>
 5   0  0.1523029E-05  0.2943481E+04  0.7818609E-02  0.8260057E-01
        2   -1    0    0  501    0  0.00000000000E+00  0.00000000000E+00  0.28345143689E+04  0.28345143689E+04  0.25500000920E-02 0.  1.
       -2   -1    0    0    0  501  0.00000000000E+00  0.00000000000E+00 -0.76415923055E+03  0.76415923055E+03  0.25500000920E-02 0. -1.
    10030    2    1    2    0    0  0.00000000000E+00  0.00000000000E+00  0.20703551384E+04  0.35986735995E+04  0.29434811494E+04 0.  0.
        5    1    3    3  502    0  0.12111611568E+04 -0.38575071067E+03  0.19421087928E+04  0.23211039640E+04  0.46999998093E+01 0.  1.
       -5    1    3    3    0  502 -0.12111611568E+04  0.38575071067E+03  0.12824634562E+03  0.12775696355E+04  0.46999998093E+01 0. -1.
</event>
<event>
 5   0  0.1345931E-05  0.2979388E+04  0.7818609E-02  0.8249641E-01
        2   -1    0    0  501    0  0.00000000000E+00  0.00000000000E+00  0.16408446426E+04  0.16408446426E+04  0.25500000920E-02 0. -1.
       -2   -1    0    0    0  501  0.00000000000E+00  0.00000000000E+00 -0.13524665820E+04  0.13524665820E+04  0.25500000920E-02 0.  1.
    10030    2    1    2    0    0  0.00000000000E+00  0.00000000000E+00  0.28837806064E+03  0.29933112246E+04  0.29793875514E+04 0.  0.
        2    1    3    3  502    0  0.48025065731E+02 -0.11651394543E+04  0.10755223979E+04  0.15863810335E+04  0.25500000920E-02 0. -1.
       -2    1    3    3    0  502 -0.48025065731E+02  0.11651394543E+04 -0.78714433730E+03  0.14069301911E+04  0.25500000920E-02 0.  1.
</event>
<event>
 5   0  0.5392262E-06  0.2978210E+04  0.7818609E-02  0.8249981E-01
       -1   -1    0    0    0  501  0.00000000000E+00  0.00000000000E+00  0.10825326985E+04  0.10825326986E+04  0.50400001928E-02 0.  1.
        1   -1    0    0  501    0  0.00000000000E+00  0.00000000000E+00 -0.20483758718E+04  0.20483758718E+04  0.50400001928E-02 0. -1.
    10030    2    1    2    0    0  0.00000000000E+00  0.00000000000E+00 -0.96584317323E+03  0.31309085703E+04  0.29782101068E+04 0.  0.
        2    1    3    3  502    0 -0.12780499879E+04  0.50919336004E+03  0.11615970991E+03  0.13806457647E+04  0.25500000920E-02 0.  1.
       -2    1    3    3    0  502  0.12780499879E+04 -0.50919336004E+03 -0.10820028831E+04  0.17502628056E+04  0.25500000920E-02 0. -1.
</event>
<event>
 5   0  0.5730920E-06  0.2985999E+04  0.7818609E-02  0.8247740E-01
        1   -1    0    0  501    0  0.00000000000E+00  0.00000000000E+00  0.12943634995E+04  0.12943634995E+04  0.50400001928E-02 0. -1.
       -1   -1    0    0    0  501  0.00000000000E+00  0.00000000000E+00 -0.17221191138E+04  0.17221191138E+04  0.50400001928E-02 0.  1.
    10030    2    1    2    0    0  0.00000000000E+00  0.00000000000E+00 -0.42775561427E+03  0.30164826133E+04  0.29859994124E+04 0.  0.
        1    1    3    3  502    0 -0.41782776364E+03  0.36056494952E+03  0.11875336563E+04  0.13095126222E+04  0.50400001928E-02 0. -1.
       -1    1    3    3    0  502  0.41782776364E+03 -0.36056494952E+03 -0.16152892706E+04  0.17069699911E+04  0.50400001928E-02 0.  1.
</event>
<event>
 5   0  0.5522695E-06  0.1837464E+04  0.7818609E-02  0.8686626E-01
       -1   -1    0    0    0  501  0.00000000000E+00  0.00000000000E+00  0.49506611914E+03  0.49506611917E+03  0.50400001928E-02 0.  1.
        1   -1    0    0  501    0  0.00000000000E+00  0.00000000000E+00 -0.17049612814E+04  0.17049612814E+04  0.50400001928E-02 0. -1.
    10030    2    1    2    0    0  0.00000000000E+00  0.00000000000E+00 -0.12098951622E+04  0.22000274005E+04  0.18374640839E+04 0.  0.
        3    1    3    3  502    0 -0.73850453650E+02 -0.89311106691E+02  0.48627960874E+03  0.49989822100E+03  0.10100000352E+00 0.  1.
       -3    1    3    3    0  502  0.73850453650E+02  0.89311106691E+02 -0.16961747709E+04  0.17001291795E+04  0.10100000352E+00 0. -1.
</event>
<event>
 5   0  0.5730920E-06  0.2988360E+04  0.7818609E-02  0.8247063E-01
       -1   -1    0    0    0  501  0.00000000000E+00  0.00000000000E+00  0.12007579040E+04  0.12007579040E+04  0.50400001928E-02 0.  1.
        1   -1    0    0  501    0  0.00000000000E+00  0.00000000000E+00 -0.18593039365E+04  0.18593039365E+04  0.50400001928E-02 0. -1.
    10030    2    1    2    0    0  0.00000000000E+00  0.00000000000E+00 -0.65854603249E+03  0.30600618405E+04  0.29883600169E+04 0.  0.
        1    1    3    3  502    0  0.83911394644E+02  0.44378021578E+03  0.11291873416E+04  0.12161603737E+04  0.50400001928E-02 0.  1.
       -1    1    3    3    0  502 -0.83911394644E+02 -0.44378021578E+03 -0.17877333741E+04  0.18439014668E+04  0.50400001928E-02 0. -1.
</event>
<event>
 5   0  0.5329891E-06  0.2957501E+04  0.7818609E-02  0.8255972E-01
        1   -1    0    0  501    0  0.00000000000E+00  0.00000000000E+00  0.15166587957E+04  0.15166587957E+04  0.50400001928E-02 0. -1.
       -1   -1    0    0    0  501  0.00000000000E+00  0.00000000000E+00 -0.14417898773E+04  0.14417898773E+04  0.50400001928E-02 0.  1.
    10030    2    1    2    0    0  0.00000000000E+00  0.00000000000E+00  0.74868918410E+02  0.29584486730E+04  0.29575011743E+04 0.  0.
        4    1    3    3  502    0  0.39489020539E+03 -0.23838055590E+03 -0.13679847350E+04  0.14436576505E+04  0.12699999809E+01 0.  1.
       -4    1    3    3    0  502 -0.39489020539E+03  0.23838055590E+03  0.14428536534E+04  0.15147910225E+04  0.12699999809E+01 0. -1.
</event>
<event>
 5   0  0.5329891E-06  0.1625663E+04  0.7818609E-02  0.8804935E-01
       -1   -1    0    0    0  501  0.00000000000E+00  0.00000000000E+00  0.97660961640E+03  0.97660961642E+03  0.50400001928E-02 0.  1.
        1   -1    0    0  501    0  0.00000000000E+00  0.00000000000E+00 -0.67651945139E+03  0.67651945141E+03  0.50400001928E-02 0. -1.
    10030    2    1    2    0    0  0.00000000000E+00  0.00000000000E+00  0.30009016502E+03  0.16531290678E+04  0.16256634362E+04 0.  0.
        4    1    3    3  502    0  0.61549237456E+01 -0.53588900286E+03  0.77149931459E+03  0.93937623548E+03  0.12699999809E+01 0.  1.
       -4    1    3    3    0  502 -0.61549237456E+01  0.53588900286E+03 -0.47140914957E+03  0.71375283234E+03  0.12699999809E+01 0. -1.
</event>
<event>
 5   0  0.5522695E-06  0.2996915E+04  0.7818609E-02  0.8244612E-01
        1   -1    0    0  501    0  0.00000000000E+00  0.00000000000E+00  0.15228180082E+04  0.15228180082E+04  0.50400001928E-02 0.  1.
       -1   -1    0    0    0  501  0.00000000000E+00  0.00000000000E+00 -0.14744863549E+04  0.14744863549E+04  0.50400001928E-02 0. -1.
    10030    2    1    2    0    0  0.00000000000E+00  0.00000000000E+00  0.48331653337E+02  0.29973043631E+04  0.29969146628E+04 0.  0.
        3    1    3    3  502    0  0.81483731893E+02  0.12945371656E+04 -0.72620387948E+03  0.14865524399E+04  0.10100000352E+00 0. -1.
       -3    1    3    3    0  502 -0.81483731893E+02 -0.12945371656E+04  0.77453553282E+03  0.15107519232E+04  0.10100000352E+00 0.  1.
</event>
<event>
 5   0  0.1345931E-05  0.2964471E+04  0.7818609E-02  0.8253950E-01
       -2   -1    0    0    0  501  0.00000000000E+00  0.00000000000E+00  0.10718897624E+04  0.10718897624E+04  0.25500000920E-02 0. -1.
        2   -1    0    0  501    0  0.00000000000E+00  0.00000000000E+00 -0.20496715309E+04  0.20496715309E+04  0.25500000920E-02 0.  1.
    10030    2    1    2    0    0  0.00000000000E+00  0.00000000000E+00 -0.97778176857E+03  0.31215612933E+04  0.29644709007E+04 0.  0.
        2    1    3    3  502    0  0.84726524854E+03 -0.58302943006E+03 -0.16128029364E+04  0.19128290643E+04  0.25500000920E-02 0.  1.
       -2    1    3    3    0  502 -0.84726524854E+03  0.58302943006E+03  0.63502116784E+03  0.12087322290E+04  0.25500000920E-02 0. -1.
</event>
<event>
 5   0  0.4806125E-06  0.1885771E+04  0.7818609E-02  0.8661972E-01
        3   -1    0    0  501    0  0.00000000000E+00  0.00000000000E+00  0.12821783275E+04  0.12821783315E+04  0.10100000352E+00 0.  1.
       -3   -1    0    0    0  501  0.00000000000E+00  0.00000000000E+00 -0.69337675417E+03  0.69337676153E+03  0.10100000352E+00 0. -1.
    10030    2    1    2    0    0  0.00000000000E+00  0.00000000000E+00  0.58880157331E+03  0.19755550930E+04  0.18857705674E+04 0.  0.
        4    1    3    3  502    0  0.21815690218E+03 -0.73742752689E+03 -0.27713758876E+03  0.81743418536E+03  0.12699999809E+01 0. -1.
       -4    1    3    3    0  502 -0.21815690218E+03  0.73742752689E+03  0.86593916208E+03  0.11581209076E+04  0.12699999809E+01 0.  1.
</event>
<event>
 5   0  0.1480547E-05  0.2962845E+04  0.7818609E-02  0.8254421E-01
       -2   -1    0    0    0  501  0.00000000000E+00  0.00000000000E+00  0.12481064331E+04  0.12481064331E+04  0.25500000920E-02 0. -1.
        2   -1    0    0  501    0  0.00000000000E+00  0.00000000000E+00 -0.17583533156E+04  0.17583533156E+04  0.25500000920E-02 0.  1.
    10030    2    1    2    0    0  0.00000000000E+00  0.00000000000E+00 -0.51024688245E+03  0.30064597487E+04  0.29628446364E+04 0.  0.
        1    1    3    3  502    0 -0.10200691153E+04  0.47112300614E+03  0.72454941797E+03  0.13369628813E+04  0.50400001928E-02 0. -1.
       -1    1    3    3    0  502  0.10200691153E+04 -0.47112300614E+03 -0.12347963004E+04  0.16694968674E+04  0.50400001928E-02 0.  1.
</event>
<event>
 5   0  0.5522695E-06  0.1845068E+04  0.7818609E-02  0.8682693E-01
        1   -1    0    0  501    0  0.00000000000E+00  0.00000000000E+00  0.76819796242E+03  0.76819796243E+03  0.50400001928E-02 0. -1.
       -1   -1    0    0    0  501  0.00000000000E+00  0.00000000000E+00 -0.11078771443E+04  0.11078771443E+04  0.50400001928E-02 0.  1.
    10030    2    1    2    0    0  0.00000000000E+00  0.00000000000E+00 -0.33967918186E+03  0.18760751067E+04  0.18450679823E+04 0.  0.
        3    1    3    3  502    0 -0.81574184164E+02  0.57124750110E+03  0.56204201154E+03  0.80552423177E+03  0.10100000352E+00 0. -1.
       -3    1    3    3    0  502  0.81574184164E+02 -0.57124750110E+03 -0.90172119340E+03  0.10705508750E+04  0.10100000352E+00 0.  1.
</event>
<event>
 5   0  0.1480547E-05  0.2964112E+04  0.7818609E-02  0.8254054E-01
        2   -1    0    0  501    0  0.00000000000E+00  0.00000000000E+00  0.11700580929E+04  0.11700580929E+04  0.25500000920E-02 0. -1.
       -2   -1    0    0    0  501  0.00000000000E+00  0.00000000000E+00 -0.18772484092E+04  0.18772484092E+04  0.25500000920E-02 0.  1.
    10030    2    1    2    0    0  0.00000000000E+00  0.00000000000E+00 -0.70719031634E+03  0.30473065021E+04  0.29641118019E+04 0.  0.
        1    1    3    3  502    0  0.19474369383E+03 -0.96192362415E+03 -0.14952904398E+04  0.17886071856E+04  0.50400001928E-02 0.  1.
       -1    1    3    3    0  502 -0.19474369383E+03  0.96192362415E+03  0.78810012342E+03  0.12586993166E+04  0.50400001928E-02 0. -1.
</event>
<event>
 5   0  0.5730920E-06  0.2989236E+04  0.7818609E-02  0.8246811E-01
        1   -1    0    0  501    0  0.00000000000E+00  0.00000000000E+00  0.23030768570E+04  0.23030768570E+04  0.50400001928E-02 0.  1.
       -1   -1    0    0    0  501  0.00000000000E+00  0.00000000000E+00 -0.96995598900E+03  0.96995598901E+03  0.50400001928E-02 0. -1.
    10030    2    1    2    0    0  0.00000000000E+00  0.00000000000E+00  0.13331208680E+04  0.32730328460E+04  0.29892361503E+04 0.  0.
        1    1    3    3  502    0  0.70938391620E+03  0.16486149104E+03  0.20956467003E+04  0.22185896295E+04  0.50400001928E-02 0.  1.
       -1    1    3    3    0  502 -0.70938391620E+03 -0.16486149104E+03 -0.76252583231E+03  0.10544432165E+04  0.50400001928E-02 0. -1.
</event>
<event>
 5   0  0.1523029E-05  0.2953430E+04  0.7818609E-02  0.8257156E-01
        2   -1    0    0  501    0  0.00000000000E+00  0.00000000000E+00  0.12684989027E+04  0.12684989027E+04  0.25500000920E-02 0. -1.
       -2   -1    0    0    0  501  0.00000000000E+00  0.00000000000E+00 -0.17191081357E+04  0.17191081357E+04  0.25500000920E-02 0.  1.
    10030    2    1    2    0    0  0.00000000000E+00  0.00000000000E+00 -0.45060923305E+03  0.29876070384E+04  0.29534297241E+04 0.  0.
        5    1    3    3  502    0 -0.70653413123E+03 -0.98518852112E+03 -0.10781971379E+04  0.16224420048E+04  0.46999998093E+01 0.  1.
       -5    1    3    3    0  502  0.70653413123E+03  0.98518852112E+03  0.62758790485E+03  0.13651650336E+04  0.46999998093E+01 0. -1.
</event>
<event>
 5   0  0.5392262E-06  0.2918445E+04  0.7818609E-02  0.8267411E-01
        1   -1    0    0  501    0  0.00000000000E+00  0.00000000000E+00  0.12380406989E+04  0.12380406989E+04  0.50400001928E-02 0.  1.
       -1   -1    0    0    0  501  0.00000000000E+00  0.00000000000E+00 -0.17199191380E+04  0.17199191380E+04  0.50400001928E-02 0. -1.
    10030    2    1    2    0    0  0.00000000000E+00  0.00000000000E+00 -0.48187843909E+03  0.29579598370E+04  0.29184447171E+04 0.  0.
        2    1    3    3  502    0 -0.12737806820E+04 -0.61665382532E+03  0.11961710804E+03  0.14202420282E+04  0.25500000920E-02 0. -1.
       -2    1    3    3    0  502  0.12737806820E+04  0.61665382532E+03 -0.60149554714E+03  0.15377178088E+04  0.25500000920E-02 0.  1.
</event>
<event>
 5   0  0.1423692E-05  0.3035412E+04  0.7818609E-02  0.8233690E-01
       -2   -1    0    0    0  501  0.00000000000E+00  0.00000000000E+00  0.11392100923E+04  0.11392100923E+04  0.25500000920E-02 0.  1.
        2   -1    0    0  501    0  0.00000000000E+00  0.00000000000E+00 -0.20219555892E+04  0.20219555892E+04  0.25500000920E-02 0. -1.
    10030    2    1    2    0    0  0.00000000000E+00  0.00000000000E+00 -0.88274549697E+03  0.31611656815E+04  0.30354124685E+04 0.  0.
        3    1    3    3  502    0  0.58161358861E+03  0.76741041462E+03  0.78036077196E+03  0.12394176276E+04  0.10100000352E+00 0.  1.
       -3    1    3    3    0  502 -0.58161358861E+03 -0.76741041462E+03 -0.16631062689E+04  0.19217480540E+04  0.10100000352E+00 0. -1.
</event>
<event>
 5   0  0.1345931E-05  0.3037058E+04  0.7818609E-02  0.8233227E-01
       -2   -1    0    0    0  501  0.00000000000E+00  0.00000000000E+00  0.13089560868E+04  0.13089560868E+04  0.25500000920E-02 0.  1.
        2   -1    0    0  501    0  0.00000000000E+00  0.00000000000E+00 -0.17616563765E+04  0.17616563765E+04  0.25500000920E-02 0. -1.
    10030    2    1    2    0    0  0.00000000000E+00  0.00000000000E+00 -0.45270028964E+03  0.30706124633E+04  0.30370583378E+04 0.  0.
        2    1    3    3  502    0  0.45568964644E+03 -0.88737445801E+03  0.93122032206E+03  0.13646456576E+04  0.25500000920E-02 0.  1.
       -2    1    3    3    0  502 -0.45568964644E+03  0.88737445801E+03 -0.13839206117E+04  0.17059668057E+04  0.25500000920E-02 0. -1.
</event>
<event>
 5   0  0.5392262E-06  0.2912623E+04  0.7818609E-02  0.8269132E-01
        1   -1    0    0  501    0  0.00000000000E+00  0.00000000000E+00  0.15186797283E+04  0.15186797283E+04  0.50400001928E-02 0. -1.
       -1   -1    0    0    0  501  0.00000000000E+00  0.00000000000E+00 -0.13965047984E+04  0.13965047984E+04  0.50400001928E-02 0.  1.
    10030    2    1    2    0    0  0.00000000000E+00  0.00000000000E+00  0.12217492990E+03  0.29151845267E+04  0.29126232354E+04 0.  0.
        2    1    3    3  502    0  0.56536885946E+03 -0.89639916143E+03 -0.93862526879E+03  0.14156944582E+04  0.25500000920E-02 0.  1.
       -2    1    3    3    0  502 -0.56536885946E+03  0.89639916143E+03  0.10608001987E+04  0.14994900685E+04  0.25500000920E-02 0. -1.
</event>
<event>
 5   0  0.1523029E-05  0.3017800E+04  0.7818609E-02  0.8238666E-01
        2   -1    0    0  501    0  0.00000000000E+00  0.00000000000E+00  0.16257536672E+04  0.16257536672E+04  0.25500000920E-02 0.  1.
       -2   -1    0    0    0  501  0.00000000000E+00  0.00000000000E+00 -0.14004449810E+04  0.14004449810E+04  0.25500000920E-02 0. -1.
    10030    2    1    2    0    0  0.00000000000E+00  0.00000000000E+00  0.22530868620E+03  0.30261986482E+04  0.30177995716E+04 0.  0.
        5    1    3    3  502    0  0.33110384237E+03  0.36370401457E+03  0.15431048152E+04  0.16196002363E+04  0.46999998093E+01 0.  1.
       -5    1    3    3    0  502 -0.33110384237E+03 -0.36370401457E+03 -0.13177961290E+04  0.14065984119E+04  0.46999998093E+01 0. -1.
</event>
<event>
 5   0  0.1523029E-05  0.2952289E+04  0.7818609E-02  0.8257488E-01
        2   -1    0    0  501    0  0.00000000000E+00  0.00000000000E+00  0.23015640601E+04  0.23015640601E+04  0.25500000920E-02 0. -1.
       -2   -1    0    0    0  501  0.00000000000E+00  0.00000000000E+00 -0.94674833495E+03  0.94674833496E+03  0.25500000920E-02 0.  1.
    10030    2    1    2    0    0  0.00000000000E+00  0.00000000000E+00  0.13548157251E+04  0.32483123950E+04  0.29522885643E+04 0.  0.
        5    1    3    3  502    0 -0.57967405928E+03 -0.10134686945E+04 -0.31639725166E+03  0.12096570260E+04  0.46999998093E+01 0.  1.
       -5    1    3    3    0  502  0.57967405928E+03  0.10134686945E+04  0.16712129768E+04  0.20386553690E+04  0.46999998093E+01 0. -1.
</event>
<event>
 5   0  0.1423692E-05  0.2898324E+04  0.7818609E-02  0.8273376E-01
       -2   -1    0    0    0  501  0.00000000000E+00  0.00000000000E+00  0.10667233765E+04  0.10667233765E+04  0.25500000920E-02 0. -1.
        2   -1    0    0  501    0  0.00000000000E+00  0.00000000000E+00 -0.19687110855E+04  0.19687110855E+04  0.25500000920E-02 0.  1.
    10030    2    1    2    0    0  0.00000000000E+00  0.00000000000E+00 -0.90198770896E+03  0.30354344620E+04  0.28983237476E+04 0.  0.
        3    1    3    3  502    0  0.48109862059E+03  0.12367155339E+04  0.15892097360E+03  0.13364793603E+04  0.10100000352E+00 0.  1.
       -3    1    3    3    0  502 -0.48109862059E+03 -0.12367155339E+04 -0.10609086826E+04  0.16989551017E+04  0.10100000352E+00 0. -1.
</event>
<event>
 5   0  0.1480547E-05  0.2445396E+04  0.7818609E-02  0.8422701E-01
       -2   -1    0    0    0  501  0.00000000000E+00  0.00000000000E+00  0.11179977101E+04  0.11179977101E+04  0.25500000920E-02 0.  1.
        2   -1    0    0  501    0  0.00000000000E+00  0.00000000000E+00 -0.13372034029E+04  0.13372034030E+04  0.25500000920E-02 0. -1.
    10030    2    1    2    0    0  0.00000000000E+00  0.00000000000E+00 -0.21920569290E+03  0.24552011130E+04  0.24453959535E+04 0.  0.
        1    1    3    3  502    0 -0.73713881448E+03  0.26988336904E+03 -0.10507941064E+04  0.13116321583E+04  0.50400001928E-02 0. -1.
       -1    1    3    3    0  502  0.73713881448E+03 -0.26988336904E+03  0.83158841348E+03  0.11435689547E+04  0.50400001928E-02 0.  1.
</event>
<event>
 5   0  0.7032692E-06  0.2746314E+04  0.7818609E-02  0.8320132E-01
        1   -1    0    0  501    0  0.00000000000E+00  0.00000000000E+00  0.15613768714E+04  0.15613768714E+04  0.50400001928E-02 0. -1.
       -1   -1    0    0    0  501  0.00000000000E+00  0.00000000000E+00 -0.12076265582E+04  0.12076265582E+04  0.50400001928E-02 0.  1.
    10030    2    1    2    0    0  0.00000000000E+00  0.00000000000E+00  0.35375031323E+03  0.27690034296E+04  0.27463140223E+04 0.  0.
        5    1    3    3  502    0 -0.88827714671E+03  0.64095961638E+03  0.10117698232E+04  0.14911625613E+04  0.46999998093E+01 0. -1.
       -5    1    3    3    0  502  0.88827714671E+03 -0.64095961638E+03 -0.65801950997E+03  0.12778408683E+04  0.46999998093E+01 0.  1.
</event>
<event>
 5   0  0.5730920E-06  0.2552300E+04  0.7818609E-02  0.8384587E-01
       -1   -1    0    0    0  501  0.00000000000E+00  0.00000000000E+00  0.12497819443E+04  0.12497819443E+04  0.50400001928E-02 0.  1.
        1   -1    0    0  501    0  0.00000000000E+00  0.00000000000E+00 -0.13030745773E+04  0.13030745773E+04  0.50400001928E-02 0. -1.
    10030    2    1    2    0    0  0.00000000000E+00  0.00000000000E+00 -0.53292633049E+02  0.25528565216E+04  0.25523002008E+04 0.  0.
        1    1    3    3  502    0  0.91746496608E+03  0.17172632385E+03 -0.89708147624E+03  0.12945991925E+04  0.50400001928E-02 0. -1.
       -1    1    3    3    0  502 -0.91746496608E+03 -0.17172632385E+03  0.84378884319E+03  0.12582573291E+04  0.50400001928E-02 0.  1.
</event>
<event>
 5   0  0.1345931E-05  0.3172886E+04  0.7818609E-02  0.8196015E-01
        2   -1    0    0  501    0  0.00000000000E+00  0.00000000000E+00  0.13585641567E+04  0.13585641567E+04  0.25500000920E-02 0. -1.
       -2   -1    0    0    0  501  0.00000000000E+00  0.00000000000E+00 -0.18525448468E+04  0.18525448468E+04  0.25500000920E-02 0.  1.
    10030    2    1    2    0    0  0.00000000000E+00  0.00000000000E+00 -0.49398069005E+03  0.32111090035E+04  0.31728857701E+04 0.  0.
        2    1    3    3  502    0  0.68402089997E+03  0.29839338758E+03 -0.16638117536E+04  0.18235111069E+04  0.25500000920E-02 0.  1.
       -2    1    3    3    0  502 -0.68402089997E+03 -0.29839338758E+03  0.11698310636E+04  0.13875978966E+04  0.25500000920E-02 0. -1.
</event>
<event>
 5   0  0.5392262E-06  0.1992213E+04  0.7818609E-02  0.8610270E-01
        1   -1    0    0  501    0  0.00000000000E+00  0.00000000000E+00  0.26121324013E+04  0.26121324013E+04  0.50400001928E-02 0. -1.
       -1   -1    0    0    0  501  0.00000000000E+00  0.00000000000E+00 -0.37985379708E+03  0.37985379711E+03  0.50400001928E-02 0.  1.
    10030    2    1    2    0    0  0.00000000000E+00  0.00000000000E+00  0.22322786042E+04  0.29919861984E+04  0.19922132528E+04 0.  0.
        2    1    3    3  502    0  0.60420238007E+03  0.76822568527E+02  0.22998964654E+04  0.23791775837E+04  0.25500000920E-02 0. -1.
       -2    1    3    3    0  502 -0.60420238007E+03 -0.76822568527E+02 -0.67617861195E+02  0.61280861472E+03  0.25500000920E-02 0.  1.
</event>
<event>
 5   0  0.1480547E-05  0.3144380E+04  0.7818609E-02  0.8203663E-01
       -2   -1    0    0    0  501  0.00000000000E+00  0.00000000000E+00  0.15036413391E+04  0.15036413391E+04  0.25500000920E-02 0. -1.
        2   -1    0    0  501    0  0.00000000000E+00  0.00000000000E+00 -0.16438639615E+04  0.16438639615E+04  0.25500000920E-02 0.  1.
    10030    2    1    2    0    0  0.00000000000E+00  0.00000000000E+00 -0.14022262238E+03  0.31475053006E+04  0.31443802622E+04 0.  0.
        1    1    3    3  502    0  0.59020915132E+03  0.11183630425E+04 -0.10052233874E+04  0.16154122680E+04  0.50400001928E-02 0.  1.
       -1    1    3    3    0  502 -0.59020915132E+03 -0.11183630425E+04  0.86500076500E+03  0.15320930326E+04  0.50400001928E-02 0. -1.
</event>
<event>
 5   0  0.1523029E-05  0.2931742E+04  0.7818609E-02  0.8263495E-01
        2   -1    0    0  501    0  0.00000000000E+00  0.00000000000E+00  0.18858647634E+04  0.18858647634E+04  0.25500000920E-02 0.  1.
       -2   -1    0    0    0  501  0.00000000000E+00  0.00000000000E+00 -0.11394124561E+04  0.11394124561E+04  0.25500000920E-02 0. -1.
    10030    2    1    2    0    0  0.00000000000E+00  0.00000000000E+00  0.74645230727E+03  0.30252772195E+04  0.29317420090E+04 0.  0.
        5    1    3    3  502    0  0.92960291340E+03  0.10768017980E+04  0.73819368937E+03  0.16026901453E+04  0.46999998093E+01 0.  1.
       -5    1    3    3    0  502 -0.92960291340E+03 -0.10768017980E+04  0.82586179048E+01  0.14225870742E+04  0.46999998093E+01 0. -1.
</event>
<event>
 5   0  0.5522695E-06  0.1904493E+04  0.7818609E-02  0.8652623E-01
        1   -1    0    0  501    0  0.00000000000E+00  0.00000000000E+00  0.11758932994E+04  0.11758932994E+04  0.50400001928E-02 0. -1.
       -1   -1    0    0    0  501  0.00000000000E+00  0.00000000000E+00 -0.77113557822E+03  0.77113557823E+03  0.50400001928E-02 0.  1.
    10030    2    1    2    0    0  0.00000000000E+00  0.00000000000E+00  0.40475772121E+03  0.19470288777E+04  0.19044927507E+04 0.  0.
        3    1    3    3  502    0 -0.32780980449E+03  0.49501723814E+03  0.96350119590E+03  0.11317402081E+04  0.10100000352E+00 0. -1.
       -3    1    3    3    0  502  0.32780980449E+03 -0.49501723814E+03 -0.55874347470E+03  0.81528866955E+03  0.10100000352E+00 0.  1.
</event>
<event>
 5   0  0.7032692E-06  0.2831610E+04  0.7818609E-02  0.8293521E-01
       -1   -1    0    0    0  501  0.00000000000E+00  0.00000000000E+00  0.76893234497E+03  0.76893234499E+03  0.50400001928E-02 0.  1.
        1   -1    0    0  501    0  0.00000000000E+00  0.00000000000E+00 -0.26068660109E+04  0.26068660109E+04  0.50400001928E-02 0. -1.
    10030    2    1    2    0    0  0.00000000000E+00  0.00000000000E+00 -0.18379336660E+04  0.33757983559E+04  0.28316098565E+04 0.  0.
        5    1    3    3  502    0  0.10937126304E+04 -0.32637148488E+03  0.79735581842E+02  0.11441614908E+04  0.46999998093E+01 0.  1.
       -5    1    3    3    0  502 -0.10937126304E+04  0.32637148488E+03 -0.19176692478E+04  0.22316368652E+04  0.46999998093E+01 0. -1.
</event>
<event>
 5   0  0.1480547E-05  0.1857815E+04  0.7818609E-02  0.8676144E-01
       -2   -1    0    0    0  501  0.00000000000E+00  0.00000000000E+00  0.15445861096E+04  0.15445861096E+04  0.25500000920E-02 0.  1.
        2   -1    0    0  501    0  0.00000000000E+00  0.00000000000E+00 -0.55864104229E+03  0.55864104230E+03  0.25500000920E-02 0. -1.
    10030    2    1    2    0    0  0.00000000000E+00  0.00000000000E+00  0.98594506727E+03  0.21032271519E+04  0.18578150545E+04 0.  0.
        1    1    3    3  502    0  0.55315021909E+03  0.62903854272E+03  0.94751277439E+03  0.12646917058E+04  0.50400001928E-02 0.  1.
       -1    1    3    3    0  502 -0.55315021909E+03 -0.62903854272E+03  0.38432292871E+02  0.83853544604E+03  0.50400001928E-02 0. -1.
</event>
<event>
 5   0  0.1388724E-05  0.3090234E+04  0.7818609E-02  0.8218423E-01
        2   -1    0    0  501    0  0.00000000000E+00  0.00000000000E+00  0.23517913846E+04  0.23517913846E+04  0.25500000920E-02 0. -1.
       -2   -1    0    0    0  501  0.00000000000E+00  0.00000000000E+00 -0.10151353132E+04  0.10151353132E+04  0.25500000920E-02 0.  1.
    10030    2    1    2    0    0  0.00000000000E+00  0.00000000000E+00  0.13366560714E+04  0.33669266978E+04  0.30902339612E+04 0.  0.
        4    1    3    3  502    0 -0.10727853786E+03 -0.10008839120E+04  0.19455096797E+04  0.21904992163E+04  0.12699999809E+01 0. -1.
       -4    1    3    3    0  502  0.10727853786E+03  0.10008839120E+04 -0.60885360829E+03  0.11764274815E+04  0.12699999809E+01 0.  1.
</event>
<event>
 5   0  0.5392262E-06  0.2888924E+04  0.7818609E-02  0.8276181E-01
        1   -1    0    0  501    0  0.00000000000E+00  0.00000000000E+00  0.12828747438E+04  0.12828747439E+04  0.50400001928E-02 0.  1.
       -1   -1    0    0    0  501  0.00000000000E+00  0.00000000000E+00 -0.16264019698E+04  0.16264019698E+04  0.50400001928E-02 0. -1.
    10030    2    1    2    0    0  0.00000000000E+00  0.00000000000E+00 -0.34352722593E+03  0.29092767136E+04  0.28889236822E+04 0.  0.
        2    1    3    3  502    0  0.47245381830E+03 -0.13235496552E+04 -0.50799262916E+03  0.14943402596E+04  0.25500000920E-02 0.  1.
       -2    1    3    3    0  502 -0.47245381830E+03  0.13235496552E+04  0.16446540323E+03  0.14149364540E+04  0.25500000920E-02 0. -1.
</event>
<event>
 5   0  0.5329891E-06  0.2956461E+04  0.7818609E-02  0.8256274E-01
       -1   -1    0    0    0  501  0.00000000000E+00  0.00000000000E+00  0.17698775222E+04  0.17698775222E+04  0.50400001928E-02 0.  1.
        1   -1    0    0  501    0  0.00000000000E+00  0.00000000000E+00 -0.12346421877E+04  0.12346421877E+04  0.50400001928E-02 0. -1.
    10030    2    1    2    0    0  0.00000000000E+00  0.00000000000E+00  0.53523533453E+03  0.30045197100E+04  0.29564610304E+04 0.  0.
        4    1    3    3  502    0 -0.74959937294E+03 -0.10219464285E+04  0.10408339080E+04  0.16400032194E+04  0.12699999809E+01 0.  1.
       -4    1    3    3    0  502  0.74959937294E+03  0.10219464285E+04 -0.50559857343E+03  0.13645164906E+04  0.12699999809E+01 0. -1.
</event>
<event>
 5   0  0.1423692E-05  0.3049058E+04  0.7818609E-02  0.8229859E-01
       -2   -1    0    0    0  501  0.00000000000E+00  0.00000000000E+00  0.13374272856E+04  0.13374272856E+04  0.25500000920E-02 0.  1.
        2   -1    0    0  501    0  0.00000000000E+00  0.00000000000E+00 -0.17378058628E+04  0.17378058628E+04  0.25500000920E-02 0. -1.
    10030    2    1    2    0    0  0.00000000000E+00  0.00000000000E+00 -0.40037857715E+03  0.30752331484E+04  0.30490582008E+04 0.  0.
        3    1    3    3  502    0 -0.54148194211E+03 -0.13537568976E+04  0.24897470708E+03  0.14791378727E+04  0.10100000352E+00 0.  1.
       -3    1    3    3    0  502  0.54148194211E+03  0.13537568976E+04 -0.64935328423E+03  0.15960952758E+04  0.10100000352E+00 0. -1.
</event>
<event>
 5   0  0.5730920E-06  0.2949529E+04  0.7818609E-02  0.8258292E-01
        1   -1    0    0  501    0  0.00000000000E+00  0.00000000000E+00  0.16089154116E+04  0.16089154116E+04  0.50400001928E-02 0. -1.
       -1   -1    0    0    0  501  0.00000000000E+00  0.00000000000E+00 -0.13517986923E+04  0.13517986923E+04  0.50400001928E-02 0.  1.
    10030    2    1    2    0    0  0.00000000000E+00  0.00000000000E+00  0.25711671932E+03  0.29607141039E+04  0.29495286060E+04 0.  0.
        1    1    3    3  502    0 -0.11587538701E+03  0.41286076209E+03  0.15449546947E+04  0.16033608835E+04  0.50400001928E-02 0. -1.
       -1    1    3    3    0  502  0.11587538701E+03 -0.41286076209E+03 -0.12878379753E+04  0.13573532204E+04  0.50400001928E-02 0.  1.
</event>
<event>
 5   0  0.1423692E-05  0.2981972E+04  0.7818609E-02  0.8248898E-01
        2   -1    0    0  501    0  0.00000000000E+00  0.00000000000E+00  0.25821579336E+04  0.25821579336E+04  0.25500000920E-02 0.  1.
       -2   -1    0    0    0  501  0.00000000000E+00  0.00000000000E+00 -0.86092298664E+03  0.86092298664E+03  0.25500000920E-02 0. -1.
    10030    2    1    2    0    0  0.00000000000E+00  0.00000000000E+00  0.17212349470E+04  0.34430809203E+04  0.29819719115E+04 0.  0.
        3    1    3    3  502    0 -0.13455359453E+04 -0.22945604455E+03  0.16791313058E+03  0.13752497541E+04  0.10100000352E+00 0.  1.
       -3    1    3    3    0  502  0.13455359453E+04  0.22945604455E+03  0.15533218164E+04  0.20678311662E+04  0.10100000352E+00 0. -1.
</event>
<event>
 5   0  0.5392262E-06  0.1565077E+04  0.7818609E-02  0.8842294E-01
        1   -1    0    0  501    0  0.00000000000E+00  0.00000000000E+00  0.80087915806E+03  0.80087915808E+03  0.50400001928E-02 0. -1.
       -1   -1    0    0    0  501  0.00000000000E+00  0.00000000000E+00 -0.76461826812E+03  0.76461826814E+03  0.50400001928E-02 0.  1.
    10030    2    1    2    0    0  0.00000000000E+00  0.00000000000E+00  0.36260889937E+02  0.15654974262E+04  0.15650774228E+04 0.  0.
        2    1    3    3  502    0  0.31200814119E+03 -0.38719449067E+03  0.62252614523E+03  0.79674805006E+03  0.25500000920E-02 0. -1.
       -2    1    3    3    0  502 -0.31200814119E+03  0.38719449067E+03 -0.58626525529E+03  0.76874937616E+03  0.25500000920E-02 0.  1.
</event>
<event>
 5   0  0.1480547E-05  0.2947816E+04  0.7818609E-02  0.8258791E-01
        2   -1    0    0  501    0  0.00000000000E+00  0.00000000000E+00  0.22992318902E+04  0.22992318902E+04  0.25500000920E-02 0.  1.
       -2   -1    0    0    0  501  0.00000000000E+00  0.00000000000E+00 -0.94483935566E+03  0.94483935566E+03  0.25500000920E-02 0. -1.
    10030    2    1    2    0    0  0.00000000000E+00  0.00000000000E+00  0.13543925345E+04  0.32440712458E+04  0.29478159899E+04 0.  0.
        1    1    3    3  502    0 -0.14467350506E+04  0.23749668971E+03  0.51045039783E+03  0.15524195931E+04  0.50400001928E-02 0. -1.
       -1    1    3    3    0  502  0.14467350506E+04 -0.23749668971E+03  0.84394213667E+03  0.16916516528E+04  0.50400001928E-02 0.  1.
</event>
<event>
 5   0  0.1345931E-05  0.3000781E+04  0.7818609E-02  0.8243508E-01
        2   -1    0    0  501    0  0.00000000000E+00  0.00000000000E+00  0.26557823282E+04  0.26557823282E+04  0.25500000920E-02 0.  1.
       -2   -1    0    0    0  501  0.00000000000E+00  0.00000000000E+00 -0.84764912128E+03  0.84764912128E+03  0.25500000920E-02 0. -1.
    10030    2    1    2    0    0  0.00000000000E+00  0.00000000000E+00  0.18081332069E+04  0.35034314494E+04  0.30007809362E+04 0.  0.
        2    1    3    3  502    0  0.33262462738E+03  0.36566340165E+03 -0.74985086254E+03  0.89812314418E+03  0.25500000920E-02 0. -1.
       -2    1    3    3    0  502 -0.33262462738E+03 -0.36566340165E+03  0.25579840694E+04  0.26053083053E+04  0.25500000920E-02 0.  1.
</event>
<event>
 5   0  0.5329891E-06  0.2940720E+04  0.7818609E-02  0.8260864E-01
       -1   -1    0    0    0  501  0.00000000000E+00  0.00000000000E+00  0.10015287703E+04  0.10015287703E+04  0.50400001928E-02 0. -1.
        1   -1    0    0  501    0  0.00000000000E+00  0.00000000000E+00 -0.21586586911E+04  0.21586586911E+04  0.50400001928E-02 0.  1.
    10030    2    1    2    0    0  0.00000000000E+00  0.00000000000E+00 -0.11571299209E+04  0.31601874614E+04  0.29407201733E+04 0.  0.
        4    1    3    3  502    0  0.89482812341E+03 -0.11170817773E+04 -0.94039497218E+03  0.17125809132E+04  0.12699999809E+01 0.  1.
       -4    1    3    3    0  502 -0.89482812341E+03  0.11170817773E+04 -0.21673494870E+03  0.14476065482E+04  0.12699999809E+01 0. -1.
</event>
<event>
 5   0  0.1388724E-05  0.2981916E+04  0.7818609E-02  0.8248914E-01
        2   -1    0    0  501    0  0.00000000000E+00  0.00000000000E+00  0.13248731144E+04  0.13248731144E+04  0.25500000920E-02 0. -1.
       -2   -1    0    0    0  501  0.00000000000E+00  0.00000000000E+00 -0.16778630999E+04  0.16778630999E+04  0.25500000920E-02 0.  1.
    10030    2    1    2    0    0  0.00000000000E+00  0.00000000000E+00 -0.35298998550E+03  0.30027362143E+04  0.29819159684E+04 0.  0.
        4    1    3    3  502    0 -0.10471318434E+04  0.67535579750E+03 -0.10009690148E+04  0.15982900651E+04  0.12699999809E+01 0.  1.
       -4    1    3    3    0  502  0.10471318434E+04 -0.67535579750E+03  0.64797902932E+03  0.14044461492E+04  0.12699999809E+01 0. -1.
</event>
<event>
 5   0  0.1523029E-05  0.3090129E+04  0.7818609E-02  0.8218452E-01
       -2   -1    0    0    0  501  0.00000000000E+00  0.00000000000E+00  0.10118113193E+04  0.10118113193E+04  0.25500000920E-02 0. -1.
        2   -1    0    0  501    0  0.00000000000E+00  0.00000000000E+00 -0.23593575934E+04  0.23593575934E+04  0.25500000920E-02 0.  1.
    10030    2    1    2    0    0  0.00000000000E+00  0.00000000000E+00 -0.13475462741E+04  0.33711689127E+04  0.30901292655E+04 0.  0.
        5    1    3    3  502    0 -0.13944511965E+04  0.64021165223E+03 -0.47608113070E+03  0.16065616802E+04  0.46999998093E+01 0. -1.
       -5    1    3    3    0  502  0.13944511965E+04 -0.64021165223E+03 -0.87146514335E+03  0.17646072326E+04  0.46999998093E+01 0.  1.
</event>
<event>
 5   0  0.5730920E-06  0.3033774E+04  0.7818609E-02  0.8234152E-01
       -1   -1    0    0    0  501  0.00000000000E+00  0.00000000000E+00  0.12147608065E+04  0.12147608065E+04  0.50400001928E-02 0.  1.
        1   -1    0    0  501    0  0.00000000000E+00  0.00000000000E+00 -0.18941553948E+04  0.18941553948E+04  0.50400001928E-02 0. -1.
    10030    2    1    2    0    0  0.00000000000E+00  0.00000000000E+00 -0.67939458832E+03  0.31089162013E+04  0.30337737127E+04 0.  0.
        1    1    3    3  502    0 -0.92909439653E+03 -0.11115192958E+04  0.12116863022E+03  0.14537446061E+04  0.50400001928E-02 0.  1.
       -1    1    3    3    0  502  0.92909439653E+03  0.11115192958E+04 -0.80056321853E+03  0.16551715952E+04  0.50400001928E-02 0. -1.
</event>
<event>
 5   0  0.1388724E-05  0.2449526E+04  0.7818609E-02  0.8421191E-01
       -2   -1    0    0    0  501  0.00000000000E+00  0.00000000000E+00  0.87211920591E+03  0.87211920591E+03  0.25500000920E-02 0. -1.
        2   -1    0    0  501    0  0.00000000000E+00  0.00000000000E+00 -0.17199990970E+04  0.17199990970E+04  0.25500000920E-02 0.  1.
    10030    2    1    2    0    0  0.00000000000E+00  0.00000000000E+00 -0.84787989107E+03  0.25921183029E+04  0.24495258697E+04 0.  0.
        4    1    3    3  502    0  0.64523483469E+02  0.10000949409E+04 -0.11689765862E+04  0.15397600601E+04  0.12699999809E+01 0.  1.
       -4    1    3    3    0  502 -0.64523483469E+02 -0.10000949409E+04  0.32109669510E+03  0.10523582428E+04  0.12699999809E+01 0. -1.
</event>
<event>
 5   0  0.5522695E-06  0.3052987E+04  0.7818609E-02  0.8228760E-01
        1   -1    0    0  501    0  0.00000000000E+00  0.00000000000E+00  0.13903493222E+04  0.13903493222E+04  0.50400001928E-02 0. -1.
       -1   -1    0    0    0  501  0.00000000000E+00  0.00000000000E+00 -0.16759691495E+04  0.16759691495E+04  0.50400001928E-02 0.  1.
    10030    2    1    2    0    0  0.00000000000E+00  0.00000000000E+00 -0.28561982727E+03  0.30663184717E+04  0.30529871084E+04 0.  0.
        3    1    3    3  502    0 -0.13613639970E+04  0.44155429535E+03 -0.67607132776E+03  0.15828311908E+04  0.10100000352E+00 0.  1.
       -3    1    3    3    0  502  0.13613639970E+04 -0.44155429535E+03  0.39045150049E+03  0.14834872809E+04  0.10100000352E+00 0. -1.
</event>
<event>
 5   0  0.5392262E-06  0.1671268E+04  0.7818609E-02  0.8777923E-01
        1   -1    0    0  501    0  0.00000000000E+00  0.00000000000E+00  0.20016935861E+04  0.20016935861E+04  0.50400001928E-02 0. -1.
       -1   -1    0    0    0  501  0.00000000000E+00  0.00000000000E+00 -0.34884684288E+03  0.34884684291E+03  0.50400001928E-02 0.  1.
    10030    2    1    2    0    0  0.00000000000E+00  0.00000000000E+00  0.16528467432E+04  0.23505404290E+04  0.16712683662E+04 0.  0.
        2    1    3    3  502    0  0.49580022929E+03 -0.27144120547E+01 -0.11962048391E+03  0.51003362201E+03  0.25500000920E-02 0.  1.
       -2    1    3    3    0  502 -0.49580022929E+03  0.27144120547E+01  0.17724672272E+04  0.18405068070E+04  0.25500000920E-02 0. -1.
</event>
<event>
 5   0  0.5392262E-06  0.2756398E+04  0.7818609E-02  0.8316934E-01
        1   -1    0    0  501    0  0.00000000000E+00  0.00000000000E+00  0.26385760804E+04  0.26385760805E+04  0.50400001928E-02 0.  1.
       -1   -1    0    0    0  501  0.00000000000E+00  0.00000000000E+00 -0.71987027730E+03  0.71987027732E+03  0.50400001928E-02 0. -1.
    10030    2    1    2    0    0  0.00000000000E+00  0.00000000000E+00  0.19187058031E+04  0.33584463578E+04  0.27563980081E+04 0.  0.
        2    1    3    3  502    0  0.94558796526E+03 -0.91863820388E+03  0.46985829516E+03  0.13995712083E+04  0.25500000920E-02 0. -1.
       -2    1    3    3    0  502 -0.94558796526E+03  0.91863820388E+03  0.14488475080E+04  0.19588751494E+04  0.25500000920E-02 0.  1.
</event>
<event>
 5   0  0.5730920E-06  0.2984142E+04  0.7818609E-02  0.8248274E-01
        1   -1    0    0  501    0  0.00000000000E+00  0.00000000000E+00  0.16407064804E+04  0.16407064804E+04  0.50400001928E-02 0.  1.
       -1   -1    0    0    0  501  0.00000000000E+00  0.00000000000E+00 -0.13569009744E+04  0.13569009744E+04  0.50400001928E-02 0. -1.
    10030    2    1    2    0    0  0.00000000000E+00  0.00000000000E+00  0.28380550601E+03  0.29976074548E+04  0.29841422365E+04 0.  0.
        1    1    3    3  502    0 -0.81844491884E+03 -0.70599080137E+03 -0.89133033473E+03  0.14009799650E+04  0.50400001928E-02 0. -1.
       -1    1    3    3    0  502  0.81844491884E+03  0.70599080137E+03  0.11751358407E+04  0.15966274897E+04  0.50400001928E-02 0.  1.
</event>
<event>
 5   0  0.7032692E-06  0.2993559E+04  0.7818609E-02  0.8245572E-01
       -1   -1    0    0    0  501  0.00000000000E+00  0.00000000000E+00  0.10409073766E+04  0.10409073766E+04  0.50400001928E-02 0.  1.
        1   -1    0    0  501    0  0.00000000000E+00  0.00000000000E+00 -0.21523041518E+04  0.21523041518E+04  0.50400001928E-02 0. -1.
    10030    2    1    2    0    0  0.00000000000E+00  0.00000000000E+00 -0.11113967752E+04  0.31932115284E+04  0.29935592651E+04 0.  0.
        5    1    3    3  502    0  0.25780327023E+03 -0.79879783547E+03  0.76622192178E+03  0.11365116064E+04  0.46999998093E+01 0.  1.
       -5    1    3    3    0  502 -0.25780327023E+03  0.79879783547E+03 -0.18776186969E+04  0.20566999220E+04  0.46999998093E+01 0. -1.
</event>
<event>
 5   0  0.5392262E-06  0.1706712E+04  0.7818609E-02  0.8757545E-01
        1   -1    0    0  501    0  0.00000000000E+00  0.00000000000E+00  0.87406597418E+03  0.87406597419E+03  0.50400001928E-02 0. -1.
       -1   -1    0    0    0  501  0.00000000000E+00  0.00000000000E+00 -0.83313698619E+03  0.83313698621E+03  0.50400001928E-02 0.  1.
    10030    2    1    2    0    0  0.00000000000E+00  0.00000000000E+00  0.40928987988E+02  0.17072029604E+04  0.17067122681E+04 0.  0.
        2    1    3    3  502    0 -0.59441007318E+03 -0.75173034640E+02 -0.58736337767E+03  0.83902923528E+03  0.25500000920E-02 0.  1.
       -2    1    3    3    0  502  0.59441007318E+03  0.75173034640E+02  0.62829236566E+03  0.86817372511E+03  0.25500000920E-02 0. -1.
</event>
<event>
 5   0  0.1345931E-05  0.2949472E+04  0.7818609E-02  0.8258308E-01
        2   -1    0    0  501    0  0.00000000000E+00  0.00000000000E+00  0.25144950484E+04  0.25144950484E+04  0.25500000920E-02 0. -1.
       -2   -1    0    0    0  501  0.00000000000E+00  0.00000000000E+00 -0.86492395456E+03  0.86492395456E+03  0.25500000920E-02 0.  1.
    10030    2    1    2    0    0  0.00000000000E+00  0.00000000000E+00  0.16495710939E+04  0.33794190030E+04  0.29494724959E+04 0.  0.
        2    1    3    3  502    0  0.66145533609E+03  0.69683910300E+03 -0.45711579151E+03  0.10639843720E+04  0.25500000920E-02 0.  1.
       -2    1    3    3    0  502 -0.66145533609E+03 -0.69683910300E+03  0.21066868854E+04  0.23154346310E+04  0.25500000920E-02 0. -1.
</event>
<event>
 5   0  0.1388724E-05  0.2989603E+04  0.7818609E-02  0.8246706E-01
       -2   -1    0    0    0  501  0.00000000000E+00  0.00000000000E+00  0.12705882385E+04  0.12705882385E+04  0.25500000920E-02 0. -1.
        2   -1    0    0  501    0  0.00000000000E+00  0.00000000000E+00 -0.17585805224E+04  0.17585805224E+04  0.25500000920E-02 0.  1.
    10030    2    1    2    0    0  0.00000000000E+00  0.00000000000E+00 -0.48799228394E+03  0.30291687608E+04  0.29896031363E+04 0.  0.
        4    1    3    3  502    0  0.29718840867E+02  0.72910378360E+03 -0.15658514268E+04  0.17275322980E+04  0.12699999809E+01 0.  1.
       -4    1    3    3    0  502 -0.29718840867E+02 -0.72910378360E+03  0.10778591429E+04  0.13016364629E+04  0.12699999809E+01 0. -1.
</event>
<event>
 5   0  0.1388724E-05  0.2214821E+04  0.7818609E-02  0.8512285E-01
        2   -1    0    0  501    0  0.00000000000E+00  0.00000000000E+00  0.15538142153E+04  0.15538142153E+04  0.25500000920E-02 0. -1.
       -2   -1    0    0    0  501  0.00000000000E+00  0.00000000000E+00 -0.78925654529E+03  0.78925654529E+03  0.25500000920E-02 0.  1.
    10030    2    1    2    0    0  0.00000000000E+00  0.00000000000E+00  0.76455767005E+03  0.23430707606E+04  0.22148210218E+04 0.  0.
        4    1    3    3  502    0 -0.77159566921E+03 -0.78000769777E+03  0.22329520617E+03  0.11196580939E+04  0.12699999809E+01 0. -1.
       -4    1    3    3    0  502  0.77159566921E+03  0.78000769777E+03  0.54126246388E+03  0.12234126667E+04  0.12699999809E+01 0.  1.
</event>
<event>
 5   0  0.5329891E-06  0.3085406E+04  0.7818609E-02  0.8219754E-01
        1   -1    0    0  501    0  0.00000000000E+00  0.00000000000E+00  0.21432929126E+04  0.21432929126E+04  0.50400001928E-02 0.  1.
       -1   -1    0    0    0  501  0.00000000000E+00  0.00000000000E+00 -0.11104095573E+04  0.11104095573E+04  0.50400001928E-02 0. -1.
    10030    2    1    2    0    0  0.00000000000E+00  0.00000000000E+00  0.10328833554E+04  0.32537024699E+04  0.30854062515E+04 0.  0.
        4    1    3    3  502    0 -0.13292010159E+04  0.28394038782E+03 -0.25311229708E+03  0.13825573885E+04  0.12699999809E+01 0. -1.
       -4    1    3    3    0  502  0.13292010159E+04 -0.28394038782E+03  0.12859956524E+04  0.18711450814E+04  0.12699999809E+01 0.  1.
</event>
<event>
 5   0  0.5329891E-06  0.1808887E+04  0.7818609E-02  0.8701588E-01
        1   -1    0    0  501    0  0.00000000000E+00  0.00000000000E+00  0.11309212122E+04  0.11309212122E+04  0.50400001928E-02 0.  1.
       -1   -1    0    0    0  501  0.00000000000E+00  0.00000000000E+00 -0.72331992611E+03  0.72331992613E+03  0.50400001928E-02 0. -1.
    10030    2    1    2    0    0  0.00000000000E+00  0.00000000000E+00  0.40760128608E+03  0.18542411383E+04  0.18088867822E+04 0.  0.
        4    1    3    3  502    0 -0.29357749621E+03 -0.57783931168E+03 -0.44283298602E+03  0.78497686769E+03  0.12699999809E+01 0. -1.
       -4    1    3    3    0  502  0.29357749621E+03  0.57783931168E+03  0.85043427210E+03  0.10692642706E+04  0.12699999809E+01 0.  1.
</event>
<event>
 5   0  0.1523029E-05  0.2978008E+04  0.7818609E-02  0.8250039E-01
        2   -1    0    0  501    0  0.00000000000E+00  0.00000000000E+00  0.14559280095E+04  0.14559280095E+04  0.25500000920E-02 0. -1.
       -2   -1    0    0    0  501  0.00000000000E+00  0.00000000000E+00 -0.15228309585E+04  0.15228309585E+04  0.25500000920E-02 0.  1.
    10030    2    1    2    0    0  0.00000000000E+00  0.00000000000E+00 -0.66902949026E+02  0.29787589679E+04  0.29780075528E+04 0.  0.
        5    1    3    3  502    0 -0.66970116000E+03 -0.13413612243E+03 -0.13568945452E+04  0.15191040254E+04  0.46999998093E+01 0.  1.
       -5    1    3    3    0  502  0.66970116000E+03  0.13413612243E+03  0.12899915962E+04  0.14596549426E+04  0.46999998093E+01 0. -1.
</event>
<event>
 5   0  0.7032692E-06  0.3020385E+04  0.7818609E-02  0.8237934E-01
       -1   -1    0    0    0  501  0.00000000000E+00  0.00000000000E+00  0.88825469891E+03  0.88825469893E+03  0.50400001928E-02 0. -1.
        1   -1    0    0  501    0  0.00000000000E+00  0.00000000000E+00 -0.25675985848E+04  0.25675985848E+04  0.50400001928E-02 0.  1.
    10030    2    1    2    0    0  0.00000000000E+00  0.00000000000E+00 -0.16793438859E+04  0.34558532837E+04  0.30203850800E+04 0.  0.
        5    1    3    3  502    0 -0.48978615624E+03  0.21805873018E+03  0.77569252298E+03  0.94295337576E+03  0.46999998093E+01 0. -1.
       -5    1    3    3    0  502  0.48978615624E+03 -0.21805873018E+03 -0.24550364088E+04  0.25128999080E+04  0.46999998093E+01 0.  1.
</event>
<event>
 5   0  0.4806125E-06  0.2030419E+04  0.7818609E-02  0.8592529E-01
       -3   -1    0    0    0  501  0.00000000000E+00  0.00000000000E+00  0.12600662211E+04  0.12600662251E+04  0.10100000352E+00 0. -1.
        3   -1    0    0  501    0  0.00000000000E+00  0.00000000000E+00 -0.81793379604E+03  0.81793380227E+03  0.10100000352E+00 0.  1.
    10030    2    1    2    0    0  0.00000000000E+00  0.00000000000E+00  0.44213242504E+03  0.20780000274E+04  0.20304194228E+04 0.  0.
        1    1    3    3  502    0 -0.46149988106E+03  0.15937578029E+03 -0.68988651676E+03  0.84517819754E+03  0.50400001928E-02 0.  1.
       -1    1    3    3    0  502  0.46149988106E+03 -0.15937578029E+03  0.11320189418E+04  0.12328218299E+04  0.50400001928E-02 0. -1.
</event>
<event>
 5   0  0.1345931E-05  0.3369150E+04  0.7818609E-02  0.8145520E-01
       -2   -1    0    0    0  501  0.00000000000E+00  0.00000000000E+00  0.16598297669E+04  0.16598297669E+04  0.25500000920E-02 0.  1.
        2   -1    0    0  501    0  0.00000000000E+00  0.00000000000E+00 -0.17096887489E+04  0.17096887489E+04  0.25500000920E-02 0. -1.
    10030    2    1    2    0    0  0.00000000000E+00  0.00000000000E+00 -0.49858981947E+02  0.33695185158E+04  0.33691496123E+04 0.  0.
        2    1    3    3  502    0 -0.13765442092E+04 -0.89604975707E+02  0.94207309835E+03  0.16704504584E+04  0.25500000920E-02 0.  1.
       -2    1    3    3    0  502  0.13765442092E+04  0.89604975707E+02 -0.99193208030E+03  0.16990680573E+04  0.25500000920E-02 0. -1.
</event>
<event>
 5   0  0.5522695E-06  0.2981369E+04  0.7818609E-02  0.8249071E-01
        1   -1    0    0  501    0  0.00000000000E+00  0.00000000000E+00  0.20343715864E+04  0.20343715864E+04  0.50400001928E-02 0. -1.
       -1   -1    0    0    0  501  0.00000000000E+00  0.00000000000E+00 -0.10922977716E+04  0.10922977717E+04  0.50400001928E-02 0.  1.
    10030    2    1    2    0    0  0.00000000000E+00  0.00000000000E+00  0.94207381474E+03  0.31266693581E+04  0.29813685116E+04 0.  0.
        3    1    3    3  502    0 -0.61448291241E+03  0.59114913682E+03  0.17533686701E+04  0.19497046584E+04  0.10100000352E+00 0. -1.
       -3    1    3    3    0  502  0.61448291241E+03 -0.59114913682E+03 -0.81129485536E+03  0.11769646996E+04  0.10100000352E+00 0.  1.
</event>
<event>
 5   0  0.1423692E-05  0.3266790E+04  0.7818609E-02  0.8171397E-01
       -2   -1    0    0    0  501  0.00000000000E+00  0.00000000000E+00  0.16520762348E+04  0.16520762348E+04  0.25500000920E-02 0. -1.
        2   -1    0    0  501    0  0.00000000000E+00  0.00000000000E+00 -0.16149250942E+04  0.16149250942E+04  0.25500000920E-02 0.  1.
    10030    2    1    2    0    0  0.00000000000E+00  0.00000000000E+00  0.37151140663E+02  0.32670013290E+04  0.32667900876E+04 0.  0.
        3    1    3    3  502    0 -0.15300535941E+04  0.55253538104E+03  0.16562252496E+03  0.16351728285E+04  0.10100000352E+00 0.  1.
       -3    1    3    3    0  502  0.15300535941E+04 -0.55253538104E+03 -0.12847138430E+03  0.16318285005E+04  0.10100000352E+00 0. -1.
</event>
<event>
 5   0  0.1388724E-05  0.3002884E+04  0.7818609E-02  0.8242908E-01
        2   -1    0    0  501    0  0.00000000000E+00  0.00000000000E+00  0.25707153221E+04  0.25707153221E+04  0.25500000920E-02 0. -1.
       -2   -1    0    0    0  501  0.00000000000E+00  0.00000000000E+00 -0.87692628176E+03  0.87692628176E+03  0.25500000920E-02 0.  1.
    10030    2    1    2    0    0  0.00000000000E+00  0.00000000000E+00  0.16937890404E+04  0.34476416039E+04  0.30028838332E+04 0.  0.
        4    1    3    3  502    0  0.13716754334E+04  0.17599564566E+03  0.15181790152E+04  0.20536156157E+04  0.12699999809E+01 0. -1.
       -4    1    3    3    0  502 -0.13716754334E+04 -0.17599564566E+03  0.17561002515E+03  0.13940259882E+04  0.12699999809E+01 0.  1.
</event>
<event>
 5   0  0.1388724E-05  0.2984716E+04  0.7818609E-02  0.8248109E-01
       -2   -1    0    0    0  501  0.00000000000E+00  0.00000000000E+00  0.14115466305E+04  0.14115466305E+04  0.25500000920E-02 0. -1.
        2   -1    0    0  501    0  0.00000000000E+00  0.00000000000E+00 -0.15777954565E+04  0.15777954565E+04  0.25500000920E-02 0.  1.
    10030    2    1    2    0    0  0.00000000000E+00  0.00000000000E+00 -0.16624882603E+03  0.29893420869E+04  0.29847156382E+04 0.  0.
        4    1    3    3  502    0 -0.11713002194E+04 -0.62621353213E+03 -0.76465155378E+03  0.15325733925E+04  0.12699999809E+01 0.  1.
       -4    1    3    3    0  502  0.11713002194E+04  0.62621353213E+03  0.59840272775E+03  0.14567686945E+04  0.12699999809E+01 0. -1.
</event>
<event>
 5   0  0.5392262E-06  0.2953783E+04  0.7818609E-02  0.8257053E-01
        1   -1    0    0  501    0  0.00000000000E+00  0.00000000000E+00  0.18683545269E+04  0.18683545269E+04  0.50400001928E-02 0. -1.
       -1   -1    0    0    0  501  0.00000000000E+00  0.00000000000E+00 -0.11674487176E+04  0.11674487176E+04  0.50400001928E-02 0.  1.
    10030    2    1    2    0    0  0.00000000000E+00  0.00000000000E+00  0.70090580926E+03  0.30358032445E+04  0.29537827249E+04 0.  0.
        2    1    3    3  502    0  0.14366145488E+04 -0.34252975867E+03  0.34584521427E+03  0.15168377994E+04  0.25500000920E-02 0. -1.
       -2    1    3    3    0  502 -0.14366145488E+04  0.34252975867E+03  0.35506059499E+03  0.15189654451E+04  0.25500000920E-02 0.  1.
</event>
<event>
 5   0  0.1480547E-05  0.1553933E+04  0.7818609E-02  0.8849360E-01
        2   -1    0    0  501    0  0.00000000000E+00  0.00000000000E+00  0.53708645744E+03  0.53708645745E+03  0.25500000920E-02 0. -1.
       -2   -1    0    0    0  501  0.00000000000E+00  0.00000000000E+00 -0.11239842659E+04  0.11239842659E+04  0.25500000920E-02 0.  1.
    10030    2    1    2    0    0  0.00000000000E+00  0.00000000000E+00 -0.58689780848E+03  0.16610707234E+04  0.15539327239E+04 0.  0.
        1    1    3    3  502    0  0.26283257699E+03  0.83764405465E+02 -0.10698743860E+04  0.11048658928E+04  0.50400001928E-02 0.  1.
       -1    1    3    3    0  502 -0.26283257699E+03 -0.83764405465E+02  0.48297657752E+03  0.55620483062E+03  0.50400001928E-02 0. -1.
</event>
<event>
 5   0  0.5730920E-06  0.3016236E+04  0.7818609E-02  0.8239110E-01
        1   -1    0    0  501    0  0.00000000000E+00  0.00000000000E+00  0.19527929080E+04  0.19527929080E+04  0.50400001928E-02 0.  1.
       -1   -1    0    0    0  501  0.00000000000E+00  0.00000000000E+00 -0.11647012237E+04  0.11647012238E+04  0.50400001928E-02 0. -1.
    10030    2    1    2    0    0  0.00000000000E+00  0.00000000000E+00  0.78809168426E+03  0.31174941318E+04  0.30162362571E+04 0.  0.
        1    1    3    3  502    0 -0.31307663133E+03 -0.11588631477E+04  0.13376228129E+04  0.17972800455E+04  0.50400001928E-02 0.  1.
       -1    1    3    3    0  502  0.31307663133E+03  0.11588631477E+04 -0.54953112867E+03  0.13202140863E+04  0.50400001928E-02 0. -1.
</event>
<event>
 5   0  0.7032692E-06  0.2973778E+04  0.7818609E-02  0.8251258E-01
       -1   -1    0    0    0  501  0.00000000000E+00  0.00000000000E+00  0.92929925429E+03  0.92929925431E+03  0.50400001928E-02 0.  1.
        1   -1    0    0  501    0  0.00000000000E+00  0.00000000000E+00 -0.23790394793E+04  0.23790394793E+04  0.50400001928E-02 0. -1.
    10030    2    1    2    0    0  0.00000000000E+00  0.00000000000E+00 -0.14497402250E+04  0.33083387336E+04  0.29737784814E+04 0.  0.
        5    1    3    3  502    0 -0.74444615200E+03  0.39720578621E+03  0.63713807699E+03  0.10573265952E+04  0.46999998093E+01 0.  1.
       -5    1    3    3    0  502  0.74444615200E+03 -0.39720578621E+03 -0.20868783020E+04  0.22510121384E+04  0.46999998093E+01 0. -1.
</event>
<event>
 5   0  0.1388724E-05  0.2251171E+04  0.7818609E-02  0.8497426E-01
       -2   -1    0    0    0  501  0.00000000000E+00  0.00000000000E+00  0.70633909621E+03  0.70633909622E+03  0.25500000920E-02 0.  1.
        2   -1    0    0  501    0  0.00000000000E+00  0.00000000000E+00 -0.17936755617E+04  0.17936755617E+04  0.25500000920E-02 0. -1.
    10030    2    1    2    0    0  0.00000000000E+00  0.00000000000E+00 -0.10873364655E+04  0.25000146580E+04  0.22511714063E+04 0.  0.
        4    1    3    3  502    0 -0.65879870354E+03  0.61481160323E+03 -0.12927124990E+04  0.15757906768E+04  0.12699999809E+01 0. -1.
       -4    1    3    3    0  502  0.65879870354E+03 -0.61481160323E+03  0.20537603347E+03  0.92422398112E+03  0.12699999809E+01 0.  1.
</event>
<event>
 5   0  0.7032692E-06  0.2849939E+04  0.7818609E-02  0.8287930E-01
        1   -1    0    0  501    0  0.00000000000E+00  0.00000000000E+00  0.76685662133E+03  0.76685662134E+03  0.50400001928E-02 0. -1.
       -1   -1    0    0    0  501  0.00000000000E+00  0.00000000000E+00 -0.26478722077E+04  0.26478722077E+04  0.50400001928E-02 0.  1.
    10030    2    1    2    0    0  0.00000000000E+00  0.00000000000E+00 -0.18810155863E+04  0.34147288290E+04  0.28499391817E+04 0.  0.
        5    1    3    3  502    0  0.91090896629E+03  0.44645892627E+03  0.25852794064E+03  0.10468712929E+04  0.46999998093E+01 0. -1.
       -5    1    3    3    0  502 -0.91090896629E+03 -0.44645892627E+03 -0.21395435270E+04  0.23678575361E+04  0.46999998093E+01 0.  1.
</event>
<event>
 5   0  0.5522695E-06  0.2991947E+04  0.7818609E-02  0.8246034E-01
        1   -1    0    0  501    0  0.00000000000E+00  0.00000000000E+00  0.20921631981E+04  0.20921631982E+04  0.50400001928E-02 0. -1.
       -1   -1    0    0    0  501  0.00000000000E+00  0.00000000000E+00 -0.10696760190E+04  0.10696760190E+04  0.50400001928E-02 0.  1.
    10030    2    1    2    0    0  0.00000000000E+00  0.00000000000E+00  0.10224871791E+04  0.31618392172E+04  0.29919470590E+04 0.  0.
        3    1    3    3  502    0  0.81951272371E+03  0.13054767935E+03  0.18266278930E+04  0.20062934159E+04  0.10100000352E+00 0. -1.
       -3    1    3    3    0  502 -0.81951272371E+03 -0.13054767935E+03 -0.80414071388E+03  0.11555458013E+04  0.10100000352E+00 0.  1.
</event>
<event>
 5   0  0.5329891E-06  0.1552465E+04  0.7818609E-02  0.8850294E-01
       -1   -1    0    0    0  501  0.00000000000E+00  0.00000000000E+00  0.79824078197E+03  0.79824078199E+03  0.50400001928E-02 0.  1.
        1   -1    0    0  501    0  0.00000000000E+00  0.00000000000E+00 -0.75483146211E+03  0.75483146213E+03  0.50400001928E-02 0. -1.
    10030    2    1    2    0    0  0.00000000000E+00  0.00000000000E+00  0.43409319860E+02  0.15530722441E+04  0.15524654671E+04 0.  0.
        4    1    3    3  502    0  0.17030513714E+03  0.75885845312E+02  0.77550639412E+03  0.79760534193E+03  0.12699999809E+01 0.  1.
       -4    1    3    3    0  502 -0.17030513714E+03 -0.75885845312E+02 -0.73209707427E+03  0.75546690219E+03  0.12699999809E+01 0. -1.
</event>
<event>
 5   0  0.1523029E-05  0.2987588E+04  0.7818609E-02  0.8247284E-01
       -2   -1    0    0    0  501  0.00000000000E+00  0.00000000000E+00  0.12968627499E+04  0.12968627499E+04  0.25500000920E-02 0.  1.
        2   -1    0    0  501    0  0.00000000000E+00  0.00000000000E+00 -0.17206297023E+04  0.17206297023E+04  0.25500000920E-02 0. -1.
    10030    2    1    2    0    0  0.00000000000E+00  0.00000000000E+00 -0.42376695246E+03  0.30174924522E+04  0.29875880353E+04 0.  0.
        5    1    3    3  502    0 -0.28820220515E+03 -0.10911942111E+04  0.77649907293E+03  0.13699409540E+04  0.46999998093E+01 0.  1.
       -5    1    3    3    0  502  0.28820220515E+03  0.10911942111E+04 -0.12002660254E+04  0.16475514981E+04  0.46999998093E+01 0. -1.
</event>
<event>
 5   0  0.1480547E-05  0.2026680E+04  0.7818609E-02  0.8594247E-01
       -2   -1    0    0    0  501  0.00000000000E+00  0.00000000000E+00  0.47930856912E+03  0.47930856913E+03  0.25500000920E-02 0. -1.
        2   -1    0    0  501    0  0.00000000000E+00  0.00000000000E+00 -0.21423743315E+04  0.21423743315E+04  0.25500000920E-02 0.  1.
    10030    2    1    2    0    0  0.00000000000E+00  0.00000000000E+00 -0.16630657624E+04  0.26216829006E+04  0.20266804142E+04 0.  0.
        1    1    3    3  502    0 -0.37504365898E+03  0.91204477422E+03 -0.52988910965E+03  0.11194935841E+04  0.50400001928E-02 0. -1.
       -1    1    3    3    0  502  0.37504365898E+03 -0.91204477422E+03 -0.11331766527E+04  0.15021893165E+04  0.50400001928E-02 0.  1.
</event>
<event>
 5   0  0.5392262E-06  0.2938943E+04  0.7818609E-02  0.8261384E-01
        1   -1    0    0  501    0  0.00000000000E+00  0.00000000000E+00  0.19250134367E+04  0.19250134367E+04  0.50400001928E-02 0.  1.
       -1   -1    0    0    0  501  0.00000000000E+00  0.00000000000E+00 -0.11217306002E+04  0.11217306002E+04  0.50400001928E-02 0. -1.
    10030    2    1    2    0    0  0.00000000000E+00  0.00000000000E+00  0.80328283651E+03  0.30467440370E+04  0.29389429922E+04 0.  0.
        2    1    3    3  502    0  0.12226113810E+04 -0.26457684210E+03  0.12010065535E+04  0.17341269377E+04  0.25500000920E-02 0.  1.
       -2    1    3    3    0  502 -0.12226113810E+04  0.26457684210E+03 -0.39772371701E+03  0.13126170993E+04  0.25500000920E-02 0. -1.
</event>
<event>
 5   0  0.7032692E-06  0.2926038E+04  0.7818609E-02  0.8265172E-01
       -1   -1    0    0    0  501  0.00000000000E+00  0.00000000000E+00  0.10368955465E+04  0.10368955465E+04  0.50400001928E-02 0.  1.
        1   -1    0    0  501    0  0.00000000000E+00  0.00000000000E+00 -0.20642629943E+04  0.20642629943E+04  0.50400001928E-02 0. -1.
    10030    2    1    2    0    0  0.00000000000E+00  0.00000000000E+00 -0.10273674478E+04  0.31011585408E+04  0.29260383495E+04 0.  0.
        5    1    3    3  502    0 -0.11825957915E+04  0.76669756495E+03 -0.97708145711E+02  0.14127727821E+04  0.46999998093E+01 0.  1.
       -5    1    3    3    0  502  0.11825957915E+04 -0.76669756495E+03 -0.92965930204E+03  0.16883857587E+04  0.46999998093E+01 0. -1.
</event>
<event>
 5   0  0.1423692E-05  0.2958299E+04  0.7818609E-02  0.8255740E-01
       -2   -1    0    0    0  501  0.00000000000E+00  0.00000000000E+00  0.10633876265E+04  0.10633876265E+04  0.25500000920E-02 0.  1.
        2   -1    0    0  501    0  0.00000000000E+00  0.00000000000E+00 -0.20574656539E+04  0.20574656539E+04  0.25500000920E-02 0. -1.
    10030    2    1    2    0    0  0.00000000000E+00  0.00000000000E+00 -0.99407802743E+03  0.31208532803E+04  0.29582991858E+04 0.  0.
        3    1    3    3  502    0 -0.91615997044E+03 -0.52321061645E+03 -0.15907235453E+04  0.19087953920E+04  0.10100000352E+00 0. -1.
       -3    1    3    3    0  502  0.91615997044E+03  0.52321061645E+03  0.59664551787E+03  0.12120578884E+04  0.10100000352E+00 0.  1.
</event>
<event>
 5   0  0.1480547E-05  0.3064862E+04  0.7818609E-02  0.8225448E-01
        2   -1    0    0  501    0  0.00000000000E+00  0.00000000000E+00  0.24414375296E+04  0.24414375296E+04  0.25500000920E-02 0. -1.
       -2   -1    0    0    0  501  0.00000000000E+00  0.00000000000E+00 -0.96186975423E+03  0.96186975423E+03  0.25500000920E-02 0.  1.
    10030    2    1    2    0    0  0.00000000000E+00  0.00000000000E+00  0.14795677754E+04  0.34033072839E+04  0.30648620958E+04 0.  0.
        1    1    3    3  502    0 -0.64245115725E+03 -0.44455684287E+03 -0.72411622068E+03  0.10652317011E+04  0.50400001928E-02 0.  1.
       -1    1    3    3    0  502  0.64245115725E+03  0.44455684287E+03  0.22036839961E+04  0.23380755827E+04  0.50400001928E-02 0. -1.
</event>
<event>
 5   0  0.4806125E-06  0.3016605E+04  0.7818609E-02  0.8239005E-01
        3   -1    0    0  501    0  0.00000000000E+00  0.00000000000E+00  0.11627652956E+04  0.11627653000E+04  0.10100000352E+00 0. -1.
       -3   -1    0    0    0  501  0.00000000000E+00  0.00000000000E+00 -0.19565222560E+04  0.19565222586E+04  0.10100000352E+00 0.  1.
    10030    2    1    2    0    0  0.00000000000E+00  0.00000000000E+00 -0.79375696039E+03  0.31192875585E+04  0.30166048400E+04 0.  0.
        5    1    3    3  502    0 -0.18252128580E+03 -0.13047839633E+03  0.11454059200E+04  0.11671826949E+04  0.46999998093E+01 0. -1.
       -5    1    3    3    0  502  0.18252128580E+03  0.13047839633E+03 -0.19391628804E+04  0.19521048636E+04  0.46999998093E+01 0.  1.
</event>
<event>
 5   0  0.5392262E-06  0.2860230E+04  0.7818609E-02  0.8284810E-01
       -1   -1    0    0    0  501  0.00000000000E+00  0.00000000000E+00  0.10408736614E+04  0.10408736614E+04  0.50400001928E-02 0. -1.
        1   -1    0    0  501    0  0.00000000000E+00  0.00000000000E+00 -0.19649155751E+04  0.19649155751E+04  0.50400001928E-02 0.  1.
    10030    2    1    2    0    0  0.00000000000E+00  0.00000000000E+00 -0.92404191371E+03  0.30057892365E+04  0.28602299690E+04 0.  0.
        2    1    3    3  502    0 -0.87297108907E+03  0.99462784607E+03 -0.10317024237E+04  0.16780265092E+04  0.25500000920E-02 0. -1.
       -2    1    3    3    0  502  0.87297108907E+03 -0.99462784607E+03  0.10766050995E+03  0.13277627273E+04  0.25500000920E-02 0.  1.
</event>
<event>
 5   0  0.7032692E-06  0.2995777E+04  0.7818609E-02  0.8244938E-01
       -1   -1    0    0    0  501  0.00000000000E+00  0.00000000000E+00  0.18604240507E+04  0.18604240507E+04  0.50400001928E-02 0. -1.
        1   -1    0    0  501    0  0.00000000000E+00  0.00000000000E+00 -0.12059993210E+04  0.12059993211E+04  0.50400001928E-02 0.  1.
    10030    2    1    2    0    0  0.00000000000E+00  0.00000000000E+00  0.65442472961E+03  0.30664233717E+04  0.29957771225E+04 0.  0.
        5    1    3    3  502    0 -0.64513639774E+03 -0.86130950637E+03  0.13937007658E+04  0.17608176942E+04  0.46999998093E+01 0. -1.
       -5    1    3    3    0  502  0.64513639774E+03  0.86130950637E+03 -0.73927603623E+03  0.13056056775E+04  0.46999998093E+01 0.  1.
</event>
<event>
 5   0  0.5392262E-06  0.2731002E+04  0.7818609E-02  0.8325015E-01
       -1   -1    0    0    0  501  0.00000000000E+00  0.00000000000E+00  0.11517813373E+04  0.11517813373E+04  0.50400001928E-02 0.  1.
        1   -1    0    0  501    0  0.00000000000E+00  0.00000000000E+00 -0.16188779037E+04  0.16188779037E+04  0.50400001928E-02 0. -1.
    10030    2    1    2    0    0  0.00000000000E+00  0.00000000000E+00 -0.46709656640E+03  0.27706592411E+04  0.27310022753E+04 0.  0.
        2    1    3    3  502    0  0.96087516137E+03 -0.70121856373E+03 -0.91381077709E+03  0.15000128953E+04  0.25500000920E-02 0. -1.
       -2    1    3    3    0  502 -0.96087516137E+03  0.70121856373E+03  0.44671421069E+03  0.12706463457E+04  0.25500000920E-02 0.  1.
</event>
<event>
 5   0  0.7095615E-06  0.1528789E+04  0.7818609E-02  0.8865531E-01
        1   -1    0    0  501    0  0.00000000000E+00  0.00000000000E+00  0.11508208609E+04  0.11508208609E+04  0.50400001928E-02 0. -1.
       -1   -1    0    0    0  501  0.00000000000E+00  0.00000000000E+00 -0.50772391995E+03  0.50772391998E+03  0.50400001928E-02 0.  1.
    10030    2    1    2    0    0  0.00000000000E+00  0.00000000000E+00  0.64309694098E+03  0.16585447809E+04  0.15287894279E+04 0.  0.
        5    1    3    3  502    0 -0.58135637880E+03 -0.86639020568E+02 -0.20859414745E+03  0.62371080430E+03  0.46999998093E+01 0.  1.
       -5    1    3    3    0  502  0.58135637880E+03  0.86639020568E+02  0.85169108844E+03  0.10348339766E+04  0.46999998093E+01 0. -1.
</event>
<event>
 5   0  0.5392262E-06  0.3046177E+04  0.7818609E-02  0.8230666E-01
        1   -1    0    0  501    0  0.00000000000E+00  0.00000000000E+00  0.86730459513E+03  0.86730459515E+03  0.50400001928E-02 0. -1.
       -1   -1    0    0    0  501  0.00000000000E+00  0.00000000000E+00 -0.26747212500E+04  0.26747212500E+04  0.50400001928E-02 0.  1.
    10030    2    1    2    0    0  0.00000000000E+00  0.00000000000E+00 -0.18074166549E+04  0.35420258452E+04  0.30461766402E+04 0.  0.
        2    1    3    3  502    0 -0.19036952960E+03  0.14771991608E+04 -0.53336757628E+03  0.15820363112E+04  0.25500000920E-02 0. -1.
       -2    1    3    3    0  502  0.19036952960E+03 -0.14771991608E+04 -0.12740490786E+04  0.19599895340E+04  0.25500000920E-02 0.  1.
</event>
<event>
 5   0  0.1423692E-05  0.3029513E+04  0.7818609E-02  0.8235353E-01
        2   -1    0    0  501    0  0.00000000000E+00  0.00000000000E+00  0.16008632520E+04  0.16008632520E+04  0.25500000920E-02 0.  1.
       -2   -1    0    0    0  501  0.00000000000E+00  0.00000000000E+00 -0.14332808172E+04  0.14332808172E+04  0.25500000920E-02 0. -1.
    10030    2    1    2    0    0  0.00000000000E+00  0.00000000000E+00  0.16758243482E+03  0.30341440692E+04  0.30295125615E+04 0.  0.
        3    1    3    3  502    0  0.48395908479E+03 -0.75115621338E+03  0.13087860288E+04  0.15847311861E+04  0.10100000352E+00 0.  1.
       -3    1    3    3    0  502 -0.48395908479E+03  0.75115621338E+03 -0.11412035940E+04  0.14494128832E+04  0.10100000352E+00 0. -1.
</event>
<event>
 5   0  0.1345931E-05  0.2931019E+04  0.7818609E-02  0.8263708E-01
        2   -1    0    0  501    0  0.00000000000E+00  0.00000000000E+00  0.17163672100E+04  0.17163672100E+04  0.25500000920E-02 0. -1.
       -2   -1    0    0    0  501  0.00000000000E+00  0.00000000000E+00 -0.12513161825E+04  0.12513161825E+04  0.25500000920E-02 0.  1.
    10030    2    1    2    0    0  0.00000000000E+00  0.00000000000E+00  0.46505102751E+03  0.29676833926E+04  0.29310189799E+04 0.  0.
        2    1    3    3  502    0  0.91881364835E+03 -0.11170377056E+04  0.47154266994E+03  0.15212968960E+04  0.25500000920E-02 0. -1.
       -2    1    3    3    0  502 -0.91881364835E+03  0.11170377056E+04 -0.64916424379E+01  0.14463864966E+04  0.25500000920E-02 0.  1.
</event>
<event>
 5   0  0.1388724E-05  0.2993698E+04  0.7818609E-02  0.8245533E-01
        2   -1    0    0  501    0  0.00000000000E+00  0.00000000000E+00  0.18176771473E+04  0.18176771473E+04  0.25500000920E-02 0.  1.
       -2   -1    0    0    0  501  0.00000000000E+00  0.00000000000E+00 -0.12326481405E+04  0.12326481405E+04  0.25500000920E-02 0. -1.
    10030    2    1    2    0    0  0.00000000000E+00  0.00000000000E+00  0.58502900677E+03  0.30503252878E+04  0.29936976171E+04 0.  0.
        4    1    3    3  502    0 -0.61093941075E+03 -0.13030777311E+04 -0.12672465074E+03  0.14447557880E+04  0.12699999809E+01 0. -1.
       -4    1    3    3    0  502  0.61093941075E+03  0.13030777311E+04  0.71175365750E+03  0.16055694998E+04  0.12699999809E+01 0.  1.
</event>
<event>
 5   0  0.5392262E-06  0.2206161E+04  0.7818609E-02  0.8515868E-01
        1   -1    0    0  501    0  0.00000000000E+00  0.00000000000E+00  0.13392956037E+04  0.13392956037E+04  0.50400001928E-02 0. -1.
       -1   -1    0    0    0  501  0.00000000000E+00  0.00000000000E+00 -0.90852751138E+03  0.90852751139E+03  0.50400001928E-02 0.  1.
    10030    2    1    2    0    0  0.00000000000E+00  0.00000000000E+00  0.43076809232E+03  0.22478231151E+04  0.22061612832E+04 0.  0.
        2    1    3    3  502    0  0.42001362907E+03 -0.82044531785E+03 -0.40206735541E+03  0.10055844701E+04  0.25500000920E-02 0.  1.
       -2    1    3    3    0  502 -0.42001362907E+03  0.82044531785E+03  0.83283544773E+03  0.12422386450E+04  0.25500000920E-02 0. -1.
</event>
<event>
 5   0  0.1388724E-05  0.3037081E+04  0.7818609E-02  0.8233221E-01
       -2   -1    0    0    0  501  0.00000000000E+00  0.00000000000E+00  0.13613706497E+04  0.13613706497E+04  0.25500000920E-02 0. -1.
        2   -1    0    0  501    0  0.00000000000E+00  0.00000000000E+00 -0.16938559706E+04  0.16938559706E+04  0.25500000920E-02 0.  1.
    10030    2    1    2    0    0  0.00000000000E+00  0.00000000000E+00 -0.33248532087E+03  0.30552266203E+04  0.30370813642E+04 0.  0.
        4    1    3    3  502    0 -0.38629826912E+03  0.13718148910E+04  0.36116222700E+03  0.14702184243E+04  0.12699999809E+01 0. -1.
       -4    1    3    3    0  502  0.38629826912E+03 -0.13718148910E+04 -0.69364754787E+03  0.15850081960E+04  0.12699999809E+01 0.  1.
</event>
<event>
 5   0  0.5730920E-06  0.2988492E+04  0.7818609E-02  0.8247025E-01
       -1   -1    0    0    0  501  0.00000000000E+00  0.00000000000E+00  0.12454955223E+04  0.12454955223E+04  0.50400001928E-02 0. -1.
        1   -1    0    0  501    0  0.00000000000E+00  0.00000000000E+00 -0.17926773925E+04  0.17926773925E+04  0.50400001928E-02 0.  1.
    10030    2    1    2    0    0  0.00000000000E+00  0.00000000000E+00 -0.54718187020E+03  0.30381729148E+04  0.29884923726E+04 0.  0.
        1    1    3    3  502    0  0.45965585347E+03 -0.75821051215E+03 -0.14963342976E+04  0.17393053253E+04  0.50400001928E-02 0.  1.
       -1    1    3    3    0  502 -0.45965585347E+03  0.75821051215E+03  0.94915242744E+03  0.12988675894E+04  0.50400001928E-02 0. -1.
</event>
<event>
 5   0  0.5329891E-06  0.2987356E+04  0.7818609E-02  0.8247351E-01
       -1   -1    0    0    0  501  0.00000000000E+00  0.00000000000E+00  0.97705558691E+03  0.97705558692E+03  0.50400001928E-02 0. -1.
        1   -1    0    0  501    0  0.00000000000E+00  0.00000000000E+00 -0.22834669374E+04  0.22834669374E+04  0.50400001928E-02 0.  1.
    10030    2    1    2    0    0  0.00000000000E+00  0.00000000000E+00 -0.13064113505E+04  0.32605225243E+04  0.29873561078E+04 0.  0.
        4    1    3    3  502    0 -0.42344859767E+03 -0.89344206425E+03  0.56878170973E+03  0.11406409090E+04  0.12699999809E+01 0. -1.
       -4    1    3    3    0  502  0.42344859767E+03  0.89344206425E+03 -0.18751930602E+04  0.21198816153E+04  0.12699999809E+01 0.  1.
</event>
<event>
 5   0  0.1423692E-05  0.3000031E+04  0.7818609E-02  0.8243722E-01
        2   -1    0    0  501    0  0.00000000000E+00  0.00000000000E+00  0.26156929884E+04  0.26156929884E+04  0.25500000920E-02 0. -1.
       -2   -1    0    0    0  501  0.00000000000E+00  0.00000000000E+00 -0.86021038856E+03  0.86021038856E+03  0.25500000920E-02 0.  1.
    10030    2    1    2    0    0  0.00000000000E+00  0.00000000000E+00  0.17554825998E+04  0.34759033769E+04  0.30000308544E+04 0.  0.
        3    1    3    3  502    0  0.14968991715E+04  0.96536282251E+02  0.88290830762E+03  0.17405612524E+04  0.10100000352E+00 0.  1.
       -3    1    3    3    0  502 -0.14968991715E+04 -0.96536282251E+02  0.87257429218E+03  0.17353421245E+04  0.10100000352E+00 0. -1.
</event>
<event>
 5   0  0.7032692E-06  0.2985346E+04  0.7818609E-02  0.8247928E-01
       -1   -1    0    0    0  501  0.00000000000E+00  0.00000000000E+00  0.33062125604E+04  0.33062125604E+04  0.50400001928E-02 0. -1.
        1   -1    0    0  501    0  0.00000000000E+00  0.00000000000E+00 -0.67390505782E+03  0.67390505783E+03  0.50400001928E-02 0.  1.
    10030    2    1    2    0    0  0.00000000000E+00  0.00000000000E+00  0.26323075026E+04  0.39801176182E+04  0.29853464568E+04 0.  0.
        5    1    3    3  502    0  0.12364294316E+04  0.31141019020E+03  0.28145527233E+03  0.13057462258E+04  0.46999998093E+01 0.  1.
       -5    1    3    3    0  502 -0.12364294316E+04 -0.31141019020E+03  0.23508522303E+04  0.26743713924E+04  0.46999998093E+01 0. -1.
</event>
<event>
 5   0  0.1423692E-05  0.2994353E+04  0.7818609E-02  0.8245345E-01
       -2   -1    0    0    0  501  0.00000000000E+00  0.00000000000E+00  0.11044264232E+04  0.11044264232E+04  0.25500000920E-02 0.  1.
        2   -1    0    0  501    0  0.00000000000E+00  0.00000000000E+00 -0.20295943061E+04  0.20295943061E+04  0.25500000920E-02 0. -1.
    10030    2    1    2    0    0  0.00000000000E+00  0.00000000000E+00 -0.92516788292E+03  0.31340207294E+04  0.29943530721E+04 0.  0.
        3    1    3    3  502    0  0.14841571912E+04  0.11885693961E+01 -0.66878493749E+03  0.16278812253E+04  0.10100000352E+00 0. -1.
       -3    1    3    3    0  502 -0.14841571912E+04 -0.11885693961E+01 -0.25638294543E+03  0.15061395041E+04  0.10100000352E+00 0.  1.
</event>
<event>
 5   0  0.5329891E-06  0.1630504E+04  0.7818609E-02  0.8802024E-01
        1   -1    0    0  501    0  0.00000000000E+00  0.00000000000E+00  0.12976864450E+04  0.12976864450E+04  0.50400001928E-02 0.  1.
       -1   -1    0    0    0  501  0.00000000000E+00  0.00000000000E+00 -0.51216968329E+03  0.51216968332E+03  0.50400001928E-02 0. -1.
    10030    2    1    2    0    0  0.00000000000E+00  0.00000000000E+00  0.78551676173E+03  0.18098561284E+04  0.16305037940E+04 0.  0.
        4    1    3    3  502    0  0.21662309274E+03 -0.29629701002E+03  0.12007855892E+04  0.12556293747E+04  0.12699999809E+01 0.  1.
       -4    1    3    3    0  502 -0.21662309274E+03  0.29629701002E+03 -0.41526882749E+03  0.55422675364E+03  0.12699999809E+01 0. -1.
</event>
<event>
 5   0  0.7032692E-06  0.3052062E+04  0.7818609E-02  0.8229019E-01
       -1   -1    0    0    0  501  0.00000000000E+00  0.00000000000E+00  0.12880116571E+04  0.12880116571E+04  0.50400001928E-02 0.  1.
        1   -1    0    0  501    0  0.00000000000E+00  0.00000000000E+00 -0.18080353458E+04  0.18080353458E+04  0.50400001928E-02 0. -1.
    10030    2    1    2    0    0  0.00000000000E+00  0.00000000000E+00 -0.52002368872E+03  0.30960470029E+04  0.30520619928E+04 0.  0.
        5    1    3    3  502    0  0.26891300319E+03  0.63094662175E+03  0.11228438436E+04  0.13157538637E+04  0.46999998093E+01 0.  1.
       -5    1    3    3    0  502 -0.26891300319E+03 -0.63094662175E+03 -0.16428675323E+04  0.17802931392E+04  0.46999998093E+01 0. -1.
</event>
<event>
 5   0  0.1423692E-05  0.2685141E+04  0.7818609E-02  0.8339842E-01
        2   -1    0    0  501    0  0.00000000000E+00  0.00000000000E+00  0.18696665301E+04  0.18696665301E+04  0.25500000920E-02 0. -1.
       -2   -1    0    0    0  501  0.00000000000E+00  0.00000000000E+00 -0.96407296610E+03  0.96407296610E+03  0.25500000920E-02 0.  1.
    10030    2    1    2    0    0  0.00000000000E+00  0.00000000000E+00  0.90559356404E+03  0.28337394962E+04  0.26851405604E+04 0.  0.
        3    1    3    3  502    0 -0.67744817890E+03 -0.83442573338E+03 -0.39627268176E+03  0.11455279953E+04  0.10100000352E+00 0.  1.
       -3    1    3    3    0  502  0.67744817890E+03  0.83442573338E+03  0.13018662458E+04  0.16882115009E+04  0.10100000352E+00 0. -1.
</event>
<event>
 5   0  0.5730920E-06  0.2835964E+04  0.7818609E-02  0.8292189E-01
       -1   -1    0    0    0  501  0.00000000000E+00  0.00000000000E+00  0.13157312693E+04  0.13157312693E+04  0.50400001928E-02 0.  1.
        1   -1    0    0  501    0  0.00000000000E+00  0.00000000000E+00 -0.15281790863E+04  0.15281790863E+04  0.50400001928E-02 0. -1.
    10030    2    1    2    0    0  0.00000000000E+00  0.00000000000E+00 -0.21244781705E+03  0.28439103556E+04  0.28359640399E+04 0.  0.
        1    1    3    3  502    0  0.65110695794E+03 -0.12209910326E+04 -0.41679094767E+03  0.14451553780E+04  0.50400001928E-02 0.  1.
       -1    1    3    3    0  502 -0.65110695794E+03  0.12209910326E+04  0.20434313062E+03  0.13987549776E+04  0.50400001928E-02 0. -1.
</event>
<event>
 5   0  0.1523029E-05  0.2709862E+04  0.7818609E-02  0.8331812E-01
       -2   -1    0    0    0  501  0.00000000000E+00  0.00000000000E+00  0.13367620287E+04  0.13367620287E+04  0.25500000920E-02 0.  1.
        2   -1    0    0  501    0  0.00000000000E+00  0.00000000000E+00 -0.13733471870E+04  0.13733471870E+04  0.25500000920E-02 0. -1.
    10030    2    1    2    0    0  0.00000000000E+00  0.00000000000E+00 -0.36585158257E+02  0.27101092157E+04  0.27098622635E+04 0.  0.
        5    1    3    3  502    0  0.54072759023E+03  0.44077430028E+03 -0.11799267214E+04  0.13707361046E+04  0.46999998093E+01 0. -1.
       -5    1    3    3    0  502 -0.54072759023E+03 -0.44077430028E+03  0.11433415632E+04  0.13393731111E+04  0.46999998093E+01 0.  1.
</event>
<event>
 5   0  0.5392262E-06  0.1494793E+04  0.7818609E-02  0.8887923E-01
        1   -1    0    0  501    0  0.00000000000E+00  0.00000000000E+00  0.68791497255E+03  0.68791497257E+03  0.50400001928E-02 0.  1.
       -1   -1    0    0    0  501  0.00000000000E+00  0.00000000000E+00 -0.81202140613E+03  0.81202140615E+03  0.50400001928E-02 0. -1.
    10030    2    1    2    0    0  0.00000000000E+00  0.00000000000E+00 -0.12410643358E+03  0.14999363787E+04  0.14947932076E+04 0.  0.
        2    1    3    3  502    0  0.25715122055E+03 -0.36100091457E+03  0.54180910131E+03  0.70000393772E+03  0.25500000920E-02 0.  1.
       -2    1    3    3    0  502 -0.25715122055E+03  0.36100091457E+03 -0.66591553489E+03  0.79993244100E+03  0.25500000920E-02 0. -1.
</event>
<event>
 5   0  0.5522695E-06  0.2124549E+04  0.7818609E-02  0.8550506E-01
        1   -1    0    0  501    0  0.00000000000E+00  0.00000000000E+00  0.10187121500E+04  0.10187121500E+04  0.50400001928E-02 0. -1.
       -1   -1    0    0    0  501  0.00000000000E+00  0.00000000000E+00 -0.11077000729E+04  0.11077000729E+04  0.50400001928E-02 0.  1.
    10030    2    1    2    0    0  0.00000000000E+00  0.00000000000E+00 -0.88987922899E+02  0.21264122229E+04  0.21245493854E+04 0.  0.
        3    1    3    3  502    0 -0.13246331004E+02 -0.26672861620E+03  0.98456506605E+03  0.10201411664E+04  0.10100000352E+00 0. -1.
       -3    1    3    3    0  502  0.13246331004E+02  0.26672861620E+03 -0.10735529889E+04  0.11062710564E+04  0.10100000352E+00 0.  1.
</event>
<event>
 5   0  0.7032692E-06  0.3063206E+04  0.7818609E-02  0.8225909E-01
       -1   -1    0    0    0  501  0.00000000000E+00  0.00000000000E+00  0.14644914767E+04  0.14644914768E+04  0.50400001928E-02 0.  1.
        1   -1    0    0  501    0  0.00000000000E+00  0.00000000000E+00 -0.16017902407E+04  0.16017902408E+04  0.50400001928E-02 0. -1.
    10030    2    1    2    0    0  0.00000000000E+00  0.00000000000E+00 -0.13729876400E+03  0.30662817175E+04  0.30632062648E+04 0.  0.
        5    1    3    3  502    0 -0.45510458691E+02 -0.96411588715E+03  0.11217440586E+04  0.14798386631E+04  0.46999998093E+01 0.  1.
       -5    1    3    3    0  502  0.45510458691E+02  0.96411588715E+03 -0.12590428226E+04  0.15864430544E+04  0.46999998093E+01 0. -1.
</event>
<event>
 5   0  0.1345931E-05  0.3004847E+04  0.7818609E-02  0.8242348E-01
        2   -1    0    0  501    0  0.00000000000E+00  0.00000000000E+00  0.16391240938E+04  0.16391240938E+04  0.25500000920E-02 0.  1.
       -2   -1    0    0    0  501  0.00000000000E+00  0.00000000000E+00 -0.13771234653E+04  0.13771234653E+04  0.25500000920E-02 0. -1.
    10030    2    1    2    0    0  0.00000000000E+00  0.00000000000E+00  0.26200062850E+03  0.30162475592E+04  0.30048469194E+04 0.  0.
        2    1    3    3  502    0 -0.39449695607E+03 -0.13190347492E+04 -0.47277639007E+03  0.14556778603E+04  0.25500000920E-02 0.  1.
       -2    1    3    3    0  502  0.39449695607E+03  0.13190347492E+04  0.73477701856E+03  0.15605696989E+04  0.25500000920E-02 0. -1.
</event>
<event>
 5   0  0.1480547E-05  0.3221106E+04  0.7818609E-02  0.8183265E-01
       -2   -1    0    0    0  501  0.00000000000E+00  0.00000000000E+00  0.10570436906E+04  0.10570436906E+04  0.25500000920E-02 0.  1.
        2   -1    0    0  501    0  0.00000000000E+00  0.00000000000E+00 -0.24539015092E+04  0.24539015092E+04  0.25500000920E-02 0. -1.
    10030    2    1    2    0    0  0.00000000000E+00  0.00000000000E+00 -0.13968578187E+04  0.35109451998E+04  0.32211060881E+04 0.  0.
        1    1    3    3  502    0 -0.91962029520E+03 -0.30330055780E+03 -0.21011582799E+04  0.23135597751E+04  0.50400001928E-02 0.  1.
       -1    1    3    3    0  502  0.91962029520E+03  0.30330055780E+03  0.70430046121E+03  0.11973854247E+04  0.50400001928E-02 0. -1.
</event>
<event>
 5   0  0.5730920E-06  0.2918322E+04  0.7818609E-02  0.8267447E-01
        1   -1    0    0  501    0  0.00000000000E+00  0.00000000000E+00  0.19128494302E+04  0.19128494302E+04  0.50400001928E-02 0. -1.
       -1   -1    0    0    0  501  0.00000000000E+00  0.00000000000E+00 -0.11130779226E+04  0.11130779226E+04  0.50400001928E-02 0.  1.
    10030    2    1    2    0    0  0.00000000000E+00  0.00000000000E+00  0.79977150757E+03  0.30259273528E+04  0.29183217574E+04 0.  0.
        1    1    3    3  502    0  0.11378910530E+04 -0.89687202059E+03  0.57940248087E+03  0.15604110691E+04  0.50400001928E-02 0. -1.
       -1    1    3    3    0  502 -0.11378910530E+04  0.89687202059E+03  0.22036902670E+03  0.14655162837E+04  0.50400001928E-02 0.  1.
</event>
<event>
 5   0  0.5522695E-06  0.2863417E+04  0.7818609E-02  0.8283846E-01
       -1   -1    0    0    0  501  0.00000000000E+00  0.00000000000E+00  0.96958895517E+03  0.96958895518E+03  0.50400001928E-02 0. -1.
        1   -1    0    0  501    0  0.00000000000E+00  0.00000000000E+00 -0.21140810021E+04  0.21140810021E+04  0.50400001928E-02 0.  1.
    10030    2    1    2    0    0  0.00000000000E+00  0.00000000000E+00 -0.11444920469E+04  0.30836699572E+04  0.28634172521E+04 0.  0.
        3    1    3    3  502    0 -0.57455719051E+03 -0.10247727090E+04  0.30893117162E+03  0.12147895082E+04  0.10100000352E+00 0. -1.
       -3    1    3    3    0  502  0.57455719051E+03  0.10247727090E+04 -0.14534232185E+04  0.18688804490E+04  0.10100000352E+00 0.  1.
</event>
<event>
 5   0  0.5522695E-06  0.1483728E+04  0.7818609E-02  0.8895346E-01
       -1   -1    0    0    0  501  0.00000000000E+00  0.00000000000E+00  0.70962676984E+03  0.70962676986E+03  0.50400001928E-02 0.  1.
        1   -1    0    0  501    0  0.00000000000E+00  0.00000000000E+00 -0.77556585821E+03  0.77556585822E+03  0.50400001928E-02 0. -1.
    10030    2    1    2    0    0  0.00000000000E+00  0.00000000000E+00 -0.65939088368E+02  0.14851926281E+04  0.14837281352E+04 0.  0.
        3    1    3    3  502    0 -0.24569167569E+03  0.57417559118E+03 -0.43376489780E+03  0.76039069286E+03  0.10100000352E+00 0. -1.
       -3    1    3    3    0  502  0.24569167569E+03 -0.57417559118E+03  0.36782580943E+03  0.72480193522E+03  0.10100000352E+00 0.  1.
</event>
<event>
 5   0  0.5392262E-06  0.2973842E+04  0.7818609E-02  0.8251240E-01
       -1   -1    0    0    0  501  0.00000000000E+00  0.00000000000E+00  0.13154360718E+04  0.13154360718E+04  0.50400001928E-02 0.  1.
        1   -1    0    0  501    0  0.00000000000E+00  0.00000000000E+00 -0.16807617746E+04  0.16807617746E+04  0.50400001928E-02 0. -1.
    10030    2    1    2    0    0  0.00000000000E+00  0.00000000000E+00 -0.36532570272E+03  0.29961978464E+04  0.29738424077E+04 0.  0.
        2    1    3    3  502    0  0.12933271712E+04 -0.24519657812E+03 -0.87932167898E+03  0.15830423711E+04  0.25500000920E-02 0. -1.
       -2    1    3    3    0  502 -0.12933271712E+04  0.24519657812E+03  0.51399597626E+03  0.14131554753E+04  0.25500000920E-02 0.  1.
</event>
<event>
 5   0  0.1480547E-05  0.3083033E+04  0.7818609E-02  0.8220410E-01
       -2   -1    0    0    0  501  0.00000000000E+00  0.00000000000E+00  0.16062009397E+04  0.16062009397E+04  0.25500000920E-02 0. -1.
        2   -1    0    0  501    0  0.00000000000E+00  0.00000000000E+00 -0.14794371515E+04  0.14794371515E+04  0.25500000920E-02 0.  1.
    10030    2    1    2    0    0  0.00000000000E+00  0.00000000000E+00  0.12676378823E+03  0.30856380912E+04  0.30830331448E+04 0.  0.
        1    1    3    3  502    0 -0.46564540209E+03  0.96752655197E+03 -0.10435996865E+04  0.14973421703E+04  0.50400001928E-02 0.  1.
       -1    1    3    3    0  502  0.46564540209E+03 -0.96752655197E+03  0.11703634748E+04  0.15882959209E+04  0.50400001928E-02 0. -1.
</event>
<event>
 5   0  0.1423692E-05  0.3030975E+04  0.7818609E-02  0.8234941E-01
        2   -1    0    0  501    0  0.00000000000E+00  0.00000000000E+00  0.15366435003E+04  0.15366435003E+04  0.25500000920E-02 0. -1.
       -2   -1    0    0    0  501  0.00000000000E+00  0.00000000000E+00 -0.14946222778E+04  0.14946222778E+04  0.25500000920E-02 0.  1.
    10030    2    1    2    0    0  0.00000000000E+00  0.00000000000E+00  0.42021222558E+02  0.30312657781E+04  0.30309745024E+04 0.  0.
        3    1    3    3  502    0 -0.34822443178E+03  0.76462041037E+03  0.12823998202E+04  0.15331190221E+04  0.10100000352E+00 0. -1.
       -3    1    3    3    0  502  0.34822443178E+03 -0.76462041037E+03 -0.12403785976E+04  0.14981467560E+04  0.10100000352E+00 0.  1.
</event>
<event>
 5   0  0.5522695E-06  0.2089533E+04  0.7818609E-02  0.8565868E-01
       -1   -1    0    0    0  501  0.00000000000E+00  0.00000000000E+00  0.68903348580E+03  0.68903348582E+03  0.50400001928E-02 0.  1.
        1   -1    0    0  501    0  0.00000000000E+00  0.00000000000E+00 -0.15841571430E+04  0.15841571430E+04  0.50400001928E-02 0. -1.
    10030    2    1    2    0    0  0.00000000000E+00  0.00000000000E+00 -0.89512365718E+03  0.22731906288E+04  0.20895332668E+04 0.  0.
        3    1    3    3  502    0  0.23350471237E+03 -0.17522303304E+03  0.64375890585E+03  0.70686144404E+03  0.10100000352E+00 0.  1.
       -3    1    3    3    0  502 -0.23350471237E+03  0.17522303304E+03 -0.15388825630E+04  0.15663291848E+04  0.10100000352E+00 0. -1.
</event>
<event>
 5   0  0.1388724E-05  0.1502002E+04  0.7818609E-02  0.8883123E-01
        2   -1    0    0  501    0  0.00000000000E+00  0.00000000000E+00  0.10712945114E+04  0.10712945114E+04  0.25500000920E-02 0.  1.
       -2   -1    0    0    0  501  0.00000000000E+00  0.00000000000E+00 -0.52646800404E+03  0.52646800404E+03  0.25500000920E-02 0. -1.
    10030    2    1    2    0    0  0.00000000000E+00  0.00000000000E+00  0.54482650734E+03  0.15977625154E+04  0.15020017086E+04 0.  0.
        4    1    3    3  502    0 -0.30315240528E+03 -0.48494182233E+03  0.79020185670E+03  0.97544376522E+03  0.12699999809E+01 0.  1.
       -4    1    3    3    0  502  0.30315240528E+03  0.48494182233E+03 -0.24537534937E+03  0.62231875020E+03  0.12699999809E+01 0. -1.
</event>
<event>
 5   0  0.5522695E-06  0.2548434E+04  0.7818609E-02  0.8385931E-01
       -1   -1    0    0    0  501  0.00000000000E+00  0.00000000000E+00  0.11145478061E+04  0.11145478061E+04  0.50400001928E-02 0.  1.
        1   -1    0    0  501    0  0.00000000000E+00  0.00000000000E+00 -0.14567605753E+04  0.14567605753E+04  0.50400001928E-02 0. -1.
    10030    2    1    2    0    0  0.00000000000E+00  0.00000000000E+00 -0.34221276921E+03  0.25713083815E+04  0.25484342670E+04 0.  0.
        3    1    3    3  502    0 -0.59885220554E+03  0.21520320188E+03  0.94274659717E+03  0.11374126511E+04  0.10100000352E+00 0.  1.
       -3    1    3    3    0  502  0.59885220554E+03 -0.21520320188E+03 -0.12849593664E+04  0.14338957304E+04  0.10100000352E+00 0. -1.
</event>
<event>
 5   0  0.5522695E-06  0.1654882E+04  0.7818609E-02  0.8787523E-01
       -1   -1    0    0    0  501  0.00000000000E+00  0.00000000000E+00  0.16617763331E+04  0.16617763331E+04  0.50400001928E-02 0. -1.
        1   -1    0    0  501    0  0.00000000000E+00  0.00000000000E+00 -0.41200429035E+03  0.41200429038E+03  0.50400001928E-02 0.  1.
    10030    2    1    2    0    0  0.00000000000E+00  0.00000000000E+00  0.12497720428E+04  0.20737806235E+04  0.16548824477E+04 0.  0.
        3    1    3    3  502    0 -0.35313400775E+03 -0.36684282089E+03  0.14421927169E+04  0.15294434039E+04  0.10100000352E+00 0. -1.
       -3    1    3    3    0  502  0.35313400775E+03  0.36684282089E+03 -0.19242067415E+03  0.54433721966E+03  0.10100000352E+00 0.  1.
</event>
<event>
 5   0  0.1423692E-05  0.2847060E+04  0.7818609E-02  0.8288805E-01
        2   -1    0    0  501    0  0.00000000000E+00  0.00000000000E+00  0.13579112685E+04  0.13579112685E+04  0.25500000920E-02 0. -1.
       -2   -1    0    0    0  501  0.00000000000E+00  0.00000000000E+00 -0.14923197792E+04  0.14923197792E+04  0.25500000920E-02 0.  1.
    10030    2    1    2    0    0  0.00000000000E+00  0.00000000000E+00 -0.13440851075E+03  0.28502310477E+04  0.28470601289E+04 0.  0.
        3    1    3    3  502    0 -0.12339855670E+04 -0.61518088935E+03 -0.42153337170E+03  0.14418246425E+04  0.10100000352E+00 0.  1.
       -3    1    3    3    0  502  0.12339855670E+04  0.61518088935E+03  0.28712486095E+03  0.14084064052E+04  0.10100000352E+00 0. -1.
</event>
<event>
 5   0  0.5329891E-06  0.2438028E+04  0.7818609E-02  0.8425402E-01
        1   -1    0    0  501    0  0.00000000000E+00  0.00000000000E+00  0.25805322478E+04  0.25805322478E+04  0.50400001928E-02 0. -1.
       -1   -1    0    0    0  501  0.00000000000E+00  0.00000000000E+00 -0.57584842934E+03  0.57584842937E+03  0.50400001928E-02 0.  1.
    10030    2    1    2    0    0  0.00000000000E+00  0.00000000000E+00  0.20046838184E+04  0.31563806772E+04  0.24380282540E+04 0.  0.
        4    1    3    3  502    0  0.65232601951E+03  0.77371814812E+03  0.12253113358E+03  0.10194039926E+04  0.12699999809E+01 0.  1.
       -4    1    3    3    0  502 -0.65232601951E+03 -0.77371814812E+03  0.18821526849E+04  0.21369766846E+04  0.12699999809E+01 0. -1.
</event>
<event>
 5   0  0.5522695E-06  0.3044737E+04  0.7818609E-02  0.8231070E-01
       -1   -1    0    0    0  501  0.00000000000E+00  0.00000000000E+00  0.18823865356E+04  0.18823865356E+04  0.50400001928E-02 0.  1.
        1   -1    0    0  501    0  0.00000000000E+00  0.00000000000E+00 -0.12312061438E+04  0.12312061438E+04  0.50400001928E-02 0. -1.
    10030    2    1    2    0    0  0.00000000000E+00  0.00000000000E+00  0.65118039184E+03  0.31135926795E+04  0.30447370118E+04 0.  0.
        3    1    3    3  502    0 -0.11766548719E+04 -0.29424121071E+03  0.12664575195E+04  0.17535704253E+04  0.10100000352E+00 0.  1.
       -3    1    3    3    0  502  0.11766548719E+04  0.29424121071E+03 -0.61527712769E+03  0.13600222541E+04  0.10100000352E+00 0. -1.
</event>
<event>
 5   0  0.1345931E-05  0.2868782E+04  0.7818609E-02  0.8282227E-01
       -2   -1    0    0    0  501  0.00000000000E+00  0.00000000000E+00  0.93913931683E+03  0.93913931683E+03  0.25500000920E-02 0. -1.
        2   -1    0    0  501    0  0.00000000000E+00  0.00000000000E+00 -0.21908118185E+04  0.21908118185E+04  0.25500000920E-02 0.  1.
    10030    2    1    2    0    0  0.00000000000E+00  0.00000000000E+00 -0.12516725016E+04  0.31299511353E+04  0.28687819816E+04 0.  0.
        2    1    3    3  502    0 -0.14184456057E+04  0.12495058091E+03 -0.81442162241E+03  0.16403911616E+04  0.25500000920E-02 0.  1.
       -2    1    3    3    0  502  0.14184456057E+04 -0.12495058091E+03 -0.43725087924E+03  0.14895599737E+04  0.25500000920E-02 0. -1.
</event>
<event>
 5   0  0.5329891E-06  0.1910187E+04  0.7818609E-02  0.8649802E-01
        1   -1    0    0  501    0  0.00000000000E+00  0.00000000000E+00  0.14788993678E+04  0.14788993678E+04  0.50400001928E-02 0.  1.
       -1   -1    0    0    0  501  0.00000000000E+00  0.00000000000E+00 -0.61681225068E+03  0.61681225070E+03  0.50400001928E-02 0. -1.
    10030    2    1    2    0    0  0.00000000000E+00  0.00000000000E+00  0.86208711714E+03  0.20957116185E+04  0.19101866376E+04 0.  0.
        4    1    3    3  502    0 -0.86374976930E+03 -0.27004574581E+03  0.96082299187E+02  0.91006691508E+03  0.12699999809E+01 0. -1.
       -4    1    3    3    0  502  0.86374976930E+03  0.27004574581E+03  0.76600481795E+03  0.11856447035E+04  0.12699999809E+01 0.  1.
</event>
<event>
 5   0  0.1480547E-05  0.3057402E+04  0.7818609E-02  0.8227527E-01
       -2   -1    0    0    0  501  0.00000000000E+00  0.00000000000E+00  0.14769381303E+04  0.14769381303E+04  0.25500000920E-02 0. -1.
        2   -1    0    0  501    0  0.00000000000E+00  0.00000000000E+00 -0.15822778728E+04  0.15822778728E+04  0.25500000920E-02 0.  1.
    10030    2    1    2    0    0  0.00000000000E+00  0.00000000000E+00 -0.10533974251E+03  0.30592160032E+04  0.30574018533E+04 0.  0.
        1    1    3    3  502    0 -0.78733736488E+03 -0.99499678090E+03 -0.90582332660E+03  0.15589851248E+04  0.50400001928E-02 0.  1.
       -1    1    3    3    0  502  0.78733736488E+03  0.99499678090E+03  0.80048358409E+03  0.15002308784E+04  0.50400001928E-02 0. -1.
</event>
<event>
 5   0  0.5392262E-06  0.2894565E+04  0.7818609E-02  0.8274496E-01
       -1   -1    0    0    0  501  0.00000000000E+00  0.00000000000E+00  0.82171846427E+03  0.82171846428E+03  0.50400001928E-02 0. -1.
        1   -1    0    0  501    0  0.00000000000E+00  0.00000000000E+00 -0.25490803230E+04  0.25490803230E+04  0.50400001928E-02 0.  1.
    10030    2    1    2    0    0  0.00000000000E+00  0.00000000000E+00 -0.17273618587E+04  0.33707987873E+04  0.28945648159E+04 0.  0.
        2    1    3    3  502    0  0.17160861935E+03 -0.14360103104E+04 -0.79935476959E+03  0.16524355290E+04  0.25500000920E-02 0. -1.
       -2    1    3    3    0  502 -0.17160861935E+03  0.14360103104E+04 -0.92800708914E+03  0.17183632583E+04  0.25500000920E-02 0.  1.
</event>
<event>
 5   0  0.5329891E-06  0.2907756E+04  0.7818609E-02  0.8270573E-01
       -1   -1    0    0    0  501  0.00000000000E+00  0.00000000000E+00  0.12550464596E+04  0.12550464596E+04  0.50400001928E-02 0.  1.
        1   -1    0    0  501    0  0.00000000000E+00  0.00000000000E+00 -0.16842099227E+04  0.16842099227E+04  0.50400001928E-02 0. -1.
    10030    2    1    2    0    0  0.00000000000E+00  0.00000000000E+00 -0.42916346311E+03  0.29392563823E+04  0.29077563176E+04 0.  0.
        4    1    3    3  502    0 -0.22455712126E+03 -0.96565979675E+02 -0.16632890499E+04  0.16811552473E+04  0.12699999809E+01 0. -1.
       -4    1    3    3    0  502  0.22455712126E+03  0.96565979675E+02  0.12341255868E+04  0.12581011350E+04  0.12699999809E+01 0.  1.
</event>
<event>
 5   0  0.1423692E-05  0.1837918E+04  0.7818609E-02  0.8686391E-01
       -2   -1    0    0    0  501  0.00000000000E+00  0.00000000000E+00  0.61547230773E+03  0.61547230774E+03  0.25500000920E-02 0.  1.
        2   -1    0    0  501    0  0.00000000000E+00  0.00000000000E+00 -0.13720934322E+04  0.13720934322E+04  0.25500000920E-02 0. -1.
    10030    2    1    2    0    0  0.00000000000E+00  0.00000000000E+00 -0.75662112446E+03  0.19875657399E+04  0.18379178558E+04 0.  0.
        3    1    3    3  502    0 -0.24280016269E+03  0.78196357187E+03  0.72872794674E+02  0.82202761580E+03  0.10100000352E+00 0.  1.
       -3    1    3    3    0  502  0.24280016269E+03 -0.78196357187E+03 -0.82949391914E+03  0.11655381241E+04  0.10100000352E+00 0. -1.
</event>
<event>
 5   0  0.5522695E-06  0.2988228E+04  0.7818609E-02  0.8247100E-01
        1   -1    0    0  501    0  0.00000000000E+00  0.00000000000E+00  0.18604335092E+04  0.18604335092E+04  0.50400001928E-02 0. -1.
       -1   -1    0    0    0  501  0.00000000000E+00  0.00000000000E+00 -0.11999231291E+04  0.11999231291E+04  0.50400001928E-02 0.  1.
    10030    2    1    2    0    0  0.00000000000E+00  0.00000000000E+00  0.66051038008E+03  0.30603566384E+04  0.29882283701E+04 0.  0.
        3    1    3    3  502    0 -0.88878153070E+03  0.84710917420E+02  0.15571995061E+04  0.17949871478E+04  0.10100000352E+00 0. -1.
       -3    1    3    3    0  502  0.88878153070E+03 -0.84710917420E+02 -0.89668912598E+03  0.12653694906E+04  0.10100000352E+00 0.  1.
</event>
<event>
 5   0  0.1345931E-05  0.2789636E+04  0.7818609E-02  0.8306493E-01
        2   -1    0    0  501    0  0.00000000000E+00  0.00000000000E+00  0.15193883476E+04  0.15193883476E+04  0.25500000920E-02 0. -1.
       -2   -1    0    0    0  501  0.00000000000E+00  0.00000000000E+00 -0.12804609595E+04  0.12804609595E+04  0.25500000920E-02 0.  1.
    10030    2    1    2    0    0  0.00000000000E+00  0.00000000000E+00  0.23892738805E+03  0.27998493071E+04  0.27896361493E+04 0.  0.
        2    1    3    3  502    0  0.73250825364E+03 -0.75273702086E+03  0.10406125167E+04  0.14785316277E+04  0.25500000920E-02 0. -1.
       -2    1    3    3    0  502 -0.73250825364E+03  0.75273702086E+03 -0.80168512867E+03  0.13213176793E+04  0.25500000920E-02 0.  1.
</event>
<event>
 5   0  0.1423692E-05  0.2231252E+04  0.7818609E-02  0.8505532E-01
        2   -1    0    0  501    0  0.00000000000E+00  0.00000000000E+00  0.22554222705E+04  0.22554222705E+04  0.25500000920E-02 0.  1.
       -2   -1    0    0    0  501  0.00000000000E+00  0.00000000000E+00 -0.55183510678E+03  0.55183510679E+03  0.25500000920E-02 0. -1.
    10030    2    1    2    0    0  0.00000000000E+00  0.00000000000E+00  0.17035871637E+04  0.28072573773E+04  0.22312518365E+04 0.  0.
        3    1    3    3  502    0  0.73583806478E+03  0.47147266847E+03 -0.20676741968E+02  0.87416913270E+03  0.10100000352E+00 0. -1.
       -3    1    3    3    0  502 -0.73583806478E+03 -0.47147266847E+03  0.17242639056E+04  0.19330882446E+04  0.10100000352E+00 0.  1.
</event>
<event>
 5   0  0.1345931E-05  0.2965410E+04  0.7818609E-02  0.8253678E-01
       -2   -1    0    0    0  501  0.00000000000E+00  0.00000000000E+00  0.15051521614E+04  0.15051521614E+04  0.25500000920E-02 0. -1.
        2   -1    0    0  501    0  0.00000000000E+00  0.00000000000E+00 -0.14605928589E+04  0.14605928589E+04  0.25500000920E-02 0.  1.
    10030    2    1    2    0    0  0.00000000000E+00  0.00000000000E+00  0.44559302514E+02  0.29657450203E+04  0.29654102572E+04 0.  0.
        2    1    3    3  502    0  0.49147628793E+03  0.72358725097E+03  0.12196144711E+04  0.15008620554E+04  0.25500000920E-02 0. -1.
       -2    1    3    3    0  502 -0.49147628793E+03 -0.72358725097E+03 -0.11750551686E+04  0.14648829648E+04  0.25500000920E-02 0.  1.
</event>
<event>
 5   0  0.1345931E-05  0.2765032E+04  0.7818609E-02  0.8314207E-01
       -2   -1    0    0    0  501  0.00000000000E+00  0.00000000000E+00  0.17446581286E+04  0.17446581286E+04  0.25500000920E-02 0. -1.
        2   -1    0    0  501    0  0.00000000000E+00  0.00000000000E+00 -0.10955445495E+04  0.10955445495E+04  0.25500000920E-02 0.  1.
    10030    2    1    2    0    0  0.00000000000E+00  0.00000000000E+00  0.64911357913E+03  0.28402026781E+04  0.27650321542E+04 0.  0.
        2    1    3    3  502    0  0.49811376510E+03  0.12838949777E+04  0.44971791957E+03  0.14487062656E+04  0.25500000920E-02 0. -1.
       -2    1    3    3    0  502 -0.49811376510E+03 -0.12838949777E+04  0.19939565956E+03  0.13914964125E+04  0.25500000920E-02 0.  1.
</event>
<event>
 5   0  0.7032692E-06  0.2858080E+04  0.7818609E-02  0.8285460E-01
       -1   -1    0    0    0  501  0.00000000000E+00  0.00000000000E+00  0.13706674262E+04  0.13706674262E+04  0.50400001928E-02 0. -1.
        1   -1    0    0  501    0  0.00000000000E+00  0.00000000000E+00 -0.14898986559E+04  0.14898986559E+04  0.50400001928E-02 0.  1.
    10030    2    1    2    0    0  0.00000000000E+00  0.00000000000E+00 -0.11923122965E+03  0.28605660821E+04  0.28580801640E+04 0.  0.
        5    1    3    3  502    0 -0.67337549025E+03 -0.12047774074E+04  0.31112567599E+03  0.14148301766E+04  0.46999998093E+01 0. -1.
       -5    1    3    3    0  502  0.67337549025E+03  0.12047774074E+04 -0.43035690564E+03  0.14457359055E+04  0.46999998093E+01 0.  1.
</event>
<event>
 5   0  0.5329891E-06  0.2930773E+04  0.7818609E-02  0.8263780E-01
       -1   -1    0    0    0  501  0.00000000000E+00  0.00000000000E+00  0.10117510157E+04  0.10117510157E+04  0.50400001928E-02 0.  1.
        1   -1    0    0  501    0  0.00000000000E+00  0.00000000000E+00 -0.21224173189E+04  0.21224173189E+04  0.50400001928E-02 0. -1.
    10030    2    1    2    0    0  0.00000000000E+00  0.00000000000E+00 -0.11106663032E+04  0.31341683346E+04  0.29307731936E+04 0.  0.
        4    1    3    3  502    0 -0.34121841195E+03 -0.35650581265E+02  0.96819769287E+03  0.10271851605E+04  0.12699999809E+01 0.  1.
       -4    1    3    3    0  502  0.34121841195E+03  0.35650581265E+02 -0.20788639961E+04  0.21069831741E+04  0.12699999809E+01 0. -1.
</event>
<event>
 5   0  0.1345931E-05  0.2984265E+04  0.7818609E-02  0.8248238E-01
       -2   -1    0    0    0  501  0.00000000000E+00  0.00000000000E+00  0.12515812931E+04  0.12515812931E+04  0.25500000920E-02 0. -1.
        2   -1    0    0  501    0  0.00000000000E+00  0.00000000000E+00 -0.17789174278E+04  0.17789174278E+04  0.25500000920E-02 0.  1.
    10030    2    1    2    0    0  0.00000000000E+00  0.00000000000E+00 -0.52733613467E+03  0.30304987209E+04  0.29842652526E+04 0.  0.
        2    1    3    3  502    0  0.13580733775E+04 -0.19064305750E+03  0.33344812070E+03  0.14113453593E+04  0.25500000920E-02 0. -1.
       -2    1    3    3    0  502 -0.13580733775E+04  0.19064305750E+03 -0.86078425536E+03  0.16191533616E+04  0.25500000920E-02 0.  1.
</event>
<event>
 5   0  0.1345931E-05  0.3022457E+04  0.7818609E-02  0.8237347E-01
       -2   -1    0    0    0  501  0.00000000000E+00  0.00000000000E+00  0.13002563210E+04  0.13002563210E+04  0.25500000920E-02 0. -1.
        2   -1    0    0  501    0  0.00000000000E+00  0.00000000000E+00 -0.17564320355E+04  0.17564320355E+04  0.25500000920E-02 0.  1.
    10030    2    1    2    0    0  0.00000000000E+00  0.00000000000E+00 -0.45617571445E+03  0.30566883565E+04  0.30224571835E+04 0.  0.
        2    1    3    3  502    0  0.13225004953E+04 -0.33675227484E+03 -0.88459492440E+03  0.16263203359E+04  0.25500000920E-02 0. -1.
       -2    1    3    3    0  502 -0.13225004953E+04  0.33675227484E+03  0.42841920994E+03  0.14303680205E+04  0.25500000920E-02 0.  1.
</event>
<event>
 5   0  0.1423692E-05  0.2947958E+04  0.7818609E-02  0.8258750E-01
       -2   -1    0    0    0  501  0.00000000000E+00  0.00000000000E+00  0.11031973938E+04  0.11031973938E+04  0.25500000920E-02 0.  1.
        2   -1    0    0  501    0  0.00000000000E+00  0.00000000000E+00 -0.19693793791E+04  0.19693793791E+04  0.25500000920E-02 0. -1.
    10030    2    1    2    0    0  0.00000000000E+00  0.00000000000E+00 -0.86618198522E+03  0.30725767729E+04  0.29479580719E+04 0.  0.
        3    1    3    3  502    0  0.12509569581E+04  0.70189116062E+03 -0.78664998360E+03  0.16359592658E+04  0.10100000352E+00 0. -1.
       -3    1    3    3    0  502 -0.12509569581E+04 -0.70189116062E+03 -0.79532001618E+02  0.14366175071E+04  0.10100000352E+00 0.  1.
</event>
<event>
 5   0  0.5392262E-06  0.2998699E+04  0.7818609E-02  0.8244102E-01
       -1   -1    0    0    0  501  0.00000000000E+00  0.00000000000E+00  0.10501819056E+04  0.10501819056E+04  0.50400001928E-02 0. -1.
        1   -1    0    0  501    0  0.00000000000E+00  0.00000000000E+00 -0.21406288033E+04  0.21406288033E+04  0.50400001928E-02 0.  1.
    10030    2    1    2    0    0  0.00000000000E+00  0.00000000000E+00 -0.10904468977E+04  0.31908107089E+04  0.29986994754E+04 0.  0.
        2    1    3    3  502    0 -0.73443441722E+03 -0.10904475127E+04 -0.13122215468E+04  0.18575239108E+04  0.25500000920E-02 0.  1.
       -2    1    3    3    0  502  0.73443441722E+03  0.10904475127E+04  0.22177464913E+03  0.13332867982E+04  0.25500000920E-02 0. -1.
</event>
<event>
 5   0  0.5730920E-06  0.3007298E+04  0.7818609E-02  0.8241650E-01
       -1   -1    0    0    0  501  0.00000000000E+00  0.00000000000E+00  0.12867188319E+04  0.12867188319E+04  0.50400001928E-02 0.  1.
        1   -1    0    0  501    0  0.00000000000E+00  0.00000000000E+00 -0.17571522153E+04  0.17571522153E+04  0.50400001928E-02 0. -1.
    10030    2    1    2    0    0  0.00000000000E+00  0.00000000000E+00 -0.47043338335E+03  0.30438710472E+04  0.30072983530E+04 0.  0.
        1    1    3    3  502    0  0.14592260368E+04 -0.34204079191E+03 -0.11279823438E+03  0.15030156258E+04  0.50400001928E-02 0.  1.
       -1    1    3    3    0  502 -0.14592260368E+04  0.34204079191E+03 -0.35763514896E+03  0.15408554214E+04  0.50400001928E-02 0. -1.
</event>
<event>
 5   0  0.1345931E-05  0.1496416E+04  0.7818609E-02  0.8886839E-01
        2   -1    0    0  501    0  0.00000000000E+00  0.00000000000E+00  0.11742754268E+04  0.11742754268E+04  0.25500000920E-02 0.  1.
       -2   -1    0    0    0  501  0.00000000000E+00  0.00000000000E+00 -0.47673276025E+03  0.47673276026E+03  0.25500000920E-02 0. -1.
    10030    2    1    2    0    0  0.00000000000E+00  0.00000000000E+00  0.69754266653E+03  0.16510081870E+04  0.14964164735E+04 0.  0.
        2    1    3    3  502    0 -0.84103333822E+02 -0.63399828069E+03  0.77720212512E+03  0.10065139512E+04  0.25500000920E-02 0. -1.
       -2    1    3    3    0  502  0.84103333822E+02  0.63399828069E+03 -0.79659458586E+02  0.64449423584E+03  0.25500000920E-02 0.  1.
</event>
<event>
 5   0  0.1423692E-05  0.2528105E+04  0.7818609E-02  0.8393041E-01
       -2   -1    0    0    0  501  0.00000000000E+00  0.00000000000E+00  0.90660193593E+03  0.90660193593E+03  0.25500000920E-02 0. -1.
        2   -1    0    0  501    0  0.00000000000E+00  0.00000000000E+00 -0.17624374355E+04  0.17624374355E+04  0.25500000920E-02 0.  1.
    10030    2    1    2    0    0  0.00000000000E+00  0.00000000000E+00 -0.85583549954E+03  0.26690393714E+04  0.25281053704E+04 0.  0.
        3    1    3    3  502    0 -0.51450945958E+02 -0.31531807261E+03  0.86327255834E+03  0.92049563114E+03  0.10100000352E+00 0. -1.
       -3    1    3    3    0  502  0.51450945958E+02  0.31531807261E+03 -0.17191080579E+04  0.17485437403E+04  0.10100000352E+00 0.  1.
</event>
<event>
 5   0  0.5392262E-06  0.2909595E+04  0.7818609E-02  0.8270028E-01
       -1   -1    0    0    0  501  0.00000000000E+00  0.00000000000E+00  0.16289572799E+04  0.16289572800E+04  0.50400001928E-02 0.  1.
        1   -1    0    0  501    0  0.00000000000E+00  0.00000000000E+00 -0.12992581992E+04  0.12992581992E+04  0.50400001928E-02 0. -1.
    10030    2    1    2    0    0  0.00000000000E+00  0.00000000000E+00  0.32969908076E+03  0.29282154791E+04  0.29095952310E+04 0.  0.
        2    1    3    3  502    0  0.93982860349E+02  0.49160578205E+03  0.15395807414E+04  0.16188940306E+04  0.25500000920E-02 0.  1.
       -2    1    3    3    0  502 -0.93982860349E+02 -0.49160578205E+03 -0.12098816606E+04  0.13093214486E+04  0.25500000920E-02 0. -1.
</event>
<event>
 5   0  0.7032692E-06  0.3012212E+04  0.7818609E-02  0.8240252E-01
        1   -1    0    0  501    0  0.00000000000E+00  0.00000000000E+00  0.15060284657E+04  0.15060284657E+04  0.50400001928E-02 0.  1.
       -1   -1    0    0    0  501  0.00000000000E+00  0.00000000000E+00 -0.15061839523E+04  0.15061839523E+04  0.50400001928E-02 0. -1.
    10030    2    1    2    0    0  0.00000000000E+00  0.00000000000E+00 -0.15548659104E+00  0.30122124181E+04  0.30122124140E+04 0.  0.
        5    1    3    3  502    0 -0.44169834495E+03 -0.78406167804E+03  0.12075992325E+04  0.15060438703E+04  0.46999998093E+01 0.  1.
       -5    1    3    3    0  502  0.44169834495E+03  0.78406167804E+03 -0.12077547191E+04  0.15061685478E+04  0.46999998093E+01 0. -1.
</event>
<event>
 5   0  0.1388724E-05  0.3050541E+04  0.7818609E-02  0.8229444E-01
        2   -1    0    0  501    0  0.00000000000E+00  0.00000000000E+00  0.20228602024E+04  0.20228602024E+04  0.25500000920E-02 0. -1.
       -2   -1    0    0    0  501  0.00000000000E+00  0.00000000000E+00 -0.11500797802E+04  0.11500797802E+04  0.25500000920E-02 0.  1.
    10030    2    1    2    0    0  0.00000000000E+00  0.00000000000E+00  0.87278042218E+03  0.31729399827E+04  0.30505413402E+04 0.  0.
        4    1    3    3  502    0  0.10777153187E+04 -0.10694721892E+04  0.28491760129E+03  0.15448044291E+04  0.12699999809E+01 0.  1.
       -4    1    3    3    0  502 -0.10777153187E+04  0.10694721892E+04  0.58786282089E+03  0.16281355536E+04  0.12699999809E+01 0. -1.
</event>
<event>
 5   0  0.5522695E-06  0.3019784E+04  0.7818609E-02  0.8238104E-01
       -1   -1    0    0    0  501  0.00000000000E+00  0.00000000000E+00  0.18405993500E+04  0.18405993500E+04  0.50400001928E-02 0. -1.
        1   -1    0    0  501    0  0.00000000000E+00  0.00000000000E+00 -0.12386043280E+04  0.12386043280E+04  0.50400001928E-02 0.  1.
    10030    2    1    2    0    0  0.00000000000E+00  0.00000000000E+00  0.60199502196E+03  0.30792036780E+04  0.30197843109E+04 0.  0.
        3    1    3    3  502    0 -0.12827974565E+04 -0.78232607333E+03  0.14916867402E+03  0.15099187736E+04  0.10100000352E+00 0.  1.
       -3    1    3    3    0  502  0.12827974565E+04  0.78232607333E+03  0.45282634795E+03  0.15692849044E+04  0.10100000352E+00 0. -1.
</event>
<event>
 5   0  0.5392262E-06  0.3015528E+04  0.7818609E-02  0.8239311E-01
       -1   -1    0    0    0  501  0.00000000000E+00  0.00000000000E+00  0.15902323505E+04  0.15902323505E+04  0.50400001928E-02 0.  1.
        1   -1    0    0  501    0  0.00000000000E+00  0.00000000000E+00 -0.14295726309E+04  0.14295726309E+04  0.50400001928E-02 0. -1.
    10030    2    1    2    0    0  0.00000000000E+00  0.00000000000E+00  0.16065971964E+03  0.30198049814E+04  0.30155282423E+04 0.  0.
        2    1    3    3  502    0 -0.58336094339E+03  0.12398368665E+04  0.71038605356E+03  0.15434227518E+04  0.25500000920E-02 0.  1.
       -2    1    3    3    0  502  0.58336094339E+03 -0.12398368665E+04 -0.54972633392E+03  0.14763822296E+04  0.25500000920E-02 0. -1.
</event>
<event>
 5   0  0.1345931E-05  0.2962296E+04  0.7818609E-02  0.8254580E-01
        2   -1    0    0  501    0  0.00000000000E+00  0.00000000000E+00  0.15804506763E+04  0.15804506763E+04  0.25500000920E-02 0.  1.
       -2   -1    0    0    0  501  0.00000000000E+00  0.00000000000E+00 -0.13880842984E+04  0.13880842984E+04  0.25500000920E-02 0. -1.
    10030    2    1    2    0    0  0.00000000000E+00  0.00000000000E+00  0.19236637790E+03  0.29685349747E+04  0.29622955749E+04 0.  0.
        2    1    3    3  502    0 -0.77804799123E+03  0.10276842925E+04 -0.63494594229E+03  0.14368890115E+04  0.25500000920E-02 0. -1.
       -2    1    3    3    0  502  0.77804799123E+03 -0.10276842925E+04  0.82731232019E+03  0.15316459633E+04  0.25500000920E-02 0.  1.
</event>
<event>
 5   0  0.1423692E-05  0.3298828E+04  0.7818609E-02  0.8163194E-01
       -2   -1    0    0    0  501  0.00000000000E+00  0.00000000000E+00  0.16756414838E+04  0.16756414838E+04  0.25500000920E-02 0.  1.
        2   -1    0    0  501    0  0.00000000000E+00  0.00000000000E+00 -0.16235971273E+04  0.16235971273E+04  0.25500000920E-02 0. -1.
    10030    2    1    2    0    0  0.00000000000E+00  0.00000000000E+00  0.52044356525E+02  0.32992386111E+04  0.32988280946E+04 0.  0.
        3    1    3    3  502    0  0.10891144034E+04 -0.60115986975E+03 -0.10571653767E+04  0.16325323937E+04  0.10100000352E+00 0. -1.
       -3    1    3    3    0  502 -0.10891144034E+04  0.60115986975E+03  0.11092097332E+04  0.16667062174E+04  0.10100000352E+00 0.  1.
</event>
<event>
 5   0  0.5329891E-06  0.2940501E+04  0.7818609E-02  0.8260928E-01
       -1   -1    0    0    0  501  0.00000000000E+00  0.00000000000E+00  0.12227440045E+04  0.12227440045E+04  0.50400001928E-02 0.  1.
        1   -1    0    0  501    0  0.00000000000E+00  0.00000000000E+00 -0.17678571848E+04  0.17678571848E+04  0.50400001928E-02 0. -1.
    10030    2    1    2    0    0  0.00000000000E+00  0.00000000000E+00 -0.54511318030E+03  0.29906011894E+04  0.29405011639E+04 0.  0.
        4    1    3    3  502    0  0.22418059114E+03  0.23034402216E+03  0.11865720357E+04  0.12293372665E+04  0.12699999809E+01 0.  1.
       -4    1    3    3    0  502 -0.22418059114E+03 -0.23034402216E+03 -0.17316852160E+04  0.17612639229E+04  0.12699999809E+01 0. -1.
</event>
<event>
 5   0  0.1423692E-05  0.2982114E+04  0.7818609E-02  0.8248857E-01
        2   -1    0    0  501    0  0.00000000000E+00  0.00000000000E+00  0.20656537405E+04  0.20656537405E+04  0.25500000920E-02 0. -1.
       -2   -1    0    0    0  501  0.00000000000E+00  0.00000000000E+00 -0.10762941327E+04  0.10762941327E+04  0.25500000920E-02 0.  1.
    10030    2    1    2    0    0  0.00000000000E+00  0.00000000000E+00  0.98935960780E+03  0.31419478732E+04  0.29821140160E+04 0.  0.
        3    1    3    3  502    0  0.20757307389E+03  0.13386756008E+04  0.11510567103E+04  0.17776587146E+04  0.10100000352E+00 0. -1.
       -3    1    3    3    0  502 -0.20757307389E+03 -0.13386756008E+04 -0.16169710248E+03  0.13642891586E+04  0.10100000352E+00 0.  1.
</event>
<event>
 5   0  0.5522695E-06  0.3042395E+04  0.7818609E-02  0.8231727E-01
        1   -1    0    0  501    0  0.00000000000E+00  0.00000000000E+00  0.19052702826E+04  0.19052702826E+04  0.50400001928E-02 0. -1.
       -1   -1    0    0    0  501  0.00000000000E+00  0.00000000000E+00 -0.12145474674E+04  0.12145474674E+04  0.50400001928E-02 0.  1.
    10030    2    1    2    0    0  0.00000000000E+00  0.00000000000E+00  0.69072281520E+03  0.31198177500E+04  0.30423945809E+04 0.  0.
        3    1    3    3  502    0  0.14547651066E+04 -0.13881052692E+03  0.77852227618E+03  0.16558100200E+04  0.10100000352E+00 0. -1.
       -3    1    3    3    0  502 -0.14547651066E+04  0.13881052692E+03 -0.87799460976E+02  0.14640077299E+04  0.10100000352E+00 0.  1.
</event>
<event>
 5   0  0.1345931E-05  0.2975639E+04  0.7818609E-02  0.8250722E-01
        2   -1    0    0  501    0  0.00000000000E+00  0.00000000000E+00  0.12233648712E+04  0.12233648712E+04  0.25500000920E-02 0.  1.
       -2   -1    0    0    0  501  0.00000000000E+00  0.00000000000E+00 -0.18094407101E+04  0.18094407101E+04  0.25500000920E-02 0. -1.
    10030    2    1    2    0    0  0.00000000000E+00  0.00000000000E+00 -0.58607583898E+03  0.30328055813E+04  0.29756385541E+04 0.  0.
        2    1    3    3  502    0  0.75032090692E+03 -0.67137677377E+03  0.82339576831E+03  0.13006570751E+04  0.25500000920E-02 0.  1.
       -2    1    3    3    0  502 -0.75032090692E+03  0.67137677377E+03 -0.14094716073E+04  0.17321485062E+04  0.25500000920E-02 0. -1.
</event>
<event>
 5   0  0.1423692E-05  0.3008717E+04  0.7818609E-02  0.8241246E-01
        2   -1    0    0  501    0  0.00000000000E+00  0.00000000000E+00  0.19030930689E+04  0.19030930689E+04  0.25500000920E-02 0.  1.
       -2   -1    0    0    0  501  0.00000000000E+00  0.00000000000E+00 -0.11891661573E+04  0.11891661573E+04  0.25500000920E-02 0. -1.
    10030    2    1    2    0    0  0.00000000000E+00  0.00000000000E+00  0.71392691158E+03  0.30922592262E+04  0.30087165847E+04 0.  0.
        3    1    3    3  502    0 -0.99109940062E+03  0.37482538618E+03  0.14544730406E+04  0.17995176931E+04  0.10100000352E+00 0.  1.
       -3    1    3    3    0  502  0.99109940062E+03 -0.37482538618E+03 -0.74054612898E+03  0.12927415331E+04  0.10100000352E+00 0. -1.
</event>
<event>
 5   0  0.1480547E-05  0.3003282E+04  0.7818609E-02  0.8242794E-01
        2   -1    0    0  501    0  0.00000000000E+00  0.00000000000E+00  0.19400390893E+04  0.19400390893E+04  0.25500000920E-02 0. -1.
       -2   -1    0    0    0  501  0.00000000000E+00  0.00000000000E+00 -0.11623094029E+04  0.11623094029E+04  0.25500000920E-02 0.  1.
    10030    2    1    2    0    0  0.00000000000E+00  0.00000000000E+00  0.77772968638E+03  0.31023484922E+04  0.30032819884E+04 0.  0.
        1    1    3    3  502    0 -0.12629756446E+04 -0.81151851512E+03  0.35225723568E+03  0.15419970621E+04  0.50400001928E-02 0.  1.
       -1    1    3    3    0  502  0.12629756446E+04  0.81151851512E+03  0.42547245071E+03  0.15603514302E+04  0.50400001928E-02 0. -1.
</event>
<event>
 5   0  0.5730920E-06  0.3034488E+04  0.7818609E-02  0.8233951E-01
        1   -1    0    0  501    0  0.00000000000E+00  0.00000000000E+00  0.18648255101E+04  0.18648255101E+04  0.50400001928E-02 0. -1.
       -1   -1    0    0    0  501  0.00000000000E+00  0.00000000000E+00 -0.12344478997E+04  0.12344478997E+04  0.50400001928E-02 0.  1.
    10030    2    1    2    0    0  0.00000000000E+00  0.00000000000E+00  0.63037761045E+03  0.30992734098E+04  0.30344883814E+04 0.  0.
        1    1    3    3  502    0 -0.47471746127E+02 -0.84566865649E+03  0.16008812738E+04  0.18111404959E+04  0.50400001928E-02 0. -1.
       -1    1    3    3    0  502  0.47471746127E+02  0.84566865649E+03 -0.97050366332E+03  0.12881329139E+04  0.50400001928E-02 0.  1.
</event>
<event>
 5   0  0.1423692E-05  0.3015012E+04  0.7818609E-02  0.8239457E-01
        2   -1    0    0  501    0  0.00000000000E+00  0.00000000000E+00  0.13003107909E+04  0.13003107909E+04  0.25500000920E-02 0. -1.
       -2   -1    0    0    0  501  0.00000000000E+00  0.00000000000E+00 -0.17477165378E+04  0.17477165378E+04  0.25500000920E-02 0.  1.
    10030    2    1    2    0    0  0.00000000000E+00  0.00000000000E+00 -0.44740574687E+03  0.30480273287E+04  0.30150122212E+04 0.  0.
        3    1    3    3  502    0  0.10351315200E+04 -0.39257757294E+03  0.81071228476E+03  0.13721766772E+04  0.10100000352E+00 0. -1.
       -3    1    3    3    0  502 -0.10351315200E+04  0.39257757294E+03 -0.12581180316E+04  0.16758506515E+04  0.10100000352E+00 0.  1.
</event>
<event>
 5   0  0.5329891E-06  0.2924780E+04  0.7818609E-02  0.8265543E-01
       -1   -1    0    0    0  501  0.00000000000E+00  0.00000000000E+00  0.13334620099E+04  0.13334620099E+04  0.50400001928E-02 0. -1.
        1   -1    0    0  501    0  0.00000000000E+00  0.00000000000E+00 -0.16037838071E+04  0.16037838071E+04  0.50400001928E-02 0.  1.
    10030    2    1    2    0    0  0.00000000000E+00  0.00000000000E+00 -0.27032179712E+03  0.29372458170E+04  0.29247801824E+04 0.  0.
        4    1    3    3  502    0  0.43492597704E+03  0.13542612062E+04 -0.47631324256E+03  0.15000199793E+04  0.12699999809E+01 0.  1.
       -4    1    3    3    0  502 -0.43492597704E+03 -0.13542612062E+04  0.20599144544E+03  0.14372258378E+04  0.12699999809E+01 0. -1.
</event>
<event>
 5   0  0.1523029E-05  0.1720736E+04  0.7818609E-02  0.8749625E-01
       -2   -1    0    0    0  501  0.00000000000E+00  0.00000000000E+00  0.81520853793E+03  0.81520853793E+03  0.25500000920E-02 0.  1.
        2   -1    0    0  501    0  0.00000000000E+00  0.00000000000E+00 -0.90802904233E+03  0.90802904234E+03  0.25500000920E-02 0. -1.
    10030    2    1    2    0    0  0.00000000000E+00  0.00000000000E+00 -0.92820504408E+02  0.17232375803E+04  0.17207359216E+04 0.  0.
        5    1    3    3  502    0  0.84819697924E+03  0.74906459608E+02 -0.16972271012E+03  0.86826089490E+03  0.46999998093E+01 0. -1.
       -5    1    3    3    0  502 -0.84819697924E+03 -0.74906459608E+02  0.76902205710E+02  0.85497668537E+03  0.46999998093E+01 0.  1.
</event>
<event>
 5   0  0.5329891E-06  0.2843823E+04  0.7818609E-02  0.8289791E-01
        1   -1    0    0  501    0  0.00000000000E+00  0.00000000000E+00  0.14068598996E+04  0.14068598996E+04  0.50400001928E-02 0.  1.
       -1   -1    0    0    0  501  0.00000000000E+00  0.00000000000E+00 -0.14371244644E+04  0.14371244644E+04  0.50400001928E-02 0. -1.
    10030    2    1    2    0    0  0.00000000000E+00  0.00000000000E+00 -0.30264564808E+02  0.28439843640E+04  0.28438233276E+04 0.  0.
        4    1    3    3  502    0 -0.93180585502E+03 -0.10658140836E+04 -0.14784003995E+03  0.14234044058E+04  0.12699999809E+01 0.  1.
       -4    1    3    3    0  502  0.93180585502E+03  0.10658140836E+04  0.11757547514E+03  0.14205799581E+04  0.12699999809E+01 0. -1.
</event>
<event>
 5   0  0.5522695E-06  0.2920731E+04  0.7818609E-02  0.8266736E-01
       -1   -1    0    0    0  501  0.00000000000E+00  0.00000000000E+00  0.21397587584E+04  0.21397587584E+04  0.50400001928E-02 0. -1.
        1   -1    0    0  501    0  0.00000000000E+00  0.00000000000E+00 -0.99668618780E+03  0.99668618781E+03  0.50400001928E-02 0.  1.
    10030    2    1    2    0    0  0.00000000000E+00  0.00000000000E+00  0.11430725706E+04  0.31364449462E+04  0.29207314151E+04 0.  0.
        3    1    3    3  502    0  0.41488470494E+03 -0.19219688662E+03 -0.91783618265E+03  0.10254229518E+04  0.10100000352E+00 0.  1.
       -3    1    3    3    0  502 -0.41488470494E+03  0.19219688662E+03  0.20609087532E+04  0.21110219944E+04  0.10100000352E+00 0. -1.
</event>
<event>
 5   0  0.1480547E-05  0.3020437E+04  0.7818609E-02  0.8237919E-01
       -2   -1    0    0    0  501  0.00000000000E+00  0.00000000000E+00  0.16468037057E+04  0.16468037057E+04  0.25500000920E-02 0. -1.
        2   -1    0    0  501    0  0.00000000000E+00  0.00000000000E+00 -0.13849613633E+04  0.13849613633E+04  0.25500000920E-02 0.  1.
    10030    2    1    2    0    0  0.00000000000E+00  0.00000000000E+00  0.26184234239E+03  0.30317650690E+04  0.30204367269E+04 0.  0.
        1    1    3    3  502    0 -0.34092604547E+03  0.55087580527E+03  0.15002462054E+04  0.16341460761E+04  0.50400001928E-02 0. -1.
       -1    1    3    3    0  502  0.34092604547E+03 -0.55087580527E+03 -0.12384038630E+04  0.13976189929E+04  0.50400001928E-02 0.  1.
</event>
<event>
 5   0  0.1388724E-05  0.2994745E+04  0.7818609E-02  0.8245233E-01
        2   -1    0    0  501    0  0.00000000000E+00  0.00000000000E+00  0.84934359235E+03  0.84934359235E+03  0.25500000920E-02 0.  1.
       -2   -1    0    0    0  501  0.00000000000E+00  0.00000000000E+00 -0.26398322262E+04  0.26398322262E+04  0.25500000920E-02 0. -1.
    10030    2    1    2    0    0  0.00000000000E+00  0.00000000000E+00 -0.17904886339E+04  0.34891758186E+04  0.29947451218E+04 0.  0.
        4    1    3    3  502    0  0.65441455420E+03  0.13079457471E+04 -0.12694253657E+04  0.19366008515E+04  0.12699999809E+01 0. -1.
       -4    1    3    3    0  502 -0.65441455420E+03 -0.13079457471E+04 -0.52106326820E+03  0.15525749671E+04  0.12699999809E+01 0.  1.
</event>
<event>
 5   0  0.1423692E-05  0.1773678E+04  0.7818609E-02  0.8720424E-01
        2   -1    0    0  501    0  0.00000000000E+00  0.00000000000E+00  0.98990472333E+03  0.98990472333E+03  0.25500000920E-02 0. -1.
       -2   -1    0    0    0  501  0.00000000000E+00  0.00000000000E+00 -0.79450388751E+03  0.79450388751E+03  0.25500000920E-02 0.  1.
    10030    2    1    2    0    0  0.00000000000E+00  0.00000000000E+00  0.19540083582E+03  0.17844086108E+04  0.17736777057E+04 0.  0.
        3    1    3    3  502    0  0.33510365170E+03  0.72231591303E+03  0.49050907063E+03  0.93521863442E+03  0.10100000352E+00 0. -1.
       -3    1    3    3    0  502 -0.33510365170E+03 -0.72231591303E+03 -0.29510823481E+03  0.84918997642E+03  0.10100000352E+00 0.  1.
</event>
<event>
 5   0  0.5329891E-06  0.2947557E+04  0.7818609E-02  0.8258867E-01
        1   -1    0    0  501    0  0.00000000000E+00  0.00000000000E+00  0.26458220963E+04  0.26458220963E+04  0.50400001928E-02 0.  1.
       -1   -1    0    0    0  501  0.00000000000E+00  0.00000000000E+00 -0.82092564569E+03  0.82092564570E+03  0.50400001928E-02 0. -1.
    10030    2    1    2    0    0  0.00000000000E+00  0.00000000000E+00  0.18248964506E+04  0.34667477420E+04  0.29475570989E+04 0.  0.
        4    1    3    3  502    0  0.90497176860E+03 -0.11087482410E+04  0.49874509297E+03  0.15156004897E+04  0.12699999809E+01 0. -1.
       -4    1    3    3    0  502 -0.90497176860E+03  0.11087482410E+04  0.13261513577E+04  0.19511472523E+04  0.12699999809E+01 0.  1.
</event>
<event>
 5   0  0.5392262E-06  0.3029732E+04  0.7818609E-02  0.8235291E-01
        1   -1    0    0  501    0  0.00000000000E+00  0.00000000000E+00  0.11062939083E+04  0.11062939083E+04  0.50400001928E-02 0.  1.
       -1   -1    0    0    0  501  0.00000000000E+00  0.00000000000E+00 -0.20743302218E+04  0.20743302218E+04  0.50400001928E-02 0. -1.
    10030    2    1    2    0    0  0.00000000000E+00  0.00000000000E+00 -0.96803631354E+03  0.31806241301E+04  0.30297319275E+04 0.  0.
        2    1    3    3  502    0 -0.15126958733E+04  0.29532744835E+01 -0.56905460651E+03  0.16161932657E+04  0.25500000920E-02 0.  1.
       -2    1    3    3    0  502  0.15126958733E+04 -0.29532744835E+01 -0.39898170702E+03  0.15644308644E+04  0.25500000920E-02 0. -1.
</event>
<event>
 5   0  0.1523029E-05  0.2954165E+04  0.7818609E-02  0.8256942E-01
        2   -1    0    0  501    0  0.00000000000E+00  0.00000000000E+00  0.13720471931E+04  0.13720471931E+04  0.25500000920E-02 0.  1.
       -2   -1    0    0    0  501  0.00000000000E+00  0.00000000000E+00 -0.15901585522E+04  0.15901585522E+04  0.25500000920E-02 0. -1.
    10030    2    1    2    0    0  0.00000000000E+00  0.00000000000E+00 -0.21811135907E+03  0.29622057452E+04  0.29541649094E+04 0.  0.
        5    1    3    3  502    0 -0.12993424369E+04  0.17559809794E+03  0.57296107992E+03  0.14308850231E+04  0.46999998093E+01 0.  1.
       -5    1    3    3    0  502  0.12993424369E+04 -0.17559809794E+03 -0.79107243899E+03  0.15313207221E+04  0.46999998093E+01 0. -1.
</event>
<event>
 5   0  0.5730920E-06  0.2974428E+04  0.7818609E-02  0.8251071E-01
        1   -1    0    0  501    0  0.00000000000E+00  0.00000000000E+00  0.15194041787E+04  0.15194041787E+04  0.50400001928E-02 0.  1.
       -1   -1    0    0    0  501  0.00000000000E+00  0.00000000000E+00 -0.14557056739E+04  0.14557056739E+04  0.50400001928E-02 0. -1.
    10030    2    1    2    0    0  0.00000000000E+00  0.00000000000E+00  0.63698504867E+02  0.29751098526E+04  0.29744278669E+04 0.  0.
        1    1    3    3  502    0 -0.19512271584E+03  0.13359277454E+04  0.65571453029E+03  0.15009121761E+04  0.50400001928E-02 0.  1.
       -1    1    3    3    0  502  0.19512271584E+03 -0.13359277454E+04 -0.59201602543E+03  0.14741976765E+04  0.50400001928E-02 0. -1.
</event>
<event>
 5   0  0.1480547E-05  0.3046671E+04  0.7818609E-02  0.8230528E-01
       -2   -1    0    0    0  501  0.00000000000E+00  0.00000000000E+00  0.10614070959E+04  0.10614070959E+04  0.25500000920E-02 0. -1.
        2   -1    0    0  501    0  0.00000000000E+00  0.00000000000E+00 -0.21862965061E+04  0.21862965061E+04  0.25500000920E-02 0.  1.
    10030    2    1    2    0    0  0.00000000000E+00  0.00000000000E+00 -0.11248894102E+04  0.32477036020E+04  0.30466707241E+04 0.  0.
        1    1    3    3  502    0  0.19026295157E+03 -0.22395745004E+03  0.10309056392E+04  0.10719717194E+04  0.50400001928E-02 0. -1.
       -1    1    3    3    0  502 -0.19026295157E+03  0.22395745004E+03 -0.21557950494E+04  0.21757318826E+04  0.50400001928E-02 0.  1.
</event>
<event>
 5   0  0.5392262E-06  0.2950569E+04  0.7818609E-02  0.8257989E-01
        1   -1    0    0  501    0  0.00000000000E+00  0.00000000000E+00  0.19318554385E+04  0.19318554385E+04  0.50400001928E-02 0. -1.
       -1   -1    0    0    0  501  0.00000000000E+00  0.00000000000E+00 -0.11266186952E+04  0.11266186952E+04  0.50400001928E-02 0.  1.
    10030    2    1    2    0    0  0.00000000000E+00  0.00000000000E+00  0.80523674332E+03  0.30584741337E+04  0.29505690661E+04 0.  0.
        2    1    3    3  502    0  0.86014910987E+02  0.82299625852E+03 -0.86341757876E+03  0.11959144291E+04  0.25500000920E-02 0.  1.
       -2    1    3    3    0  502 -0.86014910987E+02 -0.82299625852E+03  0.16686543221E+04  0.18625597046E+04  0.25500000920E-02 0. -1.
</event>
<event>
 5   0  0.5329891E-06  0.3473834E+04  0.7818609E-02  0.8120019E-01
       -1   -1    0    0    0  501  0.00000000000E+00  0.00000000000E+00  0.28481684918E+04  0.28481684918E+04  0.50400001928E-02 0.  1.
        1   -1    0    0  501    0  0.00000000000E+00  0.00000000000E+00 -0.10592353452E+04  0.10592353452E+04  0.50400001928E-02 0. -1.
    10030    2    1    2    0    0  0.00000000000E+00  0.00000000000E+00  0.17889331466E+04  0.39074038370E+04  0.34738340408E+04 0.  0.
        4    1    3    3  502    0 -0.13823218217E+04 -0.73899753790E+03  0.52774695177E+02  0.15683487370E+04  0.12699999809E+01 0. -1.
       -4    1    3    3    0  502  0.13823218217E+04  0.73899753790E+03  0.17361584514E+04  0.23390551000E+04  0.12699999809E+01 0.  1.
</event>
<event>
 5   0  0.4806125E-06  0.1765697E+04  0.7818609E-02  0.8724757E-01
        3   -1    0    0  501    0  0.00000000000E+00  0.00000000000E+00  0.58481784881E+03  0.58481785753E+03  0.10100000352E+00 0.  1.
       -3   -1    0    0    0  501  0.00000000000E+00  0.00000000000E+00 -0.13327593425E+04  0.13327593463E+04  0.10100000352E+00 0. -1.
    10030    2    1    2    0    0  0.00000000000E+00  0.00000000000E+00 -0.74794149365E+03  0.19175772038E+04  0.17656969884E+04 0.  0.
        5    1    3    3  502    0  0.99154476680E+02 -0.29177927363E+03  0.52449604838E+03  0.60834607711E+03  0.46999998093E+01 0.  1.
       -5    1    3    3    0  502 -0.99154476680E+02  0.29177927363E+03 -0.12724375420E+04  0.13092311267E+04  0.46999998093E+01 0. -1.
</event>
<event>
 5   0  0.1388724E-05  0.3068082E+04  0.7818609E-02  0.8224552E-01
        2   -1    0    0  501    0  0.00000000000E+00  0.00000000000E+00  0.13813746629E+04  0.13813746629E+04  0.25500000920E-02 0. -1.
       -2   -1    0    0    0  501  0.00000000000E+00  0.00000000000E+00 -0.17035800317E+04  0.17035800317E+04  0.25500000920E-02 0.  1.
    10030    2    1    2    0    0  0.00000000000E+00  0.00000000000E+00 -0.32220536886E+03  0.30849546946E+04  0.30680823275E+04 0.  0.
        4    1    3    3  502    0  0.66503470947E+03  0.10479829846E+04  0.74537666212E+03  0.14478009124E+04  0.12699999809E+01 0. -1.
       -4    1    3    3    0  502 -0.66503470947E+03 -0.10479829846E+04 -0.10675820310E+04  0.16371537822E+04  0.12699999809E+01 0.  1.
</event>
<event>
 5   0  0.7032692E-06  0.2531439E+04  0.7818609E-02  0.8391870E-01
        1   -1    0    0  501    0  0.00000000000E+00  0.00000000000E+00  0.11873775799E+04  0.11873775799E+04  0.50400001928E-02 0. -1.
       -1   -1    0    0    0  501  0.00000000000E+00  0.00000000000E+00 -0.13492307857E+04  0.13492307857E+04  0.50400001928E-02 0.  1.
    10030    2    1    2    0    0  0.00000000000E+00  0.00000000000E+00 -0.16185320583E+03  0.25366083657E+04  0.25314394207E+04 0.  0.
        5    1    3    3  502    0 -0.10794557183E+04 -0.41974574896E+03 -0.59247184232E+03  0.13009443168E+04  0.46999998093E+01 0. -1.
       -5    1    3    3    0  502  0.10794557183E+04  0.41974574896E+03  0.43061863649E+03  0.12356640488E+04  0.46999998093E+01 0.  1.
</event>
<event>
 5   0  0.1345931E-05  0.3174644E+04  0.7818609E-02  0.8195546E-01
        2   -1    0    0  501    0  0.00000000000E+00  0.00000000000E+00  0.11643598670E+04  0.11643598670E+04  0.25500000920E-02 0.  1.
       -2   -1    0    0    0  501  0.00000000000E+00  0.00000000000E+00 -0.21639281495E+04  0.21639281495E+04  0.25500000920E-02 0. -1.
    10030    2    1    2    0    0  0.00000000000E+00  0.00000000000E+00 -0.99956828245E+03  0.33282880165E+04  0.31746439752E+04 0.  0.
        2    1    3    3  502    0 -0.54703703359E+03 -0.14660084764E+04 -0.77945424926E+03  0.17481359489E+04  0.25500000920E-02 0. -1.
       -2    1    3    3    0  502  0.54703703359E+03  0.14660084764E+04 -0.22011403319E+03  0.15801520676E+04  0.25500000920E-02 0.  1.
</event>
<event>
 5   0  0.5392262E-06  0.3019803E+04  0.7818609E-02  0.8238099E-01
        1   -1    0    0  501    0  0.00000000000E+00  0.00000000000E+00  0.14543798994E+04  0.14543798994E+04  0.50400001928E-02 0.  1.
       -1   -1    0    0    0  501  0.00000000000E+00  0.00000000000E+00 -0.15675425348E+04  0.15675425348E+04  0.50400001928E-02 0. -1.
    10030    2    1    2    0    0  0.00000000000E+00  0.00000000000E+00 -0.11316263541E+03  0.30219224342E+04  0.30198028771E+04 0.  0.
        2    1    3    3  502    0 -0.43184413175E+03  0.58683892202E+03  0.12668192430E+04  0.14614035271E+04  0.25500000920E-02 0.  1.
       -2    1    3    3    0  502  0.43184413175E+03 -0.58683892202E+03 -0.13799818784E+04  0.15605189071E+04  0.25500000920E-02 0. -1.
</event>
<event>
 5   0  0.5730920E-06  0.2982377E+04  0.7818609E-02  0.8248781E-01
       -1   -1    0    0    0  501  0.00000000000E+00  0.00000000000E+00  0.14747975857E+04  0.14747975857E+04  0.50400001928E-02 0.  1.
        1   -1    0    0  501    0  0.00000000000E+00  0.00000000000E+00 -0.15077613154E+04  0.15077613154E+04  0.50400001928E-02 0. -1.
    10030    2    1    2    0    0  0.00000000000E+00  0.00000000000E+00 -0.32963729732E+02  0.29825589011E+04  0.29823767353E+04 0.  0.
        1    1    3    3  502    0 -0.12116380978E+04 -0.86635509909E+03 -0.87230161913E+02  0.14920613723E+04  0.50400001928E-02 0.  1.
       -1    1    3    3    0  502  0.12116380978E+04  0.86635509909E+03  0.54266432181E+02  0.14904975288E+04  0.50400001928E-02 0. -1.
</event>
<event>
 5   0  0.1345931E-05  0.3014228E+04  0.7818609E-02  0.8239680E-01
       -2   -1    0    0    0  501  0.00000000000E+00  0.00000000000E+00  0.10669524596E+04  0.10669524596E+04  0.25500000920E-02 0.  1.
        2   -1    0    0  501    0  0.00000000000E+00  0.00000000000E+00 -0.21288602147E+04  0.21288602147E+04  0.25500000920E-02 0. -1.
    10030    2    1    2    0    0  0.00000000000E+00  0.00000000000E+00 -0.10619077551E+04  0.31958126743E+04  0.30142280220E+04 0.  0.
        2    1    3    3  502    0 -0.13441761096E+04  0.52333321795E+03 -0.99396017963E+03  0.17517545232E+04  0.25500000920E-02 0. -1.
       -2    1    3    3    0  502  0.13441761096E+04 -0.52333321795E+03 -0.67947575462E+02  0.14440581511E+04  0.25500000920E-02 0.  1.
</event>
<event>
 5   0  0.1388724E-05  0.1505063E+04  0.7818609E-02  0.8881093E-01
        2   -1    0    0  501    0  0.00000000000E+00  0.00000000000E+00  0.73890728691E+03  0.73890728691E+03  0.25500000920E-02 0.  1.
       -2   -1    0    0    0  501  0.00000000000E+00  0.00000000000E+00 -0.76640732206E+03  0.76640732206E+03  0.25500000920E-02 0. -1.
    10030    2    1    2    0    0  0.00000000000E+00  0.00000000000E+00 -0.27500035153E+02  0.15053146090E+04  0.15050633940E+04 0.  0.
        4    1    3    3  502    0  0.57818236443E+02 -0.36557239839E+03 -0.66908164678E+03  0.76462931534E+03  0.12699999809E+01 0. -1.
       -4    1    3    3    0  502 -0.57818236443E+02  0.36557239839E+03  0.64158161163E+03  0.74068529363E+03  0.12699999809E+01 0.  1.
</event>
<event>
 5   0  0.5392262E-06  0.2889682E+04  0.7818609E-02  0.8275954E-01
       -1   -1    0    0    0  501  0.00000000000E+00  0.00000000000E+00  0.21672336236E+04  0.21672336236E+04  0.50400001928E-02 0. -1.
        1   -1    0    0  501    0  0.00000000000E+00  0.00000000000E+00 -0.96323988029E+03  0.96323988030E+03  0.50400001928E-02 0.  1.
    10030    2    1    2    0    0  0.00000000000E+00  0.00000000000E+00  0.12039937433E+04  0.31304735039E+04  0.28896822359E+04 0.  0.
        2    1    3    3  502    0  0.14005976095E+04 -0.34677784946E+03  0.52065838048E+03  0.15339536140E+04  0.25500000920E-02 0. -1.
       -2    1    3    3    0  502 -0.14005976095E+04  0.34677784946E+03  0.68333536283E+03  0.15965198899E+04  0.25500000920E-02 0.  1.
</event>
<event>
 5   0  0.5730920E-06  0.2978495E+04  0.7818609E-02  0.8249898E-01
        1   -1    0    0  501    0  0.00000000000E+00  0.00000000000E+00  0.14358307556E+04  0.14358307556E+04  0.50400001928E-02 0. -1.
       -1   -1    0    0    0  501  0.00000000000E+00  0.00000000000E+00 -0.15446518791E+04  0.15446518791E+04  0.50400001928E-02 0.  1.
    10030    2    1    2    0    0  0.00000000000E+00  0.00000000000E+00 -0.10882112346E+03  0.29804826347E+04  0.29784953750E+04 0.  0.
        1    1    3    3  502    0 -0.42669735436E-01 -0.29886248100E+03 -0.15143356188E+04  0.15435449948E+04  0.50400001928E-02 0.  1.
       -1    1    3    3    0  502  0.42669735436E-01  0.29886248100E+03  0.14055144954E+04  0.14369376400E+04  0.50400001928E-02 0. -1.
</event>
<event>
 5   0  0.5329891E-06  0.3002727E+04  0.7818609E-02  0.8242953E-01
       -1   -1    0    0    0  501  0.00000000000E+00  0.00000000000E+00  0.90734048879E+03  0.90734048881E+03  0.50400001928E-02 0.  1.
        1   -1    0    0  501    0  0.00000000000E+00  0.00000000000E+00 -0.24842850683E+04  0.24842850683E+04  0.50400001928E-02 0. -1.
    10030    2    1    2    0    0  0.00000000000E+00  0.00000000000E+00 -0.15769445795E+04  0.33916255571E+04  0.30027270460E+04 0.  0.
        4    1    3    3  502    0  0.12768151482E+04 -0.56813589875E+03 -0.16872402214E+03  0.14076593091E+04  0.12699999809E+01 0.  1.
       -4    1    3    3    0  502 -0.12768151482E+04  0.56813589875E+03 -0.14082205574E+04  0.19839662480E+04  0.12699999809E+01 0. -1.
</event>
<event>
 5   0  0.1388724E-05  0.3042715E+04  0.7818609E-02  0.8231637E-01
        2   -1    0    0  501    0  0.00000000000E+00  0.00000000000E+00  0.21838400855E+04  0.21838400855E+04  0.25500000920E-02 0.  1.
       -2   -1    0    0    0  501  0.00000000000E+00  0.00000000000E+00 -0.10598435537E+04  0.10598435537E+04  0.25500000920E-02 0. -1.
    10030    2    1    2    0    0  0.00000000000E+00  0.00000000000E+00  0.11239965318E+04  0.32436836392E+04  0.30427151276E+04 0.  0.
        4    1    3    3  502    0 -0.13749120621E+03  0.10842980809E+03  0.21730613311E+04  0.21801050472E+04  0.12699999809E+01 0.  1.
       -4    1    3    3    0  502  0.13749120621E+03 -0.10842980809E+03 -0.10490647994E+04  0.10635785920E+04  0.12699999809E+01 0. -1.
</event>
<event>
 5   0  0.5522695E-06  0.2981719E+04  0.7818609E-02  0.8248970E-01
       -1   -1    0    0    0  501  0.00000000000E+00  0.00000000000E+00  0.12718196250E+04  0.12718196250E+04  0.50400001928E-02 0. -1.
        1   -1    0    0  501    0  0.00000000000E+00  0.00000000000E+00 -0.17476241373E+04  0.17476241374E+04  0.50400001928E-02 0.  1.
    10030    2    1    2    0    0  0.00000000000E+00  0.00000000000E+00 -0.47580451238E+03  0.30194437623E+04  0.29817194201E+04 0.  0.
        3    1    3    3  502    0  0.99519292627E+03  0.17831447357E+03 -0.13474183178E+04  0.16845596295E+04  0.10100000352E+00 0.  1.
       -3    1    3    3    0  502 -0.99519292627E+03 -0.17831447357E+03  0.87161380545E+03  0.13348841328E+04  0.10100000352E+00 0. -1.
</event>
<event>
 5   0  0.5730920E-06  0.2878407E+04  0.7818609E-02  0.8279331E-01
        1   -1    0    0  501    0  0.00000000000E+00  0.00000000000E+00  0.14179769388E+04  0.14179769388E+04  0.50400001928E-02 0. -1.
       -1   -1    0    0    0  501  0.00000000000E+00  0.00000000000E+00 -0.14607480919E+04  0.14607480919E+04  0.50400001928E-02 0.  1.
    10030    2    1    2    0    0  0.00000000000E+00  0.00000000000E+00 -0.42771153083E+02  0.28787250306E+04  0.28784072732E+04 0.  0.
        1    1    3    3  502    0 -0.84081181124E+03  0.74768216782E+03  0.87610637010E+03  0.14260278741E+04  0.50400001928E-02 0. -1.
       -1    1    3    3    0  502  0.84081181124E+03 -0.74768216782E+03 -0.91887752318E+03  0.14526971565E+04  0.50400001928E-02 0.  1.
</event>
<event>
 5   0  0.5730920E-06  0.2975348E+04  0.7818609E-02  0.8250806E-01
        1   -1    0    0  501    0  0.00000000000E+00  0.00000000000E+00  0.93371282257E+03  0.93371282258E+03  0.50400001928E-02 0.  1.
       -1   -1    0    0    0  501  0.00000000000E+00  0.00000000000E+00 -0.23702947388E+04  0.23702947388E+04  0.50400001928E-02 0. -1.
    10030    2    1    2    0    0  0.00000000000E+00  0.00000000000E+00 -0.14365819162E+04  0.33040075614E+04  0.29753484441E+04 0.  0.
        1    1    3    3  502    0 -0.57684928807E+03 -0.72217154510E+03  0.57618798654E+03  0.10891645594E+04  0.50400001928E-02 0.  1.
       -1    1    3    3    0  502  0.57684928807E+03  0.72217154510E+03 -0.20127699028E+04  0.22148430019E+04  0.50400001928E-02 0. -1.
</event>
<event>
 5   0  0.1388724E-05  0.2952500E+04  0.7818609E-02  0.8257426E-01
       -2   -1    0    0    0  501  0.00000000000E+00  0.00000000000E+00  0.10073174565E+04  0.10073174565E+04  0.25500000920E-02 0. -1.
        2   -1    0    0  501    0  0.00000000000E+00  0.00000000000E+00 -0.21634832652E+04  0.21634832652E+04  0.25500000920E-02 0.  1.
    10030    2    1    2    0    0  0.00000000000E+00  0.00000000000E+00 -0.11561658087E+04  0.31708007217E+04  0.29525002692E+04 0.  0.
        4    1    3    3  502    0  0.19819887778E+03 -0.39735586969E+03 -0.20900626945E+04  0.21367119979E+04  0.12699999809E+01 0.  1.
       -4    1    3    3    0  502 -0.19819887778E+03  0.39735586969E+03  0.93389688582E+03  0.10340887237E+04  0.12699999809E+01 0. -1.
</event>
<event>
 5   0  0.1423692E-05  0.2955191E+04  0.7818609E-02  0.8256643E-01
       -2   -1    0    0    0  501  0.00000000000E+00  0.00000000000E+00  0.11751449753E+04  0.11751449753E+04  0.25500000920E-02 0. -1.
        2   -1    0    0  501    0  0.00000000000E+00  0.00000000000E+00 -0.18578885746E+04  0.18578885746E+04  0.25500000920E-02 0.  1.
    10030    2    1    2    0    0  0.00000000000E+00  0.00000000000E+00 -0.68274359930E+03  0.30330335499E+04  0.29551909739E+04 0.  0.
        3    1    3    3  502    0 -0.12976812451E+04  0.60618495334E+03  0.31306724405E+02  0.14326258872E+04  0.10100000352E+00 0. -1.
       -3    1    3    3    0  502  0.12976812451E+04 -0.60618495334E+03 -0.71405032370E+03  0.16004076626E+04  0.10100000352E+00 0.  1.
</event>
<event>
 5   0  0.1523029E-05  0.2751239E+04  0.7818609E-02  0.8318569E-01
       -2   -1    0    0    0  501  0.00000000000E+00  0.00000000000E+00  0.81826893945E+03  0.81826893945E+03  0.25500000920E-02 0.  1.
        2   -1    0    0  501    0  0.00000000000E+00  0.00000000000E+00 -0.23125997092E+04  0.23125997092E+04  0.25500000920E-02 0. -1.
    10030    2    1    2    0    0  0.00000000000E+00  0.00000000000E+00 -0.14943307698E+04  0.31308686487E+04  0.27512386385E+04 0.  0.
        5    1    3    3  502    0  0.50341229841E+03 -0.10767818764E+04  0.40780044175E+02  0.11893562349E+04  0.46999998093E+01 0.  1.
       -5    1    3    3    0  502 -0.50341229841E+03  0.10767818764E+04 -0.15351108139E+04  0.19415124137E+04  0.46999998093E+01 0. -1.
</event>
<event>
 5   0  0.1423692E-05  0.2994924E+04  0.7818609E-02  0.8245182E-01
       -2   -1    0    0    0  501  0.00000000000E+00  0.00000000000E+00  0.66106584817E+03  0.66106584817E+03  0.25500000920E-02 0. -1.
        2   -1    0    0  501    0  0.00000000000E+00  0.00000000000E+00 -0.33920864013E+04  0.33920864013E+04  0.25500000920E-02 0.  1.
    10030    2    1    2    0    0  0.00000000000E+00  0.00000000000E+00 -0.27310205532E+04  0.40531522495E+04  0.29949240217E+04 0.  0.
        3    1    3    3  502    0 -0.10136819833E+03 -0.14862127777E+04 -0.15720379063E+04  0.21657347763E+04  0.10100000352E+00 0. -1.
       -3    1    3    3    0  502  0.10136819833E+03  0.14862127777E+04 -0.11589826469E+04  0.18874174732E+04  0.10100000352E+00 0.  1.
</event>
<event>
 5   0  0.7032692E-06  0.3028156E+04  0.7818609E-02  0.8235736E-01
       -1   -1    0    0    0  501  0.00000000000E+00  0.00000000000E+00  0.14214922644E+04  0.14214922644E+04  0.50400001928E-02 0.  1.
        1   -1    0    0  501    0  0.00000000000E+00  0.00000000000E+00 -0.16126945844E+04  0.16126945844E+04  0.50400001928E-02 0. -1.
    10030    2    1    2    0    0  0.00000000000E+00  0.00000000000E+00 -0.19120231999E+03  0.30341868489E+04  0.30281564535E+04 0.  0.
        5    1    3    3  502    0 -0.80221238873E+03  0.13147191009E+02  0.11909703736E+04  0.14360188320E+04  0.46999998093E+01 0.  1.
       -5    1    3    3    0  502  0.80221238873E+03 -0.13147191009E+02 -0.13821726935E+04  0.15981680168E+04  0.46999998093E+01 0. -1.
</event>
<event>
 5   0  0.1523029E-05  0.2962211E+04  0.7818609E-02  0.8254605E-01
       -2   -1    0    0    0  501  0.00000000000E+00  0.00000000000E+00  0.10390482049E+04  0.10390482049E+04  0.25500000920E-02 0. -1.
        2   -1    0    0  501    0  0.00000000000E+00  0.00000000000E+00 -0.21112340613E+04  0.21112340613E+04  0.25500000920E-02 0.  1.
    10030    2    1    2    0    0  0.00000000000E+00  0.00000000000E+00 -0.10721858564E+04  0.31502822662E+04  0.29622113102E+04 0.  0.
        5    1    3    3  502    0 -0.59199885748E+03 -0.29780258556E+03  0.87258098120E+03  0.10957046527E+04  0.46999998093E+01 0. -1.
       -5    1    3    3    0  502  0.59199885748E+03  0.29780258556E+03 -0.19447668376E+04  0.20545776135E+04  0.46999998093E+01 0.  1.
</event>
<event>
 5   0  0.1345931E-05  0.3004625E+04  0.7818609E-02  0.8242412E-01
        2   -1    0    0  501    0  0.00000000000E+00  0.00000000000E+00  0.25750169963E+04  0.25750169963E+04  0.25500000920E-02 0. -1.
       -2   -1    0    0    0  501  0.00000000000E+00  0.00000000000E+00 -0.87647658777E+03  0.87647658777E+03  0.25500000920E-02 0.  1.
    10030    2    1    2    0    0  0.00000000000E+00  0.00000000000E+00  0.16985404085E+04  0.34514935840E+04  0.30046245092E+04 0.  0.
        2    1    3    3  502    0  0.24950407844E+03 -0.34362012735E+03  0.25046393712E+04  0.25403829351E+04  0.25500000920E-02 0. -1.
       -2    1    3    3    0  502 -0.24950407844E+03  0.34362012735E+03 -0.80609896267E+03  0.91111064899E+03  0.25500000920E-02 0.  1.
</event>
<event>
 5   0  0.1523029E-05  0.3006452E+04  0.7818609E-02  0.8241891E-01
        2   -1    0    0  501    0  0.00000000000E+00  0.00000000000E+00  0.26799313917E+04  0.26799313917E+04  0.25500000920E-02 0.  1.
       -2   -1    0    0    0  501  0.00000000000E+00  0.00000000000E+00 -0.84318916693E+03  0.84318916693E+03  0.25500000920E-02 0. -1.
    10030    2    1    2    0    0  0.00000000000E+00  0.00000000000E+00  0.18367422247E+04  0.35231205586E+04  0.30064524727E+04 0.  0.
        5    1    3    3  502    0 -0.97134350966E+03 -0.79552009378E+02 -0.42278914934E+03  0.10623603394E+04  0.46999998093E+01 0. -1.
       -5    1    3    3    0  502  0.97134350966E+03  0.79552009378E+02  0.22595313741E+04  0.24607602192E+04  0.46999998093E+01 0.  1.
</event>
<event>
 5   0  0.5730920E-06  0.2349701E+04  0.7818609E-02  0.8458578E-01
        1   -1    0    0  501    0  0.00000000000E+00  0.00000000000E+00  0.79802295668E+03  0.79802295670E+03  0.50400001928E-02 0.  1.
       -1   -1    0    0    0  501  0.00000000000E+00  0.00000000000E+00 -0.17296167445E+04  0.17296167445E+04  0.50400001928E-02 0. -1.
    10030    2    1    2    0    0  0.00000000000E+00  0.00000000000E+00 -0.93159378786E+03  0.25276397012E+04  0.23497011456E+04 0.  0.
        1    1    3    3  502    0  0.12584206865E+03  0.44855121198E+03  0.69441443318E+03  0.83620919694E+03  0.50400001928E-02 0.  1.
       -1    1    3    3    0  502 -0.12584206865E+03 -0.44855121198E+03 -0.16260082210E+04  0.16914305043E+04  0.50400001928E-02 0. -1.
</event>
<event>
 5   0  0.1345931E-05  0.2865359E+04  0.7818609E-02  0.8283259E-01
       -2   -1    0    0    0  501  0.00000000000E+00  0.00000000000E+00  0.12686282031E+04  0.12686282031E+04  0.25500000920E-02 0.  1.
        2   -1    0    0  501    0  0.00000000000E+00  0.00000000000E+00 -0.16179449739E+04  0.16179449739E+04  0.25500000920E-02 0. -1.
    10030    2    1    2    0    0  0.00000000000E+00  0.00000000000E+00 -0.34931677083E+03  0.28865731770E+04  0.28653590525E+04 0.  0.
        2    1    3    3  502    0 -0.13904352071E+04 -0.34533863361E+03 -0.17600541186E+03  0.14434495980E+04  0.25500000920E-02 0.  1.
       -2    1    3    3    0  502  0.13904352071E+04  0.34533863361E+03 -0.17331135897E+03  0.14431235790E+04  0.25500000920E-02 0. -1.
</event>
<event>
 5   0  0.7032692E-06  0.3284318E+04  0.7818609E-02  0.8166897E-01
       -1   -1    0    0    0  501  0.00000000000E+00  0.00000000000E+00  0.18007049483E+04  0.18007049483E+04  0.50400001928E-02 0.  1.
        1   -1    0    0  501    0  0.00000000000E+00  0.00000000000E+00 -0.14975729015E+04  0.14975729015E+04  0.50400001928E-02 0. -1.
    10030    2    1    2    0    0  0.00000000000E+00  0.00000000000E+00  0.30313204684E+03  0.32982778499E+04  0.32843184585E+04 0.  0.
        5    1    3    3  502    0 -0.27186328758E+03  0.67919505452E+03  0.16280015984E+04  0.17848324469E+04  0.46999998093E+01 0.  1.
       -5    1    3    3    0  502  0.27186328758E+03 -0.67919505452E+03 -0.13248695515E+04  0.15134454030E+04  0.46999998093E+01 0. -1.
</event>
<event>
 5   0  0.5522695E-06  0.3032192E+04  0.7818609E-02  0.8234598E-01
       -1   -1    0    0    0  501  0.00000000000E+00  0.00000000000E+00  0.10785333413E+04  0.10785333413E+04  0.50400001928E-02 0.  1.
        1   -1    0    0  501    0  0.00000000000E+00  0.00000000000E+00 -0.21311783534E+04  0.21311783534E+04  0.50400001928E-02 0. -1.
    10030    2    1    2    0    0  0.00000000000E+00  0.00000000000E+00 -0.10526450121E+04  0.32097116947E+04  0.30321918873E+04 0.  0.
        3    1    3    3  502    0 -0.57969411360E+03  0.12207011954E+04  0.20122238427E+03  0.13662529532E+04  0.10100000352E+00 0.  1.
       -3    1    3    3    0  502  0.57969411360E+03 -0.12207011954E+04 -0.12538673963E+04  0.18434587415E+04  0.10100000352E+00 0. -1.
</event>
<event>
 5   0  0.1388724E-05  0.2999790E+04  0.7818609E-02  0.8243791E-01
       -2   -1    0    0    0  501  0.00000000000E+00  0.00000000000E+00  0.13426600839E+04  0.13426600839E+04  0.25500000920E-02 0. -1.
        2   -1    0    0  501    0  0.00000000000E+00  0.00000000000E+00 -0.16755430809E+04  0.16755430809E+04  0.25500000920E-02 0.  1.
    10030    2    1    2    0    0  0.00000000000E+00  0.00000000000E+00 -0.33288299702E+03  0.30182031648E+04  0.29997898684E+04 0.  0.
        4    1    3    3  502    0  0.94762915572E+03  0.10394390059E+04 -0.69045381939E+03  0.15668958336E+04  0.12699999809E+01 0.  1.
       -4    1    3    3    0  502 -0.94762915572E+03 -0.10394390059E+04  0.35757082237E+03  0.14513073312E+04  0.12699999809E+01 0. -1.
</event>
<event>
 5   0  0.5522695E-06  0.2449158E+04  0.7818609E-02  0.8421325E-01
       -1   -1    0    0    0  501  0.00000000000E+00  0.00000000000E+00  0.69390625457E+03  0.69390625459E+03  0.50400001928E-02 0.  1.
        1   -1    0    0  501    0  0.00000000000E+00  0.00000000000E+00 -0.21610903284E+04  0.21610903284E+04  0.50400001928E-02 0. -1.
    10030    2    1    2    0    0  0.00000000000E+00  0.00000000000E+00 -0.14671840738E+04  0.28549965830E+04  0.24491583008E+04 0.  0.
        3    1    3    3  502    0  0.40274158978E+03  0.83897072595E+03 -0.16614241234E+04  0.19043116329E+04  0.10100000352E+00 0. -1.
       -3    1    3    3    0  502 -0.40274158978E+03 -0.83897072595E+03  0.19424004965E+03  0.95068495004E+03  0.10100000352E+00 0.  1.
</event>
<event>
 5   0  0.5329891E-06  0.3046687E+04  0.7818609E-02  0.8230523E-01
       -1   -1    0    0    0  501  0.00000000000E+00  0.00000000000E+00  0.17825071473E+04  0.17825071473E+04  0.50400001928E-02 0.  1.
        1   -1    0    0  501    0  0.00000000000E+00  0.00000000000E+00 -0.13018607310E+04  0.13018607310E+04  0.50400001928E-02 0. -1.
    10030    2    1    2    0    0  0.00000000000E+00  0.00000000000E+00  0.48064641632E+03  0.30843678783E+04  0.30466874193E+04 0.  0.
        4    1    3    3  502    0 -0.13515973294E+04  0.66791562431E+03  0.46130668559E+03  0.15766204658E+04  0.12699999809E+01 0. -1.
       -4    1    3    3    0  502  0.13515973294E+04 -0.66791562431E+03  0.19339730729E+02  0.15077474125E+04  0.12699999809E+01 0.  1.
</event>
<event>
 5   0  0.5522695E-06  0.2945618E+04  0.7818609E-02  0.8259433E-01
        1   -1    0    0  501    0  0.00000000000E+00  0.00000000000E+00  0.21318375656E+04  0.21318375656E+04  0.50400001928E-02 0. -1.
       -1   -1    0    0    0  501  0.00000000000E+00  0.00000000000E+00 -0.10175101086E+04  0.10175101087E+04  0.50400001928E-02 0.  1.
    10030    2    1    2    0    0  0.00000000000E+00  0.00000000000E+00  0.11143274569E+04  0.31493476742E+04  0.29456179474E+04 0.  0.
        3    1    3    3  502    0 -0.25902085328E+03 -0.13240672363E+04  0.11887132055E+04  0.17981337391E+04  0.10100000352E+00 0.  1.
       -3    1    3    3    0  502  0.25902085328E+03  0.13240672363E+04 -0.74385748593E+02  0.13512139351E+04  0.10100000352E+00 0. -1.
</event>
<event>
 5   0  0.1423692E-05  0.2042164E+04  0.7818609E-02  0.8587158E-01
       -2   -1    0    0    0  501  0.00000000000E+00  0.00000000000E+00  0.16084150514E+04  0.16084150514E+04  0.25500000920E-02 0. -1.
        2   -1    0    0  501    0  0.00000000000E+00  0.00000000000E+00 -0.64822081530E+03  0.64822081530E+03  0.25500000920E-02 0.  1.
    10030    2    1    2    0    0  0.00000000000E+00  0.00000000000E+00  0.96019423615E+03  0.22566358667E+04  0.20421636722E+04 0.  0.
        3    1    3    3  502    0  0.76082798814E+03  0.59502677259E+03  0.84607804572E+03  0.12840421166E+04  0.10100000352E+00 0. -1.
       -3    1    3    3    0  502 -0.76082798814E+03 -0.59502677259E+03  0.11411619042E+03  0.97259375011E+03  0.10100000352E+00 0.  1.
</event>
<event>
 5   0  0.5329891E-06  0.1540394E+04  0.7818609E-02  0.8858027E-01
        1   -1    0    0  501    0  0.00000000000E+00  0.00000000000E+00  0.23380545494E+04  0.23380545494E+04  0.50400001928E-02 0.  1.
       -1   -1    0    0    0  501  0.00000000000E+00  0.00000000000E+00 -0.25371681825E+03  0.25371681830E+03  0.50400001928E-02 0. -1.
    10030    2    1    2    0    0  0.00000000000E+00  0.00000000000E+00  0.20843377311E+04  0.25917713677E+04  0.15403944446E+04 0.  0.
        4    1    3    3  502    0  0.16806548264E+02  0.45920038657E+03  0.20821549149E+04  0.21322565881E+04  0.12699999809E+01 0.  1.
       -4    1    3    3    0  502 -0.16806548264E+02 -0.45920038657E+03  0.21828162712E+01  0.45951477960E+03  0.12699999809E+01 0. -1.
</event>
<event>
 5   0  0.4806125E-06  0.2819237E+04  0.7818609E-02  0.8297321E-01
        3   -1    0    0  501    0  0.00000000000E+00  0.00000000000E+00  0.62281480788E+03  0.62281481607E+03  0.10100000352E+00 0. -1.
       -3   -1    0    0    0  501  0.00000000000E+00  0.00000000000E+00 -0.31903933302E+04  0.31903933318E+04  0.10100000352E+00 0.  1.
    10030    2    1    2    0    0  0.00000000000E+00  0.00000000000E+00 -0.25675785224E+04  0.38132081479E+04  0.28192369377E+04 0.  0.
        1    1    3    3  502    0  0.11517717931E+04  0.65928701521E+03 -0.64108968540E+03  0.14738499302E+04  0.50400001928E-02 0. -1.
       -1    1    3    3    0  502 -0.11517717931E+04 -0.65928701521E+03 -0.19264888369E+04  0.23393582177E+04  0.50400001928E-02 0.  1.
</event>
<event>
 5   0  0.1523029E-05  0.2978402E+04  0.7818609E-02  0.8249925E-01
       -2   -1    0    0    0  501  0.00000000000E+00  0.00000000000E+00  0.11161551894E+04  0.11161551894E+04  0.25500000920E-02 0.  1.
        2   -1    0    0  501    0  0.00000000000E+00  0.00000000000E+00 -0.19869276518E+04  0.19869276518E+04  0.25500000920E-02 0. -1.
    10030    2    1    2    0    0  0.00000000000E+00  0.00000000000E+00 -0.87077246241E+03  0.31030828412E+04  0.29784019940E+04 0.  0.
        5    1    3    3  502    0  0.14170784775E+04  0.29843841697E+03 -0.79707975562E+03  0.16530381505E+04  0.46999998093E+01 0. -1.
       -5    1    3    3    0  502 -0.14170784775E+04 -0.29843841697E+03 -0.73692706788E+02  0.14500446907E+04  0.46999998093E+01 0.  1.
</event>
<event>
 5   0  0.7032692E-06  0.3049087E+04  0.7818609E-02  0.8229851E-01
       -1   -1    0    0    0  501  0.00000000000E+00  0.00000000000E+00  0.11426733108E+04  0.11426733108E+04  0.50400001928E-02 0.  1.
        1   -1    0    0  501    0  0.00000000000E+00  0.00000000000E+00 -0.20340304608E+04  0.20340304608E+04  0.50400001928E-02 0. -1.
    10030    2    1    2    0    0  0.00000000000E+00  0.00000000000E+00 -0.89135714996E+03  0.31767037716E+04  0.30490866311E+04 0.  0.
        5    1    3    3  502    0  0.54286866006E+03  0.13826980633E+04 -0.88321188837E+02  0.14880803200E+04  0.46999998093E+01 0. -1.
       -5    1    3    3    0  502 -0.54286866006E+03 -0.13826980633E+04 -0.80303596112E+03  0.16886234516E+04  0.46999998093E+01 0.  1.
</event>
<event>
 5   0  0.1388724E-05  0.3021869E+04  0.7818609E-02  0.8237513E-01
        2   -1    0    0  501    0  0.00000000000E+00  0.00000000000E+00  0.16004713438E+04  0.16004713438E+04  0.25500000920E-02 0. -1.
       -2   -1    0    0    0  501  0.00000000000E+00  0.00000000000E+00 -0.14264067728E+04  0.14264067728E+04  0.25500000920E-02 0.  1.
    10030    2    1    2    0    0  0.00000000000E+00  0.00000000000E+00  0.17406457097E+03  0.30268781166E+04  0.30218690669E+04 0.  0.
        4    1    3    3  502    0  0.76108437583E+02  0.11448204595E+04  0.10717769321E+04  0.15700680826E+04  0.12699999809E+01 0. -1.
       -4    1    3    3    0  502 -0.76108437583E+02 -0.11448204595E+04 -0.89771236116E+03  0.14568100340E+04  0.12699999809E+01 0.  1.
</event>
<event>
 5   0  0.5329891E-06  0.3012505E+04  0.7818609E-02  0.8240169E-01
       -1   -1    0    0    0  501  0.00000000000E+00  0.00000000000E+00  0.13436270675E+04  0.13436270675E+04  0.50400001928E-02 0.  1.
        1   -1    0    0  501    0  0.00000000000E+00  0.00000000000E+00 -0.16885616998E+04  0.16885616998E+04  0.50400001928E-02 0. -1.
    10030    2    1    2    0    0  0.00000000000E+00  0.00000000000E+00 -0.34493463228E+03  0.30321887673E+04  0.30125054058E+04 0.  0.
        4    1    3    3  502    0 -0.21849353861E+03  0.79096314856E+03  0.10988903558E+04  0.13714677378E+04  0.12699999809E+01 0.  1.
       -4    1    3    3    0  502  0.21849353861E+03 -0.79096314856E+03 -0.14438249881E+04  0.16607210295E+04  0.12699999809E+01 0. -1.
</event>
<event>
 5   0  0.5392262E-06  0.2679468E+04  0.7818609E-02  0.8341698E-01
       -1   -1    0    0    0  501  0.00000000000E+00  0.00000000000E+00  0.13903499738E+04  0.13903499738E+04  0.50400001928E-02 0. -1.
        1   -1    0    0  501    0  0.00000000000E+00  0.00000000000E+00 -0.12909609955E+04  0.12909609955E+04  0.50400001928E-02 0.  1.
    10030    2    1    2    0    0  0.00000000000E+00  0.00000000000E+00  0.99388978276E+02  0.26813109693E+04  0.26794682952E+04 0.  0.
        2    1    3    3  502    0 -0.71495622322E+03 -0.11300366485E+04  0.13186282142E+03  0.13437012435E+04  0.25500000920E-02 0. -1.
       -2    1    3    3    0  502  0.71495622322E+03  0.11300366485E+04 -0.32473843147E+02  0.13376097258E+04  0.25500000920E-02 0.  1.
</event>
<event>
 5   0  0.5522695E-06  0.3020845E+04  0.7818609E-02  0.8237804E-01
        1   -1    0    0  501    0  0.00000000000E+00  0.00000000000E+00  0.12812534951E+04  0.12812534951E+04  0.50400001928E-02 0. -1.
       -1   -1    0    0    0  501  0.00000000000E+00  0.00000000000E+00 -0.17805810076E+04  0.17805810076E+04  0.50400001928E-02 0.  1.
    10030    2    1    2    0    0  0.00000000000E+00  0.00000000000E+00 -0.49932751247E+03  0.30618345028E+04  0.30208446762E+04 0.  0.
        3    1    3    3  502    0 -0.12311180449E+04  0.81415249501E+03  0.75437141846E+02  0.14778994209E+04  0.10100000352E+00 0.  1.
       -3    1    3    3    0  502  0.12311180449E+04 -0.81415249501E+03 -0.57476465432E+03  0.15839350819E+04  0.10100000352E+00 0. -1.
</event>
<event>
 5   0  0.1423692E-05  0.3033493E+04  0.7818609E-02  0.8234231E-01
        2   -1    0    0  501    0  0.00000000000E+00  0.00000000000E+00  0.14550658679E+04  0.14550658679E+04  0.25500000920E-02 0. -1.
       -2   -1    0    0    0  501  0.00000000000E+00  0.00000000000E+00 -0.15810421690E+04  0.15810421690E+04  0.25500000920E-02 0.  1.
    10030    2    1    2    0    0  0.00000000000E+00  0.00000000000E+00 -0.12597630108E+03  0.30361080370E+04  0.30334933631E+04 0.  0.
        3    1    3    3  502    0 -0.11715647251E+04 -0.96293232957E+03 -0.36171226207E+02  0.15169413121E+04  0.10100000352E+00 0.  1.
       -3    1    3    3    0  502  0.11715647251E+04  0.96293232957E+03 -0.89805074878E+02  0.15191667249E+04  0.10100000352E+00 0. -1.
</event>
<event>
 5   0  0.5392262E-06  0.3095180E+04  0.7818609E-02  0.8217062E-01
        1   -1    0    0  501    0  0.00000000000E+00  0.00000000000E+00  0.14390308724E+04  0.14390308724E+04  0.50400001928E-02 0.  1.
       -1   -1    0    0    0  501  0.00000000000E+00  0.00000000000E+00 -0.16643383046E+04  0.16643383046E+04  0.50400001928E-02 0. -1.
    10030    2    1    2    0    0  0.00000000000E+00  0.00000000000E+00 -0.22530743218E+03  0.31033691770E+04  0.30951796087E+04 0.  0.
        2    1    3    3  502    0 -0.28270399849E+03 -0.42212743406E+03  0.13530352841E+04  0.14452742306E+04  0.25500000920E-02 0.  1.
       -2    1    3    3    0  502  0.28270399849E+03  0.42212743406E+03 -0.15783427163E+04  0.16580949465E+04  0.25500000920E-02 0. -1.
</event>
<event>
 5   0  0.5392262E-06  0.3186488E+04  0.7818609E-02  0.8192395E-01
        1   -1    0    0  501    0  0.00000000000E+00  0.00000000000E+00  0.16454107148E+04  0.16454107148E+04  0.50400001928E-02 0.  1.
       -1   -1    0    0    0  501  0.00000000000E+00  0.00000000000E+00 -0.15427312580E+04  0.15427312580E+04  0.50400001928E-02 0. -1.
    10030    2    1    2    0    0  0.00000000000E+00  0.00000000000E+00  0.10267945681E+03  0.31881419729E+04  0.31864880619E+04 0.  0.
        2    1    3    3  502    0 -0.58102747065E+03  0.14546820236E+04 -0.23990211935E+03  0.15846910545E+04  0.25500000920E-02 0. -1.
       -2    1    3    3    0  502  0.58102747065E+03 -0.14546820236E+04  0.34258157616E+03  0.16034509184E+04  0.25500000920E-02 0.  1.
</event>
<event>
 5   0  0.1523029E-05  0.2658400E+04  0.7818609E-02  0.8348630E-01
        2   -1    0    0  501    0  0.00000000000E+00  0.00000000000E+00  0.20259665632E+04  0.20259665632E+04  0.25500000920E-02 0.  1.
       -2   -1    0    0    0  501  0.00000000000E+00  0.00000000000E+00 -0.87206379034E+03  0.87206379035E+03  0.25500000920E-02 0. -1.
    10030    2    1    2    0    0  0.00000000000E+00  0.00000000000E+00  0.11539027729E+04  0.28980303536E+04  0.26583995789E+04 0.  0.
        5    1    3    3  502    0 -0.92636197671E+03  0.66356874550E+03 -0.16904285409E+03  0.11519841876E+04  0.46999998093E+01 0. -1.
       -5    1    3    3    0  502  0.92636197671E+03 -0.66356874550E+03  0.13229456270E+04  0.17460461660E+04  0.46999998093E+01 0.  1.
</event>
<event>
 5   0  0.1388724E-05  0.2304665E+04  0.7818609E-02  0.8476084E-01
        2   -1    0    0  501    0  0.00000000000E+00  0.00000000000E+00  0.19969860904E+04  0.19969860904E+04  0.25500000920E-02 0.  1.
       -2   -1    0    0    0  501  0.00000000000E+00  0.00000000000E+00 -0.66493726876E+03  0.66493726877E+03  0.25500000920E-02 0. -1.
    10030    2    1    2    0    0  0.00000000000E+00  0.00000000000E+00  0.13320488216E+04  0.26619233592E+04  0.23046652483E+04 0.  0.
        4    1    3    3  502    0 -0.66928464260E+03  0.96696067822E+01  0.17494221468E+04  0.18731030123E+04  0.12699999809E+01 0.  1.
       -4    1    3    3    0  502  0.66928464260E+03 -0.96696067822E+01 -0.41737332518E+03  0.78882034684E+03  0.12699999809E+01 0. -1.
</event>
<event>
 5   0  0.5392262E-06  0.2958710E+04  0.7818609E-02  0.8255621E-01
       -1   -1    0    0    0  501  0.00000000000E+00  0.00000000000E+00  0.13148931001E+04  0.13148931001E+04  0.50400001928E-02 0. -1.
        1   -1    0    0  501    0  0.00000000000E+00  0.00000000000E+00 -0.16643873418E+04  0.16643873418E+04  0.50400001928E-02 0.  1.
    10030    2    1    2    0    0  0.00000000000E+00  0.00000000000E+00 -0.34949424170E+03  0.29792804419E+04  0.29587101457E+04 0.  0.
        2    1    3    3  502    0  0.58944566179E+03 -0.93989911037E+03 -0.11601389311E+04  0.16052348319E+04  0.25500000920E-02 0.  1.
       -2    1    3    3    0  502 -0.58944566179E+03  0.93989911037E+03  0.81064468945E+03  0.13740456100E+04  0.25500000920E-02 0. -1.
</event>
<event>
 5   0  0.5730920E-06  0.1630389E+04  0.7818609E-02  0.8802093E-01
       -1   -1    0    0    0  501  0.00000000000E+00  0.00000000000E+00  0.71466968922E+03  0.71466968924E+03  0.50400001928E-02 0.  1.
        1   -1    0    0  501    0  0.00000000000E+00  0.00000000000E+00 -0.92985927712E+03  0.92985927714E+03  0.50400001928E-02 0. -1.
    10030    2    1    2    0    0  0.00000000000E+00  0.00000000000E+00 -0.21518958791E+03  0.16445289664E+04  0.16303892058E+04 0.  0.
        1    1    3    3  502    0  0.22467220647E+03  0.28014510243E+03 -0.84577734382E+03  0.91885700418E+03  0.50400001928E-02 0. -1.
       -1    1    3    3    0  502 -0.22467220647E+03 -0.28014510243E+03  0.63058775592E+03  0.72567196219E+03  0.50400001928E-02 0.  1.
</event>
<event>
 5   0  0.5522695E-06  0.3244109E+04  0.7818609E-02  0.8177264E-01
       -1   -1    0    0    0  501  0.00000000000E+00  0.00000000000E+00  0.14232111695E+04  0.14232111695E+04  0.50400001928E-02 0.  1.
        1   -1    0    0  501    0  0.00000000000E+00  0.00000000000E+00 -0.18486786525E+04  0.18486786525E+04  0.50400001928E-02 0. -1.
    10030    2    1    2    0    0  0.00000000000E+00  0.00000000000E+00 -0.42546748304E+03  0.32718898220E+04  0.32441085722E+04 0.  0.
        3    1    3    3  502    0  0.11864466112E+04 -0.74280506723E+03 -0.10392915586E+04  0.17434281984E+04  0.10100000352E+00 0. -1.
       -3    1    3    3    0  502 -0.11864466112E+04  0.74280506723E+03  0.61382407552E+03  0.15284616236E+04  0.10100000352E+00 0.  1.
</event>
<event>
 5   0  0.1345931E-05  0.2741761E+04  0.7818609E-02  0.8321581E-01
       -2   -1    0    0    0  501  0.00000000000E+00  0.00000000000E+00  0.13736011078E+04  0.13736011078E+04  0.25500000920E-02 0. -1.
        2   -1    0    0  501    0  0.00000000000E+00  0.00000000000E+00 -0.13681656896E+04  0.13681656897E+04  0.25500000920E-02 0.  1.
    10030    2    1    2    0    0  0.00000000000E+00  0.00000000000E+00  0.54354181743E+01  0.27417667975E+04  0.27417614097E+04 0.  0.
        2    1    3    3  502    0  0.53216034544E+03  0.94810647113E+03 -0.83227698148E+03  0.13692280627E+04  0.25500000920E-02 0.  1.
       -2    1    3    3    0  502 -0.53216034544E+03 -0.94810647113E+03  0.83771239965E+03  0.13725387348E+04  0.25500000920E-02 0. -1.
</event>
<event>
 5   0  0.5730920E-06  0.1914034E+04  0.7818609E-02  0.8647902E-01
       -1   -1    0    0    0  501  0.00000000000E+00  0.00000000000E+00  0.83186576837E+03  0.83186576838E+03  0.50400001928E-02 0.  1.
        1   -1    0    0  501    0  0.00000000000E+00  0.00000000000E+00 -0.11009970354E+04  0.11009970354E+04  0.50400001928E-02 0. -1.
    10030    2    1    2    0    0  0.00000000000E+00  0.00000000000E+00 -0.26913126699E+03  0.19328628038E+04  0.19140342158E+04 0.  0.
        1    1    3    3  502    0  0.82374745104E+03 -0.48715404863E+03 -0.13625981267E+03  0.96666729890E+03  0.50400001928E-02 0.  1.
       -1    1    3    3    0  502 -0.82374745104E+03  0.48715404863E+03 -0.13287145432E+03  0.96619550485E+03  0.50400001928E-02 0. -1.
</event>
<event>
 5   0  0.1523029E-05  0.3072758E+04  0.7818609E-02  0.8223254E-01
        2   -1    0    0  501    0  0.00000000000E+00  0.00000000000E+00  0.13965457948E+04  0.13965457948E+04  0.25500000920E-02 0.  1.
       -2   -1    0    0    0  501  0.00000000000E+00  0.00000000000E+00 -0.16902129007E+04  0.16902129007E+04  0.25500000920E-02 0. -1.
    10030    2    1    2    0    0  0.00000000000E+00  0.00000000000E+00 -0.29366710584E+03  0.30867586955E+04  0.30727575360E+04 0.  0.
        5    1    3    3  502    0 -0.93087708970E+03 -0.46750401277E+03 -0.12812912599E+04  0.16513090385E+04  0.46999998093E+01 0. -1.
       -5    1    3    3    0  502  0.93087708970E+03  0.46750401277E+03  0.98762415402E+03  0.14354496570E+04  0.46999998093E+01 0.  1.
</event>
<event>
 5   0  0.5522695E-06  0.1794370E+04  0.7818609E-02  0.8709299E-01
       -1   -1    0    0    0  501  0.00000000000E+00  0.00000000000E+00  0.13402375807E+04  0.13402375808E+04  0.50400001928E-02 0. -1.
        1   -1    0    0  501    0  0.00000000000E+00  0.00000000000E+00 -0.60059560948E+03  0.60059560950E+03  0.50400001928E-02 0.  1.
    10030    2    1    2    0    0  0.00000000000E+00  0.00000000000E+00  0.73964197127E+03  0.19408331903E+04  0.17943698690E+04 0.  0.
        3    1    3    3  502    0  0.86692967544E+03 -0.20321222150E+03  0.48869398918E+03  0.10157185114E+04  0.10100000352E+00 0. -1.
       -3    1    3    3    0  502 -0.86692967544E+03  0.20321222150E+03  0.25094798209E+03  0.92511467886E+03  0.10100000352E+00 0.  1.
</event>
<event>
 5   0  0.1345931E-05  0.2994508E+04  0.7818609E-02  0.8245301E-01
        2   -1    0    0  501    0  0.00000000000E+00  0.00000000000E+00  0.19845365963E+04  0.19845365963E+04  0.25500000920E-02 0.  1.
       -2   -1    0    0    0  501  0.00000000000E+00  0.00000000000E+00 -0.11296189872E+04  0.11296189873E+04  0.25500000920E-02 0. -1.
    10030    2    1    2    0    0  0.00000000000E+00  0.00000000000E+00  0.85491760902E+03  0.31141555835E+04  0.29945084538E+04 0.  0.
        2    1    3    3  502    0  0.32421660428E+03  0.14482785394E+04  0.22170764415E+03  0.15005936870E+04  0.25500000920E-02 0. -1.
       -2    1    3    3    0  502 -0.32421660428E+03 -0.14482785394E+04  0.63320996487E+03  0.16135618965E+04  0.25500000920E-02 0.  1.
</event>
<event>
 5   0  0.1423692E-05  0.2901647E+04  0.7818609E-02  0.8272388E-01
       -2   -1    0    0    0  501  0.00000000000E+00  0.00000000000E+00  0.12895676965E+04  0.12895676965E+04  0.25500000920E-02 0.  1.
        2   -1    0    0  501    0  0.00000000000E+00  0.00000000000E+00 -0.16322433684E+04  0.16322433684E+04  0.25500000920E-02 0. -1.
    10030    2    1    2    0    0  0.00000000000E+00  0.00000000000E+00 -0.34267567187E+03  0.29218110649E+04  0.29016466502E+04 0.  0.
        3    1    3    3  502    0 -0.10920827292E+04 -0.75354475334E+02 -0.11300917649E+04  0.15733500538E+04  0.10100000352E+00 0. -1.
       -3    1    3    3    0  502  0.10920827292E+04  0.75354475334E+02  0.78741609308E+03  0.13484610110E+04  0.10100000352E+00 0.  1.
</event>
<event>
 5   0  0.5730920E-06  0.3150079E+04  0.7818609E-02  0.8202127E-01
        1   -1    0    0  501    0  0.00000000000E+00  0.00000000000E+00  0.21200513415E+04  0.21200513415E+04  0.50400001928E-02 0. -1.
       -1   -1    0    0    0  501  0.00000000000E+00  0.00000000000E+00 -0.11701366630E+04  0.11701366630E+04  0.50400001928E-02 0.  1.
    10030    2    1    2    0    0  0.00000000000E+00  0.00000000000E+00  0.94991467844E+03  0.32901880045E+04  0.31500792385E+04 0.  0.
        1    1    3    3  502    0  0.12089750282E+04  0.88603090615E+03  0.98029297090E+03  0.17909901436E+04  0.50400001928E-02 0.  1.
       -1    1    3    3    0  502 -0.12089750282E+04 -0.88603090615E+03 -0.30378292460E+02  0.14991978609E+04  0.50400001928E-02 0. -1.
</event>
<event>
 5   0  0.5329891E-06  0.2995084E+04  0.7818609E-02  0.8245136E-01
       -1   -1    0    0    0  501  0.00000000000E+00  0.00000000000E+00  0.20955805527E+04  0.20955805527E+04  0.50400001928E-02 0.  1.
        1   -1    0    0  501    0  0.00000000000E+00  0.00000000000E+00 -0.10701721862E+04  0.10701721863E+04  0.50400001928E-02 0. -1.
    10030    2    1    2    0    0  0.00000000000E+00  0.00000000000E+00  0.10254083665E+04  0.31657527390E+04  0.29950839865E+04 0.  0.
        4    1    3    3  502    0 -0.69168885193E+03 -0.25520847347E+03 -0.86505418205E+03  0.11366112720E+04  0.12699999809E+01 0. -1.
       -4    1    3    3    0  502  0.69168885193E+03  0.25520847347E+03  0.18904625485E+04  0.20291414670E+04  0.12699999809E+01 0.  1.
</event>
<event>
 5   0  0.1423692E-05  0.2717970E+04  0.7818609E-02  0.8329198E-01
        2   -1    0    0  501    0  0.00000000000E+00  0.00000000000E+00  0.24364560724E+04  0.24364560724E+04  0.25500000920E-02 0.  1.
       -2   -1    0    0    0  501  0.00000000000E+00  0.00000000000E+00 -0.75800278910E+03  0.75800278911E+03  0.25500000920E-02 0. -1.
    10030    2    1    2    0    0  0.00000000000E+00  0.00000000000E+00  0.16784532833E+04  0.31944588615E+04  0.27179701974E+04 0.  0.
        3    1    3    3  502    0  0.47487264087E+03  0.51654232177E+03  0.22070984512E+04  0.23159455042E+04  0.10100000352E+00 0.  1.
       -3    1    3    3    0  502 -0.47487264087E+03 -0.51654232177E+03 -0.52864516787E+03  0.87851335728E+03  0.10100000352E+00 0. -1.
</event>
<event>
 5   0  0.7032692E-06  0.3090312E+04  0.7818609E-02  0.8218402E-01
        1   -1    0    0  501    0  0.00000000000E+00  0.00000000000E+00  0.21019555374E+04  0.21019555374E+04  0.50400001928E-02 0.  1.
       -1   -1    0    0    0  501  0.00000000000E+00  0.00000000000E+00 -0.11358507380E+04  0.11358507380E+04  0.50400001928E-02 0. -1.
    10030    2    1    2    0    0  0.00000000000E+00  0.00000000000E+00  0.96610479940E+03  0.32378062754E+04  0.30903124427E+04 0.  0.
        5    1    3    3  502    0 -0.12410579009E+04 -0.62451925232E+03 -0.22541355695E+03  0.14075092794E+04  0.46999998093E+01 0. -1.
       -5    1    3    3    0  502  0.12410579009E+04  0.62451925232E+03  0.11915183563E+04  0.18302969960E+04  0.46999998093E+01 0.  1.
</event>
<event>
 5   0  0.1480547E-05  0.3108362E+04  0.7818609E-02  0.8213447E-01
        2   -1    0    0  501    0  0.00000000000E+00  0.00000000000E+00  0.25373091309E+04  0.25373091309E+04  0.25500000920E-02 0. -1.
       -2   -1    0    0    0  501  0.00000000000E+00  0.00000000000E+00 -0.95198444031E+03  0.95198444031E+03  0.25500000920E-02 0.  1.
    10030    2    1    2    0    0  0.00000000000E+00  0.00000000000E+00  0.15853246906E+04  0.34892935712E+04  0.31083621493E+04 0.  0.
        1    1    3    3  502    0 -0.10917289263E+04  0.18609042965E+03  0.20166939920E+04  0.23007729905E+04  0.50400001928E-02 0. -1.
       -1    1    3    3    0  502  0.10917289263E+04 -0.18609042965E+03 -0.43136930144E+03  0.11885205807E+04  0.50400001928E-02 0.  1.
</event>
<event>
 5   0  0.5730920E-06  0.2670657E+04  0.7818609E-02  0.8344589E-01
        1   -1    0    0  501    0  0.00000000000E+00  0.00000000000E+00  0.20644853900E+04  0.20644853901E+04  0.50400001928E-02 0.  1.
       -1   -1    0    0    0  501  0.00000000000E+00  0.00000000000E+00 -0.86370318240E+03  0.86370318241E+03  0.50400001928E-02 0. -1.
    10030    2    1    2    0    0  0.00000000000E+00  0.00000000000E+00  0.12007822076E+04  0.29281885725E+04  0.26706572984E+04 0.  0.
        1    1    3    3  502    0  0.31472270717E+03 -0.71224698754E+03 -0.58899859349E+03  0.97635316194E+03  0.50400001928E-02 0. -1.
       -1    1    3    3    0  502 -0.31472270717E+03  0.71224698754E+03  0.17897808011E+04  0.19518354105E+04  0.50400001928E-02 0.  1.
</event>
<event>
 5   0  0.1345931E-05  0.2966381E+04  0.7818609E-02  0.8253397E-01
       -2   -1    0    0    0  501  0.00000000000E+00  0.00000000000E+00  0.98953072803E+03  0.98953072803E+03  0.25500000920E-02 0. -1.
        2   -1    0    0  501    0  0.00000000000E+00  0.00000000000E+00 -0.22231286898E+04  0.22231286898E+04  0.25500000920E-02 0.  1.
    10030    2    1    2    0    0  0.00000000000E+00  0.00000000000E+00 -0.12335979617E+04  0.32126594178E+04  0.29663810618E+04 0.  0.
        2    1    3    3  502    0 -0.11436818292E+04  0.89006226778E+03 -0.95865569240E+03  0.17375959552E+04  0.25500000920E-02 0.  1.
       -2    1    3    3    0  502  0.11436818292E+04 -0.89006226778E+03 -0.27494226933E+03  0.14750634626E+04  0.25500000920E-02 0. -1.
</event>
<event>
 5   0  0.5522695E-06  0.3042629E+04  0.7818609E-02  0.8231662E-01
       -1   -1    0    0    0  501  0.00000000000E+00  0.00000000000E+00  0.96787774112E+03  0.96787774113E+03  0.50400001928E-02 0.  1.
        1   -1    0    0  501    0  0.00000000000E+00  0.00000000000E+00 -0.23912082200E+04  0.23912082200E+04  0.50400001928E-02 0. -1.
    10030    2    1    2    0    0  0.00000000000E+00  0.00000000000E+00 -0.14233304789E+04  0.33590859611E+04  0.30426286073E+04 0.  0.
        3    1    3    3  502    0 -0.26316825459E+03 -0.14841695814E+04 -0.48438885639E+03  0.15832401747E+04  0.10100000352E+00 0.  1.
       -3    1    3    3    0  502  0.26316825459E+03  0.14841695814E+04 -0.93894162246E+03  0.17758457864E+04  0.10100000352E+00 0. -1.
</event>
<event>
 5   0  0.1388724E-05  0.3053015E+04  0.7818609E-02  0.8228752E-01
        2   -1    0    0  501    0  0.00000000000E+00  0.00000000000E+00  0.24731396265E+04  0.24731396265E+04  0.25500000920E-02 0. -1.
       -2   -1    0    0    0  501  0.00000000000E+00  0.00000000000E+00 -0.94221316581E+03  0.94221316581E+03  0.25500000920E-02 0.  1.
    10030    2    1    2    0    0  0.00000000000E+00  0.00000000000E+00  0.15309264607E+04  0.34153527924E+04  0.30530147180E+04 0.  0.
        4    1    3    3  502    0  0.38890181269E+03 -0.97891739573E+03 -0.47051552573E+03  0.11536508833E+04  0.12699999809E+01 0.  1.
       -4    1    3    3    0  502 -0.38890181269E+03  0.97891739573E+03  0.20014419865E+04  0.22617019091E+04  0.12699999809E+01 0. -1.
</event>
<event>
 5   0  0.1480547E-05  0.2647963E+04  0.7818609E-02  0.8352089E-01
       -2   -1    0    0    0  501  0.00000000000E+00  0.00000000000E+00  0.11397850020E+04  0.11397850020E+04  0.25500000920E-02 0. -1.
        2   -1    0    0  501    0  0.00000000000E+00  0.00000000000E+00 -0.15379449948E+04  0.15379449948E+04  0.25500000920E-02 0.  1.
    10030    2    1    2    0    0  0.00000000000E+00  0.00000000000E+00 -0.39815999279E+03  0.26777299968E+04  0.26479627180E+04 0.  0.
        1    1    3    3  502    0 -0.25059166867E+03  0.37404039796E+03 -0.14581566718E+04  0.15260810212E+04  0.50400001928E-02 0.  1.
       -1    1    3    3    0  502  0.25059166867E+03 -0.37404039796E+03  0.10599966790E+04  0.11516489757E+04  0.50400001928E-02 0. -1.
</event>
<event>
 5   0  0.5522695E-06  0.3033156E+04  0.7818609E-02  0.8234326E-01
        1   -1    0    0  501    0  0.00000000000E+00  0.00000000000E+00  0.26246755734E+04  0.26246755734E+04  0.50400001928E-02 0.  1.
       -1   -1    0    0    0  501  0.00000000000E+00  0.00000000000E+00 -0.87630224014E+03  0.87630224016E+03  0.50400001928E-02 0. -1.
    10030    2    1    2    0    0  0.00000000000E+00  0.00000000000E+00  0.17483733332E+04  0.35009778136E+04  0.30331561679E+04 0.  0.
        3    1    3    3  502    0 -0.11867767406E+04  0.40991494193E+03 -0.10761958873E+03  0.12601790657E+04  0.10100000352E+00 0. -1.
       -3    1    3    3    0  502  0.11867767406E+04 -0.40991494193E+03  0.18559929220E+04  0.22407987478E+04  0.10100000352E+00 0.  1.
</event>
<event>
 5   0  0.7032692E-06  0.2990518E+04  0.7818609E-02  0.8246444E-01
       -1   -1    0    0    0  501  0.00000000000E+00  0.00000000000E+00  0.20384285935E+04  0.20384285935E+04  0.50400001928E-02 0. -1.
        1   -1    0    0  501    0  0.00000000000E+00  0.00000000000E+00 -0.10968248860E+04  0.10968248860E+04  0.50400001928E-02 0.  1.
    10030    2    1    2    0    0  0.00000000000E+00  0.00000000000E+00  0.94160370751E+03  0.31352534795E+04  0.29905178212E+04 0.  0.
        5    1    3    3  502    0  0.93185475568E+03 -0.11687579204E+04  0.43117354644E+03  0.15557252583E+04  0.46999998093E+01 0. -1.
       -5    1    3    3    0  502 -0.93185475568E+03  0.11687579204E+04  0.51043016107E+03  0.15795282212E+04  0.46999998093E+01 0.  1.
</event>
<event>
 5   0  0.5522695E-06  0.1549520E+04  0.7818609E-02  0.8852174E-01
       -1   -1    0    0    0  501  0.00000000000E+00  0.00000000000E+00  0.11557520844E+04  0.11557520844E+04  0.50400001928E-02 0. -1.
        1   -1    0    0  501    0  0.00000000000E+00  0.00000000000E+00 -0.51936166006E+03  0.51936166009E+03  0.50400001928E-02 0.  1.
    10030    2    1    2    0    0  0.00000000000E+00  0.00000000000E+00  0.63639042436E+03  0.16751137445E+04  0.15495203403E+04 0.  0.
        3    1    3    3  502    0  0.41746639370E+03 -0.57732881688E+03  0.64728055327E+03  0.96257928376E+03  0.10100000352E+00 0. -1.
       -3    1    3    3    0  502 -0.41746639370E+03  0.57732881688E+03 -0.10890128914E+02  0.71253446077E+03  0.10100000352E+00 0.  1.
</event>
<event>
 5   0  0.4806125E-06  0.2997033E+04  0.7818609E-02  0.8244579E-01
        3   -1    0    0  501    0  0.00000000000E+00  0.00000000000E+00  0.13029086585E+04  0.13029086624E+04  0.10100000352E+00 0.  1.
       -3   -1    0    0    0  501  0.00000000000E+00  0.00000000000E+00 -0.17234916108E+04  0.17234916138E+04  0.10100000352E+00 0. -1.
    10030    2    1    2    0    0  0.00000000000E+00  0.00000000000E+00 -0.42058295227E+03  0.30264002762E+04  0.29970333018E+04 0.  0.
        1    1    3    3  502    0  0.12414611215E+04  0.50439568295E+03 -0.88761835975E+03  0.16073291740E+04  0.50400001928E-02 0. -1.
       -1    1    3    3    0  502 -0.12414611215E+04 -0.50439568295E+03  0.46703540748E+03  0.14190711022E+04  0.50400001928E-02 0.  1.
</event>
<event>
 5   0  0.1345931E-05  0.3090880E+04  0.7818609E-02  0.8218245E-01
       -2   -1    0    0    0  501  0.00000000000E+00  0.00000000000E+00  0.11532546952E+04  0.11532546952E+04  0.25500000920E-02 0.  1.
        2   -1    0    0  501    0  0.00000000000E+00  0.00000000000E+00 -0.20709948109E+04  0.20709948109E+04  0.25500000920E-02 0. -1.
    10030    2    1    2    0    0  0.00000000000E+00  0.00000000000E+00 -0.91774011573E+03  0.32242495061E+04  0.30908798031E+04 0.  0.
        2    1    3    3  502    0  0.10382986866E+04  0.19528815895E+03  0.71770949182E+03  0.12772268954E+04  0.25500000920E-02 0.  1.
       -2    1    3    3    0  502 -0.10382986866E+04 -0.19528815895E+03 -0.16354496076E+04  0.19470226107E+04  0.25500000920E-02 0. -1.
</event>
<event>
 5   0  0.5522695E-06  0.2978416E+04  0.7818609E-02  0.8249921E-01
        1   -1    0    0  501    0  0.00000000000E+00  0.00000000000E+00  0.16274402890E+04  0.16274402890E+04  0.50400001928E-02 0.  1.
       -1   -1    0    0    0  501  0.00000000000E+00  0.00000000000E+00 -0.13627171238E+04  0.13627171238E+04  0.50400001928E-02 0. -1.
    10030    2    1    2    0    0  0.00000000000E+00  0.00000000000E+00  0.26472316515E+03  0.29901574128E+04  0.29784161897E+04 0.  0.
        3    1    3    3  502    0 -0.12425817699E+04  0.82081061153E+03  0.13125055590E+03  0.14949803455E+04  0.10100000352E+00 0.  1.
       -3    1    3    3    0  502  0.12425817699E+04 -0.82081061153E+03  0.13347260925E+03  0.14951770673E+04  0.10100000352E+00 0. -1.
</event>
<event>
 5   0  0.1480547E-05  0.2017404E+04  0.7818609E-02  0.8598527E-01
       -2   -1    0    0    0  501  0.00000000000E+00  0.00000000000E+00  0.14828409242E+04  0.14828409242E+04  0.25500000920E-02 0.  1.
        2   -1    0    0  501    0  0.00000000000E+00  0.00000000000E+00 -0.68616923708E+03  0.68616923709E+03  0.25500000920E-02 0. -1.
    10030    2    1    2    0    0  0.00000000000E+00  0.00000000000E+00  0.79667168713E+03  0.21690101613E+04  0.20174041000E+04 0.  0.
        1    1    3    3  502    0 -0.35694389245E+02 -0.10069601690E+04  0.44918657948E+03  0.11031824213E+04  0.50400001928E-02 0.  1.
       -1    1    3    3    0  502  0.35694389245E+02  0.10069601690E+04  0.34748510765E+03  0.10658277400E+04  0.50400001928E-02 0. -1.
</event>
<event>
 5   0  0.1388724E-05  0.2813856E+04  0.7818609E-02  0.8298979E-01
        2   -1    0    0  501    0  0.00000000000E+00  0.00000000000E+00  0.19618238403E+04  0.19618238403E+04  0.25500000920E-02 0.  1.
       -2   -1    0    0    0  501  0.00000000000E+00  0.00000000000E+00 -0.10089830213E+04  0.10089830213E+04  0.25500000920E-02 0. -1.
    10030    2    1    2    0    0  0.00000000000E+00  0.00000000000E+00  0.95284081899E+03  0.29708068616E+04  0.28138563898E+04 0.  0.
        4    1    3    3  502    0  0.38096624863E+03 -0.26633246969E+02 -0.95321361338E+03  0.10268702051E+04  0.12699999809E+01 0. -1.
       -4    1    3    3    0  502 -0.38096624863E+03  0.26633246969E+02  0.19060544324E+04  0.19439366565E+04  0.12699999809E+01 0.  1.
</event>
<event>
 5   0  0.5522695E-06  0.2928958E+04  0.7818609E-02  0.8264314E-01
       -1   -1    0    0    0  501  0.00000000000E+00  0.00000000000E+00  0.11980232766E+04  0.11980232766E+04  0.50400001928E-02 0. -1.
        1   -1    0    0  501    0  0.00000000000E+00  0.00000000000E+00 -0.17901974861E+04  0.17901974861E+04  0.50400001928E-02 0.  1.
    10030    2    1    2    0    0  0.00000000000E+00  0.00000000000E+00 -0.59217420953E+03  0.29882207627E+04  0.29289576699E+04 0.  0.
        3    1    3    3  502    0  0.12332312893E+04 -0.46943817149E+03  0.35195526062E+03  0.13656881509E+04  0.10100000352E+00 0. -1.
       -3    1    3    3    0  502 -0.12332312893E+04  0.46943817149E+03 -0.94412947015E+03  0.16225326118E+04  0.10100000352E+00 0.  1.
</event>
<event>
 5   0  0.1423692E-05  0.2980638E+04  0.7818609E-02  0.8249282E-01
        2   -1    0    0  501    0  0.00000000000E+00  0.00000000000E+00  0.23698261741E+04  0.23698261741E+04  0.25500000920E-02 0. -1.
       -2   -1    0    0    0  501  0.00000000000E+00  0.00000000000E+00 -0.93722066108E+03  0.93722066109E+03  0.25500000920E-02 0.  1.
    10030    2    1    2    0    0  0.00000000000E+00  0.00000000000E+00  0.14326055131E+04  0.33070468352E+04  0.29806375517E+04 0.  0.
        3    1    3    3  502    0  0.96586919542E+03 -0.58664719222E+03  0.17942941430E+04  0.21205069471E+04  0.10100000352E+00 0. -1.
       -3    1    3    3    0  502 -0.96586919542E+03  0.58664719222E+03 -0.36168862999E+03  0.11865398881E+04  0.10100000352E+00 0.  1.
</event>
<event>
 5   0  0.1480547E-05  0.2998005E+04  0.7818609E-02  0.8244301E-01
       -2   -1    0    0    0  501  0.00000000000E+00  0.00000000000E+00  0.18414587670E+04  0.18414587670E+04  0.25500000920E-02 0.  1.
        2   -1    0    0  501    0  0.00000000000E+00  0.00000000000E+00 -0.12202325447E+04  0.12202325447E+04  0.25500000920E-02 0. -1.
    10030    2    1    2    0    0  0.00000000000E+00  0.00000000000E+00  0.62122622234E+03  0.30616913116E+04  0.29980046145E+04 0.  0.
        1    1    3    3  502    0  0.11159516070E+04  0.13337284150E+03  0.13235871613E+04  0.17363810866E+04  0.50400001928E-02 0.  1.
       -1    1    3    3    0  502 -0.11159516070E+04 -0.13337284150E+03 -0.70236093898E+03  0.13253102251E+04  0.50400001928E-02 0. -1.
</event>
<event>
 5   0  0.5392262E-06  0.3248653E+04  0.7818609E-02  0.8176085E-01
       -1   -1    0    0    0  501  0.00000000000E+00  0.00000000000E+00  0.15410802971E+04  0.15410802971E+04  0.50400001928E-02 0. -1.
        1   -1    0    0  501    0  0.00000000000E+00  0.00000000000E+00 -0.17120690378E+04  0.17120690378E+04  0.50400001928E-02 0.  1.
    10030    2    1    2    0    0  0.00000000000E+00  0.00000000000E+00 -0.17098874063E+03  0.32531493349E+04  0.32486525585E+04 0.  0.
        2    1    3    3  502    0  0.11710063859E+04  0.51726982185E+03  0.91569545812E+03  0.15739511417E+04  0.25500000920E-02 0. -1.
       -2    1    3    3    0  502 -0.11710063859E+04 -0.51726982185E+03 -0.10866841988E+04  0.16791981932E+04  0.25500000920E-02 0.  1.
</event>
<event>
 5   0  0.7032692E-06  0.2988247E+04  0.7818609E-02  0.8247095E-01
       -1   -1    0    0    0  501  0.00000000000E+00  0.00000000000E+00  0.15098131482E+04  0.15098131482E+04  0.50400001928E-02 0. -1.
        1   -1    0    0  501    0  0.00000000000E+00  0.00000000000E+00 -0.14785968946E+04  0.14785968946E+04  0.50400001928E-02 0.  1.
    10030    2    1    2    0    0  0.00000000000E+00  0.00000000000E+00  0.31216253578E+02  0.29884100427E+04  0.29882469993E+04 0.  0.
        5    1    3    3  502    0 -0.49562686037E+01 -0.96658968292E+03 -0.11237796101E+04  0.14823032355E+04  0.46999998093E+01 0.  1.
       -5    1    3    3    0  502  0.49562686037E+01  0.96658968292E+03  0.11549958637E+04  0.15061068073E+04  0.46999998093E+01 0. -1.
</event>
<event>
 5   0  0.5730920E-06  0.2982342E+04  0.7818609E-02  0.8248791E-01
        1   -1    0    0  501    0  0.00000000000E+00  0.00000000000E+00  0.13113446236E+04  0.13113446236E+04  0.50400001928E-02 0.  1.
       -1   -1    0    0    0  501  0.00000000000E+00  0.00000000000E+00 -0.16956574463E+04  0.16956574463E+04  0.50400001928E-02 0. -1.
    10030    2    1    2    0    0  0.00000000000E+00  0.00000000000E+00 -0.38431282268E+03  0.30070020699E+04  0.29823422175E+04 0.  0.
        1    1    3    3  502    0 -0.10580346922E+04 -0.90102218891E+01  0.86728045811E+03  0.13680986759E+04  0.50400001928E-02 0.  1.
       -1    1    3    3    0  502  0.10580346922E+04  0.90102218891E+01 -0.12515932808E+04  0.16389033939E+04  0.50400001928E-02 0. -1.
</event>
<event>
 5   0  0.1523029E-05  0.2947575E+04  0.7818609E-02  0.8258861E-01
        2   -1    0    0  501    0  0.00000000000E+00  0.00000000000E+00  0.23090350118E+04  0.23090350118E+04  0.25500000920E-02 0. -1.
       -2   -1    0    0    0  501  0.00000000000E+00  0.00000000000E+00 -0.94067448934E+03  0.94067448934E+03  0.25500000920E-02 0.  1.
    10030    2    1    2    0    0  0.00000000000E+00  0.00000000000E+00  0.13683605224E+04  0.32497095011E+04  0.29475754990E+04 0.  0.
        5    1    3    3  502    0  0.12076470491E+04  0.70389023673E+03  0.11991273014E+04  0.18416843474E+04  0.46999998093E+01 0. -1.
       -5    1    3    3    0  502 -0.12076470491E+04 -0.70389023673E+03  0.16923322106E+03  0.14080251537E+04  0.46999998093E+01 0.  1.
</event>
<event>
 5   0  0.1423692E-05  0.2884779E+04  0.7818609E-02  0.8277421E-01
       -2   -1    0    0    0  501  0.00000000000E+00  0.00000000000E+00  0.11588191970E+04  0.11588191970E+04  0.25500000920E-02 0. -1.
        2   -1    0    0  501    0  0.00000000000E+00  0.00000000000E+00 -0.17953515364E+04  0.17953515364E+04  0.25500000920E-02 0.  1.
    10030    2    1    2    0    0  0.00000000000E+00  0.00000000000E+00 -0.63653233944E+03  0.29541707335E+04  0.28847792469E+04 0.  0.
        3    1    3    3  502    0  0.87152773724E+02  0.10958683738E+04  0.63798606324E+03  0.12710426137E+04  0.10100000352E+00 0. -1.
       -3    1    3    3    0  502 -0.87152773724E+02 -0.10958683738E+04 -0.12745184027E+04  0.16831281198E+04  0.10100000352E+00 0.  1.
</event>
<event>
 5   0  0.1388724E-05  0.2712307E+04  0.7818609E-02  0.8331023E-01
       -2   -1    0    0    0  501  0.00000000000E+00  0.00000000000E+00  0.94186056767E+03  0.94186056768E+03  0.25500000920E-02 0. -1.
        2   -1    0    0  501    0  0.00000000000E+00  0.00000000000E+00 -0.19526803217E+04  0.19526803217E+04  0.25500000920E-02 0.  1.
    10030    2    1    2    0    0  0.00000000000E+00  0.00000000000E+00 -0.10108197541E+04  0.28945408894E+04  0.27123072070E+04 0.  0.
        4    1    3    3  502    0  0.85530906735E+03  0.97649629001E+03 -0.92427578570E+03  0.15935450875E+04  0.12699999809E+01 0.  1.
       -4    1    3    3    0  502 -0.85530906735E+03 -0.97649629001E+03 -0.86543968350E+02  0.13009958019E+04  0.12699999809E+01 0. -1.
</event>
<event>
 5   0  0.1423692E-05  0.3067495E+04  0.7818609E-02  0.8224716E-01
        2   -1    0    0  501    0  0.00000000000E+00  0.00000000000E+00  0.14670669074E+04  0.14670669074E+04  0.25500000920E-02 0. -1.
       -2   -1    0    0    0  501  0.00000000000E+00  0.00000000000E+00 -0.16034587831E+04  0.16034587831E+04  0.25500000920E-02 0.  1.
    10030    2    1    2    0    0  0.00000000000E+00  0.00000000000E+00 -0.13639187564E+03  0.30705256905E+04  0.30674949507E+04 0.  0.
        3    1    3    3  502    0 -0.14511058544E+04  0.87461835669E+02  0.42118743622E+03  0.15135245753E+04  0.10100000352E+00 0. -1.
       -3    1    3    3    0  502  0.14511058544E+04 -0.87461835669E+02 -0.55757931186E+03  0.15570011152E+04  0.10100000352E+00 0.  1.
</event>
<event>
 5   0  0.7032692E-06  0.3013067E+04  0.7818609E-02  0.8240009E-01
        1   -1    0    0  501    0  0.00000000000E+00  0.00000000000E+00  0.16349439477E+04  0.16349439477E+04  0.50400001928E-02 0.  1.
       -1   -1    0    0    0  501  0.00000000000E+00  0.00000000000E+00 -0.13882089282E+04  0.13882089282E+04  0.50400001928E-02 0. -1.
    10030    2    1    2    0    0  0.00000000000E+00  0.00000000000E+00  0.24673501948E+03  0.30231528759E+04  0.30130673974E+04 0.  0.
        5    1    3    3  502    0 -0.87388130254E+03 -0.68479053604E+03  0.11451155191E+04  0.15949665361E+04  0.46999998093E+01 0.  1.
       -5    1    3    3    0  502  0.87388130254E+03  0.68479053604E+03 -0.89838049963E+03  0.14281863398E+04  0.46999998093E+01 0. -1.
</event>
<event>
 5   0  0.5329891E-06  0.3112148E+04  0.7818609E-02  0.8212412E-01
       -1   -1    0    0    0  501  0.00000000000E+00  0.00000000000E+00  0.15798286165E+04  0.15798286165E+04  0.50400001928E-02 0. -1.
        1   -1    0    0  501    0  0.00000000000E+00  0.00000000000E+00 -0.15326769810E+04  0.15326769810E+04  0.50400001928E-02 0.  1.
    10030    2    1    2    0    0  0.00000000000E+00  0.00000000000E+00  0.47151635563E+02  0.31125055975E+04  0.31121484247E+04 0.  0.
        4    1    3    3  502    0 -0.34634725265E+02 -0.16570221474E+03  0.15705915882E+04  0.15796886839E+04  0.12699999809E+01 0. -1.
       -4    1    3    3    0  502  0.34634725265E+02  0.16570221474E+03 -0.15234399527E+04  0.15328169136E+04  0.12699999809E+01 0.  1.
</event>
<event>
 5   0  0.7032692E-06  0.2946567E+04  0.7818609E-02  0.8259156E-01
        1   -1    0    0  501    0  0.00000000000E+00  0.00000000000E+00  0.14924719939E+04  0.14924719939E+04  0.50400001928E-02 0. -1.
       -1   -1    0    0    0  501  0.00000000000E+00  0.00000000000E+00 -0.14543420704E+04  0.14543420704E+04  0.50400001928E-02 0.  1.
    10030    2    1    2    0    0  0.00000000000E+00  0.00000000000E+00  0.38129923487E+02  0.29468140643E+04  0.29465673654E+04 0.  0.
        5    1    3    3  502    0  0.19083802579E+03  0.82152079279E+03 -0.11890209251E+04  0.14577751594E+04  0.46999998093E+01 0.  1.
       -5    1    3    3    0  502 -0.19083802579E+03 -0.82152079279E+03  0.12271508486E+04  0.14890389049E+04  0.46999998093E+01 0. -1.
</event>
<event>
 5   0  0.5329891E-06  0.3103201E+04  0.7818609E-02  0.8214860E-01
       -1   -1    0    0    0  501  0.00000000000E+00  0.00000000000E+00  0.13982245934E+04  0.13982245934E+04  0.50400001928E-02 0. -1.
        1   -1    0    0  501    0  0.00000000000E+00  0.00000000000E+00 -0.17218007237E+04  0.17218007237E+04  0.50400001928E-02 0.  1.
    10030    2    1    2    0    0  0.00000000000E+00  0.00000000000E+00 -0.32357613025E+03  0.31200253171E+04  0.31032010034E+04 0.  0.
        4    1    3    3  502    0  0.14026579515E+04  0.60460308051E+03 -0.43615634607E+03  0.15884672439E+04  0.12699999809E+01 0.  1.
       -4    1    3    3    0  502 -0.14026579515E+04 -0.60460308051E+03  0.11258021582E+03  0.15315580732E+04  0.12699999809E+01 0. -1.
</event>
<event>
 5   0  0.1423692E-05  0.1872993E+04  0.7818609E-02  0.8668418E-01
       -2   -1    0    0    0  501  0.00000000000E+00  0.00000000000E+00  0.95294057678E+03  0.95294057679E+03  0.25500000920E-02 0.  1.
        2   -1    0    0  501    0  0.00000000000E+00  0.00000000000E+00 -0.92033572069E+03  0.92033572069E+03  0.25500000920E-02 0. -1.
    10030    2    1    2    0    0  0.00000000000E+00  0.00000000000E+00  0.32604856095E+02  0.18732762975E+04  0.18729925280E+04 0.  0.
        3    1    3    3  502    0 -0.17440266112E+03  0.64658100476E+03 -0.63842791454E+03  0.92524239861E+03  0.10100000352E+00 0. -1.
       -3    1    3    3    0  502  0.17440266112E+03 -0.64658100476E+03  0.67103277063E+03  0.94803389886E+03  0.10100000352E+00 0.  1.
</event>
<event>
 5   0  0.5522695E-06  0.3142221E+04  0.7818609E-02  0.8204245E-01
       -1   -1    0    0    0  501  0.00000000000E+00  0.00000000000E+00  0.15433411765E+04  0.15433411765E+04  0.50400001928E-02 0.  1.
        1   -1    0    0  501    0  0.00000000000E+00  0.00000000000E+00 -0.15993795648E+04  0.15993795648E+04  0.50400001928E-02 0. -1.
    10030    2    1    2    0    0  0.00000000000E+00  0.00000000000E+00 -0.56038388336E+02  0.31427207413E+04  0.31422210865E+04 0.  0.
        3    1    3    3  502    0 -0.14050376193E+04  0.68373223711E+03 -0.19165402765E+03  0.15742781712E+04  0.10100000352E+00 0. -1.
       -3    1    3    3    0  502  0.14050376193E+04 -0.68373223711E+03  0.13561563931E+03  0.15684425701E+04  0.10100000352E+00 0.  1.
</event>
<event>
 5   0  0.1523029E-05  0.3278546E+04  0.7818609E-02  0.8168376E-01
        2   -1    0    0  501    0  0.00000000000E+00  0.00000000000E+00  0.14267172287E+04  0.14267172287E+04  0.25500000920E-02 0. -1.
       -2   -1    0    0    0  501  0.00000000000E+00  0.00000000000E+00 -0.18834953872E+04  0.18834953872E+04  0.25500000920E-02 0.  1.
    10030    2    1    2    0    0  0.00000000000E+00  0.00000000000E+00 -0.45677815848E+03  0.33102126158E+04  0.32785456038E+04 0.  0.
        5    1    3    3  502    0 -0.82881979012E+03 -0.12741326308E+04  0.39141073693E+03  0.15695797719E+04  0.46999998093E+01 0. -1.
       -5    1    3    3    0  502  0.82881979012E+03  0.12741326308E+04 -0.84818889541E+03  0.17406328440E+04  0.46999998093E+01 0.  1.
</event>
<event>
 5   0  0.1423692E-05  0.2980621E+04  0.7818609E-02  0.8249286E-01
        2   -1    0    0  501    0  0.00000000000E+00  0.00000000000E+00  0.15668938453E+04  0.15668938453E+04  0.25500000920E-02 0.  1.
       -2   -1    0    0    0  501  0.00000000000E+00  0.00000000000E+00 -0.14174706540E+04  0.14174706540E+04  0.25500000920E-02 0. -1.
    10030    2    1    2    0    0  0.00000000000E+00  0.00000000000E+00  0.14942319128E+03  0.29843644992E+04  0.29806214409E+04 0.  0.
        3    1    3    3  502    0 -0.52603761222E+03  0.10086935637E+04  0.10386499168E+04  0.15404453690E+04  0.10100000352E+00 0.  1.
       -3    1    3    3    0  502  0.52603761222E+03 -0.10086935637E+04 -0.88922672557E+03  0.14439191302E+04  0.10100000352E+00 0. -1.
</event>
<event>
 5   0  0.5522695E-06  0.2978557E+04  0.7818609E-02  0.8249881E-01
       -1   -1    0    0    0  501  0.00000000000E+00  0.00000000000E+00  0.10721928115E+04  0.10721928115E+04  0.50400001928E-02 0. -1.
        1   -1    0    0  501    0  0.00000000000E+00  0.00000000000E+00 -0.20686120514E+04  0.20686120514E+04  0.50400001928E-02 0.  1.
    10030    2    1    2    0    0  0.00000000000E+00  0.00000000000E+00 -0.99641923988E+03  0.31408048628E+04  0.29785573496E+04 0.  0.
        3    1    3    3  502    0 -0.29115761626E+03  0.13459345659E+04  0.99814773869E+02  0.13806794025E+04  0.10100000352E+00 0. -1.
       -3    1    3    3    0  502  0.29115761626E+03 -0.13459345659E+04 -0.10962340137E+04  0.17601254604E+04  0.10100000352E+00 0.  1.
</event>
<event>
 5   0  0.1388724E-05  0.2424727E+04  0.7818609E-02  0.8430304E-01
        2   -1    0    0  501    0  0.00000000000E+00  0.00000000000E+00  0.17581358437E+04  0.17581358437E+04  0.25500000920E-02 0. -1.
       -2   -1    0    0    0  501  0.00000000000E+00  0.00000000000E+00 -0.83601345727E+03  0.83601345728E+03  0.25500000920E-02 0.  1.
    10030    2    1    2    0    0  0.00000000000E+00  0.00000000000E+00  0.92212238638E+03  0.25941493009E+04  0.24247269743E+04 0.  0.
        4    1    3    3  502    0 -0.89201363820E+03 -0.71566182479E+03  0.89162806475E+03  0.14501249591E+04  0.12699999809E+01 0. -1.
       -4    1    3    3    0  502  0.89201363820E+03  0.71566182479E+03  0.30494321635E+02  0.11440243419E+04  0.12699999809E+01 0.  1.
</event>
<event>
 5   0  0.1523029E-05  0.2788243E+04  0.7818609E-02  0.8306928E-01
        2   -1    0    0  501    0  0.00000000000E+00  0.00000000000E+00  0.13868284110E+04  0.13868284110E+04  0.25500000920E-02 0. -1.
       -2   -1    0    0    0  501  0.00000000000E+00  0.00000000000E+00 -0.14014524503E+04  0.14014524503E+04  0.25500000920E-02 0.  1.
    10030    2    1    2    0    0  0.00000000000E+00  0.00000000000E+00 -0.14624039329E+02  0.27882808613E+04  0.27882425108E+04 0.  0.
        5    1    3    3  502    0  0.11311990039E+04 -0.71151677059E+03 -0.40441278914E+03  0.13962231539E+04  0.46999998093E+01 0. -1.
       -5    1    3    3    0  502 -0.11311990039E+04  0.71151677059E+03  0.38978874981E+03  0.13920577074E+04  0.46999998093E+01 0.  1.
</event>
<event>
 5   0  0.5392262E-06  0.2947745E+04  0.7818609E-02  0.8258812E-01
       -1   -1    0    0    0  501  0.00000000000E+00  0.00000000000E+00  0.11972425568E+04  0.11972425568E+04  0.50400001928E-02 0.  1.
        1   -1    0    0  501    0  0.00000000000E+00  0.00000000000E+00 -0.18144195923E+04  0.18144195923E+04  0.50400001928E-02 0. -1.
    10030    2    1    2    0    0  0.00000000000E+00  0.00000000000E+00 -0.61717703553E+03  0.30116621491E+04  0.29477451395E+04 0.  0.
        2    1    3    3  502    0  0.84148986815E+03 -0.11993901241E+04 -0.14493256267E+03  0.14722932167E+04  0.25500000920E-02 0.  1.
       -2    1    3    3    0  502 -0.84148986815E+03  0.11993901241E+04 -0.47224447286E+03  0.15393689325E+04  0.25500000920E-02 0. -1.
</event>
<event>
 5   0  0.5329891E-06  0.2923572E+04  0.7818609E-02  0.8265898E-01
       -1   -1    0    0    0  501  0.00000000000E+00  0.00000000000E+00  0.12379313379E+04  0.12379313380E+04  0.50400001928E-02 0. -1.
        1   -1    0    0  501    0  0.00000000000E+00  0.00000000000E+00 -0.17261203245E+04  0.17261203245E+04  0.50400001928E-02 0.  1.
    10030    2    1    2    0    0  0.00000000000E+00  0.00000000000E+00 -0.48818898652E+03  0.29640516624E+04  0.29235720910E+04 0.  0.
        4    1    3    3  502    0  0.13874785299E+04 -0.12942687182E+03 -0.69176096577E+03  0.15557579609E+04  0.12699999809E+01 0. -1.
       -4    1    3    3    0  502 -0.13874785299E+04  0.12942687182E+03  0.20357197925E+03  0.14082937016E+04  0.12699999809E+01 0.  1.
</event>
<event>
 5   0  0.5522695E-06  0.2757706E+04  0.7818609E-02  0.8316521E-01
       -1   -1    0    0    0  501  0.00000000000E+00  0.00000000000E+00  0.12007540838E+04  0.12007540839E+04  0.50400001928E-02 0. -1.
        1   -1    0    0  501    0  0.00000000000E+00  0.00000000000E+00 -0.15833677775E+04  0.15833677775E+04  0.50400001928E-02 0.  1.
    10030    2    1    2    0    0  0.00000000000E+00  0.00000000000E+00 -0.38261369364E+03  0.27841218613E+04  0.27577058038E+04 0.  0.
        3    1    3    3  502    0 -0.19191710869E+03 -0.27770936402E+03 -0.15410050937E+04  0.15775459982E+04  0.10100000352E+00 0.  1.
       -3    1    3    3    0  502  0.19191710869E+03  0.27770936402E+03  0.11583914001E+04  0.12065758631E+04  0.10100000352E+00 0. -1.
</event>
<event>
 5   0  0.7032692E-06  0.2140504E+04  0.7818609E-02  0.8543608E-01
       -1   -1    0    0    0  501  0.00000000000E+00  0.00000000000E+00  0.53102174498E+03  0.53102174500E+03  0.50400001928E-02 0.  1.
        1   -1    0    0  501    0  0.00000000000E+00  0.00000000000E+00 -0.21570471745E+04  0.21570471745E+04  0.50400001928E-02 0. -1.
    10030    2    1    2    0    0  0.00000000000E+00  0.00000000000E+00 -0.16260254296E+04  0.26880689195E+04  0.21405036367E+04 0.  0.
        5    1    3    3  502    0  0.49141428247E+02 -0.86808427053E+03 -0.29330355868E+02  0.86998134491E+03  0.46999998093E+01 0.  1.
       -5    1    3    3    0  502 -0.49141428247E+02  0.86808427053E+03 -0.15966950737E+04  0.18180875746E+04  0.46999998093E+01 0. -1.
</event>
<event>
 5   0  0.1480547E-05  0.3157298E+04  0.7818609E-02  0.8200187E-01
       -2   -1    0    0    0  501  0.00000000000E+00  0.00000000000E+00  0.10103841023E+04  0.10103841023E+04  0.25500000920E-02 0. -1.
        2   -1    0    0  501    0  0.00000000000E+00  0.00000000000E+00 -0.24665201015E+04  0.24665201015E+04  0.25500000920E-02 0.  1.
    10030    2    1    2    0    0  0.00000000000E+00  0.00000000000E+00 -0.14561359992E+04  0.34769042039E+04  0.31572980212E+04 0.  0.
        1    1    3    3  502    0 -0.64538949154E+03  0.54298133190E+03  0.74147345106E+03  0.11230045419E+04  0.50400001928E-02 0. -1.
       -1    1    3    3    0  502  0.64538949154E+03 -0.54298133190E+03 -0.21976094502E+04  0.23538996619E+04  0.50400001928E-02 0.  1.
</event>
<event>
 5   0  0.5730920E-06  0.2989206E+04  0.7818609E-02  0.8246820E-01
        1   -1    0    0  501    0  0.00000000000E+00  0.00000000000E+00  0.17898317881E+04  0.17898317881E+04  0.50400001928E-02 0.  1.
       -1   -1    0    0    0  501  0.00000000000E+00  0.00000000000E+00 -0.12480711943E+04  0.12480711943E+04  0.50400001928E-02 0. -1.
    10030    2    1    2    0    0  0.00000000000E+00  0.00000000000E+00  0.54176059382E+03  0.30379029824E+04  0.29892055783E+04 0.  0.
        1    1    3    3  502    0 -0.32257686377E+03 -0.65323225555E+03  0.15971574073E+04  0.17554714456E+04  0.50400001928E-02 0.  1.
       -1    1    3    3    0  502  0.32257686377E+03  0.65323225555E+03 -0.10553968135E+04  0.12824315368E+04  0.50400001928E-02 0. -1.
</event>
<event>
 5   0  0.1480547E-05  0.2974862E+04  0.7818609E-02  0.8250946E-01
       -2   -1    0    0    0  501  0.00000000000E+00  0.00000000000E+00  0.21691007644E+04  0.21691007644E+04  0.25500000920E-02 0.  1.
        2   -1    0    0  501    0  0.00000000000E+00  0.00000000000E+00 -0.10199856278E+04  0.10199856278E+04  0.25500000920E-02 0. -1.
    10030    2    1    2    0    0  0.00000000000E+00  0.00000000000E+00  0.11491151365E+04  0.31890863922E+04  0.29748624203E+04 0.  0.
        1    1    3    3  502    0 -0.95562865178E+02  0.28429641686E+03  0.21363478844E+04  0.21572990050E+04  0.50400001928E-02 0.  1.
       -1    1    3    3    0  502  0.95562865178E+02 -0.28429641686E+03 -0.98723274787E+03  0.10317873872E+04  0.50400001928E-02 0. -1.
</event>
<event>
 5   0  0.5522695E-06  0.2958569E+04  0.7818609E-02  0.8255662E-01
       -1   -1    0    0    0  501  0.00000000000E+00  0.00000000000E+00  0.10587708895E+04  0.10587708895E+04  0.50400001928E-02 0.  1.
        1   -1    0    0  501    0  0.00000000000E+00  0.00000000000E+00 -0.20668147303E+04  0.20668147303E+04  0.50400001928E-02 0. -1.
    10030    2    1    2    0    0  0.00000000000E+00  0.00000000000E+00 -0.10080438408E+04  0.31255856198E+04  0.29585694317E+04 0.  0.
        3    1    3    3  502    0  0.58387934781E+02  0.14050606576E+04 -0.19113298920E+02  0.14064031893E+04  0.10100000352E+00 0.  1.
       -3    1    3    3    0  502 -0.58387934781E+02 -0.14050606576E+04 -0.98893054192E+03  0.17191824305E+04  0.10100000352E+00 0. -1.
</event>
<event>
 5   0  0.5392262E-06  0.3072943E+04  0.7818609E-02  0.8223203E-01
        1   -1    0    0  501    0  0.00000000000E+00  0.00000000000E+00  0.15367395615E+04  0.15367395615E+04  0.50400001928E-02 0.  1.
       -1   -1    0    0    0  501  0.00000000000E+00  0.00000000000E+00 -0.15362030804E+04  0.15362030804E+04  0.50400001928E-02 0. -1.
    10030    2    1    2    0    0  0.00000000000E+00  0.00000000000E+00  0.53648113412E+00  0.30729426419E+04  0.30729425951E+04 0.  0.
        2    1    3    3  502    0 -0.38032146088E+03  0.64310375623E+03  0.13428468223E+04  0.15367057113E+04  0.25500000920E-02 0.  1.
       -2    1    3    3    0  502  0.38032146088E+03 -0.64310375623E+03 -0.13423103412E+04  0.15362369306E+04  0.25500000920E-02 0. -1.
</event>
<event>
 5   0  0.7032692E-06  0.2990114E+04  0.7818609E-02  0.8246559E-01
       -1   -1    0    0    0  501  0.00000000000E+00  0.00000000000E+00  0.12476631369E+04  0.12476631370E+04  0.50400001928E-02 0. -1.
        1   -1    0    0  501    0  0.00000000000E+00  0.00000000000E+00 -0.17915059808E+04  0.17915059808E+04  0.50400001928E-02 0.  1.
    10030    2    1    2    0    0  0.00000000000E+00  0.00000000000E+00 -0.54384284385E+03  0.30391691178E+04  0.29901143603E+04 0.  0.
        5    1    3    3  502    0  0.12912583839E+04  0.10422583782E+03  0.48662139847E+03  0.13838474318E+04  0.46999998093E+01 0. -1.
       -5    1    3    3    0  502 -0.12912583839E+04 -0.10422583782E+03 -0.10304642423E+04  0.16553216859E+04  0.46999998093E+01 0.  1.
</event>
<event>
 5   0  0.1523029E-05  0.2966624E+04  0.7818609E-02  0.8253326E-01
        2   -1    0    0  501    0  0.00000000000E+00  0.00000000000E+00  0.22012147840E+04  0.22012147840E+04  0.25500000920E-02 0. -1.
       -2   -1    0    0    0  501  0.00000000000E+00  0.00000000000E+00 -0.99954590788E+03  0.99954590788E+03  0.25500000920E-02 0.  1.
    10030    2    1    2    0    0  0.00000000000E+00  0.00000000000E+00  0.12016688761E+04  0.32007606919E+04  0.29666244991E+04 0.  0.
        5    1    3    3  502    0  0.15664218040E+03  0.12142883698E+04 -0.30260538465E+03  0.12611998758E+04  0.46999998093E+01 0.  1.
       -5    1    3    3    0  502 -0.15664218040E+03 -0.12142883698E+04  0.15042742608E+04  0.19395608161E+04  0.46999998093E+01 0. -1.
</event>
<event>
 5   0  0.1523029E-05  0.3082921E+04  0.7818609E-02  0.8220441E-01
        2   -1    0    0  501    0  0.00000000000E+00  0.00000000000E+00  0.24206199781E+04  0.24206199781E+04  0.25500000920E-02 0.  1.
       -2   -1    0    0    0  501  0.00000000000E+00  0.00000000000E+00 -0.98160828132E+03  0.98160828132E+03  0.25500000920E-02 0. -1.
    10030    2    1    2    0    0  0.00000000000E+00  0.00000000000E+00  0.14390116968E+04  0.34022282594E+04  0.30829210930E+04 0.  0.
        5    1    3    3  502    0 -0.11382436296E+04  0.10152733197E+04  0.96553097366E+03  0.18051732950E+04  0.46999998093E+01 0. -1.
       -5    1    3    3    0  502  0.11382436296E+04 -0.10152733197E+04  0.47348072312E+03  0.15970549644E+04  0.46999998093E+01 0.  1.
</event>
<event>
 5   0  0.1523029E-05  0.2926560E+04  0.7818609E-02  0.8265019E-01
        2   -1    0    0  501    0  0.00000000000E+00  0.00000000000E+00  0.19178851618E+04  0.19178851618E+04  0.25500000920E-02 0. -1.
       -2   -1    0    0    0  501  0.00000000000E+00  0.00000000000E+00 -0.11164322313E+04  0.11164322313E+04  0.25500000920E-02 0.  1.
    10030    2    1    2    0    0  0.00000000000E+00  0.00000000000E+00  0.80145293047E+03  0.30343173931E+04  0.29265603090E+04 0.  0.
        5    1    3    3  502    0  0.83199909714E+03  0.42013148092E+03 -0.76882980108E+03  0.12082443097E+04  0.46999998093E+01 0.  1.
       -5    1    3    3    0  502 -0.83199909714E+03 -0.42013148092E+03  0.15702827316E+04  0.18260730834E+04  0.46999998093E+01 0. -1.
</event>
<event>
 5   0  0.5329891E-06  0.2973224E+04  0.7818609E-02  0.8251419E-01
        1   -1    0    0  501    0  0.00000000000E+00  0.00000000000E+00  0.22982964229E+04  0.22982964229E+04  0.50400001928E-02 0.  1.
       -1   -1    0    0    0  501  0.00000000000E+00  0.00000000000E+00 -0.96158818891E+03  0.96158818893E+03  0.50400001928E-02 0. -1.
    10030    2    1    2    0    0  0.00000000000E+00  0.00000000000E+00  0.13367082340E+04  0.32598846119E+04  0.29732236343E+04 0.  0.
        4    1    3    3  502    0 -0.39281790461E+03  0.77701313051E+03 -0.65279440793E+03  0.10882083730E+04  0.12699999809E+01 0. -1.
       -4    1    3    3    0  502  0.39281790461E+03 -0.77701313051E+03  0.19895026419E+04  0.21716762389E+04  0.12699999809E+01 0.  1.
</event>
<event>
 5   0  0.1345931E-05  0.2984295E+04  0.7818609E-02  0.8248230E-01
       -2   -1    0    0    0  501  0.00000000000E+00  0.00000000000E+00  0.11565498872E+04  0.11565498872E+04  0.25500000920E-02 0.  1.
        2   -1    0    0  501    0  0.00000000000E+00  0.00000000000E+00 -0.19251254030E+04  0.19251254030E+04  0.25500000920E-02 0. -1.
    10030    2    1    2    0    0  0.00000000000E+00  0.00000000000E+00 -0.76857551575E+03  0.30816752902E+04  0.29842946019E+04 0.  0.
        2    1    3    3  502    0  0.55296091733E+03  0.83140904268E+03 -0.15292967129E+04  0.18264049957E+04  0.25500000920E-02 0. -1.
       -2    1    3    3    0  502 -0.55296091733E+03 -0.83140904268E+03  0.76072119716E+03  0.12552702945E+04  0.25500000920E-02 0.  1.
</event>
<event>
 5   0  0.1423692E-05  0.2924337E+04  0.7818609E-02  0.8265673E-01
        2   -1    0    0  501    0  0.00000000000E+00  0.00000000000E+00  0.19426915416E+04  0.19426915416E+04  0.25500000920E-02 0. -1.
       -2   -1    0    0    0  501  0.00000000000E+00  0.00000000000E+00 -0.11005026792E+04  0.11005026792E+04  0.25500000920E-02 0.  1.
    10030    2    1    2    0    0  0.00000000000E+00  0.00000000000E+00  0.84218886239E+03  0.30431942208E+04  0.29243373583E+04 0.  0.
        3    1    3    3  502    0 -0.96540290877E+03 -0.19894274820E+03  0.15449689047E+04  0.18326237803E+04  0.10100000352E+00 0. -1.
       -3    1    3    3    0  502  0.96540290877E+03  0.19894274820E+03 -0.70278004231E+03  0.12105704405E+04  0.10100000352E+00 0.  1.
</event>
<event>
 5   0  0.5730920E-06  0.2785379E+04  0.7818609E-02  0.8307822E-01
       -1   -1    0    0    0  501  0.00000000000E+00  0.00000000000E+00  0.14239972047E+04  0.14239972047E+04  0.50400001928E-02 0.  1.
        1   -1    0    0  501    0  0.00000000000E+00  0.00000000000E+00 -0.13620704774E+04  0.13620704774E+04  0.50400001928E-02 0. -1.
    10030    2    1    2    0    0  0.00000000000E+00  0.00000000000E+00  0.61926727360E+02  0.27860676821E+04  0.27853793655E+04 0.  0.
        1    1    3    3  502    0 -0.42241881103E+03  0.13181339844E+04 -0.12292425602E+03  0.13896133367E+04  0.50400001928E-02 0. -1.
       -1    1    3    3    0  502  0.42241881103E+03 -0.13181339844E+04  0.18485098338E+03  0.13964543454E+04  0.50400001928E-02 0.  1.
</event>
<event>
 5   0  0.1423692E-05  0.2960272E+04  0.7818609E-02  0.8255167E-01
       -2   -1    0    0    0  501  0.00000000000E+00  0.00000000000E+00  0.10914768672E+04  0.10914768672E+04  0.25500000920E-02 0.  1.
        2   -1    0    0  501    0  0.00000000000E+00  0.00000000000E+00 -0.20071904863E+04  0.20071904863E+04  0.25500000920E-02 0. -1.
    10030    2    1    2    0    0  0.00000000000E+00  0.00000000000E+00 -0.91571361909E+03  0.30986673535E+04  0.29602715982E+04 0.  0.
        3    1    3    3  502    0  0.11651080973E+04 -0.37599252684E+03  0.41287063779E+03  0.12920175821E+04  0.10100000352E+00 0.  1.
       -3    1    3    3    0  502 -0.11651080973E+04  0.37599252684E+03 -0.13285842569E+04  0.18066497714E+04  0.10100000352E+00 0. -1.
</event>
<event>
 5   0  0.5329891E-06  0.1487895E+04  0.7818609E-02  0.8892542E-01
       -1   -1    0    0    0  501  0.00000000000E+00  0.00000000000E+00  0.66177502064E+03  0.66177502065E+03  0.50400001928E-02 0. -1.
        1   -1    0    0  501    0  0.00000000000E+00  0.00000000000E+00 -0.83632380736E+03  0.83632380738E+03  0.50400001928E-02 0.  1.
    10030    2    1    2    0    0  0.00000000000E+00  0.00000000000E+00 -0.17454878672E+03  0.14980988280E+04  0.14878954330E+04 0.  0.
        4    1    3    3  502    0 -0.39296490793E+03 -0.13655600003E+03 -0.70825959004E+03  0.82140259301E+03  0.12699999809E+01 0.  1.
       -4    1    3    3    0  502  0.39296490793E+03  0.13655600003E+03  0.53371080332E+03  0.67669623502E+03  0.12699999809E+01 0. -1.
</event>
<event>
 5   0  0.1523029E-05  0.3003122E+04  0.7818609E-02  0.8242840E-01
        2   -1    0    0  501    0  0.00000000000E+00  0.00000000000E+00  0.14180949545E+04  0.14180949545E+04  0.25500000920E-02 0. -1.
       -2   -1    0    0    0  501  0.00000000000E+00  0.00000000000E+00 -0.15899398764E+04  0.15899398764E+04  0.25500000920E-02 0.  1.
    10030    2    1    2    0    0  0.00000000000E+00  0.00000000000E+00 -0.17184492192E+03  0.30080348310E+04  0.30031221865E+04 0.  0.
        5    1    3    3  502    0  0.19795346396E+03  0.25337969121E+03  0.13832000171E+04  0.14200884546E+04  0.46999998093E+01 0. -1.
       -5    1    3    3    0  502 -0.19795346396E+03 -0.25337969121E+03 -0.15550449390E+04  0.15879463763E+04  0.46999998093E+01 0.  1.
</event>
<event>
 5   0  0.5522695E-06  0.3032678E+04  0.7818609E-02  0.8234461E-01
       -1   -1    0    0    0  501  0.00000000000E+00  0.00000000000E+00  0.10601119019E+04  0.10601119019E+04  0.50400001928E-02 0.  1.
        1   -1    0    0  501    0  0.00000000000E+00  0.00000000000E+00 -0.21689071911E+04  0.21689071911E+04  0.50400001928E-02 0. -1.
    10030    2    1    2    0    0  0.00000000000E+00  0.00000000000E+00 -0.11087952893E+04  0.32290190930E+04  0.30326782403E+04 0.  0.
        3    1    3    3  502    0  0.13272399969E+04 -0.64165265164E+03 -0.17645154772E+03  0.14847286936E+04  0.10100000352E+00 0.  1.
       -3    1    3    3    0  502 -0.13272399969E+04  0.64165265164E+03 -0.93234374153E+03  0.17442903994E+04  0.10100000352E+00 0. -1.
</event>
<event>
 5   0  0.1345931E-05  0.2897698E+04  0.7818609E-02  0.8273563E-01
       -2   -1    0    0    0  501  0.00000000000E+00  0.00000000000E+00  0.16648760706E+04  0.16648760706E+04  0.25500000920E-02 0.  1.
        2   -1    0    0  501    0  0.00000000000E+00  0.00000000000E+00 -0.12608527820E+04  0.12608527820E+04  0.25500000920E-02 0. -1.
    10030    2    1    2    0    0  0.00000000000E+00  0.00000000000E+00  0.40402328865E+03  0.29257288526E+04  0.28976981384E+04 0.  0.
        2    1    3    3  502    0  0.27868512287E+03 -0.63177460713E+03  0.14880514876E+04  0.16404577963E+04  0.25500000920E-02 0.  1.
       -2    1    3    3    0  502 -0.27868512287E+03  0.63177460713E+03 -0.10840281989E+04  0.12852710562E+04  0.25500000920E-02 0. -1.
</event>
<event>
 5   0  0.7032692E-06  0.2974836E+04  0.7818609E-02  0.8250953E-01
        1   -1    0    0  501    0  0.00000000000E+00  0.00000000000E+00  0.11731011003E+04  0.11731011003E+04  0.50400001928E-02 0.  1.
       -1   -1    0    0    0  501  0.00000000000E+00  0.00000000000E+00 -0.18859518793E+04  0.18859518793E+04  0.50400001928E-02 0. -1.
    10030    2    1    2    0    0  0.00000000000E+00  0.00000000000E+00 -0.71285077897E+03  0.30590529797E+04  0.29748359449E+04 0.  0.
        5    1    3    3  502    0  0.91461803138E+03  0.13806962761E+03 -0.15542190736E+04  0.18086482201E+04  0.46999998093E+01 0. -1.
       -5    1    3    3    0  502 -0.91461803138E+03 -0.13806962761E+03  0.84136829466E+03  0.12504047595E+04  0.46999998093E+01 0.  1.
</event>
<event>
 5   0  0.5392262E-06  0.2960963E+04  0.7818609E-02  0.8254967E-01
       -1   -1    0    0    0  501  0.00000000000E+00  0.00000000000E+00  0.11261587294E+04  0.11261587294E+04  0.50400001928E-02 0.  1.
        1   -1    0    0  501    0  0.00000000000E+00  0.00000000000E+00 -0.19462848200E+04  0.19462848200E+04  0.50400001928E-02 0. -1.
    10030    2    1    2    0    0  0.00000000000E+00  0.00000000000E+00 -0.82012609056E+03  0.30724435494E+04  0.29609631136E+04 0.  0.
        2    1    3    3  502    0 -0.87181110137E+03  0.53470401457E+03  0.70068919756E+03  0.12397291362E+04  0.25500000920E-02 0.  1.
       -2    1    3    3    0  502  0.87181110137E+03 -0.53470401457E+03 -0.15208152881E+04  0.18327144132E+04  0.25500000920E-02 0. -1.
</event>
<event>
 5   0  0.4806125E-06  0.3006851E+04  0.7818609E-02  0.8241777E-01
        3   -1    0    0  501    0  0.00000000000E+00  0.00000000000E+00  0.10090803387E+04  0.10090803438E+04  0.10100000352E+00 0. -1.
       -3   -1    0    0    0  501  0.00000000000E+00  0.00000000000E+00 -0.22399492362E+04  0.22399492385E+04  0.10100000352E+00 0.  1.
    10030    2    1    2    0    0  0.00000000000E+00  0.00000000000E+00 -0.12308688975E+04  0.32490295822E+04  0.30068513404E+04 0.  0.
        2    1    3    3  502    0  0.11444361540E+04  0.97412395931E+03 -0.57171390268E+03  0.16079516116E+04  0.25500000920E-02 0. -1.
       -2    1    3    3    0  502 -0.11444361540E+04 -0.97412395931E+03 -0.65915499481E+03  0.16410779707E+04  0.25500000920E-02 0.  1.
</event>
<event>
 5   0  0.1423692E-05  0.2966872E+04  0.7818609E-02  0.8253255E-01
        2   -1    0    0  501    0  0.00000000000E+00  0.00000000000E+00  0.22086406096E+04  0.22086406096E+04  0.25500000920E-02 0.  1.
       -2   -1    0    0    0  501  0.00000000000E+00  0.00000000000E+00 -0.99635119558E+03  0.99635119558E+03  0.25500000920E-02 0. -1.
    10030    2    1    2    0    0  0.00000000000E+00  0.00000000000E+00  0.12122894140E+04  0.32049918052E+04  0.29668715590E+04 0.  0.
        3    1    3    3  502    0  0.11644976208E+04 -0.91047324533E+03  0.47136975282E+03  0.15515172230E+04  0.10100000352E+00 0. -1.
       -3    1    3    3    0  502 -0.11644976208E+04  0.91047324533E+03  0.74091966117E+03  0.16534745821E+04  0.10100000352E+00 0.  1.
</event>
<event>
 5   0  0.7032692E-06  0.2850655E+04  0.7818609E-02  0.8287712E-01
       -1   -1    0    0    0  501  0.00000000000E+00  0.00000000000E+00  0.78998424420E+03  0.78998424421E+03  0.50400001928E-02 0. -1.
        1   -1    0    0  501    0  0.00000000000E+00  0.00000000000E+00 -0.25716442635E+04  0.25716442635E+04  0.50400001928E-02 0.  1.
    10030    2    1    2    0    0  0.00000000000E+00  0.00000000000E+00 -0.17816600193E+04  0.33616285077E+04  0.28506549773E+04 0.  0.
        5    1    3    3  502    0 -0.25610671210E+03 -0.11799248133E+03 -0.25384140664E+04  0.25540322896E+04  0.46999998093E+01 0.  1.
       -5    1    3    3    0  502  0.25610671210E+03  0.11799248133E+03  0.75675404715E+03  0.80759621811E+03  0.46999998093E+01 0. -1.
</event>
<event>
 5   0  0.1480547E-05  0.2769055E+04  0.7818609E-02  0.8312940E-01
       -2   -1    0    0    0  501  0.00000000000E+00  0.00000000000E+00  0.89170203013E+03  0.89170203013E+03  0.25500000920E-02 0. -1.
        2   -1    0    0  501    0  0.00000000000E+00  0.00000000000E+00 -0.21497282259E+04  0.21497282259E+04  0.25500000920E-02 0.  1.
    10030    2    1    2    0    0  0.00000000000E+00  0.00000000000E+00 -0.12580261958E+04  0.30414302560E+04  0.27690554514E+04 0.  0.
        1    1    3    3  502    0 -0.74000227378E+03  0.74541006545E+03  0.36175579055E+03  0.11109035885E+04  0.50400001928E-02 0. -1.
       -1    1    3    3    0  502  0.74000227378E+03 -0.74541006545E+03 -0.16197819863E+04  0.19305266676E+04  0.50400001928E-02 0.  1.
</event>
<event>
 5   0  0.1523029E-05  0.3183465E+04  0.7818609E-02  0.8193198E-01
       -2   -1    0    0    0  501  0.00000000000E+00  0.00000000000E+00  0.10404179772E+04  0.10404179772E+04  0.25500000920E-02 0. -1.
        2   -1    0    0  501    0  0.00000000000E+00  0.00000000000E+00 -0.24351868958E+04  0.24351868958E+04  0.25500000920E-02 0.  1.
    10030    2    1    2    0    0  0.00000000000E+00  0.00000000000E+00 -0.13947689186E+04  0.34756048731E+04  0.31834649201E+04 0.  0.
        5    1    3    3  502    0  0.42821912824E+03 -0.16031565552E+03 -0.23619340178E+04  0.24057903329E+04  0.46999998093E+01 0.  1.
       -5    1    3    3    0  502 -0.42821912824E+03  0.16031565552E+03  0.96716509925E+03  0.10698145402E+04  0.46999998093E+01 0. -1.
</event>
<event>
 5   0  0.1523029E-05  0.2970007E+04  0.7818609E-02  0.8252348E-01
        2   -1    0    0  501    0  0.00000000000E+00  0.00000000000E+00  0.14620865696E+04  0.14620865696E+04  0.25500000920E-02 0. -1.
       -2   -1    0    0    0  501  0.00000000000E+00  0.00000000000E+00 -0.15082800241E+04  0.15082800241E+04  0.25500000920E-02 0.  1.
    10030    2    1    2    0    0  0.00000000000E+00  0.00000000000E+00 -0.46193454547E+02  0.29703665937E+04  0.29700073848E+04 0.  0.
        5    1    3    3  502    0 -0.11863167535E+04  0.55626012856E+03 -0.72206687159E+03  0.14960532836E+04  0.46999998093E+01 0.  1.
       -5    1    3    3    0  502  0.11863167535E+04 -0.55626012856E+03  0.67587341704E+03  0.14743133101E+04  0.46999998093E+01 0. -1.
</event>
<event>
 5   0  0.9307505E-06  0.1486041E+04  0.7818609E-02  0.8893789E-01
       -1   -1    0    0    0  501  0.00000000000E+00  0.00000000000E+00  0.34864696649E+03  0.34864696653E+03  0.50400001928E-02 0.  1.
        1   -1    0    0  501    0  0.00000000000E+00  0.00000000000E+00 -0.15834911479E+04  0.15834911479E+04  0.50400001928E-02 0. -1.
    10030    2    1    2    0    0  0.00000000000E+00  0.00000000000E+00 -0.12348441814E+04  0.19321381144E+04  0.14860408947E+04 0.  0.
        5    1    3    3  502    0 -0.41327687192E+03  0.35488712533E+02 -0.14189141926E+04  0.14783087626E+04  0.46999998093E+01 0. -1.
       -5    1    3    3    0  502  0.41327687192E+03 -0.35488712533E+02  0.18407001119E+03  0.45382935185E+03  0.46999998093E+01 0.  1.
</event>
<event>
 5   0  0.4806125E-06  0.2867198E+04  0.7818609E-02  0.8282704E-01
       -3   -1    0    0    0  501  0.00000000000E+00  0.00000000000E+00  0.11373805598E+04  0.11373805643E+04  0.10100000352E+00 0.  1.
        3   -1    0    0  501    0  0.00000000000E+00  0.00000000000E+00 -0.18069644928E+04  0.18069644956E+04  0.10100000352E+00 0. -1.
    10030    2    1    2    0    0  0.00000000000E+00  0.00000000000E+00 -0.66958393302E+03  0.29443450599E+04  0.28671981425E+04 0.  0.
        2    1    3    3  502    0  0.40286206285E+03  0.99435878034E+03 -0.13112496357E+04  0.16942322252E+04  0.25500000920E-02 0. -1.
       -2    1    3    3    0  502 -0.40286206285E+03 -0.99435878034E+03  0.64166570265E+03  0.12501128348E+04  0.25500000920E-02 0.  1.
</event>
<event>
 5   0  0.1523029E-05  0.3074928E+04  0.7818609E-02  0.8222652E-01
        2   -1    0    0  501    0  0.00000000000E+00  0.00000000000E+00  0.77997189670E+03  0.77997189670E+03  0.25500000920E-02 0. -1.
       -2   -1    0    0    0  501  0.00000000000E+00  0.00000000000E+00 -0.30306167216E+04  0.30306167216E+04  0.25500000920E-02 0.  1.
    10030    2    1    2    0    0  0.00000000000E+00  0.00000000000E+00 -0.22506448249E+04  0.38105886183E+04  0.30749282089E+04 0.  0.
        5    1    3    3  502    0 -0.12576142715E+04 -0.83012921974E+03 -0.15033745415E+04  0.21285829276E+04  0.46999998093E+01 0.  1.
       -5    1    3    3    0  502  0.12576142715E+04  0.83012921974E+03 -0.74727028338E+03  0.16820056908E+04  0.46999998093E+01 0. -1.
</event>
<event>
 5   0  0.5329891E-06  0.2929456E+04  0.7818609E-02  0.8264167E-01
       -1   -1    0    0    0  501  0.00000000000E+00  0.00000000000E+00  0.15401793588E+04  0.15401793588E+04  0.50400001928E-02 0. -1.
        1   -1    0    0  501    0  0.00000000000E+00  0.00000000000E+00 -0.13929727367E+04  0.13929727367E+04  0.50400001928E-02 0.  1.
    10030    2    1    2    0    0  0.00000000000E+00  0.00000000000E+00  0.14720662210E+03  0.29331520956E+04  0.29294558242E+04 0.  0.
        4    1    3    3  502    0 -0.60364635160E+03  0.13268759512E+04 -0.69536980533E+02  0.14593922407E+04  0.12699999809E+01 0.  1.
       -4    1    3    3    0  502  0.60364635160E+03 -0.13268759512E+04  0.21674360264E+03  0.14737598549E+04  0.12699999809E+01 0. -1.
</event>
<event>
 5   0  0.1480547E-05  0.2165808E+04  0.7818609E-02  0.8532796E-01
       -2   -1    0    0    0  501  0.00000000000E+00  0.00000000000E+00  0.13530477531E+04  0.13530477531E+04  0.25500000920E-02 0.  1.
        2   -1    0    0  501    0  0.00000000000E+00  0.00000000000E+00 -0.86669593576E+03  0.86669593577E+03  0.25500000920E-02 0. -1.
    10030    2    1    2    0    0  0.00000000000E+00  0.00000000000E+00  0.48635181732E+03  0.22197436889E+04  0.21658079218E+04 0.  0.
        1    1    3    3  502    0  0.56656142567E+03  0.80823321606E+03 -0.21339315663E+03  0.10098363332E+04  0.50400001928E-02 0.  1.
       -1    1    3    3    0  502 -0.56656142567E+03 -0.80823321606E+03  0.69974497395E+03  0.12099073556E+04  0.50400001928E-02 0. -1.
</event>
<event>
 5   0  0.7032692E-06  0.1850802E+04  0.7818609E-02  0.8679741E-01
       -1   -1    0    0    0  501  0.00000000000E+00  0.00000000000E+00  0.10076341808E+04  0.10076341808E+04  0.50400001928E-02 0. -1.
        1   -1    0    0  501    0  0.00000000000E+00  0.00000000000E+00 -0.84987854550E+03  0.84987854551E+03  0.50400001928E-02 0.  1.
    10030    2    1    2    0    0  0.00000000000E+00  0.00000000000E+00  0.15775563529E+03  0.18575127263E+04  0.18508016339E+04 0.  0.
        5    1    3    3  502    0 -0.44291532930E+03 -0.65498732061E+02 -0.73392328903E+03  0.85972644313E+03  0.46999998093E+01 0.  1.
       -5    1    3    3    0  502  0.44291532930E+03  0.65498732061E+02  0.89167892433E+03  0.99778628319E+03  0.46999998093E+01 0. -1.
</event>
<event>
 5   0  0.5730920E-06  0.3037981E+04  0.7818609E-02  0.8232968E-01
        1   -1    0    0  501    0  0.00000000000E+00  0.00000000000E+00  0.15039568205E+04  0.15039568205E+04  0.50400001928E-02 0. -1.
       -1   -1    0    0    0  501  0.00000000000E+00  0.00000000000E+00 -0.15341743737E+04  0.15341743737E+04  0.50400001928E-02 0.  1.
    10030    2    1    2    0    0  0.00000000000E+00  0.00000000000E+00 -0.30217553182E+02  0.30381311942E+04  0.30379809171E+04 0.  0.
        1    1    3    3  502    0  0.15743989144E+03  0.14521361746E+04  0.40185935599E+03  0.15149183908E+04  0.50400001928E-02 0. -1.
       -1    1    3    3    0  502 -0.15743989144E+03 -0.14521361746E+04 -0.43207690917E+03  0.15232128034E+04  0.50400001928E-02 0.  1.
</event>
<event>
 5   0  0.5730920E-06  0.2364156E+04  0.7818609E-02  0.8453046E-01
        1   -1    0    0  501    0  0.00000000000E+00  0.00000000000E+00  0.15995131546E+04  0.15995131546E+04  0.50400001928E-02 0.  1.
       -1   -1    0    0    0  501  0.00000000000E+00  0.00000000000E+00 -0.87358389477E+03  0.87358389478E+03  0.50400001928E-02 0. -1.
    10030    2    1    2    0    0  0.00000000000E+00  0.00000000000E+00  0.72592925984E+03  0.24730970494E+04  0.23641564511E+04 0.  0.
        1    1    3    3  502    0 -0.37753215971E+03 -0.44594408656E+03  0.14378913652E+04  0.15520722400E+04  0.50400001928E-02 0.  1.
       -1    1    3    3    0  502  0.37753215971E+03  0.44594408656E+03 -0.71196210540E+03  0.92102480939E+03  0.50400001928E-02 0. -1.
</event>
<event>
 5   0  0.5329891E-06  0.3028533E+04  0.7818609E-02  0.8235630E-01
        1   -1    0    0  501    0  0.00000000000E+00  0.00000000000E+00  0.15377495106E+04  0.15377495106E+04  0.50400001928E-02 0. -1.
       -1   -1    0    0    0  501  0.00000000000E+00  0.00000000000E+00 -0.14911420986E+04  0.14911420986E+04  0.50400001928E-02 0.  1.
    10030    2    1    2    0    0  0.00000000000E+00  0.00000000000E+00  0.46607412022E+02  0.30288916092E+04  0.30285329996E+04 0.  0.
        4    1    3    3  502    0 -0.63076906859E+03 -0.36896330405E+03  0.13497329252E+04  0.15348563842E+04  0.12699999809E+01 0. -1.
       -4    1    3    3    0  502  0.63076906859E+03  0.36896330405E+03 -0.13031255132E+04  0.14940352251E+04  0.12699999809E+01 0.  1.
</event>
<event>
 5   0  0.1388724E-05  0.2801830E+04  0.7818609E-02  0.8302700E-01
        2   -1    0    0  501    0  0.00000000000E+00  0.00000000000E+00  0.18943046430E+04  0.18943046430E+04  0.25500000920E-02 0. -1.
       -2   -1    0    0    0  501  0.00000000000E+00  0.00000000000E+00 -0.10360332665E+04  0.10360332665E+04  0.25500000920E-02 0.  1.
    10030    2    1    2    0    0  0.00000000000E+00  0.00000000000E+00  0.85827137646E+03  0.29303379095E+04  0.28018298499E+04 0.  0.
        4    1    3    3  502    0 -0.10276717217E+04 -0.86432378957E+03  0.11579453415E+02  0.13428702385E+04  0.12699999809E+01 0. -1.
       -4    1    3    3    0  502  0.10276717217E+04  0.86432378957E+03  0.84669192305E+03  0.15874676710E+04  0.12699999809E+01 0.  1.
</event>
<event>
 5   0  0.1480547E-05  0.2372582E+04  0.7818609E-02  0.8449841E-01
       -2   -1    0    0    0  501  0.00000000000E+00  0.00000000000E+00  0.15710938179E+04  0.15710938179E+04  0.25500000920E-02 0. -1.
        2   -1    0    0  501    0  0.00000000000E+00  0.00000000000E+00 -0.89573629325E+03  0.89573629325E+03  0.25500000920E-02 0.  1.
    10030    2    1    2    0    0  0.00000000000E+00  0.00000000000E+00  0.67535752460E+03  0.24668301111E+04  0.23725815078E+04 0.  0.
        1    1    3    3  502    0  0.10030591508E+04 -0.62730289840E+03  0.42861252376E+03  0.12583104870E+04  0.50400001928E-02 0. -1.
       -1    1    3    3    0  502 -0.10030591508E+04  0.62730289840E+03  0.24674500084E+03  0.12085196241E+04  0.50400001928E-02 0.  1.
</event>
<event>
 5   0  0.5329891E-06  0.1722253E+04  0.7818609E-02  0.8748774E-01
       -1   -1    0    0    0  501  0.00000000000E+00  0.00000000000E+00  0.11318571825E+04  0.11318571825E+04  0.50400001928E-02 0. -1.
        1   -1    0    0  501    0  0.00000000000E+00  0.00000000000E+00 -0.65515200313E+03  0.65515200315E+03  0.50400001928E-02 0.  1.
    10030    2    1    2    0    0  0.00000000000E+00  0.00000000000E+00  0.47670517937E+03  0.17870091857E+04  0.17222525952E+04 0.  0.
        4    1    3    3  502    0  0.35783176085E+03 -0.72244352270E+03 -0.75628434615E+02  0.80974655639E+03  0.12699999809E+01 0.  1.
       -4    1    3    3    0  502 -0.35783176085E+03  0.72244352270E+03  0.55233361398E+03  0.97726262928E+03  0.12699999809E+01 0. -1.
</event>
<event>
 5   0  0.1523029E-05  0.3188650E+04  0.7818609E-02  0.8191821E-01
       -2   -1    0    0    0  501  0.00000000000E+00  0.00000000000E+00  0.35198523092E+04  0.35198523092E+04  0.25500000920E-02 0. -1.
        2   -1    0    0  501    0  0.00000000000E+00  0.00000000000E+00 -0.72215290267E+03  0.72215290268E+03  0.25500000920E-02 0.  1.
    10030    2    1    2    0    0  0.00000000000E+00  0.00000000000E+00  0.27976994065E+04  0.42420052119E+04  0.31886495963E+04 0.  0.
        5    1    3    3  502    0  0.19073677866E+03 -0.14599579876E+04  0.58527892545E+03  0.15844340803E+04  0.46999998093E+01 0. -1.
       -5    1    3    3    0  502 -0.19073677866E+03  0.14599579876E+04  0.22124204811E+04  0.26575711316E+04  0.46999998093E+01 0.  1.
</event>
<event>
 5   0  0.1423692E-05  0.2902270E+04  0.7818609E-02  0.8272202E-01
       -2   -1    0    0    0  501  0.00000000000E+00  0.00000000000E+00  0.11235830988E+04  0.11235830988E+04  0.25500000920E-02 0.  1.
        2   -1    0    0  501    0  0.00000000000E+00  0.00000000000E+00 -0.18741767633E+04  0.18741767633E+04  0.25500000920E-02 0. -1.
    10030    2    1    2    0    0  0.00000000000E+00  0.00000000000E+00 -0.75059366455E+03  0.29977598621E+04  0.29022703770E+04 0.  0.
        3    1    3    3  502    0  0.14200731745E+04 -0.17768286149E+03 -0.62322400928E+03  0.15609571410E+04  0.10100000352E+00 0. -1.
       -3    1    3    3    0  502 -0.14200731745E+04  0.17768286149E+03 -0.12736965527E+03  0.14368027211E+04  0.10100000352E+00 0.  1.
</event>
<event>
 5   0  0.1345931E-05  0.3060348E+04  0.7818609E-02  0.8226705E-01
       -2   -1    0    0    0  501  0.00000000000E+00  0.00000000000E+00  0.12980899306E+04  0.12980899306E+04  0.25500000920E-02 0. -1.
        2   -1    0    0  501    0  0.00000000000E+00  0.00000000000E+00 -0.18037517545E+04  0.18037517545E+04  0.25500000920E-02 0.  1.
    10030    2    1    2    0    0  0.00000000000E+00  0.00000000000E+00 -0.50566182397E+03  0.31018416851E+04  0.30603476860E+04 0.  0.
        2    1    3    3  502    0  0.10427712340E+04 -0.61776144478E+03 -0.11995352962E+04  0.17052524669E+04  0.25500000920E-02 0.  1.
       -2    1    3    3    0  502 -0.10427712340E+04  0.61776144478E+03  0.69387347220E+03  0.13965892182E+04  0.25500000920E-02 0. -1.
</event>
<event>
 5   0  0.1345931E-05  0.2938106E+04  0.7818609E-02  0.8261629E-01
        2   -1    0    0  501    0  0.00000000000E+00  0.00000000000E+00  0.14447956834E+04  0.14447956834E+04  0.25500000920E-02 0.  1.
       -2   -1    0    0    0  501  0.00000000000E+00  0.00000000000E+00 -0.14937178051E+04  0.14937178051E+04  0.25500000920E-02 0. -1.
    10030    2    1    2    0    0  0.00000000000E+00  0.00000000000E+00 -0.48922121710E+02  0.29385134885E+04  0.29381062180E+04 0.  0.
        2    1    3    3  502    0 -0.18220872599E+03  0.14292990001E+04 -0.31089451921E+03  0.14740254590E+04  0.25500000920E-02 0. -1.
       -2    1    3    3    0  502  0.18220872599E+03 -0.14292990001E+04  0.26197239750E+03  0.14644880295E+04  0.25500000920E-02 0.  1.
</event>
<event>
 5   0  0.1345931E-05  0.2989137E+04  0.7818609E-02  0.8246840E-01
        2   -1    0    0  501    0  0.00000000000E+00  0.00000000000E+00  0.18242184735E+04  0.18242184735E+04  0.25500000920E-02 0.  1.
       -2   -1    0    0    0  501  0.00000000000E+00  0.00000000000E+00 -0.12244888773E+04  0.12244888773E+04  0.25500000920E-02 0. -1.
    10030    2    1    2    0    0  0.00000000000E+00  0.00000000000E+00  0.59972959626E+03  0.30487073508E+04  0.29891371535E+04 0.  0.
        2    1    3    3  502    0 -0.13092017232E+03  0.10670700875E+04  0.13588027820E+04  0.17326637480E+04  0.25500000920E-02 0. -1.
       -2    1    3    3    0  502  0.13092017232E+03 -0.10670700875E+04 -0.75907318577E+03  0.13160436028E+04  0.25500000920E-02 0.  1.
</event>
<event>
 5   0  0.1345931E-05  0.2973139E+04  0.7818609E-02  0.8251443E-01
        2   -1    0    0  501    0  0.00000000000E+00  0.00000000000E+00  0.21193673451E+04  0.21193673451E+04  0.25500000920E-02 0.  1.
       -2   -1    0    0    0  501  0.00000000000E+00  0.00000000000E+00 -0.10427114548E+04  0.10427114548E+04  0.25500000920E-02 0. -1.
    10030    2    1    2    0    0  0.00000000000E+00  0.00000000000E+00  0.10766558902E+04  0.31620787999E+04  0.29731388179E+04 0.  0.
        2    1    3    3  502    0  0.35530606891E+03  0.91251273301E+03 -0.65121569353E+03  0.11760118069E+04  0.25500000920E-02 0. -1.
       -2    1    3    3    0  502 -0.35530606891E+03 -0.91251273301E+03  0.17278715838E+04  0.19860669930E+04  0.25500000920E-02 0.  1.
</event>
<event>
 5   0  0.1423692E-05  0.2973728E+04  0.7818609E-02  0.8251273E-01
       -2   -1    0    0    0  501  0.00000000000E+00  0.00000000000E+00  0.12594447477E+04  0.12594447477E+04  0.25500000920E-02 0. -1.
        2   -1    0    0  501    0  0.00000000000E+00  0.00000000000E+00 -0.17553481593E+04  0.17553481593E+04  0.25500000920E-02 0.  1.
    10030    2    1    2    0    0  0.00000000000E+00  0.00000000000E+00 -0.49590341157E+03  0.30147929070E+04  0.29737276403E+04 0.  0.
        3    1    3    3  502    0  0.87588359358E+03  0.37826904676E+03  0.90819306601E+03  0.13172221516E+04  0.10100000352E+00 0. -1.
       -3    1    3    3    0  502 -0.87588359358E+03 -0.37826904676E+03 -0.14040964776E+04  0.16975707555E+04  0.10100000352E+00 0.  1.
</event>
<event>
 5   0  0.1388724E-05  0.2988328E+04  0.7818609E-02  0.8247072E-01
       -2   -1    0    0    0  501  0.00000000000E+00  0.00000000000E+00  0.11218209058E+04  0.11218209058E+04  0.25500000920E-02 0.  1.
        2   -1    0    0  501    0  0.00000000000E+00  0.00000000000E+00 -0.19900912664E+04  0.19900912664E+04  0.25500000920E-02 0. -1.
    10030    2    1    2    0    0  0.00000000000E+00  0.00000000000E+00 -0.86827036064E+03  0.31119121722E+04  0.29883279519E+04 0.  0.
        4    1    3    3  502    0 -0.14418584280E+03  0.13650825967E+04  0.18042729099E+03  0.13844839015E+04  0.12699999809E+01 0.  1.
       -4    1    3    3    0  502  0.14418584280E+03 -0.13650825967E+04 -0.10486976516E+04  0.17274282707E+04  0.12699999809E+01 0. -1.
</event>
<event>
 5   0  0.1480547E-05  0.2773440E+04  0.7818609E-02  0.8311562E-01
       -2   -1    0    0    0  501  0.00000000000E+00  0.00000000000E+00  0.12392574640E+04  0.12392574640E+04  0.25500000920E-02 0.  1.
        2   -1    0    0  501    0  0.00000000000E+00  0.00000000000E+00 -0.15517296343E+04  0.15517296343E+04  0.25500000920E-02 0. -1.
    10030    2    1    2    0    0  0.00000000000E+00  0.00000000000E+00 -0.31247217038E+03  0.27909870983E+04  0.27734401247E+04 0.  0.
        1    1    3    3  502    0  0.85934248666E+03 -0.13841816564E+03  0.93011381267E+03  0.12738684400E+04  0.50400001928E-02 0.  1.
       -1    1    3    3    0  502 -0.85934248666E+03  0.13841816564E+03 -0.12425859830E+04  0.15171186583E+04  0.50400001928E-02 0. -1.
</event>
<event>
 5   0  0.5730920E-06  0.1474197E+04  0.7818609E-02  0.8901795E-01
        1   -1    0    0  501    0  0.00000000000E+00  0.00000000000E+00  0.19318175364E+04  0.19318175364E+04  0.50400001928E-02 0.  1.
       -1   -1    0    0    0  501  0.00000000000E+00  0.00000000000E+00 -0.28124521776E+03  0.28124521781E+03  0.50400001928E-02 0. -1.
    10030    2    1    2    0    0  0.00000000000E+00  0.00000000000E+00  0.16505723187E+04  0.22130627542E+04  0.14741973325E+04 0.  0.
        1    1    3    3  502    0 -0.68420837096E+03 -0.13917039114E+03  0.47065697436E+03  0.84203769524E+03  0.50400001928E-02 0. -1.
       -1    1    3    3    0  502  0.68420837096E+03  0.13917039114E+03  0.11799153443E+04  0.13710250590E+04  0.50400001928E-02 0.  1.
</event>
<event>
 5   0  0.5522695E-06  0.2310816E+04  0.7818609E-02  0.8473669E-01
        1   -1    0    0  501    0  0.00000000000E+00  0.00000000000E+00  0.20712155160E+04  0.20712155160E+04  0.50400001928E-02 0.  1.
       -1   -1    0    0    0  501  0.00000000000E+00  0.00000000000E+00 -0.64453360055E+03  0.64453360057E+03  0.50400001928E-02 0. -1.
    10030    2    1    2    0    0  0.00000000000E+00  0.00000000000E+00  0.14266819154E+04  0.27157491166E+04  0.23108163009E+04 0.  0.
        3    1    3    3  502    0 -0.11637854527E+03  0.11126867645E+04  0.10526400608E+04  0.15361207340E+04  0.10100000352E+00 0.  1.
       -3    1    3    3    0  502  0.11637854527E+03 -0.11126867645E+04  0.37404185463E+03  0.11796283825E+04  0.10100000352E+00 0. -1.
</event>
<event>
 5   0  0.5730920E-06  0.2456270E+04  0.7818609E-02  0.8418732E-01
        1   -1    0    0  501    0  0.00000000000E+00  0.00000000000E+00  0.18406697537E+04  0.18406697537E+04  0.50400001928E-02 0. -1.
       -1   -1    0    0    0  501  0.00000000000E+00  0.00000000000E+00 -0.81943856183E+03  0.81943856184E+03  0.50400001928E-02 0.  1.
    10030    2    1    2    0    0  0.00000000000E+00  0.00000000000E+00  0.10212311919E+04  0.26601083155E+04  0.24562701609E+04 0.  0.
        1    1    3    3  502    0  0.29573588402E+03  0.69786751835E+03  0.15571625659E+04  0.17318296807E+04  0.50400001928E-02 0. -1.
       -1    1    3    3    0  502 -0.29573588402E+03 -0.69786751835E+03 -0.53593137402E+03  0.92827863486E+03  0.50400001928E-02 0.  1.
</event>
<event>
 5   0  0.1388724E-05  0.2873019E+04  0.7818609E-02  0.8280951E-01
        2   -1    0    0  501    0  0.00000000000E+00  0.00000000000E+00  0.18203121570E+04  0.18203121570E+04  0.25500000920E-02 0. -1.
       -2   -1    0    0    0  501  0.00000000000E+00  0.00000000000E+00 -0.11336297123E+04  0.11336297123E+04  0.25500000920E-02 0.  1.
    10030    2    1    2    0    0  0.00000000000E+00  0.00000000000E+00  0.68668244473E+03  0.29539418694E+04  0.28730192808E+04 0.  0.
        4    1    3    3  502    0 -0.60777917978E+03 -0.12223744981E+04 -0.11642667966E+03  0.13700918690E+04  0.12699999809E+01 0. -1.
       -4    1    3    3    0  502  0.60777917978E+03  0.12223744981E+04  0.80310912439E+03  0.15838500003E+04  0.12699999809E+01 0.  1.
</event>
<event>
 5   0  0.1345931E-05  0.2977588E+04  0.7818609E-02  0.8250160E-01
        2   -1    0    0  501    0  0.00000000000E+00  0.00000000000E+00  0.20131568005E+04  0.20131568005E+04  0.25500000920E-02 0.  1.
       -2   -1    0    0    0  501  0.00000000000E+00  0.00000000000E+00 -0.11010108065E+04  0.11010108066E+04  0.25500000920E-02 0. -1.
    10030    2    1    2    0    0  0.00000000000E+00  0.00000000000E+00  0.91214599394E+03  0.31141676070E+04  0.29775878779E+04 0.  0.
        2    1    3    3  502    0  0.76275721841E+02 -0.14420913691E+04  0.77442485057E+02  0.14461821604E+04  0.25500000920E-02 0.  1.
       -2    1    3    3    0  502 -0.76275721841E+02  0.14420913691E+04  0.83470350888E+03  0.16679854467E+04  0.25500000920E-02 0. -1.
</event>
<event>
 5   0  0.1345931E-05  0.3028433E+04  0.7818609E-02  0.8235658E-01
       -2   -1    0    0    0  501  0.00000000000E+00  0.00000000000E+00  0.11865215272E+04  0.11865215272E+04  0.25500000920E-02 0. -1.
        2   -1    0    0  501    0  0.00000000000E+00  0.00000000000E+00 -0.19324142494E+04  0.19324142494E+04  0.25500000920E-02 0.  1.
    10030    2    1    2    0    0  0.00000000000E+00  0.00000000000E+00 -0.74589272219E+03  0.31189357767E+04  0.30284326682E+04 0.  0.
        2    1    3    3  502    0  0.32423909149E+03  0.12619419065E+04 -0.11675092339E+04  0.17494874035E+04  0.25500000920E-02 0.  1.
       -2    1    3    3    0  502 -0.32423909149E+03 -0.12619419065E+04  0.42161651167E+03  0.13694483732E+04  0.25500000920E-02 0. -1.
</event>
<event>
 5   0  0.1480547E-05  0.2679035E+04  0.7818609E-02  0.8341839E-01
        2   -1    0    0  501    0  0.00000000000E+00  0.00000000000E+00  0.17241143439E+04  0.17241143439E+04  0.25500000920E-02 0.  1.
       -2   -1    0    0    0  501  0.00000000000E+00  0.00000000000E+00 -0.10407127000E+04  0.10407127000E+04  0.25500000920E-02 0. -1.
    10030    2    1    2    0    0  0.00000000000E+00  0.00000000000E+00  0.68340164396E+03  0.27648270439E+04  0.26790354189E+04 0.  0.
        1    1    3    3  502    0 -0.59580244461E+03  0.69858792596E+03 -0.66488018138E+03  0.11336098530E+04  0.50400001928E-02 0. -1.
       -1    1    3    3    0  502  0.59580244461E+03 -0.69858792596E+03  0.13482818253E+04  0.16312171909E+04  0.50400001928E-02 0.  1.
</event>
<event>
 5   0  0.1523029E-05  0.2779061E+04  0.7818609E-02  0.8309799E-01
        2   -1    0    0  501    0  0.00000000000E+00  0.00000000000E+00  0.19370939920E+04  0.19370939920E+04  0.25500000920E-02 0. -1.
       -2   -1    0    0    0  501  0.00000000000E+00  0.00000000000E+00 -0.99674830717E+03  0.99674830718E+03  0.25500000920E-02 0.  1.
    10030    2    1    2    0    0  0.00000000000E+00  0.00000000000E+00  0.94034568478E+03  0.29338422991E+04  0.27790611057E+04 0.  0.
        5    1    3    3  502    0  0.46884821799E+03 -0.11746342033E+04 -0.13736951055E+03  0.12721936313E+04  0.46999998093E+01 0.  1.
       -5    1    3    3    0  502 -0.46884821799E+03  0.11746342033E+04  0.10777151953E+04  0.16616486678E+04  0.46999998093E+01 0. -1.
</event>
<event>
 5   0  0.5392262E-06  0.1852087E+04  0.7818609E-02  0.8679080E-01
       -1   -1    0    0    0  501  0.00000000000E+00  0.00000000000E+00  0.51613672516E+03  0.51613672519E+03  0.50400001928E-02 0. -1.
        1   -1    0    0  501    0  0.00000000000E+00  0.00000000000E+00 -0.16614906657E+04  0.16614906657E+04  0.50400001928E-02 0.  1.
    10030    2    1    2    0    0  0.00000000000E+00  0.00000000000E+00 -0.11453539406E+04  0.21776273909E+04  0.18520867703E+04 0.  0.
        2    1    3    3  502    0 -0.32674719998E+03  0.80188490310E+03 -0.18668553198E+03  0.88579603655E+03  0.25500000920E-02 0. -1.
       -2    1    3    3    0  502  0.32674719998E+03 -0.80188490310E+03 -0.95866840859E+03  0.12918313544E+04  0.25500000920E-02 0.  1.
</event>
<event>
 5   0  0.5522695E-06  0.3043710E+04  0.7818609E-02  0.8231358E-01
        1   -1    0    0  501    0  0.00000000000E+00  0.00000000000E+00  0.10690449041E+04  0.10690449041E+04  0.50400001928E-02 0.  1.
       -1   -1    0    0    0  501  0.00000000000E+00  0.00000000000E+00 -0.21664597954E+04  0.21664597954E+04  0.50400001928E-02 0. -1.
    10030    2    1    2    0    0  0.00000000000E+00  0.00000000000E+00 -0.10974148913E+04  0.32355046994E+04  0.30437101072E+04 0.  0.
        3    1    3    3  502    0  0.35793729438E+03 -0.99229867346E+03  0.61734949143E+03  0.12222504526E+04  0.10100000352E+00 0.  1.
       -3    1    3    3    0  502 -0.35793729438E+03  0.99229867346E+03 -0.17147643827E+04  0.20132542469E+04  0.10100000352E+00 0. -1.
</event>
<event>
 5   0  0.5730920E-06  0.2926582E+04  0.7818609E-02  0.8265012E-01
        1   -1    0    0  501    0  0.00000000000E+00  0.00000000000E+00  0.12849578438E+04  0.12849578438E+04  0.50400001928E-02 0. -1.
       -1   -1    0    0    0  501  0.00000000000E+00  0.00000000000E+00 -0.16663746221E+04  0.16663746221E+04  0.50400001928E-02 0.  1.
    10030    2    1    2    0    0  0.00000000000E+00  0.00000000000E+00 -0.38141677837E+03  0.29513324659E+04  0.29265824037E+04 0.  0.
        1    1    3    3  502    0 -0.29471084773E+03 -0.49270804281E+03 -0.15480500734E+04  0.16510828959E+04  0.50400001928E-02 0.  1.
       -1    1    3    3    0  502  0.29471084773E+03  0.49270804281E+03  0.11666332950E+04  0.13002495700E+04  0.50400001928E-02 0. -1.
</event>
<event>
 5   0  0.5392262E-06  0.3214339E+04  0.7818609E-02  0.8185041E-01
       -1   -1    0    0    0  501  0.00000000000E+00  0.00000000000E+00  0.12300597715E+04  0.12300597715E+04  0.50400001928E-02 0.  1.
        1   -1    0    0  501    0  0.00000000000E+00  0.00000000000E+00 -0.20998924402E+04  0.20998924402E+04  0.50400001928E-02 0. -1.
    10030    2    1    2    0    0  0.00000000000E+00  0.00000000000E+00 -0.86983266864E+03  0.33299522117E+04  0.32143386351E+04 0.  0.
        2    1    3    3  502    0 -0.10092695665E+04 -0.21646052917E+03  0.84126556999E+03  0.13316185557E+04  0.25500000920E-02 0.  1.
       -2    1    3    3    0  502  0.10092695665E+04  0.21646052917E+03 -0.17110982386E+04  0.19983336560E+04  0.25500000920E-02 0. -1.
</event>
<event>
 5   0  0.1423692E-05  0.1941794E+04  0.7818609E-02  0.8634328E-01
       -2   -1    0    0    0  501  0.00000000000E+00  0.00000000000E+00  0.13213149492E+04  0.13213149492E+04  0.25500000920E-02 0.  1.
        2   -1    0    0  501    0  0.00000000000E+00  0.00000000000E+00 -0.71341143210E+03  0.71341143210E+03  0.25500000920E-02 0. -1.
    10030    2    1    2    0    0  0.00000000000E+00  0.00000000000E+00  0.60790351709E+03  0.20347263813E+04  0.19417942117E+04 0.  0.
        3    1    3    3  502    0 -0.49728215835E+03  0.66978536891E+03 -0.21654962128E+03  0.86185598223E+03  0.10100000352E+00 0. -1.
       -3    1    3    3    0  502  0.49728215835E+03 -0.66978536891E+03  0.82445313837E+03  0.11728703991E+04  0.10100000352E+00 0.  1.
</event>
<event>
 5   0  0.5392262E-06  0.2849429E+04  0.7818609E-02  0.8288085E-01
       -1   -1    0    0    0  501  0.00000000000E+00  0.00000000000E+00  0.15339270381E+04  0.15339270381E+04  0.50400001928E-02 0.  1.
        1   -1    0    0  501    0  0.00000000000E+00  0.00000000000E+00 -0.13232775575E+04  0.13232775575E+04  0.50400001928E-02 0. -1.
    10030    2    1    2    0    0  0.00000000000E+00  0.00000000000E+00  0.21064948060E+03  0.28572045956E+04  0.28494288722E+04 0.  0.
        2    1    3    3  502    0 -0.11036161776E+04 -0.73015803606E+03 -0.42404754072E+03  0.13895739425E+04  0.25500000920E-02 0. -1.
       -2    1    3    3    0  502  0.11036161776E+04  0.73015803606E+03  0.63469702132E+03  0.14676306531E+04  0.25500000920E-02 0.  1.
</event>
<event>
 5   0  0.1523029E-05  0.2613924E+04  0.7818609E-02  0.8363487E-01
       -2   -1    0    0    0  501  0.00000000000E+00  0.00000000000E+00  0.62048748366E+03  0.62048748367E+03  0.25500000920E-02 0.  1.
        2   -1    0    0  501    0  0.00000000000E+00  0.00000000000E+00 -0.27529155965E+04  0.27529155965E+04  0.25500000920E-02 0. -1.
    10030    2    1    2    0    0  0.00000000000E+00  0.00000000000E+00 -0.21324281128E+04  0.33734030802E+04  0.26139240014E+04 0.  0.
        5    1    3    3  502    0 -0.15957296533E+03 -0.10506358084E+04 -0.84352594310E+02  0.10660377964E+04  0.46999998093E+01 0.  1.
       -5    1    3    3    0  502  0.15957296533E+03  0.10506358084E+04 -0.20480755185E+04  0.23073652838E+04  0.46999998093E+01 0. -1.
</event>
<event>
 5   0  0.1388724E-05  0.3013329E+04  0.7818609E-02  0.8239935E-01
       -2   -1    0    0    0  501  0.00000000000E+00  0.00000000000E+00  0.13846595969E+04  0.13846595969E+04  0.25500000920E-02 0.  1.
        2   -1    0    0  501    0  0.00000000000E+00  0.00000000000E+00 -0.16394196498E+04  0.16394196498E+04  0.25500000920E-02 0. -1.
    10030    2    1    2    0    0  0.00000000000E+00  0.00000000000E+00 -0.25476005293E+03  0.30240792467E+04  0.30133291566E+04 0.  0.
        4    1    3    3  502    0  0.54358023320E+03 -0.13754653033E+04  0.16113868361E+03  0.14877336989E+04  0.12699999809E+01 0.  1.
       -4    1    3    3    0  502 -0.54358023320E+03  0.13754653033E+04 -0.41589873654E+03  0.15363455479E+04  0.12699999809E+01 0. -1.
</event>
<event>
 5   0  0.7032692E-06  0.3022911E+04  0.7818609E-02  0.8237219E-01
        1   -1    0    0  501    0  0.00000000000E+00  0.00000000000E+00  0.16404852471E+04  0.16404852471E+04  0.50400001928E-02 0. -1.
       -1   -1    0    0    0  501  0.00000000000E+00  0.00000000000E+00 -0.13925744570E+04  0.13925744570E+04  0.50400001928E-02 0.  1.
    10030    2    1    2    0    0  0.00000000000E+00  0.00000000000E+00  0.24791079003E+03  0.30330597041E+04  0.30229110819E+04 0.  0.
        5    1    3    3  502    0 -0.12869833925E+04  0.23870715094E+03  0.88224949113E+03  0.15785099338E+04  0.46999998093E+01 0.  1.
       -5    1    3    3    0  502  0.12869833925E+04 -0.23870715094E+03 -0.63433870110E+03  0.14545497703E+04  0.46999998093E+01 0. -1.
</event>
<event>
 5   0  0.5522695E-06  0.3067961E+04  0.7818609E-02  0.8224586E-01
       -1   -1    0    0    0  501  0.00000000000E+00  0.00000000000E+00  0.82787187253E+03  0.82787187255E+03  0.50400001928E-02 0. -1.
        1   -1    0    0  501    0  0.00000000000E+00  0.00000000000E+00 -0.28423429136E+04  0.28423429136E+04  0.50400001928E-02 0.  1.
    10030    2    1    2    0    0  0.00000000000E+00  0.00000000000E+00 -0.20144710411E+04  0.36702147861E+04  0.30679607235E+04 0.  0.
        3    1    3    3  502    0  0.12986967433E+03 -0.14655328098E+04 -0.48791927314E+03  0.15500702488E+04  0.10100000352E+00 0.  1.
       -3    1    3    3    0  502 -0.12986967433E+03  0.14655328098E+04 -0.15265517679E+04  0.21201445373E+04  0.10100000352E+00 0. -1.
</event>
<event>
 5   0  0.5329891E-06  0.3157312E+04  0.7818609E-02  0.8200183E-01
       -1   -1    0    0    0  501  0.00000000000E+00  0.00000000000E+00  0.11204524538E+04  0.11204524538E+04  0.50400001928E-02 0.  1.
        1   -1    0    0  501    0  0.00000000000E+00  0.00000000000E+00 -0.22242394764E+04  0.22242394764E+04  0.50400001928E-02 0. -1.
    10030    2    1    2    0    0  0.00000000000E+00  0.00000000000E+00 -0.11037870226E+04  0.33446919302E+04  0.31573118814E+04 0.  0.
        4    1    3    3  502    0  0.75240263777E+03 -0.16882055467E+03  0.90737239256E+03  0.11907713385E+04  0.12699999809E+01 0.  1.
       -4    1    3    3    0  502 -0.75240263777E+03  0.16882055467E+03 -0.20111594152E+04  0.21539205916E+04  0.12699999809E+01 0. -1.
</event>
<event>
 5   0  0.7032692E-06  0.2839613E+04  0.7818609E-02  0.8291074E-01
        1   -1    0    0  501    0  0.00000000000E+00  0.00000000000E+00  0.23061795132E+04  0.23061795132E+04  0.50400001928E-02 0. -1.
       -1   -1    0    0    0  501  0.00000000000E+00  0.00000000000E+00 -0.87410839079E+03  0.87410839080E+03  0.50400001928E-02 0.  1.
    10030    2    1    2    0    0  0.00000000000E+00  0.00000000000E+00  0.14320711224E+04  0.31802879040E+04  0.28396132576E+04 0.  0.
        5    1    3    3  502    0 -0.39932408510E+03 -0.27397367238E+03 -0.77874240491E+03  0.91705131879E+03  0.46999998093E+01 0.  1.
       -5    1    3    3    0  502  0.39932408510E+03  0.27397367238E+03  0.22108135273E+04  0.22632365852E+04  0.46999998093E+01 0. -1.
</event>
<event>
 5   0  0.1345931E-05  0.2742136E+04  0.7818609E-02  0.8321461E-01
       -2   -1    0    0    0  501  0.00000000000E+00  0.00000000000E+00  0.24286856505E+04  0.24286856505E+04  0.25500000920E-02 0. -1.
        2   -1    0    0  501    0  0.00000000000E+00  0.00000000000E+00 -0.77401031069E+03  0.77401031069E+03  0.25500000920E-02 0.  1.
    10030    2    1    2    0    0  0.00000000000E+00  0.00000000000E+00  0.16546753398E+04  0.32026959612E+04  0.27421362000E+04 0.  0.
        2    1    3    3  502    0 -0.10947679214E+04 -0.50341597480E+03  0.15913306234E+04  0.19960655296E+04  0.25500000920E-02 0. -1.
       -2    1    3    3    0  502  0.10947679214E+04  0.50341597480E+03  0.63344716399E+02  0.12066304316E+04  0.25500000920E-02 0.  1.
</event>
<event>
 5   0  0.5392262E-06  0.3275722E+04  0.7818609E-02  0.8169101E-01
       -1   -1    0    0    0  501  0.00000000000E+00  0.00000000000E+00  0.12375838542E+04  0.12375838543E+04  0.50400001928E-02 0.  1.
        1   -1    0    0  501    0  0.00000000000E+00  0.00000000000E+00 -0.21676010870E+04  0.21676010870E+04  0.50400001928E-02 0. -1.
    10030    2    1    2    0    0  0.00000000000E+00  0.00000000000E+00 -0.93001723273E+03  0.34051849412E+04  0.32757216656E+04 0.  0.
        2    1    3    3  502    0 -0.15289647867E+04  0.56106599602E+03 -0.64523829084E+03  0.17518164352E+04  0.25500000920E-02 0. -1.
       -2    1    3    3    0  502  0.15289647867E+04 -0.56106599602E+03 -0.28477894189E+03  0.16533685060E+04  0.25500000920E-02 0.  1.
</event>
<event>
 5   0  0.1423692E-05  0.2954993E+04  0.7818609E-02  0.8256701E-01
        2   -1    0    0  501    0  0.00000000000E+00  0.00000000000E+00  0.15357855537E+04  0.15357855537E+04  0.25500000920E-02 0.  1.
       -2   -1    0    0    0  501  0.00000000000E+00  0.00000000000E+00 -0.14214193691E+04  0.14214193691E+04  0.25500000920E-02 0. -1.
    10030    2    1    2    0    0  0.00000000000E+00  0.00000000000E+00  0.11436618464E+03  0.29572049228E+04  0.29549926110E+04 0.  0.
        3    1    3    3  502    0  0.14653062702E+04  0.12400258709E+03 -0.86089085172E+02  0.14730615899E+04  0.10100000352E+00 0. -1.
       -3    1    3    3    0  502 -0.14653062702E+04 -0.12400258709E+03  0.20045526981E+03  0.14841433328E+04  0.10100000352E+00 0.  1.
</event>
<event>
 5   0  0.5730920E-06  0.3022705E+04  0.7818609E-02  0.8237277E-01
        1   -1    0    0  501    0  0.00000000000E+00  0.00000000000E+00  0.17102773636E+04  0.17102773636E+04  0.50400001928E-02 0.  1.
       -1   -1    0    0    0  501  0.00000000000E+00  0.00000000000E+00 -0.13355649373E+04  0.13355649373E+04  0.50400001928E-02 0. -1.
    10030    2    1    2    0    0  0.00000000000E+00  0.00000000000E+00  0.37471242623E+03  0.30458423009E+04  0.30227050666E+04 0.  0.
        1    1    3    3  502    0  0.70724446827E+03 -0.93016843979E+03  0.11532225543E+04  0.16417461205E+04  0.50400001928E-02 0.  1.
       -1    1    3    3    0  502 -0.70724446827E+03  0.93016843979E+03 -0.77851012811E+03  0.14040961804E+04  0.50400001928E-02 0. -1.
</event>
<event>
 5   0  0.1423692E-05  0.1948526E+04  0.7818609E-02  0.8631072E-01
       -2   -1    0    0    0  501  0.00000000000E+00  0.00000000000E+00  0.70621476680E+03  0.70621476681E+03  0.25500000920E-02 0.  1.
        2   -1    0    0  501    0  0.00000000000E+00  0.00000000000E+00 -0.13440505577E+04  0.13440505577E+04  0.25500000920E-02 0. -1.
    10030    2    1    2    0    0  0.00000000000E+00  0.00000000000E+00 -0.63783579090E+03  0.20502653245E+04  0.19485259569E+04 0.  0.
        3    1    3    3  502    0 -0.53184952103E+03  0.69289791758E+03 -0.77297808052E+03  0.11663903979E+04  0.10100000352E+00 0. -1.
       -3    1    3    3    0  502  0.53184952103E+03 -0.69289791758E+03  0.13514228962E+03  0.88387492659E+03  0.10100000352E+00 0.  1.
</event>
<event>
 5   0  0.1523029E-05  0.2745470E+04  0.7818609E-02  0.8320401E-01
       -2   -1    0    0    0  501  0.00000000000E+00  0.00000000000E+00  0.14950245306E+04  0.14950245306E+04  0.25500000920E-02 0.  1.
        2   -1    0    0  501    0  0.00000000000E+00  0.00000000000E+00 -0.12604480776E+04  0.12604480776E+04  0.25500000920E-02 0. -1.
    10030    2    1    2    0    0  0.00000000000E+00  0.00000000000E+00  0.23457645300E+03  0.27554726082E+04  0.27454695741E+04 0.  0.
        5    1    3    3  502    0 -0.50598462148E+03  0.12759647014E+04  0.13385135776E+03  0.13791463419E+04  0.46999998093E+01 0. -1.
       -5    1    3    3    0  502  0.50598462148E+03 -0.12759647014E+04  0.10072509524E+03  0.13763262663E+04  0.46999998093E+01 0.  1.
</event>
<event>
 5   0  0.1523029E-05  0.2877547E+04  0.7818609E-02  0.8279589E-01
        2   -1    0    0  501    0  0.00000000000E+00  0.00000000000E+00  0.18097891125E+04  0.18097891125E+04  0.25500000920E-02 0.  1.
       -2   -1    0    0    0  501  0.00000000000E+00  0.00000000000E+00 -0.11438181005E+04  0.11438181005E+04  0.25500000920E-02 0. -1.
    10030    2    1    2    0    0  0.00000000000E+00  0.00000000000E+00  0.66597101195E+03  0.29536072130E+04  0.28775472507E+04 0.  0.
        5    1    3    3  502    0  0.32527478726E+03  0.12989098039E+04  0.87328005306E+03  0.15986276949E+04  0.46999998093E+01 0.  1.
       -5    1    3    3    0  502 -0.32527478726E+03 -0.12989098039E+04 -0.20730904110E+03  0.13549795181E+04  0.46999998093E+01 0. -1.
</event>
<event>
 5   0  0.1423692E-05  0.3013544E+04  0.7818609E-02  0.8239874E-01
       -2   -1    0    0    0  501  0.00000000000E+00  0.00000000000E+00  0.10900870451E+04  0.10900870451E+04  0.25500000920E-02 0. -1.
        2   -1    0    0  501    0  0.00000000000E+00  0.00000000000E+00 -0.20827342610E+04  0.20827342610E+04  0.25500000920E-02 0.  1.
    10030    2    1    2    0    0  0.00000000000E+00  0.00000000000E+00 -0.99264721594E+03  0.31728213061E+04  0.30135438516E+04 0.  0.
        3    1    3    3  502    0 -0.14992778185E+04 -0.63819163498E+02 -0.35329518862E+03  0.15416628565E+04  0.10100000352E+00 0. -1.
       -3    1    3    3    0  502  0.14992778185E+04  0.63819163498E+02 -0.63935202733E+03  0.16311584496E+04  0.10100000352E+00 0.  1.
</event>
<event>
 5   0  0.5730920E-06  0.2401040E+04  0.7818609E-02  0.8439114E-01
        1   -1    0    0  501    0  0.00000000000E+00  0.00000000000E+00  0.47945704190E+03  0.47945704192E+03  0.50400001928E-02 0. -1.
       -1   -1    0    0    0  501  0.00000000000E+00  0.00000000000E+00 -0.30060018085E+04  0.30060018085E+04  0.50400001928E-02 0.  1.
    10030    2    1    2    0    0  0.00000000000E+00  0.00000000000E+00 -0.25265447666E+04  0.34854588504E+04  0.24010403871E+04 0.  0.
        1    1    3    3  502    0  0.84982674702E+02 -0.86486215553E+03 -0.60910346444E+02  0.87115938461E+03  0.50400001928E-02 0. -1.
       -1    1    3    3    0  502 -0.84982674702E+02  0.86486215553E+03 -0.24656344201E+04  0.26142994658E+04  0.50400001928E-02 0.  1.
</event>
<event>
 5   0  0.5329891E-06  0.3044190E+04  0.7818609E-02  0.8231224E-01
        1   -1    0    0  501    0  0.00000000000E+00  0.00000000000E+00  0.15677574384E+04  0.15677574384E+04  0.50400001928E-02 0. -1.
       -1   -1    0    0    0  501  0.00000000000E+00  0.00000000000E+00 -0.14777620450E+04  0.14777620451E+04  0.50400001928E-02 0.  1.
    10030    2    1    2    0    0  0.00000000000E+00  0.00000000000E+00  0.89995393306E+02  0.30455194834E+04  0.30441895068E+04 0.  0.
        4    1    3    3  502    0 -0.62910243292E+03 -0.13372577098E+04  0.40949568722E+03  0.15335306923E+04  0.12699999809E+01 0. -1.
       -4    1    3    3    0  502  0.62910243292E+03  0.13372577098E+04 -0.31950029391E+03  0.15119887911E+04  0.12699999809E+01 0.  1.
</event>
<event>
 5   0  0.7032692E-06  0.3002291E+04  0.7818609E-02  0.8243077E-01
        1   -1    0    0  501    0  0.00000000000E+00  0.00000000000E+00  0.11575731865E+04  0.11575731865E+04  0.50400001928E-02 0.  1.
       -1   -1    0    0    0  501  0.00000000000E+00  0.00000000000E+00 -0.19466908108E+04  0.19466908108E+04  0.50400001928E-02 0. -1.
    10030    2    1    2    0    0  0.00000000000E+00  0.00000000000E+00 -0.78911762437E+03  0.31042639973E+04  0.30022905156E+04 0.  0.
        5    1    3    3  502    0  0.14258032653E+04 -0.46287079984E+03 -0.47630529842E+03  0.15729123167E+04  0.46999998093E+01 0. -1.
       -5    1    3    3    0  502 -0.14258032653E+04  0.46287079984E+03 -0.31281232595E+03  0.15313516807E+04  0.46999998093E+01 0.  1.
</event>
<event>
 5   0  0.1345931E-05  0.2990805E+04  0.7818609E-02  0.8246362E-01
        2   -1    0    0  501    0  0.00000000000E+00  0.00000000000E+00  0.24293104891E+04  0.24293104891E+04  0.25500000920E-02 0. -1.
       -2   -1    0    0    0  501  0.00000000000E+00  0.00000000000E+00 -0.92051968038E+03  0.92051968038E+03  0.25500000920E-02 0.  1.
    10030    2    1    2    0    0  0.00000000000E+00  0.00000000000E+00  0.15087908087E+04  0.33498301694E+04  0.29908046509E+04 0.  0.
        2    1    3    3  502    0 -0.14741614910E+04 -0.24728328679E+03  0.70522832305E+03  0.16527698306E+04  0.25500000920E-02 0. -1.
       -2    1    3    3    0  502  0.14741614910E+04  0.24728328679E+03  0.80356248563E+03  0.16970603388E+04  0.25500000920E-02 0.  1.
</event>
<event>
 5   0  0.5522695E-06  0.2415438E+04  0.7818609E-02  0.8433746E-01
        1   -1    0    0  501    0  0.00000000000E+00  0.00000000000E+00  0.14242085080E+04  0.14242085080E+04  0.50400001928E-02 0. -1.
       -1   -1    0    0    0  501  0.00000000000E+00  0.00000000000E+00 -0.10241371145E+04  0.10241371145E+04  0.50400001928E-02 0.  1.
    10030    2    1    2    0    0  0.00000000000E+00  0.00000000000E+00  0.40007139350E+03  0.24483456225E+04  0.24154376761E+04 0.  0.
        3    1    3    3  502    0  0.94046772147E+03  0.69310729124E+03 -0.11025169784E+03  0.11734703658E+04  0.10100000352E+00 0.  1.
       -3    1    3    3    0  502 -0.94046772147E+03 -0.69310729124E+03  0.51032309134E+03  0.12748752567E+04  0.10100000352E+00 0. -1.
</event>
<event>
 5   0  0.5329891E-06  0.3115725E+04  0.7818609E-02  0.8211436E-01
       -1   -1    0    0    0  501  0.00000000000E+00  0.00000000000E+00  0.84319867656E+03  0.84319867657E+03  0.50400001928E-02 0.  1.
        1   -1    0    0  501    0  0.00000000000E+00  0.00000000000E+00 -0.28782485659E+04  0.28782485660E+04  0.50400001928E-02 0. -1.
    10030    2    1    2    0    0  0.00000000000E+00  0.00000000000E+00 -0.20350498894E+04  0.37214472425E+04  0.31157248798E+04 0.  0.
        4    1    3    3  502    0  0.21423699154E+03  0.12248840622E+04 -0.21384216875E+04  0.24736789163E+04  0.12699999809E+01 0. -1.
       -4    1    3    3    0  502 -0.21423699154E+03 -0.12248840622E+04  0.10337179811E+03  0.12477683262E+04  0.12699999809E+01 0.  1.
</event>
<event>
 5   0  0.1388724E-05  0.2456997E+04  0.7818609E-02  0.8418468E-01
        2   -1    0    0  501    0  0.00000000000E+00  0.00000000000E+00  0.14867367101E+04  0.14867367101E+04  0.25500000920E-02 0.  1.
       -2   -1    0    0    0  501  0.00000000000E+00  0.00000000000E+00 -0.10151145955E+04  0.10151145955E+04  0.25500000920E-02 0. -1.
    10030    2    1    2    0    0  0.00000000000E+00  0.00000000000E+00  0.47162211460E+03  0.25018513057E+04  0.24569966497E+04 0.  0.
        4    1    3    3  502    0 -0.32973078029E+03 -0.54783505330E+03  0.13039420157E+04  0.14522782193E+04  0.12699999809E+01 0.  1.
       -4    1    3    3    0  502  0.32973078029E+03  0.54783505330E+03 -0.83231990106E+03  0.10495730864E+04  0.12699999809E+01 0. -1.
</event>
<event>
 5   0  0.5329891E-06  0.3032757E+04  0.7818609E-02  0.8234438E-01
        1   -1    0    0  501    0  0.00000000000E+00  0.00000000000E+00  0.23616215353E+04  0.23616215353E+04  0.50400001928E-02 0. -1.
       -1   -1    0    0    0  501  0.00000000000E+00  0.00000000000E+00 -0.97365437672E+03  0.97365437674E+03  0.50400001928E-02 0.  1.
    10030    2    1    2    0    0  0.00000000000E+00  0.00000000000E+00  0.13879671586E+04  0.33352759121E+04  0.30327565969E+04 0.  0.
        4    1    3    3  502    0 -0.67021233201E+03  0.95205305839E+03 -0.37442395841E+03  0.12230226938E+04  0.12699999809E+01 0.  1.
       -4    1    3    3    0  502  0.67021233201E+03 -0.95205305839E+03  0.17623911170E+04  0.21122532183E+04  0.12699999809E+01 0. -1.
</event>
<event>
 5   0  0.5329891E-06  0.3024927E+04  0.7818609E-02  0.8236649E-01
       -1   -1    0    0    0  501  0.00000000000E+00  0.00000000000E+00  0.13492267109E+04  0.13492267109E+04  0.50400001928E-02 0. -1.
        1   -1    0    0  501    0  0.00000000000E+00  0.00000000000E+00 -0.16954493510E+04  0.16954493510E+04  0.50400001928E-02 0.  1.
    10030    2    1    2    0    0  0.00000000000E+00  0.00000000000E+00 -0.34622264010E+03  0.30446760618E+04  0.30249268099E+04 0.  0.
        4    1    3    3  502    0 -0.14478754870E+04  0.92728244176E+02 -0.60322075460E+03  0.15712475441E+04  0.12699999809E+01 0.  1.
       -4    1    3    3    0  502  0.14478754870E+04 -0.92728244176E+02  0.25699811450E+03  0.14734285177E+04  0.12699999809E+01 0. -1.
</event>
<event>
 5   0  0.5730920E-06  0.2977744E+04  0.7818609E-02  0.8250115E-01
        1   -1    0    0  501    0  0.00000000000E+00  0.00000000000E+00  0.13445714566E+04  0.13445714566E+04  0.50400001928E-02 0.  1.
       -1   -1    0    0    0  501  0.00000000000E+00  0.00000000000E+00 -0.16486592134E+04  0.16486592134E+04  0.50400001928E-02 0. -1.
    10030    2    1    2    0    0  0.00000000000E+00  0.00000000000E+00 -0.30408775680E+03  0.29932306700E+04  0.29777441931E+04 0.  0.
        1    1    3    3  502    0 -0.10506710388E+04 -0.98221251834E+03  0.23478089852E+03  0.14573171012E+04  0.50400001928E-02 0.  1.
       -1    1    3    3    0  502  0.10506710388E+04  0.98221251834E+03 -0.53886865533E+03  0.15359135688E+04  0.50400001928E-02 0. -1.
</event>
<event>
 5   0  0.1480547E-05  0.2943548E+04  0.7818609E-02  0.8260037E-01
       -2   -1    0    0    0  501  0.00000000000E+00  0.00000000000E+00  0.13592088501E+04  0.13592088501E+04  0.25500000920E-02 0. -1.
        2   -1    0    0  501    0  0.00000000000E+00  0.00000000000E+00 -0.15936616666E+04  0.15936616666E+04  0.25500000920E-02 0.  1.
    10030    2    1    2    0    0  0.00000000000E+00  0.00000000000E+00 -0.23445281649E+03  0.29528705166E+04  0.29435482270E+04 0.  0.
        1    1    3    3  502    0  0.13945337980E+03  0.53667187009E+03 -0.14848691083E+04  0.15850237254E+04  0.50400001928E-02 0.  1.
       -1    1    3    3    0  502 -0.13945337980E+03 -0.53667187009E+03  0.12504162918E+04  0.13678467912E+04  0.50400001928E-02 0. -1.
</event>
<event>
 5   0  0.5522695E-06  0.3045859E+04  0.7818609E-02  0.8230755E-01
       -1   -1    0    0    0  501  0.00000000000E+00  0.00000000000E+00  0.12874480006E+04  0.12874480006E+04  0.50400001928E-02 0. -1.
        1   -1    0    0  501    0  0.00000000000E+00  0.00000000000E+00 -0.18014824740E+04  0.18014824740E+04  0.50400001928E-02 0.  1.
    10030    2    1    2    0    0  0.00000000000E+00  0.00000000000E+00 -0.51403447347E+03  0.30889304746E+04  0.30458594907E+04 0.  0.
        3    1    3    3  502    0 -0.41212325174E+02 -0.48306376176E+02  0.12861049426E+04  0.12876715013E+04  0.10100000352E+00 0. -1.
       -3    1    3    3    0  502  0.41212325174E+02  0.48306376176E+02 -0.18001394160E+04  0.18012589733E+04  0.10100000352E+00 0.  1.
</event>
<event>
 5   0  0.1345931E-05  0.2871070E+04  0.7818609E-02  0.8281537E-01
        2   -1    0    0  501    0  0.00000000000E+00  0.00000000000E+00  0.22375243503E+04  0.22375243503E+04  0.25500000920E-02 0.  1.
       -2   -1    0    0    0  501  0.00000000000E+00  0.00000000000E+00 -0.92100013519E+03  0.92100013520E+03  0.25500000920E-02 0. -1.
    10030    2    1    2    0    0  0.00000000000E+00  0.00000000000E+00  0.13165242151E+04  0.31585244855E+04  0.28710696468E+04 0.  0.
        2    1    3    3  502    0  0.41956729313E+03  0.12040772531E+03 -0.84622166140E+03  0.95216901546E+03  0.25500000920E-02 0. -1.
       -2    1    3    3    0  502 -0.41956729313E+03 -0.12040772531E+03  0.21627458765E+04  0.22063554700E+04  0.25500000920E-02 0.  1.
</event>
<event>
 5   0  0.1423692E-05  0.2948433E+04  0.7818609E-02  0.8258611E-01
       -2   -1    0    0    0  501  0.00000000000E+00  0.00000000000E+00  0.12040039693E+04  0.12040039693E+04  0.25500000920E-02 0. -1.
        2   -1    0    0  501    0  0.00000000000E+00  0.00000000000E+00 -0.18050725318E+04  0.18050725318E+04  0.25500000920E-02 0.  1.
    10030    2    1    2    0    0  0.00000000000E+00  0.00000000000E+00 -0.60106856249E+03  0.30090765011E+04  0.29484331386E+04 0.  0.
        3    1    3    3  502    0 -0.12545167525E+04  0.76786982891E+03 -0.40196727409E+03  0.15247996773E+04  0.10100000352E+00 0.  1.
       -3    1    3    3    0  502  0.12545167525E+04 -0.76786982891E+03 -0.19910128840E+03  0.14842768238E+04  0.10100000352E+00 0. -1.
</event>
<event>
 5   0  0.7032692E-06  0.2981884E+04  0.7818609E-02  0.8248923E-01
        1   -1    0    0  501    0  0.00000000000E+00  0.00000000000E+00  0.19921180762E+04  0.19921180762E+04  0.50400001928E-02 0. -1.
       -1   -1    0    0    0  501  0.00000000000E+00  0.00000000000E+00 -0.11158518671E+04  0.11158518671E+04  0.50400001928E-02 0.  1.
    10030    2    1    2    0    0  0.00000000000E+00  0.00000000000E+00  0.87626620906E+03  0.31079699433E+04  0.29818844208E+04 0.  0.
        5    1    3    3  502    0 -0.39391389360E+03  0.61874519489E+03 -0.91477894711E+03  0.11725427002E+04  0.46999998093E+01 0.  1.
       -5    1    3    3    0  502  0.39391389360E+03 -0.61874519489E+03  0.17910451562E+04  0.19354272431E+04  0.46999998093E+01 0. -1.
</event>
<event>
 5   0  0.1388724E-05  0.1821744E+04  0.7818609E-02  0.8694821E-01
       -2   -1    0    0    0  501  0.00000000000E+00  0.00000000000E+00  0.45876730850E+03  0.45876730851E+03  0.25500000920E-02 0.  1.
        2   -1    0    0  501    0  0.00000000000E+00  0.00000000000E+00 -0.18085161409E+04  0.18085161409E+04  0.25500000920E-02 0. -1.
    10030    2    1    2    0    0  0.00000000000E+00  0.00000000000E+00 -0.13497488324E+04  0.22672834494E+04  0.18217443096E+04 0.  0.
        4    1    3    3  502    0  0.43019286287E+03  0.77667554739E+03 -0.42165568736E+03  0.98289670706E+03  0.12699999809E+01 0. -1.
       -4    1    3    3    0  502 -0.43019286287E+03 -0.77667554739E+03 -0.92809314508E+03  0.12843867424E+04  0.12699999809E+01 0.  1.
</event>
<event>
 5   0  0.1388724E-05  0.3002307E+04  0.7818609E-02  0.8243072E-01
        2   -1    0    0  501    0  0.00000000000E+00  0.00000000000E+00  0.23664292509E+04  0.23664292509E+04  0.25500000920E-02 0. -1.
       -2   -1    0    0    0  501  0.00000000000E+00  0.00000000000E+00 -0.95226237755E+03  0.95226237756E+03  0.25500000920E-02 0.  1.
    10030    2    1    2    0    0  0.00000000000E+00  0.00000000000E+00  0.14141668733E+04  0.33186916284E+04  0.30023068096E+04 0.  0.
        4    1    3    3  502    0  0.47930842477E+03  0.11468649797E+04 -0.22329253856E+03  0.12628923225E+04  0.12699999809E+01 0.  1.
       -4    1    3    3    0  502 -0.47930842477E+03 -0.11468649797E+04  0.16374594119E+04  0.20557993059E+04  0.12699999809E+01 0. -1.
</event>
<event>
 5   0  0.1345931E-05  0.2990484E+04  0.7818609E-02  0.8246454E-01
        2   -1    0    0  501    0  0.00000000000E+00  0.00000000000E+00  0.12858340179E+04  0.12858340179E+04  0.25500000920E-02 0. -1.
       -2   -1    0    0    0  501  0.00000000000E+00  0.00000000000E+00 -0.17387532283E+04  0.17387532283E+04  0.25500000920E-02 0.  1.
    10030    2    1    2    0    0  0.00000000000E+00  0.00000000000E+00 -0.45291921035E+03  0.30245872462E+04  0.29904836062E+04 0.  0.
        2    1    3    3  502    0 -0.39744183488E+03  0.78287370844E+03 -0.14505914753E+04  0.16956022186E+04  0.25500000920E-02 0.  1.
       -2    1    3    3    0  502  0.39744183488E+03 -0.78287370844E+03  0.99767226491E+03  0.13289850276E+04  0.25500000920E-02 0. -1.
</event>
<event>
 5   0  0.7032692E-06  0.2929377E+04  0.7818609E-02  0.8264190E-01
        1   -1    0    0  501    0  0.00000000000E+00  0.00000000000E+00  0.14265354391E+04  0.14265354391E+04  0.50400001928E-02 0. -1.
       -1   -1    0    0    0  501  0.00000000000E+00  0.00000000000E+00 -0.15038615742E+04  0.15038615742E+04  0.50400001928E-02 0.  1.
    10030    2    1    2    0    0  0.00000000000E+00  0.00000000000E+00 -0.77326135180E+02  0.29303970133E+04  0.29293766102E+04 0.  0.
        5    1    3    3  502    0  0.64084811314E+03  0.86465286328E+03  0.95515109032E+03  0.14389741392E+04  0.46999998093E+01 0. -1.
       -5    1    3    3    0  502 -0.64084811314E+03 -0.86465286328E+03 -0.10324772255E+04  0.14914228741E+04  0.46999998093E+01 0.  1.
</event>
<event>
 5   0  0.1423692E-05  0.1872182E+04  0.7818609E-02  0.8668828E-01
        2   -1    0    0  501    0  0.00000000000E+00  0.00000000000E+00  0.10084829523E+04  0.10084829523E+04  0.25500000920E-02 0.  1.
       -2   -1    0    0    0  501  0.00000000000E+00  0.00000000000E+00 -0.86889565888E+03  0.86889565888E+03  0.25500000920E-02 0. -1.
    10030    2    1    2    0    0  0.00000000000E+00  0.00000000000E+00  0.13958729341E+03  0.18773786112E+04  0.18721821058E+04 0.  0.
        3    1    3    3  502    0  0.60273766971E+02 -0.87188813779E+03 -0.26646469931E+03  0.91368774643E+03  0.10100000352E+00 0. -1.
       -3    1    3    3    0  502 -0.60273766971E+02  0.87188813779E+03  0.40605199272E+03  0.96369086475E+03  0.10100000352E+00 0.  1.
</event>
<event>
 5   0  0.5522695E-06  0.2967352E+04  0.7818609E-02  0.8253116E-01
        1   -1    0    0  501    0  0.00000000000E+00  0.00000000000E+00  0.26865570794E+04  0.26865570794E+04  0.50400001928E-02 0. -1.
       -1   -1    0    0    0  501  0.00000000000E+00  0.00000000000E+00 -0.81937357541E+03  0.81937357543E+03  0.50400001928E-02 0.  1.
    10030    2    1    2    0    0  0.00000000000E+00  0.00000000000E+00  0.18671835040E+04  0.35059306549E+04  0.29673516002E+04 0.  0.
        3    1    3    3  502    0  0.75999257719E+03  0.46905855633E+03 -0.46622051744E+03  0.10074553229E+04  0.10100000352E+00 0.  1.
       -3    1    3    3    0  502 -0.75999257719E+03 -0.46905855633E+03  0.23334040215E+04  0.24984753319E+04  0.10100000352E+00 0. -1.
</event>
<event>
 5   0  0.1388724E-05  0.1497828E+04  0.7818609E-02  0.8885898E-01
        2   -1    0    0  501    0  0.00000000000E+00  0.00000000000E+00  0.20386411728E+04  0.20386411728E+04  0.25500000920E-02 0.  1.
       -2   -1    0    0    0  501  0.00000000000E+00  0.00000000000E+00 -0.27512069650E+03  0.27512069651E+03  0.25500000920E-02 0. -1.
    10030    2    1    2    0    0  0.00000000000E+00  0.00000000000E+00  0.17635204763E+04  0.23137618694E+04  0.14978282671E+04 0.  0.
        4    1    3    3  502    0  0.14876042191E+03 -0.73155286046E+03  0.78944297516E+03  0.10865178667E+04  0.12699999809E+01 0. -1.
       -4    1    3    3    0  502 -0.14876042191E+03  0.73155286046E+03  0.97407750118E+03  0.12272440026E+04  0.12699999809E+01 0.  1.
</event>
<event>
 5   0  0.5329891E-06  0.1734992E+04  0.7818609E-02  0.8741655E-01
       -1   -1    0    0    0  501  0.00000000000E+00  0.00000000000E+00  0.11163929465E+04  0.11163929465E+04  0.50400001928E-02 0.  1.
        1   -1    0    0  501    0  0.00000000000E+00  0.00000000000E+00 -0.67408969504E+03  0.67408969506E+03  0.50400001928E-02 0. -1.
    10030    2    1    2    0    0  0.00000000000E+00  0.00000000000E+00  0.44230325148E+03  0.17904826416E+04  0.17349916206E+04 0.  0.
        4    1    3    3  502    0  0.58745306538E+03 -0.27705619886E+03 -0.37229371018E+03  0.74864241190E+03  0.12699999809E+01 0. -1.
       -4    1    3    3    0  502 -0.58745306538E+03  0.27705619886E+03  0.81459696166E+03  0.10418402297E+04  0.12699999809E+01 0.  1.
</event>
<event>
 5   0  0.5522695E-06  0.2917077E+04  0.7818609E-02  0.8267815E-01
        1   -1    0    0  501    0  0.00000000000E+00  0.00000000000E+00  0.20763992049E+04  0.20763992049E+04  0.50400001928E-02 0. -1.
       -1   -1    0    0    0  501  0.00000000000E+00  0.00000000000E+00 -0.10245307852E+04  0.10245307853E+04  0.50400001928E-02 0.  1.
    10030    2    1    2    0    0  0.00000000000E+00  0.00000000000E+00  0.10518684196E+04  0.31009299901E+04  0.29170772413E+04 0.  0.
        3    1    3    3  502    0 -0.56753137411E+03 -0.10853465849E+04 -0.31598389079E+03  0.12648774246E+04  0.10100000352E+00 0.  1.
       -3    1    3    3    0  502  0.56753137411E+03  0.10853465849E+04  0.13678523104E+04  0.18360525655E+04  0.10100000352E+00 0. -1.
</event>
<event>
 5   0  0.1345931E-05  0.3042141E+04  0.7818609E-02  0.8231799E-01
       -2   -1    0    0    0  501  0.00000000000E+00  0.00000000000E+00  0.14193956815E+04  0.14193956815E+04  0.25500000920E-02 0. -1.
        2   -1    0    0  501    0  0.00000000000E+00  0.00000000000E+00 -0.16300281416E+04  0.16300281416E+04  0.25500000920E-02 0.  1.
    10030    2    1    2    0    0  0.00000000000E+00  0.00000000000E+00 -0.21063246012E+03  0.30494238231E+04  0.30421406311E+04 0.  0.
        2    1    3    3  502    0 -0.87944611574E+03  0.63505138848E+03 -0.11741424926E+04  0.15985388107E+04  0.25500000920E-02 0.  1.
       -2    1    3    3    0  502  0.87944611574E+03 -0.63505138848E+03  0.96351003244E+03  0.14508850124E+04  0.25500000920E-02 0. -1.
</event>
<event>
 5   0  0.5522695E-06  0.2947122E+04  0.7818609E-02  0.8258994E-01
       -1   -1    0    0    0  501  0.00000000000E+00  0.00000000000E+00  0.15762210869E+04  0.15762210869E+04  0.50400001928E-02 0.  1.
        1   -1    0    0  501    0  0.00000000000E+00  0.00000000000E+00 -0.13775872531E+04  0.13775872531E+04  0.50400001928E-02 0. -1.
    10030    2    1    2    0    0  0.00000000000E+00  0.00000000000E+00  0.19863383382E+03  0.29538083400E+04  0.29471220384E+04 0.  0.
        3    1    3    3  502    0 -0.10156044742E+04  0.95815632505E+03  0.57141218063E+03  0.15086510138E+04  0.10100000352E+00 0.  1.
       -3    1    3    3    0  502  0.10156044742E+04 -0.95815632505E+03 -0.37277834680E+03  0.14451573261E+04  0.10100000352E+00 0. -1.
</event>
<event>
 5   0  0.1388724E-05  0.3063568E+04  0.7818609E-02  0.8225808E-01
        2   -1    0    0  501    0  0.00000000000E+00  0.00000000000E+00  0.17495790687E+04  0.17495790687E+04  0.25500000920E-02 0.  1.
       -2   -1    0    0    0  501  0.00000000000E+00  0.00000000000E+00 -0.13411011152E+04  0.13411011152E+04  0.25500000920E-02 0. -1.
    10030    2    1    2    0    0  0.00000000000E+00  0.00000000000E+00  0.40847795355E+03  0.30906801839E+04  0.30635681420E+04 0.  0.
        4    1    3    3  502    0  0.11875583869E+03 -0.75467882239E+03  0.15436624704E+04  0.17223642210E+04  0.12699999809E+01 0.  1.
       -4    1    3    3    0  502 -0.11875583869E+03  0.75467882239E+03 -0.11351845169E+04  0.13683159629E+04  0.12699999809E+01 0. -1.
</event>
<event>
 5   0  0.1480547E-05  0.2359058E+04  0.7818609E-02  0.8454992E-01
       -2   -1    0    0    0  501  0.00000000000E+00  0.00000000000E+00  0.99112424587E+03  0.99112424588E+03  0.25500000920E-02 0.  1.
        2   -1    0    0  501    0  0.00000000000E+00  0.00000000000E+00 -0.14037484197E+04  0.14037484197E+04  0.25500000920E-02 0. -1.
    10030    2    1    2    0    0  0.00000000000E+00  0.00000000000E+00 -0.41262417384E+03  0.23948726656E+04  0.23590583663E+04 0.  0.
        1    1    3    3  502    0 -0.35639261946E+03  0.10614565420E+04 -0.58286565426E+03  0.12623145649E+04  0.50400001928E-02 0. -1.
       -1    1    3    3    0  502  0.35639261946E+03 -0.10614565420E+04  0.17024148042E+03  0.11325581007E+04  0.50400001928E-02 0.  1.
</event>
<event>
 5   0  0.1480547E-05  0.2970326E+04  0.7818609E-02  0.8252256E-01
        2   -1    0    0  501    0  0.00000000000E+00  0.00000000000E+00  0.30806693749E+04  0.30806693749E+04  0.25500000920E-02 0.  1.
       -2   -1    0    0    0  501  0.00000000000E+00  0.00000000000E+00 -0.71598358293E+03  0.71598358294E+03  0.25500000920E-02 0. -1.
    10030    2    1    2    0    0  0.00000000000E+00  0.00000000000E+00  0.23646857920E+04  0.37966529578E+04  0.29703257039E+04 0.  0.
        1    1    3    3  502    0 -0.13912752730E+04  0.44979358307E+03  0.84964993933E+03  0.16911138850E+04  0.50400001928E-02 0.  1.
       -1    1    3    3    0  502  0.13912752730E+04 -0.44979358307E+03  0.15150358526E+04  0.21055390729E+04  0.50400001928E-02 0. -1.
</event>
<event>
 5   0  0.1423692E-05  0.2377510E+04  0.7818609E-02  0.8447972E-01
        2   -1    0    0  501    0  0.00000000000E+00  0.00000000000E+00  0.11850305635E+04  0.11850305635E+04  0.25500000920E-02 0. -1.
       -2   -1    0    0    0  501  0.00000000000E+00  0.00000000000E+00 -0.11924910338E+04  0.11924910338E+04  0.25500000920E-02 0.  1.
    10030    2    1    2    0    0  0.00000000000E+00  0.00000000000E+00 -0.74604702256E+01  0.23775215973E+04  0.23775098921E+04 0.  0.
        3    1    3    3  502    0  0.31636224486E+02 -0.10435358746E+04  0.56475329266E+03  0.11869769434E+04  0.10100000352E+00 0. -1.
       -3    1    3    3    0  502 -0.31636224486E+02  0.10435358746E+04 -0.57221376288E+03  0.11905446539E+04  0.10100000352E+00 0.  1.
</event>
<event>
 5   0  0.1523029E-05  0.2956817E+04  0.7818609E-02  0.8256171E-01
       -2   -1    0    0    0  501  0.00000000000E+00  0.00000000000E+00  0.13486134097E+04  0.13486134097E+04  0.25500000920E-02 0.  1.
        2   -1    0    0  501    0  0.00000000000E+00  0.00000000000E+00 -0.16206956140E+04  0.16206956140E+04  0.25500000920E-02 0. -1.
    10030    2    1    2    0    0  0.00000000000E+00  0.00000000000E+00 -0.27208220428E+03  0.29693090237E+04  0.29568170982E+04 0.  0.
        5    1    3    3  502    0 -0.34827868851E+03  0.12841593983E+04 -0.78320639654E+03  0.15439552308E+04  0.46999998093E+01 0. -1.
       -5    1    3    3    0  502  0.34827868851E+03 -0.12841593983E+04  0.51112419226E+03  0.14253537929E+04  0.46999998093E+01 0.  1.
</event>
<event>
 5   0  0.5522695E-06  0.2847906E+04  0.7818609E-02  0.8288548E-01
       -1   -1    0    0    0  501  0.00000000000E+00  0.00000000000E+00  0.11877444039E+04  0.11877444039E+04  0.50400001928E-02 0. -1.
        1   -1    0    0  501    0  0.00000000000E+00  0.00000000000E+00 -0.17071364253E+04  0.17071364253E+04  0.50400001928E-02 0.  1.
    10030    2    1    2    0    0  0.00000000000E+00  0.00000000000E+00 -0.51939202146E+03  0.28948808292E+04  0.28479057118E+04 0.  0.
        3    1    3    3  502    0  0.87297308766E+03 -0.11249052075E+04 -0.27206169880E+03  0.14496590343E+04  0.10100000352E+00 0. -1.
       -3    1    3    3    0  502 -0.87297308766E+03  0.11249052075E+04 -0.24733032266E+03  0.14452217949E+04  0.10100000352E+00 0.  1.
</event>
<event>
 5   0  0.5329891E-06  0.2850651E+04  0.7818609E-02  0.8287714E-01
       -1   -1    0    0    0  501  0.00000000000E+00  0.00000000000E+00  0.76136631020E+03  0.76136631021E+03  0.50400001928E-02 0. -1.
        1   -1    0    0  501    0  0.00000000000E+00  0.00000000000E+00 -0.26682987618E+04  0.26682987618E+04  0.50400001928E-02 0.  1.
    10030    2    1    2    0    0  0.00000000000E+00  0.00000000000E+00 -0.19069324516E+04  0.34296650721E+04  0.28506510013E+04 0.  0.
        4    1    3    3  502    0 -0.78708982126E+03 -0.74040819302E+03  0.16474393095E+03  0.10930950804E+04  0.12699999809E+01 0.  1.
       -4    1    3    3    0  502  0.78708982126E+03  0.74040819302E+03 -0.20716763826E+04  0.23365699917E+04  0.12699999809E+01 0. -1.
</event>
<event>
 5   0  0.1388724E-05  0.2991705E+04  0.7818609E-02  0.8246103E-01
       -2   -1    0    0    0  501  0.00000000000E+00  0.00000000000E+00  0.18336171026E+04  0.18336171026E+04  0.25500000920E-02 0.  1.
        2   -1    0    0  501    0  0.00000000000E+00  0.00000000000E+00 -0.12203066908E+04  0.12203066908E+04  0.25500000920E-02 0. -1.
    10030    2    1    2    0    0  0.00000000000E+00  0.00000000000E+00  0.61331041177E+03  0.30539237934E+04  0.29917053456E+04 0.  0.
        4    1    3    3  502    0  0.12352669715E+04  0.23515188876E+03 -0.52037476974E+03  0.13608719321E+04  0.12699999809E+01 0. -1.
       -4    1    3    3    0  502 -0.12352669715E+04 -0.23515188876E+03  0.11336851815E+04  0.16930518614E+04  0.12699999809E+01 0.  1.
</event>
<event>
 5   0  0.5522695E-06  0.1620516E+04  0.7818609E-02  0.8808042E-01
       -1   -1    0    0    0  501  0.00000000000E+00  0.00000000000E+00  0.62739605718E+03  0.62739605720E+03  0.50400001928E-02 0.  1.
        1   -1    0    0  501    0  0.00000000000E+00  0.00000000000E+00 -0.10464173648E+04  0.10464173649E+04  0.50400001928E-02 0. -1.
    10030    2    1    2    0    0  0.00000000000E+00  0.00000000000E+00 -0.41902130766E+03  0.16738134221E+04  0.16205161263E+04 0.  0.
        3    1    3    3  502    0  0.66890475099E+03  0.24874188265E+03  0.18679050074E+03  0.73769695096E+03  0.10100000352E+00 0.  1.
       -3    1    3    3    0  502 -0.66890475099E+03 -0.24874188265E+03 -0.60581180840E+03  0.93611647111E+03  0.10100000352E+00 0. -1.
</event>
<event>
 5   0  0.5392262E-06  0.1826096E+04  0.7818609E-02  0.8692544E-01
       -1   -1    0    0    0  501  0.00000000000E+00  0.00000000000E+00  0.99860789644E+03  0.99860789645E+03  0.50400001928E-02 0.  1.
        1   -1    0    0  501    0  0.00000000000E+00  0.00000000000E+00 -0.83481871356E+03  0.83481871357E+03  0.50400001928E-02 0. -1.
    10030    2    1    2    0    0  0.00000000000E+00  0.00000000000E+00  0.16378918288E+03  0.18334266100E+04  0.18260959005E+04 0.  0.
        2    1    3    3  502    0  0.70083851082E+03 -0.43161601614E+03  0.47868936556E+03  0.95216096977E+03  0.25500000920E-02 0.  1.
       -2    1    3    3    0  502 -0.70083851082E+03  0.43161601614E+03 -0.31490018268E+03  0.88126564026E+03  0.25500000920E-02 0. -1.
</event>
<event>
 5   0  0.5522695E-06  0.2857829E+04  0.7818609E-02  0.8285536E-01
       -1   -1    0    0    0  501  0.00000000000E+00  0.00000000000E+00  0.10580339758E+04  0.10580339758E+04  0.50400001928E-02 0.  1.
        1   -1    0    0  501    0  0.00000000000E+00  0.00000000000E+00 -0.19298031413E+04  0.19298031414E+04  0.50400001928E-02 0. -1.
    10030    2    1    2    0    0  0.00000000000E+00  0.00000000000E+00 -0.87176916559E+03  0.29878371171E+04  0.28578294491E+04 0.  0.
        3    1    3    3  502    0 -0.35261584233E+03  0.55419464958E+02 -0.18824417320E+04  0.19159843772E+04  0.10100000352E+00 0. -1.
       -3    1    3    3    0  502  0.35261584233E+03 -0.55419464958E+02  0.10106725664E+04  0.10718527399E+04  0.10100000352E+00 0.  1.
</event>
<event>
 5   0  0.5522695E-06  0.3028672E+04  0.7818609E-02  0.8235591E-01
       -1   -1    0    0    0  501  0.00000000000E+00  0.00000000000E+00  0.32478539050E+04  0.32478539050E+04  0.50400001928E-02 0.  1.
        1   -1    0    0  501    0  0.00000000000E+00  0.00000000000E+00 -0.70607026154E+03  0.70607026156E+03  0.50400001928E-02 0. -1.
    10030    2    1    2    0    0  0.00000000000E+00  0.00000000000E+00  0.25417836434E+04  0.39539241665E+04  0.30286716931E+04 0.  0.
        3    1    3    3  502    0  0.82344999052E+03  0.49529104751E+03 -0.25705930753E+03  0.99471735001E+03  0.10100000352E+00 0. -1.
       -3    1    3    3    0  502 -0.82344999052E+03 -0.49529104751E+03  0.27988429509E+04  0.29592068165E+04  0.10100000352E+00 0.  1.
</event>
<event>
 5   0  0.7032692E-06  0.3000897E+04  0.7818609E-02  0.8243475E-01
       -1   -1    0    0    0  501  0.00000000000E+00  0.00000000000E+00  0.12056476404E+04  0.12056476404E+04  0.50400001928E-02 0. -1.
        1   -1    0    0  501    0  0.00000000000E+00  0.00000000000E+00 -0.18673326079E+04  0.18673326080E+04  0.50400001928E-02 0.  1.
    10030    2    1    2    0    0  0.00000000000E+00  0.00000000000E+00 -0.66168496754E+03  0.30729802484E+04  0.30008966344E+04 0.  0.
        5    1    3    3  502    0 -0.43821490225E+03 -0.74608457256E+03 -0.15861133345E+04  0.18067794801E+04  0.46999998093E+01 0.  1.
       -5    1    3    3    0  502  0.43821490225E+03  0.74608457256E+03  0.92442836693E+03  0.12662007683E+04  0.46999998093E+01 0. -1.
</event>
<event>
 5   0  0.5392262E-06  0.3037765E+04  0.7818609E-02  0.8233028E-01
        1   -1    0    0  501    0  0.00000000000E+00  0.00000000000E+00  0.18966199296E+04  0.18966199296E+04  0.50400001928E-02 0.  1.
       -1   -1    0    0    0  501  0.00000000000E+00  0.00000000000E+00 -0.12163767789E+04  0.12163767789E+04  0.50400001928E-02 0. -1.
    10030    2    1    2    0    0  0.00000000000E+00  0.00000000000E+00  0.68024315071E+03  0.31129967085E+04  0.30377652580E+04 0.  0.
        2    1    3    3  502    0 -0.41327663224E+03  0.13072954808E+04 -0.32965915257E+03  0.14101397823E+04  0.25500000920E-02 0. -1.
       -2    1    3    3    0  502  0.41327663224E+03 -0.13072954808E+04  0.10099023033E+04  0.17028569262E+04  0.25500000920E-02 0.  1.
</event>
<event>
 5   0  0.5392262E-06  0.3129906E+04  0.7818609E-02  0.8207578E-01
       -1   -1    0    0    0  501  0.00000000000E+00  0.00000000000E+00  0.16374388862E+04  0.16374388862E+04  0.50400001928E-02 0.  1.
        1   -1    0    0  501    0  0.00000000000E+00  0.00000000000E+00 -0.14956756083E+04  0.14956756083E+04  0.50400001928E-02 0. -1.
    10030    2    1    2    0    0  0.00000000000E+00  0.00000000000E+00  0.14176327791E+03  0.31331144945E+04  0.31299056869E+04 0.  0.
        2    1    3    3  502    0 -0.14143256808E+04  0.64972380424E+03 -0.92439692781E+02  0.15591674862E+04  0.25500000920E-02 0.  1.
       -2    1    3    3    0  502  0.14143256808E+04 -0.64972380424E+03  0.23420297070E+03  0.15739470083E+04  0.25500000920E-02 0. -1.
</event>
<event>
 5   0  0.1523029E-05  0.2953674E+04  0.7818609E-02  0.8257085E-01
       -2   -1    0    0    0  501  0.00000000000E+00  0.00000000000E+00  0.11521057770E+04  0.11521057770E+04  0.25500000920E-02 0.  1.
        2   -1    0    0  501    0  0.00000000000E+00  0.00000000000E+00 -0.18930969056E+04  0.18930969056E+04  0.25500000920E-02 0. -1.
    10030    2    1    2    0    0  0.00000000000E+00  0.00000000000E+00 -0.74099112865E+03  0.30452026826E+04  0.29536742416E+04 0.  0.
        5    1    3    3  502    0  0.18234607849E+03 -0.62824389890E+02 -0.18800495808E+04  0.18899220917E+04  0.46999998093E+01 0. -1.
       -5    1    3    3    0  502 -0.18234607849E+03  0.62824389890E+02  0.11390584522E+04  0.11552805909E+04  0.46999998093E+01 0.  1.
</event>
<event>
 5   0  0.5522695E-06  0.3144973E+04  0.7818609E-02  0.8203503E-01
       -1   -1    0    0    0  501  0.00000000000E+00  0.00000000000E+00  0.13520601148E+04  0.13520601148E+04  0.50400001928E-02 0. -1.
        1   -1    0    0  501    0  0.00000000000E+00  0.00000000000E+00 -0.18288484795E+04  0.18288484795E+04  0.50400001928E-02 0.  1.
    10030    2    1    2    0    0  0.00000000000E+00  0.00000000000E+00 -0.47678836469E+03  0.31809085943E+04  0.31449725500E+04 0.  0.
        3    1    3    3  502    0  0.14487905071E+03  0.50360524253E+03  0.12611474822E+04  0.13656870658E+04  0.10100000352E+00 0. -1.
       -3    1    3    3    0  502 -0.14487905071E+03 -0.50360524253E+03 -0.17379358468E+04  0.18152215285E+04  0.10100000352E+00 0.  1.
</event>
<event>
 5   0  0.1523029E-05  0.2840277E+04  0.7818609E-02  0.8290872E-01
        2   -1    0    0  501    0  0.00000000000E+00  0.00000000000E+00  0.21267941963E+04  0.21267941963E+04  0.25500000920E-02 0.  1.
       -2   -1    0    0    0  501  0.00000000000E+00  0.00000000000E+00 -0.94827848199E+03  0.94827848199E+03  0.25500000920E-02 0. -1.
    10030    2    1    2    0    0  0.00000000000E+00  0.00000000000E+00  0.11785157144E+04  0.30750726783E+04  0.28402768682E+04 0.  0.
        5    1    3    3  502    0  0.13672259940E+04  0.35103046982E+03  0.75782654056E+03  0.16021399642E+04  0.46999998093E+01 0.  1.
       -5    1    3    3    0  502 -0.13672259940E+04 -0.35103046982E+03  0.42068917380E+03  0.14729327141E+04  0.46999998093E+01 0. -1.
</event>
<event>
 5   0  0.5522695E-06  0.1617426E+04  0.7818609E-02  0.8809913E-01
        1   -1    0    0  501    0  0.00000000000E+00  0.00000000000E+00  0.16610331955E+04  0.16610331955E+04  0.50400001928E-02 0.  1.
       -1   -1    0    0    0  501  0.00000000000E+00  0.00000000000E+00 -0.39374114642E+03  0.39374114645E+03  0.50400001928E-02 0. -1.
    10030    2    1    2    0    0  0.00000000000E+00  0.00000000000E+00  0.12672920491E+04  0.20547743419E+04  0.16174264925E+04 0.  0.
        3    1    3    3  502    0  0.61354487417E+03 -0.38863311111E+03  0.18172710136E+03  0.74866398153E+03  0.10100000352E+00 0. -1.
       -3    1    3    3    0  502 -0.61354487417E+03  0.38863311111E+03  0.10855649477E+04  0.13061103604E+04  0.10100000352E+00 0.  1.
</event>
<event>
 5   0  0.1388724E-05  0.2815634E+04  0.7818609E-02  0.8298431E-01
       -2   -1    0    0    0  501  0.00000000000E+00  0.00000000000E+00  0.11390082241E+04  0.11390082241E+04  0.25500000920E-02 0.  1.
        2   -1    0    0  501    0  0.00000000000E+00  0.00000000000E+00 -0.17400648846E+04  0.17400648846E+04  0.25500000920E-02 0. -1.
    10030    2    1    2    0    0  0.00000000000E+00  0.00000000000E+00 -0.60105666048E+03  0.28790731087E+04  0.28156336509E+04 0.  0.
        4    1    3    3  502    0  0.60511766202E+03  0.73489945252E+03  0.76000063953E+03  0.12181326591E+04  0.12699999809E+01 0.  1.
       -4    1    3    3    0  502 -0.60511766202E+03 -0.73489945252E+03 -0.13610573000E+04  0.16609404496E+04  0.12699999809E+01 0. -1.
</event>
<event>
 5   0  0.5329891E-06  0.2300720E+04  0.7818609E-02  0.8477637E-01
        1   -1    0    0  501    0  0.00000000000E+00  0.00000000000E+00  0.13293960091E+04  0.13293960092E+04  0.50400001928E-02 0.  1.
       -1   -1    0    0    0  501  0.00000000000E+00  0.00000000000E+00 -0.99543537069E+03  0.99543537070E+03  0.50400001928E-02 0. -1.
    10030    2    1    2    0    0  0.00000000000E+00  0.00000000000E+00  0.33396063846E+03  0.23248313799E+04  0.23007197215E+04 0.  0.
        4    1    3    3  502    0 -0.67751304115E+03 -0.66188686882E+03 -0.49270765462E+03  0.10676519067E+04  0.12699999809E+01 0. -1.
       -4    1    3    3    0  502  0.67751304115E+03  0.66188686882E+03  0.82666829308E+03  0.12571794732E+04  0.12699999809E+01 0.  1.
</event>
<event>
 5   0  0.1388724E-05  0.2853082E+04  0.7818609E-02  0.8286975E-01
       -2   -1    0    0    0  501  0.00000000000E+00  0.00000000000E+00  0.10844116933E+04  0.10844116933E+04  0.25500000920E-02 0. -1.
        2   -1    0    0  501    0  0.00000000000E+00  0.00000000000E+00 -0.18766117577E+04  0.18766117577E+04  0.25500000920E-02 0.  1.
    10030    2    1    2    0    0  0.00000000000E+00  0.00000000000E+00 -0.79220006439E+03  0.29610234510E+04  0.28530823570E+04 0.  0.
        4    1    3    3  502    0  0.12348267499E+04 -0.53039289260E+03  0.10044038820E+03  0.13476659850E+04  0.12699999809E+01 0. -1.
       -4    1    3    3    0  502 -0.12348267499E+04  0.53039289260E+03 -0.89264045259E+03  0.16133574660E+04  0.12699999809E+01 0.  1.
</event>
<event>
 5   0  0.1345931E-05  0.3032280E+04  0.7818609E-02  0.8234573E-01
       -2   -1    0    0    0  501  0.00000000000E+00  0.00000000000E+00  0.10506996247E+04  0.10506996247E+04  0.25500000920E-02 0.  1.
        2   -1    0    0  501    0  0.00000000000E+00  0.00000000000E+00 -0.21877617077E+04  0.21877617077E+04  0.25500000920E-02 0. -1.
    10030    2    1    2    0    0  0.00000000000E+00  0.00000000000E+00 -0.11370620830E+04  0.32384613324E+04  0.30322799378E+04 0.  0.
        2    1    3    3  502    0  0.50978092055E+03  0.13999334133E+04 -0.26836871321E+03  0.15138401220E+04  0.25500000920E-02 0. -1.
       -2    1    3    3    0  502 -0.50978092055E+03 -0.13999334133E+04 -0.86869336978E+03  0.17246212104E+04  0.25500000920E-02 0.  1.
</event>
<event>
 5   0  0.5730920E-06  0.2862153E+04  0.7818609E-02  0.8284228E-01
        1   -1    0    0  501    0  0.00000000000E+00  0.00000000000E+00  0.16441097606E+04  0.16441097606E+04  0.50400001928E-02 0.  1.
       -1   -1    0    0    0  501  0.00000000000E+00  0.00000000000E+00 -0.12456471160E+04  0.12456471160E+04  0.50400001928E-02 0. -1.
    10030    2    1    2    0    0  0.00000000000E+00  0.00000000000E+00  0.39846264462E+03  0.28897568766E+04  0.28621534422E+04 0.  0.
        1    1    3    3  502    0 -0.39461660131E+02  0.46346713647E+03 -0.11671951524E+04  0.12564646962E+04  0.50400001928E-02 0. -1.
       -1    1    3    3    0  502  0.39461660131E+02 -0.46346713647E+03  0.15656577970E+04  0.16332921804E+04  0.50400001928E-02 0.  1.
</event>
<event>
 5   0  0.5730920E-06  0.3033950E+04  0.7818609E-02  0.8234102E-01
       -1   -1    0    0    0  501  0.00000000000E+00  0.00000000000E+00  0.19962130309E+04  0.19962130309E+04  0.50400001928E-02 0.  1.
        1   -1    0    0  501    0  0.00000000000E+00  0.00000000000E+00 -0.11527895497E+04  0.11527895498E+04  0.50400001928E-02 0. -1.
    10030    2    1    2    0    0  0.00000000000E+00  0.00000000000E+00  0.84342348115E+03  0.31490025807E+04  0.30339502442E+04 0.  0.
        1    1    3    3  502    0  0.13711883866E+04  0.29944895408E+03  0.10192033445E+04  0.17345324226E+04  0.50400001928E-02 0.  1.
       -1    1    3    3    0  502 -0.13711883866E+04 -0.29944895408E+03 -0.17577986338E+03  0.14144701580E+04  0.50400001928E-02 0. -1.
</event>
<event>
 5   0  0.1523029E-05  0.3048316E+04  0.7818609E-02  0.8230067E-01
       -2   -1    0    0    0  501  0.00000000000E+00  0.00000000000E+00  0.11314184122E+04  0.11314184122E+04  0.25500000920E-02 0. -1.
        2   -1    0    0  501    0  0.00000000000E+00  0.00000000000E+00 -0.20532254475E+04  0.20532254475E+04  0.25500000920E-02 0.  1.
    10030    2    1    2    0    0  0.00000000000E+00  0.00000000000E+00 -0.92180703530E+03  0.31846438596E+04  0.30483156501E+04 0.  0.
        5    1    3    3  502    0 -0.43527559581E+03  0.22046533616E+03 -0.19694209705E+04  0.20289679293E+04  0.46999998093E+01 0.  1.
       -5    1    3    3    0  502  0.43527559581E+03 -0.22046533616E+03  0.10476139352E+04  0.11556759304E+04  0.46999998093E+01 0. -1.
</event>
<event>
 5   0  0.1423692E-05  0.3012906E+04  0.7818609E-02  0.8240055E-01
        2   -1    0    0  501    0  0.00000000000E+00  0.00000000000E+00  0.15906895648E+04  0.15906895648E+04  0.25500000920E-02 0.  1.
       -2   -1    0    0    0  501  0.00000000000E+00  0.00000000000E+00 -0.14266772964E+04  0.14266772964E+04  0.25500000920E-02 0. -1.
    10030    2    1    2    0    0  0.00000000000E+00  0.00000000000E+00  0.16401226841E+03  0.30173668613E+04  0.30129060309E+04 0.  0.
        3    1    3    3  502    0 -0.62226282859E+02 -0.12827031620E+04 -0.70668837727E+03  0.14658130798E+04  0.10100000352E+00 0. -1.
       -3    1    3    3    0  502  0.62226282859E+02  0.12827031620E+04  0.87070064567E+03  0.15515537815E+04  0.10100000352E+00 0.  1.
</event>
<event>
 5   0  0.1423692E-05  0.2259172E+04  0.7818609E-02  0.8494195E-01
       -2   -1    0    0    0  501  0.00000000000E+00  0.00000000000E+00  0.95453117972E+03  0.95453117972E+03  0.25500000920E-02 0.  1.
        2   -1    0    0  501    0  0.00000000000E+00  0.00000000000E+00 -0.13367445408E+04  0.13367445408E+04  0.25500000920E-02 0. -1.
    10030    2    1    2    0    0  0.00000000000E+00  0.00000000000E+00 -0.38221336111E+03  0.22912757206E+04  0.22591718337E+04 0.  0.
        3    1    3    3  502    0 -0.13243449443E+03 -0.28975002911E+03 -0.12902368242E+04  0.13289864738E+04  0.10100000352E+00 0. -1.
       -3    1    3    3    0  502  0.13243449443E+03  0.28975002911E+03  0.90802346312E+03  0.96228924678E+03  0.10100000352E+00 0.  1.
</event>
<event>
 5   0  0.5392262E-06  0.2996563E+04  0.7818609E-02  0.8244713E-01
        1   -1    0    0  501    0  0.00000000000E+00  0.00000000000E+00  0.21892511031E+04  0.21892511031E+04  0.50400001928E-02 0. -1.
       -1   -1    0    0    0  501  0.00000000000E+00  0.00000000000E+00 -0.10253951836E+04  0.10253951837E+04  0.50400001928E-02 0.  1.
    10030    2    1    2    0    0  0.00000000000E+00  0.00000000000E+00  0.11638559195E+04  0.32146462868E+04  0.29965630559E+04 0.  0.
        2    1    3    3  502    0  0.52799408056E+03  0.60232475547E+03 -0.77642845922E+03  0.11155330620E+04  0.25500000920E-02 0.  1.
       -2    1    3    3    0  502 -0.52799408056E+03 -0.60232475547E+03  0.19402843787E+04  0.20991132248E+04  0.25500000920E-02 0. -1.
</event>
<event>
 5   0  0.1388724E-05  0.3109491E+04  0.7818609E-02  0.8213138E-01
       -2   -1    0    0    0  501  0.00000000000E+00  0.00000000000E+00  0.96992592488E+03  0.96992592489E+03  0.25500000920E-02 0. -1.
        2   -1    0    0  501    0  0.00000000000E+00  0.00000000000E+00 -0.24921842058E+04  0.24921842058E+04  0.25500000920E-02 0.  1.
    10030    2    1    2    0    0  0.00000000000E+00  0.00000000000E+00 -0.15222582809E+04  0.34621101307E+04  0.31094913223E+04 0.  0.
        4    1    3    3  502    0 -0.24427925327E+03  0.15276639503E+04 -0.93290692869E+03  0.18065841938E+04  0.12699999809E+01 0.  1.
       -4    1    3    3    0  502  0.24427925327E+03 -0.15276639503E+04 -0.58935135222E+03  0.16555259369E+04  0.12699999809E+01 0. -1.
</event>
<event>
 5   0  0.5730920E-06  0.2988253E+04  0.7818609E-02  0.8247093E-01
        1   -1    0    0  501    0  0.00000000000E+00  0.00000000000E+00  0.11464792201E+04  0.11464792201E+04  0.50400001928E-02 0. -1.
       -1   -1    0    0    0  501  0.00000000000E+00  0.00000000000E+00 -0.19471915366E+04  0.19471915366E+04  0.50400001928E-02 0.  1.
    10030    2    1    2    0    0  0.00000000000E+00  0.00000000000E+00 -0.80071231657E+03  0.30936707567E+04  0.29882534259E+04 0.  0.
        1    1    3    3  502    0 -0.10010217439E+04  0.11080619185E+04 -0.45282834899E+03  0.15604163741E+04  0.50400001928E-02 0.  1.
       -1    1    3    3    0  502  0.10010217439E+04 -0.11080619185E+04 -0.34788396757E+03  0.15332543826E+04  0.50400001928E-02 0. -1.
</event>
<event>
 5   0  0.1423692E-05  0.2939014E+04  0.7818609E-02  0.8261363E-01
       -2   -1    0    0    0  501  0.00000000000E+00  0.00000000000E+00  0.16475108261E+04  0.16475108262E+04  0.25500000920E-02 0.  1.
        2   -1    0    0  501    0  0.00000000000E+00  0.00000000000E+00 -0.13107353731E+04  0.13107353731E+04  0.25500000920E-02 0. -1.
    10030    2    1    2    0    0  0.00000000000E+00  0.00000000000E+00  0.33677545306E+03  0.29582461992E+04  0.29390139281E+04 0.  0.
        3    1    3    3  502    0  0.72665470901E+03  0.27710910988E+03  0.14233965443E+04  0.16219969968E+04  0.10100000352E+00 0.  1.
       -3    1    3    3    0  502 -0.72665470901E+03 -0.27710910988E+03 -0.10866210913E+04  0.13362492025E+04  0.10100000352E+00 0. -1.
</event>
<event>
 5   0  0.5730920E-06  0.2894441E+04  0.7818609E-02  0.8274533E-01
       -1   -1    0    0    0  501  0.00000000000E+00  0.00000000000E+00  0.11661001691E+04  0.11661001691E+04  0.50400001928E-02 0. -1.
        1   -1    0    0  501    0  0.00000000000E+00  0.00000000000E+00 -0.17961128531E+04  0.17961128531E+04  0.50400001928E-02 0.  1.
    10030    2    1    2    0    0  0.00000000000E+00  0.00000000000E+00 -0.63001268405E+03  0.29622130222E+04  0.28944412253E+04 0.  0.
        1    1    3    3  502    0  0.65526038696E+03  0.47220456956E+03 -0.15440006407E+04  0.17424928432E+04  0.50400001928E-02 0.  1.
       -1    1    3    3    0  502 -0.65526038696E+03 -0.47220456956E+03  0.91398795660E+03  0.12197201790E+04  0.50400001928E-02 0. -1.
</event>
<event>
 5   0  0.1523029E-05  0.3003482E+04  0.7818609E-02  0.8242737E-01
       -2   -1    0    0    0  501  0.00000000000E+00  0.00000000000E+00  0.24431852694E+04  0.24431852694E+04  0.25500000920E-02 0.  1.
        2   -1    0    0  501    0  0.00000000000E+00  0.00000000000E+00 -0.92306796920E+03  0.92306796921E+03  0.25500000920E-02 0. -1.
    10030    2    1    2    0    0  0.00000000000E+00  0.00000000000E+00  0.15201173002E+04  0.33662532386E+04  0.30034820226E+04 0.  0.
        5    1    3    3  502    0 -0.78961202647E+03  0.67971171102E+03  0.19722205473E+04  0.22305091660E+04  0.46999998093E+01 0.  1.
       -5    1    3    3    0  502  0.78961202647E+03 -0.67971171102E+03 -0.45210324709E+03  0.11357440726E+04  0.46999998093E+01 0. -1.
</event>
<event>
 5   0  0.5329891E-06  0.2775336E+04  0.7818609E-02  0.8310967E-01
        1   -1    0    0  501    0  0.00000000000E+00  0.00000000000E+00  0.15120394551E+04  0.15120394551E+04  0.50400001928E-02 0.  1.
       -1   -1    0    0    0  501  0.00000000000E+00  0.00000000000E+00 -0.12735264659E+04  0.12735264659E+04  0.50400001928E-02 0. -1.
    10030    2    1    2    0    0  0.00000000000E+00  0.00000000000E+00  0.23851298918E+03  0.27855659210E+04  0.27753358454E+04 0.  0.
        4    1    3    3  502    0 -0.54798878761E+03 -0.41697599669E+03  0.13284628615E+04  0.14963207813E+04  0.12699999809E+01 0.  1.
       -4    1    3    3    0  502  0.54798878761E+03  0.41697599669E+03 -0.10899498724E+04  0.12892451397E+04  0.12699999809E+01 0. -1.
</event>
<event>
 5   0  0.1345931E-05  0.3005346E+04  0.7818609E-02  0.8242206E-01
       -2   -1    0    0    0  501  0.00000000000E+00  0.00000000000E+00  0.17676842291E+04  0.17676842291E+04  0.25500000920E-02 0. -1.
        2   -1    0    0  501    0  0.00000000000E+00  0.00000000000E+00 -0.12773920933E+04  0.12773920933E+04  0.25500000920E-02 0.  1.
    10030    2    1    2    0    0  0.00000000000E+00  0.00000000000E+00  0.49029213584E+03  0.30450763224E+04  0.30053458088E+04 0.  0.
        2    1    3    3  502    0 -0.11041070356E+04  0.43724105874E+02 -0.78667889833E+03  0.13564025334E+04  0.25500000920E-02 0.  1.
       -2    1    3    3    0  502  0.11041070356E+04 -0.43724105874E+02  0.12769710342E+04  0.16886737890E+04  0.25500000920E-02 0. -1.
</event>
<event>
 5   0  0.1423692E-05  0.2923926E+04  0.7818609E-02  0.8265794E-01
        2   -1    0    0  501    0  0.00000000000E+00  0.00000000000E+00  0.21266550227E+04  0.21266550227E+04  0.25500000920E-02 0.  1.
       -2   -1    0    0    0  501  0.00000000000E+00  0.00000000000E+00 -0.10050223604E+04  0.10050223605E+04  0.25500000920E-02 0. -1.
    10030    2    1    2    0    0  0.00000000000E+00  0.00000000000E+00  0.11216326622E+04  0.31316773831E+04  0.29239260256E+04 0.  0.
        3    1    3    3  502    0 -0.35814718911E+03  0.77432813579E+03  0.18323868751E+04  0.20212607801E+04  0.10100000352E+00 0.  1.
       -3    1    3    3    0  502  0.35814718911E+03 -0.77432813579E+03 -0.71075421287E+03  0.11104166030E+04  0.10100000352E+00 0. -1.
</event>
<event>
 5   0  0.7032692E-06  0.3016908E+04  0.7818609E-02  0.8238919E-01
       -1   -1    0    0    0  501  0.00000000000E+00  0.00000000000E+00  0.11833487935E+04  0.11833487935E+04  0.50400001928E-02 0. -1.
        1   -1    0    0  501    0  0.00000000000E+00  0.00000000000E+00 -0.19228760532E+04  0.19228760532E+04  0.50400001928E-02 0.  1.
    10030    2    1    2    0    0  0.00000000000E+00  0.00000000000E+00 -0.73952725967E+03  0.31062248467E+04  0.30169077265E+04 0.  0.
        5    1    3    3  502    0 -0.12697362707E+04  0.62671035023E+03  0.16564599853E+03  0.14256425734E+04  0.46999998093E+01 0. -1.
       -5    1    3    3    0  502  0.12697362707E+04 -0.62671035023E+03 -0.90517325821E+03  0.16805822733E+04  0.46999998093E+01 0.  1.
</event>
<event>
 5   0  0.4806125E-06  0.3014783E+04  0.7818609E-02  0.8239522E-01
       -4   -1    0    0    0  501  0.00000000000E+00  0.00000000000E+00  0.12690508693E+04  0.12690515048E+04  0.12699999809E+01 0.  1.
        4   -1    0    0  501    0  0.00000000000E+00  0.00000000000E+00 -0.17904942015E+04  0.17904946519E+04  0.12699999809E+01 0. -1.
    10030    2    1    2    0    0  0.00000000000E+00  0.00000000000E+00 -0.52144333216E+03  0.30595461567E+04  0.30147834974E+04 0.  0.
        4    1    3    3  502    0 -0.13469485022E+04 -0.14509468637E+03 -0.93152413710E+03  0.16440990136E+04  0.12699999809E+01 0.  1.
       -4    1    3    3    0  502  0.13469485022E+04  0.14509468637E+03  0.41008080494E+03  0.14154471431E+04  0.12699999809E+01 0. -1.
</event>
<event>
 5   0  0.1388724E-05  0.3001251E+04  0.7818609E-02  0.8243374E-01
       -2   -1    0    0    0  501  0.00000000000E+00  0.00000000000E+00  0.12435648295E+04  0.12435648295E+04  0.25500000920E-02 0. -1.
        2   -1    0    0  501    0  0.00000000000E+00  0.00000000000E+00 -0.18108234319E+04  0.18108234319E+04  0.25500000920E-02 0.  1.
    10030    2    1    2    0    0  0.00000000000E+00  0.00000000000E+00 -0.56725860236E+03  0.30543882614E+04  0.30012506276E+04 0.  0.
        4    1    3    3  502    0 -0.77655914287E+03 -0.12245930302E+04 -0.67673565936E+03  0.16002015365E+04  0.12699999809E+01 0. -1.
       -4    1    3    3    0  502  0.77655914287E+03  0.12245930302E+04  0.10947705700E+03  0.14541867249E+04  0.12699999809E+01 0.  1.
</event>
<event>
 5   0  0.1345931E-05  0.3017620E+04  0.7818609E-02  0.8238717E-01
        2   -1    0    0  501    0  0.00000000000E+00  0.00000000000E+00  0.11236526034E+04  0.11236526034E+04  0.25500000920E-02 0.  1.
       -2   -1    0    0    0  501  0.00000000000E+00  0.00000000000E+00 -0.20259894280E+04  0.20259894280E+04  0.25500000920E-02 0. -1.
    10030    2    1    2    0    0  0.00000000000E+00  0.00000000000E+00 -0.90233682465E+03  0.31496420314E+04  0.30176204501E+04 0.  0.
        2    1    3    3  502    0 -0.37150385735E+03 -0.21872628613E+03 -0.19603359549E+04  0.20071804504E+04  0.25500000920E-02 0. -1.
       -2    1    3    3    0  502  0.37150385735E+03  0.21872628613E+03  0.10579991303E+04  0.11424615810E+04  0.25500000920E-02 0.  1.
</event>
<event>
 5   0  0.5392262E-06  0.3412468E+04  0.7818609E-02  0.8134853E-01
       -1   -1    0    0    0  501  0.00000000000E+00  0.00000000000E+00  0.16907766541E+04  0.16907766542E+04  0.50400001928E-02 0. -1.
        1   -1    0    0  501    0  0.00000000000E+00  0.00000000000E+00 -0.17218322898E+04  0.17218322898E+04  0.50400001928E-02 0.  1.
    10030    2    1    2    0    0  0.00000000000E+00  0.00000000000E+00 -0.31055635657E+02  0.34126089440E+04  0.34124676338E+04 0.  0.
        2    1    3    3  502    0 -0.66053132602E+03 -0.55972347711E+03  0.14547853683E+04  0.16929242367E+04  0.25500000920E-02 0. -1.
       -2    1    3    3    0  502  0.66053132602E+03  0.55972347711E+03 -0.14858410039E+04  0.17196847073E+04  0.25500000920E-02 0.  1.
</event>
<event>
 5   0  0.1345931E-05  0.2018883E+04  0.7818609E-02  0.8597843E-01
       -2   -1    0    0    0  501  0.00000000000E+00  0.00000000000E+00  0.77707629205E+03  0.77707629206E+03  0.25500000920E-02 0.  1.
        2   -1    0    0  501    0  0.00000000000E+00  0.00000000000E+00 -0.13112897206E+04  0.13112897206E+04  0.25500000920E-02 0. -1.
    10030    2    1    2    0    0  0.00000000000E+00  0.00000000000E+00 -0.53421342854E+03  0.20883660127E+04  0.20188830119E+04 0.  0.
        2    1    3    3  502    0 -0.51227436648E+03 -0.41297143574E+03 -0.10589603381E+04  0.12467427285E+04  0.25500000920E-02 0. -1.
       -2    1    3    3    0  502  0.51227436648E+03  0.41297143574E+03  0.52474690960E+03  0.84162328416E+03  0.25500000920E-02 0.  1.
</event>
<event>
 5   0  0.1523029E-05  0.2989377E+04  0.7818609E-02  0.8246771E-01
       -2   -1    0    0    0  501  0.00000000000E+00  0.00000000000E+00  0.10710333430E+04  0.10710333431E+04  0.25500000920E-02 0. -1.
        2   -1    0    0  501    0  0.00000000000E+00  0.00000000000E+00 -0.20859232762E+04  0.20859232762E+04  0.25500000920E-02 0.  1.
    10030    2    1    2    0    0  0.00000000000E+00  0.00000000000E+00 -0.10148899332E+04  0.31569566193E+04  0.29893767778E+04 0.  0.
        5    1    3    3  502    0 -0.53792218888E+03 -0.12657979368E+04 -0.11254571880E+04  0.17771552184E+04  0.46999998093E+01 0. -1.
       -5    1    3    3    0  502  0.53792218888E+03  0.12657979368E+04  0.11056725486E+03  0.13798014009E+04  0.46999998093E+01 0.  1.
</event>
<event>
 5   0  0.1388724E-05  0.3187751E+04  0.7818609E-02  0.8192060E-01
        2   -1    0    0  501    0  0.00000000000E+00  0.00000000000E+00  0.29199046312E+04  0.29199046312E+04  0.25500000920E-02 0. -1.
       -2   -1    0    0    0  501  0.00000000000E+00  0.00000000000E+00 -0.87004197778E+03  0.87004197778E+03  0.25500000920E-02 0.  1.
    10030    2    1    2    0    0  0.00000000000E+00  0.00000000000E+00  0.20498626535E+04  0.37899466090E+04  0.31877513079E+04 0.  0.
        4    1    3    3  502    0 -0.27065408448E+03 -0.39074627538E+03 -0.78381395623E+03  0.91667999654E+03  0.12699999809E+01 0.  1.
       -4    1    3    3    0  502  0.27065408448E+03  0.39074627538E+03  0.28336766097E+04  0.28732666125E+04  0.12699999809E+01 0. -1.
</event>
<event>
 5   0  0.1345931E-05  0.1793177E+04  0.7818609E-02  0.8709936E-01
       -2   -1    0    0    0  501  0.00000000000E+00  0.00000000000E+00  0.48276011704E+03  0.48276011705E+03  0.25500000920E-02 0. -1.
        2   -1    0    0  501    0  0.00000000000E+00  0.00000000000E+00 -0.16651559478E+04  0.16651559478E+04  0.25500000920E-02 0.  1.
    10030    2    1    2    0    0  0.00000000000E+00  0.00000000000E+00 -0.11823958307E+04  0.21479160648E+04  0.17931769352E+04 0.  0.
        2    1    3    3  502    0 -0.30253958106E+03  0.41422209406E+03  0.28964149702E+03  0.58906904359E+03  0.25500000920E-02 0. -1.
       -2    1    3    3    0  502  0.30253958106E+03 -0.41422209406E+03 -0.14720373278E+04  0.15588470212E+04  0.25500000920E-02 0.  1.
</event>
<event>
 5   0  0.1523029E-05  0.2965375E+04  0.7818609E-02  0.8253688E-01
       -2   -1    0    0    0  501  0.00000000000E+00  0.00000000000E+00  0.12746818700E+04  0.12746818700E+04  0.25500000920E-02 0. -1.
        2   -1    0    0  501    0  0.00000000000E+00  0.00000000000E+00 -0.17246361552E+04  0.17246361552E+04  0.25500000920E-02 0.  1.
    10030    2    1    2    0    0  0.00000000000E+00  0.00000000000E+00 -0.44995428520E+03  0.29993180252E+04  0.29653751461E+04 0.  0.
        5    1    3    3  502    0  0.93689296784E+03  0.11301197035E+04 -0.43569173064E+03  0.15312701759E+04  0.46999998093E+01 0.  1.
       -5    1    3    3    0  502 -0.93689296784E+03 -0.11301197035E+04 -0.14262554563E+02  0.14680478493E+04  0.46999998093E+01 0. -1.
</event>
<event>
 5   0  0.5730920E-06  0.2823289E+04  0.7818609E-02  0.8296074E-01
        1   -1    0    0  501    0  0.00000000000E+00  0.00000000000E+00  0.22720038267E+04  0.22720038267E+04  0.50400001928E-02 0. -1.
       -1   -1    0    0    0  501  0.00000000000E+00  0.00000000000E+00 -0.87708466324E+03  0.87708466325E+03  0.50400001928E-02 0.  1.
    10030    2    1    2    0    0  0.00000000000E+00  0.00000000000E+00  0.13949191635E+04  0.31490884900E+04  0.28232886578E+04 0.  0.
        1    1    3    3  502    0 -0.13105436844E+04  0.46048886957E+03  0.41713078969E+03  0.14503698989E+04  0.50400001928E-02 0.  1.
       -1    1    3    3    0  502  0.13105436844E+04 -0.46048886957E+03  0.97778837380E+03  0.16987185911E+04  0.50400001928E-02 0. -1.
</event>
<event>
 5   0  0.1423692E-05  0.2967200E+04  0.7818609E-02  0.8253160E-01
       -2   -1    0    0    0  501  0.00000000000E+00  0.00000000000E+00  0.13045494539E+04  0.13045494539E+04  0.25500000920E-02 0. -1.
        2   -1    0    0  501    0  0.00000000000E+00  0.00000000000E+00 -0.16872255170E+04  0.16872255170E+04  0.25500000920E-02 0.  1.
    10030    2    1    2    0    0  0.00000000000E+00  0.00000000000E+00 -0.38267606311E+03  0.29917749709E+04  0.29672001124E+04 0.  0.
        3    1    3    3  502    0  0.75671434254E+03 -0.85148966916E+03  0.76701699419E+03  0.13733048942E+04  0.10100000352E+00 0. -1.
       -3    1    3    3    0  502 -0.75671434254E+03  0.85148966916E+03 -0.11496930573E+04  0.16184700767E+04  0.10100000352E+00 0.  1.
</event>
<event>
 5   0  0.5730920E-06  0.2897293E+04  0.7818609E-02  0.8273683E-01
       -1   -1    0    0    0  501  0.00000000000E+00  0.00000000000E+00  0.12986702321E+04  0.12986702321E+04  0.50400001928E-02 0. -1.
        1   -1    0    0  501    0  0.00000000000E+00  0.00000000000E+00 -0.16159426155E+04  0.16159426156E+04  0.50400001928E-02 0.  1.
    10030    2    1    2    0    0  0.00000000000E+00  0.00000000000E+00 -0.31727238343E+03  0.29146128477E+04  0.28972929239E+04 0.  0.
        1    1    3    3  502    0 -0.34220880687E+03  0.78926494187E+03  0.10138916792E+04  0.13296700166E+04  0.50400001928E-02 0. -1.
       -1    1    3    3    0  502  0.34220880687E+03 -0.78926494187E+03 -0.13311640626E+04  0.15849428310E+04  0.50400001928E-02 0.  1.
</event>
<event>
 5   0  0.1345931E-05  0.2891682E+04  0.7818609E-02  0.8275357E-01
       -2   -1    0    0    0  501  0.00000000000E+00  0.00000000000E+00  0.13863617567E+04  0.13863617567E+04  0.25500000920E-02 0.  1.
        2   -1    0    0  501    0  0.00000000000E+00  0.00000000000E+00 -0.15078721185E+04  0.15078721185E+04  0.25500000920E-02 0. -1.
    10030    2    1    2    0    0  0.00000000000E+00  0.00000000000E+00 -0.12151036172E+03  0.28942338752E+04  0.28916820289E+04 0.  0.
        2    1    3    3  502    0 -0.11807923667E+04  0.12780960181E+03  0.76450281941E+03  0.14124696346E+04  0.25500000920E-02 0.  1.
       -2    1    3    3    0  502  0.11807923667E+04 -0.12780960181E+03 -0.88601318113E+03  0.14817642406E+04  0.25500000920E-02 0. -1.
</event>
<event>
 5   0  0.1523029E-05  0.3038422E+04  0.7818609E-02  0.8232844E-01
        2   -1    0    0  501    0  0.00000000000E+00  0.00000000000E+00  0.27001039545E+04  0.27001039545E+04  0.25500000920E-02 0. -1.
       -2   -1    0    0    0  501  0.00000000000E+00  0.00000000000E+00 -0.85478243402E+03  0.85478243402E+03  0.25500000920E-02 0.  1.
    10030    2    1    2    0    0  0.00000000000E+00  0.00000000000E+00  0.18453215205E+04  0.35548863886E+04  0.30384215839E+04 0.  0.
        5    1    3    3  502    0  0.96853194105E+03 -0.10658305131E+04  0.14885365998E+04  0.20711861583E+04  0.46999998093E+01 0. -1.
       -5    1    3    3    0  502 -0.96853194105E+03  0.10658305131E+04  0.35678492069E+03  0.14837002302E+04  0.46999998093E+01 0.  1.
</event>
<event>
 5   0  0.5730920E-06  0.2861939E+04  0.7818609E-02  0.8284293E-01
        1   -1    0    0  501    0  0.00000000000E+00  0.00000000000E+00  0.10954970261E+04  0.10954970262E+04  0.50400001928E-02 0. -1.
       -1   -1    0    0    0  501  0.00000000000E+00  0.00000000000E+00 -0.18691735113E+04  0.18691735113E+04  0.50400001928E-02 0.  1.
    10030    2    1    2    0    0  0.00000000000E+00  0.00000000000E+00 -0.77367648513E+03  0.29646705374E+04  0.28619392188E+04 0.  0.
        1    1    3    3  502    0  0.46028270007E+03  0.13132650215E+04 -0.73219543341E+03  0.15724615523E+04  0.50400001928E-02 0.  1.
       -1    1    3    3    0  502 -0.46028270007E+03 -0.13132650215E+04 -0.41481051728E+02  0.13922089852E+04  0.50400001928E-02 0. -1.
</event>
<event>
 5   0  0.5329891E-06  0.2951253E+04  0.7818609E-02  0.8257789E-01
        1   -1    0    0  501    0  0.00000000000E+00  0.00000000000E+00  0.16324143224E+04  0.16324143224E+04  0.50400001928E-02 0.  1.
       -1   -1    0    0    0  501  0.00000000000E+00  0.00000000000E+00 -0.13338978313E+04  0.13338978313E+04  0.50400001928E-02 0. -1.
    10030    2    1    2    0    0  0.00000000000E+00  0.00000000000E+00  0.29851649107E+03  0.29663121537E+04  0.29512532419E+04 0.  0.
        4    1    3    3  502    0  0.13933936689E+04 -0.11105124551E+03 -0.32601182074E+03  0.14353270066E+04  0.12699999809E+01 0.  1.
       -4    1    3    3    0  502 -0.13933936689E+04  0.11105124551E+03  0.62452831180E+03  0.15309851471E+04  0.12699999809E+01 0. -1.
</event>
<event>
 5   0  0.7032692E-06  0.2816380E+04  0.7818609E-02  0.8298201E-01
       -1   -1    0    0    0  501  0.00000000000E+00  0.00000000000E+00  0.20985343371E+04  0.20985343371E+04  0.50400001928E-02 0.  1.
        1   -1    0    0  501    0  0.00000000000E+00  0.00000000000E+00 -0.94494482496E+03  0.94494482497E+03  0.50400001928E-02 0. -1.
    10030    2    1    2    0    0  0.00000000000E+00  0.00000000000E+00  0.11535895122E+04  0.30434791621E+04  0.28163800609E+04 0.  0.
        5    1    3    3  502    0  0.41145640221E+03  0.13466364976E+04  0.55967959127E+03  0.15152523099E+04  0.46999998093E+01 0.  1.
       -5    1    3    3    0  502 -0.41145640221E+03 -0.13466364976E+04  0.59390992089E+03  0.15282268522E+04  0.46999998093E+01 0. -1.
</event>
<event>
 5   0  0.5522695E-06  0.3021539E+04  0.7818609E-02  0.8237607E-01
       -1   -1    0    0    0  501  0.00000000000E+00  0.00000000000E+00  0.13968685417E+04  0.13968685417E+04  0.50400001928E-02 0. -1.
        1   -1    0    0  501    0  0.00000000000E+00  0.00000000000E+00 -0.16339583641E+04  0.16339583641E+04  0.50400001928E-02 0.  1.
    10030    2    1    2    0    0  0.00000000000E+00  0.00000000000E+00 -0.23708982241E+03  0.30308269057E+04  0.30215393674E+04 0.  0.
        3    1    3    3  502    0 -0.60267852896E+03  0.24638579751E+03  0.12489127410E+04  0.14084425495E+04  0.10100000352E+00 0. -1.
       -3    1    3    3    0  502  0.60267852896E+03 -0.24638579751E+03 -0.14860025634E+04  0.16223843562E+04  0.10100000352E+00 0.  1.
</event>
<event>
 5   0  0.1523029E-05  0.2820920E+04  0.7818609E-02  0.8296803E-01
       -2   -1    0    0    0  501  0.00000000000E+00  0.00000000000E+00  0.15461913166E+04  0.15461913166E+04  0.25500000920E-02 0.  1.
        2   -1    0    0  501    0  0.00000000000E+00  0.00000000000E+00 -0.12866437477E+04  0.12866437477E+04  0.25500000920E-02 0. -1.
    10030    2    1    2    0    0  0.00000000000E+00  0.00000000000E+00  0.25954756888E+03  0.28328350644E+04  0.28209199849E+04 0.  0.
        5    1    3    3  502    0  0.43133962086E+03  0.29904055272E+02 -0.12184419323E+04  0.12928924756E+04  0.46999998093E+01 0. -1.
       -5    1    3    3    0  502 -0.43133962086E+03 -0.29904055272E+02  0.14779895012E+04  0.15399425888E+04  0.46999998093E+01 0.  1.
</event>
<event>
 5   0  0.1523029E-05  0.3147436E+04  0.7818609E-02  0.8202839E-01
        2   -1    0    0  501    0  0.00000000000E+00  0.00000000000E+00  0.20006152085E+04  0.20006152085E+04  0.25500000920E-02 0. -1.
       -2   -1    0    0    0  501  0.00000000000E+00  0.00000000000E+00 -0.12379135213E+04  0.12379135213E+04  0.25500000920E-02 0.  1.
    10030    2    1    2    0    0  0.00000000000E+00  0.00000000000E+00  0.76270168720E+03  0.32385287299E+04  0.31474361742E+04 0.  0.
        5    1    3    3  502    0  0.21438598664E+03 -0.13097332009E+04  0.12515242883E+04  0.18241977806E+04  0.46999998093E+01 0.  1.
       -5    1    3    3    0  502 -0.21438598664E+03  0.13097332009E+04 -0.48882260107E+03  0.14143309492E+04  0.46999998093E+01 0. -1.
</event>
<event>
 5   0  0.5329891E-06  0.3043680E+04  0.7818609E-02  0.8231367E-01
        1   -1    0    0  501    0  0.00000000000E+00  0.00000000000E+00  0.19173171388E+04  0.19173171388E+04  0.50400001928E-02 0.  1.
       -1   -1    0    0    0  501  0.00000000000E+00  0.00000000000E+00 -0.12079359223E+04  0.12079359223E+04  0.50400001928E-02 0. -1.
    10030    2    1    2    0    0  0.00000000000E+00  0.00000000000E+00  0.70938121654E+03  0.31252530611E+04  0.30436795142E+04 0.  0.
        4    1    3    3  502    0 -0.11444231581E+04 -0.10030988077E+04  0.34533315899E+03  0.15605025429E+04  0.12699999809E+01 0. -1.
       -4    1    3    3    0  502  0.11444231581E+04  0.10030988077E+04  0.36404805755E+03  0.15647505181E+04  0.12699999809E+01 0.  1.
</event>
<event>
 5   0  0.4806125E-06  0.1823443E+04  0.7818609E-02  0.8693931E-01
       -3   -1    0    0    0  501  0.00000000000E+00  0.00000000000E+00  0.10596438599E+04  0.10596438647E+04  0.10100000352E+00 0.  1.
        3   -1    0    0  501    0  0.00000000000E+00  0.00000000000E+00 -0.78444894026E+03  0.78444894676E+03  0.10100000352E+00 0. -1.
    10030    2    1    2    0    0  0.00000000000E+00  0.00000000000E+00  0.27519491959E+03  0.18440928114E+04  0.18234434604E+04 0.  0.
        2    1    3    3  502    0 -0.55371736317E+03  0.26034473792E+01  0.87011110053E+03  0.10313597934E+04  0.25500000920E-02 0.  1.
       -2    1    3    3    0  502  0.55371736317E+03 -0.26034473792E+01 -0.59491618094E+03  0.81273301801E+03  0.25500000920E-02 0. -1.
</event>
<event>
 5   0  0.1423692E-05  0.2776836E+04  0.7818609E-02  0.8310496E-01
        2   -1    0    0  501    0  0.00000000000E+00  0.00000000000E+00  0.21961397399E+04  0.21961397399E+04  0.25500000920E-02 0.  1.
       -2   -1    0    0    0  501  0.00000000000E+00  0.00000000000E+00 -0.87776940444E+03  0.87776940444E+03  0.25500000920E-02 0. -1.
    10030    2    1    2    0    0  0.00000000000E+00  0.00000000000E+00  0.13183703355E+04  0.30739091443E+04  0.27768358047E+04 0.  0.
        3    1    3    3  502    0 -0.13532558995E+03  0.11274813348E+04 -0.22513886887E+03  0.11576764211E+04  0.10100000352E+00 0.  1.
       -3    1    3    3    0  502  0.13532558995E+03 -0.11274813348E+04  0.15435092043E+04  0.19162327232E+04  0.10100000352E+00 0. -1.
</event>
<event>
 5   0  0.1523029E-05  0.2464791E+04  0.7818609E-02  0.8415638E-01
       -2   -1    0    0    0  501  0.00000000000E+00  0.00000000000E+00  0.12431644216E+04  0.12431644216E+04  0.25500000920E-02 0.  1.
        2   -1    0    0  501    0  0.00000000000E+00  0.00000000000E+00 -0.12217193821E+04  0.12217193821E+04  0.25500000920E-02 0. -1.
    10030    2    1    2    0    0  0.00000000000E+00  0.00000000000E+00  0.21445039503E+02  0.24648838037E+04  0.24647905137E+04 0.  0.
        5    1    3    3  502    0 -0.25807337883E+03 -0.55227525226E+03 -0.10603764467E+04  0.12231231017E+04  0.46999998093E+01 0. -1.
       -5    1    3    3    0  502  0.25807337883E+03  0.55227525226E+03  0.10818214862E+04  0.12417607021E+04  0.46999998093E+01 0.  1.
</event>
<event>
 5   0  0.1388724E-05  0.2641490E+04  0.7818609E-02  0.8354243E-01
       -2   -1    0    0    0  501  0.00000000000E+00  0.00000000000E+00  0.76314142510E+03  0.76314142510E+03  0.25500000920E-02 0.  1.
        2   -1    0    0  501    0  0.00000000000E+00  0.00000000000E+00 -0.22857719613E+04  0.22857719613E+04  0.25500000920E-02 0. -1.
    10030    2    1    2    0    0  0.00000000000E+00  0.00000000000E+00 -0.15226305362E+04  0.30489133864E+04  0.26414899371E+04 0.  0.
        4    1    3    3  502    0 -0.42800858284E+03 -0.14554988894E+03 -0.21936845948E+04  0.22397834341E+04  0.12699999809E+01 0. -1.
       -4    1    3    3    0  502  0.42800858284E+03  0.14554988894E+03  0.67105405865E+03  0.80912995229E+03  0.12699999809E+01 0.  1.
</event>
<event>
 5   0  0.5730920E-06  0.2168007E+04  0.7818609E-02  0.8531863E-01
        1   -1    0    0  501    0  0.00000000000E+00  0.00000000000E+00  0.11955757466E+04  0.11955757466E+04  0.50400001928E-02 0.  1.
       -1   -1    0    0    0  501  0.00000000000E+00  0.00000000000E+00 -0.98284373232E+03  0.98284373233E+03  0.50400001928E-02 0. -1.
    10030    2    1    2    0    0  0.00000000000E+00  0.00000000000E+00  0.21273201425E+03  0.21784194789E+04  0.21680074991E+04 0.  0.
        1    1    3    3  502    0  0.62483007433E+03 -0.52275609810E+03 -0.61217501730E+03  0.10190411237E+04  0.50400001928E-02 0. -1.
       -1    1    3    3    0  502 -0.62483007433E+03  0.52275609810E+03  0.82490703155E+03  0.11593783552E+04  0.50400001928E-02 0.  1.
</event>
<event>
 5   0  0.5329891E-06  0.3028766E+04  0.7818609E-02  0.8235564E-01
        1   -1    0    0  501    0  0.00000000000E+00  0.00000000000E+00  0.17763906921E+04  0.17763906921E+04  0.50400001928E-02 0. -1.
       -1   -1    0    0    0  501  0.00000000000E+00  0.00000000000E+00 -0.12910202544E+04  0.12910202544E+04  0.50400001928E-02 0.  1.
    10030    2    1    2    0    0  0.00000000000E+00  0.00000000000E+00  0.48537043773E+03  0.30674109465E+04  0.30287663253E+04 0.  0.
        4    1    3    3  502    0  0.85485381522E+03  0.10181667113E+04  0.97713903440E+03  0.16499214535E+04  0.12699999809E+01 0.  1.
       -4    1    3    3    0  502 -0.85485381522E+03 -0.10181667113E+04 -0.49176859667E+03  0.14174894930E+04  0.12699999809E+01 0. -1.
</event>
<event>
 5   0  0.5329891E-06  0.3170446E+04  0.7818609E-02  0.8196666E-01
       -1   -1    0    0    0  501  0.00000000000E+00  0.00000000000E+00  0.12897007891E+04  0.12897007891E+04  0.50400001928E-02 0.  1.
        1   -1    0    0  501    0  0.00000000000E+00  0.00000000000E+00 -0.19484616417E+04  0.19484616417E+04  0.50400001928E-02 0. -1.
    10030    2    1    2    0    0  0.00000000000E+00  0.00000000000E+00 -0.65876085260E+03  0.32381624308E+04  0.31704463514E+04 0.  0.
        4    1    3    3  502    0 -0.97447036120E+01 -0.27621084838E+03  0.12649021758E+04  0.12947457354E+04  0.12699999809E+01 0.  1.
       -4    1    3    3    0  502  0.97447036120E+01  0.27621084838E+03 -0.19236630284E+04  0.19434166954E+04  0.12699999809E+01 0. -1.
</event>
<event>
 5   0  0.5329891E-06  0.3056695E+04  0.7818609E-02  0.8227724E-01
        1   -1    0    0  501    0  0.00000000000E+00  0.00000000000E+00  0.17075575971E+04  0.17075575972E+04  0.50400001928E-02 0.  1.
       -1   -1    0    0    0  501  0.00000000000E+00  0.00000000000E+00 -0.13679454746E+04  0.13679454746E+04  0.50400001928E-02 0. -1.
    10030    2    1    2    0    0  0.00000000000E+00  0.00000000000E+00  0.33961212257E+03  0.30755030717E+04  0.30566947428E+04 0.  0.
        4    1    3    3  502    0 -0.74344822377E+03 -0.81126613685E+03 -0.89736917035E+03  0.14199088164E+04  0.12699999809E+01 0. -1.
       -4    1    3    3    0  502  0.74344822377E+03  0.81126613685E+03  0.12369812929E+04  0.16555942553E+04  0.12699999809E+01 0.  1.
</event>
<event>
 5   0  0.5730920E-06  0.2057288E+04  0.7818609E-02  0.8580295E-01
        1   -1    0    0  501    0  0.00000000000E+00  0.00000000000E+00  0.11925324370E+04  0.11925324371E+04  0.50400001928E-02 0.  1.
       -1   -1    0    0    0  501  0.00000000000E+00  0.00000000000E+00 -0.88727847181E+03  0.88727847183E+03  0.50400001928E-02 0. -1.
    10030    2    1    2    0    0  0.00000000000E+00  0.00000000000E+00  0.30525396523E+03  0.20798109089E+04  0.20572878830E+04 0.  0.
        1    1    3    3  502    0 -0.34280238300E+03  0.26730983845E+03  0.10951104400E+04  0.11782338050E+04  0.50400001928E-02 0.  1.
       -1    1    3    3    0  502  0.34280238300E+03 -0.26730983845E+03 -0.78985647473E+03  0.90157710387E+03  0.50400001928E-02 0. -1.
</event>
<event>
 5   0  0.7032692E-06  0.2978678E+04  0.7818609E-02  0.8249846E-01
       -1   -1    0    0    0  501  0.00000000000E+00  0.00000000000E+00  0.19996570843E+04  0.19996570843E+04  0.50400001928E-02 0.  1.
        1   -1    0    0  501    0  0.00000000000E+00  0.00000000000E+00 -0.11092551816E+04  0.11092551816E+04  0.50400001928E-02 0. -1.
    10030    2    1    2    0    0  0.00000000000E+00  0.00000000000E+00  0.89040190268E+03  0.31089122659E+04  0.29786775470E+04 0.  0.
        5    1    3    3  502    0 -0.10546704626E+04 -0.10307871884E+04  0.66227482158E+03  0.16166267478E+04  0.46999998093E+01 0.  1.
       -5    1    3    3    0  502  0.10546704626E+04  0.10307871884E+04  0.22812708110E+03  0.14922855181E+04  0.46999998093E+01 0. -1.
</event>
<event>
 5   0  0.1388724E-05  0.2971825E+04  0.7818609E-02  0.8251823E-01
       -2   -1    0    0    0  501  0.00000000000E+00  0.00000000000E+00  0.79819471758E+03  0.79819471759E+03  0.25500000920E-02 0.  1.
        2   -1    0    0  501    0  0.00000000000E+00  0.00000000000E+00 -0.27661615971E+04  0.27661615971E+04  0.25500000920E-02 0. -1.
    10030    2    1    2    0    0  0.00000000000E+00  0.00000000000E+00 -0.19679668795E+04  0.35643563147E+04  0.29718247423E+04 0.  0.
        4    1    3    3  502    0 -0.31070261139E+03 -0.14319731132E+04 -0.12798468446E+04  0.19455314616E+04  0.12699999809E+01 0.  1.
       -4    1    3    3    0  502  0.31070261139E+03  0.14319731132E+04 -0.68812003489E+03  0.16188248531E+04  0.12699999809E+01 0. -1.
</event>
<event>
 5   0  0.4806125E-06  0.2930408E+04  0.7818609E-02  0.8263887E-01
        3   -1    0    0  501    0  0.00000000000E+00  0.00000000000E+00  0.16003264394E+04  0.16003264425E+04  0.10100000352E+00 0.  1.
       -3   -1    0    0    0  501  0.00000000000E+00  0.00000000000E+00 -0.13414901779E+04  0.13414901817E+04  0.10100000352E+00 0. -1.
    10030    2    1    2    0    0  0.00000000000E+00  0.00000000000E+00  0.25883626147E+03  0.29418166242E+04  0.29304076236E+04 0.  0.
        2    1    3    3  502    0 -0.46846396592E+02  0.74285667361E+02  0.15976817796E+04  0.16000937517E+04  0.25500000920E-02 0.  1.
       -2    1    3    3    0  502  0.46846396592E+02 -0.74285667361E+02 -0.13388455181E+04  0.13417228725E+04  0.25500000920E-02 0. -1.
</event>
<event>
 5   0  0.1388724E-05  0.3064718E+04  0.7818609E-02  0.8225488E-01
        2   -1    0    0  501    0  0.00000000000E+00  0.00000000000E+00  0.17691067281E+04  0.17691067281E+04  0.25500000920E-02 0. -1.
       -2   -1    0    0    0  501  0.00000000000E+00  0.00000000000E+00 -0.13272934083E+04  0.13272934083E+04  0.25500000920E-02 0.  1.
    10030    2    1    2    0    0  0.00000000000E+00  0.00000000000E+00  0.44181331985E+03  0.30964001364E+04  0.30647177350E+04 0.  0.
        4    1    3    3  502    0  0.91650491971E+03  0.11652087726E+04  0.61276840042E+03  0.16041132994E+04  0.12699999809E+01 0.  1.
       -4    1    3    3    0  502 -0.91650491971E+03 -0.11652087726E+04 -0.17095508057E+03  0.14922868371E+04  0.12699999809E+01 0. -1.
</event>
<event>
 5   0  0.5730920E-06  0.1531853E+04  0.7818609E-02  0.8863543E-01
       -1   -1    0    0    0  501  0.00000000000E+00  0.00000000000E+00  0.43154802167E+03  0.43154802170E+03  0.50400001928E-02 0. -1.
        1   -1    0    0  501    0  0.00000000000E+00  0.00000000000E+00 -0.13593929287E+04  0.13593929287E+04  0.50400001928E-02 0.  1.
    10030    2    1    2    0    0  0.00000000000E+00  0.00000000000E+00 -0.92784490700E+03  0.17909409504E+04  0.15318529030E+04 0.  0.
        1    1    3    3  502    0  0.28816372412E+03 -0.16565916426E+03 -0.12706773078E+04  0.13134314262E+04  0.50400001928E-02 0.  1.
       -1    1    3    3    0  502 -0.28816372412E+03  0.16565916426E+03  0.34283240084E+03  0.47750952420E+03  0.50400001928E-02 0. -1.
</event>
<event>
 5   0  0.1480547E-05  0.2978859E+04  0.7818609E-02  0.8249794E-01
       -2   -1    0    0    0  501  0.00000000000E+00  0.00000000000E+00  0.13712012050E+04  0.13712012050E+04  0.25500000920E-02 0. -1.
        2   -1    0    0  501    0  0.00000000000E+00  0.00000000000E+00 -0.16178521122E+04  0.16178521122E+04  0.25500000920E-02 0.  1.
    10030    2    1    2    0    0  0.00000000000E+00  0.00000000000E+00 -0.24665090723E+03  0.29890533172E+04  0.29788593560E+04 0.  0.
        1    1    3    3  502    0  0.14202100060E+04 -0.40100313313E+03 -0.32551137610E+03  0.15112106504E+04  0.50400001928E-02 0.  1.
       -1    1    3    3    0  502 -0.14202100060E+04  0.40100313313E+03  0.78860468868E+02  0.14778426667E+04  0.50400001928E-02 0. -1.
</event>
<event>
 5   0  0.5522695E-06  0.2961207E+04  0.7818609E-02  0.8254896E-01
        1   -1    0    0  501    0  0.00000000000E+00  0.00000000000E+00  0.12689197329E+04  0.12689197329E+04  0.50400001928E-02 0. -1.
       -1   -1    0    0    0  501  0.00000000000E+00  0.00000000000E+00 -0.17276012924E+04  0.17276012924E+04  0.50400001928E-02 0.  1.
    10030    2    1    2    0    0  0.00000000000E+00  0.00000000000E+00 -0.45868155946E+03  0.29965210253E+04  0.29612074365E+04 0.  0.
        3    1    3    3  502    0 -0.98876427775E+03  0.98145353262E+03  0.27791707291E+03  0.14206138614E+04  0.10100000352E+00 0.  1.
       -3    1    3    3    0  502  0.98876427775E+03 -0.98145353262E+03 -0.73659863237E+03  0.15759071638E+04  0.10100000352E+00 0. -1.
</event>
<event>
 5   0  0.1345931E-05  0.2879656E+04  0.7818609E-02  0.8278956E-01
       -2   -1    0    0    0  501  0.00000000000E+00  0.00000000000E+00  0.73519244720E+03  0.73519244721E+03  0.25500000920E-02 0. -1.
        2   -1    0    0  501    0  0.00000000000E+00  0.00000000000E+00 -0.28198124515E+04  0.28198124515E+04  0.25500000920E-02 0.  1.
    10030    2    1    2    0    0  0.00000000000E+00  0.00000000000E+00 -0.20846200043E+04  0.35550048987E+04  0.28796561023E+04 0.  0.
        2    1    3    3  502    0  0.13254186906E+04 -0.55979518915E+03 -0.97469844512E+03  0.17378556955E+04  0.25500000920E-02 0. -1.
       -2    1    3    3    0  502 -0.13254186906E+04  0.55979518915E+03 -0.11099215592E+04  0.18171492032E+04  0.25500000920E-02 0.  1.
</event>
<event>
 5   0  0.5730920E-06  0.2907599E+04  0.7818609E-02  0.8270620E-01
       -1   -1    0    0    0  501  0.00000000000E+00  0.00000000000E+00  0.13110889995E+04  0.13110889995E+04  0.50400001928E-02 0. -1.
        1   -1    0    0  501    0  0.00000000000E+00  0.00000000000E+00 -0.16120437804E+04  0.16120437804E+04  0.50400001928E-02 0.  1.
    10030    2    1    2    0    0  0.00000000000E+00  0.00000000000E+00 -0.30095478088E+03  0.29231327799E+04  0.29075989181E+04 0.  0.
        1    1    3    3  502    0  0.46631373957E+03  0.16592908536E+03 -0.15247301804E+04  0.16030542998E+04  0.50400001928E-02 0.  1.
       -1    1    3    3    0  502 -0.46631373957E+03 -0.16592908536E+03  0.12237753995E+04  0.13200784801E+04  0.50400001928E-02 0. -1.
</event>
<event>
 5   0  0.5522695E-06  0.3127584E+04  0.7818609E-02  0.8208208E-01
        1   -1    0    0  501    0  0.00000000000E+00  0.00000000000E+00  0.16704837235E+04  0.16704837235E+04  0.50400001928E-02 0. -1.
       -1   -1    0    0    0  501  0.00000000000E+00  0.00000000000E+00 -0.14639149389E+04  0.14639149389E+04  0.50400001928E-02 0.  1.
    10030    2    1    2    0    0  0.00000000000E+00  0.00000000000E+00  0.20656878465E+03  0.31343986624E+04  0.31275844212E+04 0.  0.
        3    1    3    3  502    0  0.14285075585E+04 -0.52535207736E+03 -0.25640902240E+03  0.15434941681E+04  0.10100000352E+00 0.  1.
       -3    1    3    3    0  502 -0.14285075585E+04  0.52535207736E+03  0.46297780705E+03  0.15909044943E+04  0.10100000352E+00 0. -1.
</event>
<event>
 5   0  0.5730920E-06  0.1537505E+04  0.7818609E-02  0.8859888E-01
       -1   -1    0    0    0  501  0.00000000000E+00  0.00000000000E+00  0.45486607832E+03  0.45486607835E+03  0.50400001928E-02 0. -1.
        1   -1    0    0  501    0  0.00000000000E+00  0.00000000000E+00 -0.12992409726E+04  0.12992409726E+04  0.50400001928E-02 0.  1.
    10030    2    1    2    0    0  0.00000000000E+00  0.00000000000E+00 -0.84437489425E+03  0.17541070509E+04  0.15375053119E+04 0.  0.
        1    1    3    3  502    0  0.15581182718E+03 -0.12911886117E+03  0.42393517334E+03  0.46975529483E+03  0.50400001928E-02 0. -1.
       -1    1    3    3    0  502 -0.15581182718E+03  0.12911886117E+03 -0.12683100676E+04  0.12843517561E+04  0.50400001928E-02 0.  1.
</event>
<event>
 5   0  0.1523029E-05  0.2292471E+04  0.7818609E-02  0.8480896E-01
        2   -1    0    0  501    0  0.00000000000E+00  0.00000000000E+00  0.13614529636E+04  0.13614529636E+04  0.25500000920E-02 0.  1.
       -2   -1    0    0    0  501  0.00000000000E+00  0.00000000000E+00 -0.96503965736E+03  0.96503965736E+03  0.25500000920E-02 0. -1.
    10030    2    1    2    0    0  0.00000000000E+00  0.00000000000E+00  0.39641330624E+03  0.23264926210E+04  0.22924712443E+04 0.  0.
        5    1    3    3  502    0 -0.19330951261E+03  0.29325309354E+03 -0.90907131275E+03  0.97457615721E+03  0.46999998093E+01 0. -1.
       -5    1    3    3    0  502  0.19330951261E+03 -0.29325309354E+03  0.13054846190E+04  0.13519164638E+04  0.46999998093E+01 0.  1.
</event>
<event>
 5   0  0.1423692E-05  0.3048467E+04  0.7818609E-02  0.8230025E-01
       -2   -1    0    0    0  501  0.00000000000E+00  0.00000000000E+00  0.86719110535E+03  0.86719110535E+03  0.25500000920E-02 0.  1.
        2   -1    0    0  501    0  0.00000000000E+00  0.00000000000E+00 -0.26790959146E+04  0.26790959146E+04  0.25500000920E-02 0. -1.
    10030    2    1    2    0    0  0.00000000000E+00  0.00000000000E+00 -0.18119048093E+04  0.35462870200E+04  0.30484672526E+04 0.  0.
        3    1    3    3  502    0  0.11950196510E+04 -0.36292619869E+03 -0.19224282925E+04  0.22924916449E+04  0.10100000352E+00 0.  1.
       -3    1    3    3    0  502 -0.11950196510E+04  0.36292619869E+03  0.11052348318E+03  0.12537953751E+04  0.10100000352E+00 0. -1.
</event>
<event>
 5   0  0.1480547E-05  0.2968596E+04  0.7818609E-02  0.8252756E-01
       -2   -1    0    0    0  501  0.00000000000E+00  0.00000000000E+00  0.11206330916E+04  0.11206330916E+04  0.25500000920E-02 0. -1.
        2   -1    0    0  501    0  0.00000000000E+00  0.00000000000E+00 -0.19659785464E+04  0.19659785464E+04  0.25500000920E-02 0.  1.
    10030    2    1    2    0    0  0.00000000000E+00  0.00000000000E+00 -0.84534545486E+03  0.30866116380E+04  0.29685960428E+04 0.  0.
        1    1    3    3  502    0 -0.10122905512E+04  0.87821686559E+03 -0.10861173645E+04  0.17250066529E+04  0.50400001928E-02 0.  1.
       -1    1    3    3    0  502  0.10122905512E+04 -0.87821686559E+03  0.24077190962E+03  0.13616049851E+04  0.50400001928E-02 0. -1.
</event>
<event>
 5   0  0.5392262E-06  0.2942606E+04  0.7818609E-02  0.8260313E-01
       -1   -1    0    0    0  501  0.00000000000E+00  0.00000000000E+00  0.12601420287E+04  0.12601420287E+04  0.50400001928E-02 0.  1.
        1   -1    0    0  501    0  0.00000000000E+00  0.00000000000E+00 -0.17178477616E+04  0.17178477616E+04  0.50400001928E-02 0. -1.
    10030    2    1    2    0    0  0.00000000000E+00  0.00000000000E+00 -0.45770573292E+03  0.29779897903E+04  0.29426057590E+04 0.  0.
        2    1    3    3  502    0 -0.36753869489E+03 -0.41684734066E+03 -0.16075432434E+04  0.17008943756E+04  0.25500000920E-02 0. -1.
       -2    1    3    3    0  502  0.36753869489E+03  0.41684734066E+03  0.11498375105E+04  0.12770954147E+04  0.25500000920E-02 0.  1.
</event>
<event>
 5   0  0.5730920E-06  0.2154626E+04  0.7818609E-02  0.8537555E-01
        1   -1    0    0  501    0  0.00000000000E+00  0.00000000000E+00  0.21794608567E+04  0.21794608567E+04  0.50400001928E-02 0. -1.
       -1   -1    0    0    0  501  0.00000000000E+00  0.00000000000E+00 -0.53251837940E+03  0.53251837942E+03  0.50400001928E-02 0.  1.
    10030    2    1    2    0    0  0.00000000000E+00  0.00000000000E+00  0.16469424773E+04  0.27119792362E+04  0.21546256876E+04 0.  0.
        1    1    3    3  502    0  0.67439951954E+02 -0.37916763317E+03 -0.44291533391E+03  0.58693290434E+03  0.50400001928E-02 0.  1.
       -1    1    3    3    0  502 -0.67439951954E+02  0.37916763317E+03  0.20898578112E+04  0.21250463318E+04  0.50400001928E-02 0. -1.
</event>
<event>
 5   0  0.1523029E-05  0.2658347E+04  0.7818609E-02  0.8348648E-01
        2   -1    0    0  501    0  0.00000000000E+00  0.00000000000E+00  0.11978344203E+04  0.11978344203E+04  0.25500000920E-02 0.  1.
       -2   -1    0    0    0  501  0.00000000000E+00  0.00000000000E+00 -0.14749139529E+04  0.14749139529E+04  0.25500000920E-02 0. -1.
    10030    2    1    2    0    0  0.00000000000E+00  0.00000000000E+00 -0.27707953266E+03  0.26727483732E+04  0.26583473812E+04 0.  0.
        5    1    3    3  502    0  0.96708009151E+03  0.98885312267E+02 -0.10499040236E+04  0.14308538559E+04  0.46999998093E+01 0.  1.
       -5    1    3    3    0  502 -0.96708009151E+03 -0.98885312267E+02  0.77282449089E+03  0.12418945173E+04  0.46999998093E+01 0. -1.
</event>
<event>
 5   0  0.5522695E-06  0.3049458E+04  0.7818609E-02  0.8229747E-01
        1   -1    0    0  501    0  0.00000000000E+00  0.00000000000E+00  0.23710618418E+04  0.23710618419E+04  0.50400001928E-02 0.  1.
       -1   -1    0    0    0  501  0.00000000000E+00  0.00000000000E+00 -0.98048805567E+03  0.98048805568E+03  0.50400001928E-02 0. -1.
    10030    2    1    2    0    0  0.00000000000E+00  0.00000000000E+00  0.13905737862E+04  0.33515498975E+04  0.30494575355E+04 0.  0.
        3    1    3    3  502    0 -0.11701518297E+04  0.36527286454E+02 -0.37831850083E+03  0.12303310308E+04  0.10100000352E+00 0. -1.
       -3    1    3    3    0  502  0.11701518297E+04 -0.36527286454E+02  0.17688922870E+04  0.21212188667E+04  0.10100000352E+00 0.  1.
</event>
<event>
 5   0  0.5329891E-06  0.3055964E+04  0.7818609E-02  0.8227928E-01
        1   -1    0    0  501    0  0.00000000000E+00  0.00000000000E+00  0.21477200352E+04  0.21477200352E+04  0.50400001928E-02 0. -1.
       -1   -1    0    0    0  501  0.00000000000E+00  0.00000000000E+00 -0.10870729748E+04  0.10870729748E+04  0.50400001928E-02 0.  1.
    10030    2    1    2    0    0  0.00000000000E+00  0.00000000000E+00  0.10606470604E+04  0.32347930099E+04  0.30559636173E+04 0.  0.
        4    1    3    3  502    0  0.78371163049E+03 -0.74191798564E+03  0.16753254154E+04  0.19928279097E+04  0.12699999809E+01 0. -1.
       -4    1    3    3    0  502 -0.78371163049E+03  0.74191798564E+03 -0.61467835502E+03  0.12419651002E+04  0.12699999809E+01 0.  1.
</event>
<event>
 5   0  0.1423692E-05  0.2963744E+04  0.7818609E-02  0.8254161E-01
        2   -1    0    0  501    0  0.00000000000E+00  0.00000000000E+00  0.29110391932E+04  0.29110391932E+04  0.25500000920E-02 0. -1.
       -2   -1    0    0    0  501  0.00000000000E+00  0.00000000000E+00 -0.75435057933E+03  0.75435057934E+03  0.25500000920E-02 0.  1.
    10030    2    1    2    0    0  0.00000000000E+00  0.00000000000E+00  0.21566886138E+04  0.36653897725E+04  0.29637436474E+04 0.  0.
        3    1    3    3  502    0  0.51985051001E+02  0.71465225761E+03  0.26825455358E+04  0.27765951914E+04  0.10100000352E+00 0. -1.
       -3    1    3    3    0  502 -0.51985051001E+02 -0.71465225761E+03 -0.52585692199E+03  0.88879458112E+03  0.10100000352E+00 0.  1.
</event>
<event>
 5   0  0.4806125E-06  0.3041588E+04  0.7818609E-02  0.8231954E-01
        3   -1    0    0  501    0  0.00000000000E+00  0.00000000000E+00  0.18747809350E+04  0.18747809378E+04  0.10100000352E+00 0. -1.
       -3   -1    0    0    0  501  0.00000000000E+00  0.00000000000E+00 -0.12336453213E+04  0.12336453254E+04  0.10100000352E+00 0.  1.
    10030    2    1    2    0    0  0.00000000000E+00  0.00000000000E+00  0.64113561376E+03  0.31084262632E+04  0.30415882296E+04 0.  0.
        3    1    3    3  502    0  0.30284668596E+03 -0.14212219907E+04  0.77900824427E+03  0.16487698192E+04  0.10100000352E+00 0. -1.
       -3    1    3    3    0  502 -0.30284668596E+03  0.14212219907E+04 -0.13787263051E+03  0.14596564440E+04  0.10100000352E+00 0.  1.
</event>
<event>
 5   0  0.1523029E-05  0.2876442E+04  0.7818609E-02  0.8279921E-01
        2   -1    0    0  501    0  0.00000000000E+00  0.00000000000E+00  0.12378236276E+04  0.12378236276E+04  0.25500000920E-02 0. -1.
       -2   -1    0    0    0  501  0.00000000000E+00  0.00000000000E+00 -0.16710614795E+04  0.16710614795E+04  0.25500000920E-02 0.  1.
    10030    2    1    2    0    0  0.00000000000E+00  0.00000000000E+00 -0.43323785195E+03  0.29088851071E+04  0.28764418176E+04 0.  0.
        5    1    3    3  502    0 -0.79081887862E+03 -0.86281805836E+03  0.62863595418E+03  0.13285536322E+04  0.46999998093E+01 0. -1.
       -5    1    3    3    0  502  0.79081887862E+03  0.86281805836E+03 -0.10618738061E+04  0.15803314750E+04  0.46999998093E+01 0.  1.
</event>
<event>
 5   0  0.1388724E-05  0.2968558E+04  0.7818609E-02  0.8252767E-01
       -2   -1    0    0    0  501  0.00000000000E+00  0.00000000000E+00  0.84012284379E+03  0.84012284379E+03  0.25500000920E-02 0. -1.
        2   -1    0    0  501    0  0.00000000000E+00  0.00000000000E+00 -0.26223350975E+04  0.26223350975E+04  0.25500000920E-02 0.  1.
    10030    2    1    2    0    0  0.00000000000E+00  0.00000000000E+00 -0.17822122537E+04  0.34624579413E+04  0.29685576427E+04 0.  0.
        4    1    3    3  502    0  0.25853991044E+03  0.11866253614E+04 -0.18864020897E+04  0.22435322798E+04  0.12699999809E+01 0.  1.
       -4    1    3    3    0  502 -0.25853991044E+03 -0.11866253614E+04  0.10418983597E+03  0.12189256615E+04  0.12699999809E+01 0. -1.
</event>
<event>
 5   0  0.1480547E-05  0.3340336E+04  0.7818609E-02  0.8152707E-01
        2   -1    0    0  501    0  0.00000000000E+00  0.00000000000E+00  0.24841879303E+04  0.24841879303E+04  0.25500000920E-02 0. -1.
       -2   -1    0    0    0  501  0.00000000000E+00  0.00000000000E+00 -0.11228868312E+04  0.11228868312E+04  0.25500000920E-02 0.  1.
    10030    2    1    2    0    0  0.00000000000E+00  0.00000000000E+00  0.13613010991E+04  0.36070747615E+04  0.33403364580E+04 0.  0.
        1    1    3    3  502    0  0.32087896881E+03  0.12234269142E+04  0.18584958619E+04  0.22480532902E+04  0.50400001928E-02 0. -1.
       -1    1    3    3    0  502 -0.32087896881E+03 -0.12234269142E+04 -0.49719476281E+03  0.13590214712E+04  0.50400001928E-02 0.  1.
</event>
<event>
 5   0  0.1480547E-05  0.3785259E+04  0.7818609E-02  0.8049326E-01
       -2   -1    0    0    0  501  0.00000000000E+00  0.00000000000E+00  0.12984666684E+04  0.12984666684E+04  0.25500000920E-02 0. -1.
        2   -1    0    0  501    0  0.00000000000E+00  0.00000000000E+00 -0.27586742203E+04  0.27586742203E+04  0.25500000920E-02 0.  1.
    10030    2    1    2    0    0  0.00000000000E+00  0.00000000000E+00 -0.14602075519E+04  0.40571408887E+04  0.37852590527E+04 0.  0.
        1    1    3    3  502    0  0.97921115260E+03  0.68228413230E+03 -0.23045145076E+04  0.25952173771E+04  0.50400001928E-02 0.  1.
       -1    1    3    3    0  502 -0.97921115260E+03 -0.68228413230E+03  0.84430695566E+03  0.14619235117E+04  0.50400001928E-02 0. -1.
</event>
<event>
 5   0  0.5392262E-06  0.3062880E+04  0.7818609E-02  0.8226000E-01
        1   -1    0    0  501    0  0.00000000000E+00  0.00000000000E+00  0.15160322888E+04  0.15160322888E+04  0.50400001928E-02 0.  1.
       -1   -1    0    0    0  501  0.00000000000E+00  0.00000000000E+00 -0.15470046823E+04  0.15470046823E+04  0.50400001928E-02 0. -1.
    10030    2    1    2    0    0  0.00000000000E+00  0.00000000000E+00 -0.30972393465E+02  0.30630369711E+04  0.30628803759E+04 0.  0.
        2    1    3    3  502    0 -0.14391255557E+04 -0.51882921893E+03 -0.86503387424E+02  0.15322365873E+04  0.25500000920E-02 0.  1.
       -2    1    3    3    0  502  0.14391255557E+04  0.51882921893E+03  0.55530993959E+02  0.15308003837E+04  0.25500000920E-02 0. -1.
</event>
<event>
 5   0  0.1388724E-05  0.3149289E+04  0.7818609E-02  0.8202340E-01
        2   -1    0    0  501    0  0.00000000000E+00  0.00000000000E+00  0.25692923248E+04  0.25692923248E+04  0.25500000920E-02 0.  1.
       -2   -1    0    0    0  501  0.00000000000E+00  0.00000000000E+00 -0.96505384771E+03  0.96505384771E+03  0.25500000920E-02 0. -1.
    10030    2    1    2    0    0  0.00000000000E+00  0.00000000000E+00  0.16042384771E+04  0.35343461725E+04  0.31492890905E+04 0.  0.
        4    1    3    3  502    0 -0.12260120883E+04 -0.52206843695E+03  0.17436496937E+04  0.21945334267E+04  0.12699999809E+01 0.  1.
       -4    1    3    3    0  502  0.12260120883E+04  0.52206843695E+03 -0.13941121661E+03  0.13398127458E+04  0.12699999809E+01 0. -1.
</event>
<event>
 5   0  0.7032692E-06  0.3107166E+04  0.7818609E-02  0.8213774E-01
       -1   -1    0    0    0  501  0.00000000000E+00  0.00000000000E+00  0.87499590681E+03  0.87499590682E+03  0.50400001928E-02 0.  1.
        1   -1    0    0  501    0  0.00000000000E+00  0.00000000000E+00 -0.27584353747E+04  0.27584353747E+04  0.50400001928E-02 0. -1.
    10030    2    1    2    0    0  0.00000000000E+00  0.00000000000E+00 -0.18834394679E+04  0.36334312815E+04  0.31071656937E+04 0.  0.
        5    1    3    3  502    0 -0.62146440174E+03 -0.12073514155E+04 -0.18243297173E+04  0.22742287595E+04  0.46999998093E+01 0. -1.
       -5    1    3    3    0  502  0.62146440174E+03  0.12073514155E+04 -0.59109750558E+02  0.13592025220E+04  0.46999998093E+01 0.  1.
</event>
<event>
 5   0  0.5522695E-06  0.1483192E+04  0.7818609E-02  0.8895708E-01
       -1   -1    0    0    0  501  0.00000000000E+00  0.00000000000E+00  0.98043993026E+03  0.98043993027E+03  0.50400001928E-02 0. -1.
        1   -1    0    0  501    0  0.00000000000E+00  0.00000000000E+00 -0.56093648121E+03  0.56093648123E+03  0.50400001928E-02 0.  1.
    10030    2    1    2    0    0  0.00000000000E+00  0.00000000000E+00  0.41950344905E+03  0.15413764115E+04  0.14831918615E+04 0.  0.
        3    1    3    3  502    0 -0.23746141580E+03  0.53537418449E+03  0.68251661426E+03  0.89935664803E+03  0.10100000352E+00 0. -1.
       -3    1    3    3    0  502  0.23746141580E+03 -0.53537418449E+03 -0.26301316521E+03  0.64201976347E+03  0.10100000352E+00 0.  1.
</event>
<event>
 5   0  0.1388724E-05  0.2963536E+04  0.7818609E-02  0.8254221E-01
        2   -1    0    0  501    0  0.00000000000E+00  0.00000000000E+00  0.15288359681E+04  0.15288359681E+04  0.25500000920E-02 0.  1.
       -2   -1    0    0    0  501  0.00000000000E+00  0.00000000000E+00 -0.14361495461E+04  0.14361495461E+04  0.25500000920E-02 0. -1.
    10030    2    1    2    0    0  0.00000000000E+00  0.00000000000E+00  0.92686421976E+02  0.29649855141E+04  0.29635364560E+04 0.  0.
        4    1    3    3  502    0 -0.81837451189E+03  0.62690211426E+03 -0.10185513944E+04  0.14492038016E+04  0.12699999809E+01 0. -1.
       -4    1    3    3    0  502  0.81837451189E+03 -0.62690211426E+03  0.11112378164E+04  0.15157817125E+04  0.12699999809E+01 0.  1.
</event>
<event>
 5   0  0.5329891E-06  0.2946184E+04  0.7818609E-02  0.8259268E-01
        1   -1    0    0  501    0  0.00000000000E+00  0.00000000000E+00  0.16262881346E+04  0.16262881347E+04  0.50400001928E-02 0. -1.
       -1   -1    0    0    0  501  0.00000000000E+00  0.00000000000E+00 -0.13343265634E+04  0.13343265634E+04  0.50400001928E-02 0.  1.
    10030    2    1    2    0    0  0.00000000000E+00  0.00000000000E+00  0.29196157128E+03  0.29606146980E+04  0.29461836044E+04 0.  0.
        4    1    3    3  502    0 -0.12751037241E+04  0.20762183912E+03  0.85726242758E+03  0.15504505209E+04  0.12699999809E+01 0. -1.
       -4    1    3    3    0  502  0.12751037241E+04 -0.20762183912E+03 -0.56530085629E+03  0.14101641771E+04  0.12699999809E+01 0.  1.
</event>
<event>
 5   0  0.1480547E-05  0.2694797E+04  0.7818609E-02  0.8336695E-01
        2   -1    0    0  501    0  0.00000000000E+00  0.00000000000E+00  0.15363449493E+04  0.15363449493E+04  0.25500000920E-02 0. -1.
       -2   -1    0    0    0  501  0.00000000000E+00  0.00000000000E+00 -0.11816893153E+04  0.11816893153E+04  0.25500000920E-02 0.  1.
    10030    2    1    2    0    0  0.00000000000E+00  0.00000000000E+00  0.35465563399E+03  0.27180342646E+04  0.26947967724E+04 0.  0.
        1    1    3    3  502    0 -0.77639660158E+03  0.42317201332E+03  0.12027638103E+04  0.14928184817E+04  0.50400001928E-02 0. -1.
       -1    1    3    3    0  502  0.77639660158E+03 -0.42317201332E+03 -0.84810817633E+03  0.12252157829E+04  0.50400001928E-02 0.  1.
</event>
<event>
 5   0  0.1423692E-05  0.3084502E+04  0.7818609E-02  0.8220004E-01
        2   -1    0    0  501    0  0.00000000000E+00  0.00000000000E+00  0.16827658874E+04  0.16827658874E+04  0.25500000920E-02 0.  1.
       -2   -1    0    0    0  501  0.00000000000E+00  0.00000000000E+00 -0.14134697051E+04  0.14134697051E+04  0.25500000920E-02 0. -1.
    10030    2    1    2    0    0  0.00000000000E+00  0.00000000000E+00  0.26929618233E+03  0.30962355925E+04  0.30845022955E+04 0.  0.
        3    1    3    3  502    0 -0.12852604459E+04 -0.22588756710E+03 -0.69043905913E+03  0.14763555505E+04  0.10100000352E+00 0. -1.
       -3    1    3    3    0  502  0.12852604459E+04  0.22588756710E+03  0.95973524145E+03  0.16198800421E+04  0.10100000352E+00 0.  1.
</event>
<event>
 5   0  0.1423692E-05  0.1729936E+04  0.7818609E-02  0.8744472E-01
        2   -1    0    0  501    0  0.00000000000E+00  0.00000000000E+00  0.68087638878E+03  0.68087638878E+03  0.25500000920E-02 0.  1.
       -2   -1    0    0    0  501  0.00000000000E+00  0.00000000000E+00 -0.10988334563E+04  0.10988334563E+04  0.25500000920E-02 0. -1.
    10030    2    1    2    0    0  0.00000000000E+00  0.00000000000E+00 -0.41795706757E+03  0.17797098451E+04  0.17299361325E+04 0.  0.
        3    1    3    3  502    0  0.20392687616E+03  0.20752498827E+03 -0.10469807078E+04  0.10866560653E+04  0.10100000352E+00 0. -1.
       -3    1    3    3    0  502 -0.20392687616E+03 -0.20752498827E+03  0.62902364022E+03  0.69305377983E+03  0.10100000352E+00 0.  1.
</event>
<event>
 5   0  0.5392262E-06  0.1659010E+04  0.7818609E-02  0.8785094E-01
        1   -1    0    0  501    0  0.00000000000E+00  0.00000000000E+00  0.12527352840E+04  0.12527352840E+04  0.50400001928E-02 0.  1.
       -1   -1    0    0    0  501  0.00000000000E+00  0.00000000000E+00 -0.54926091140E+03  0.54926091142E+03  0.50400001928E-02 0. -1.
    10030    2    1    2    0    0  0.00000000000E+00  0.00000000000E+00  0.70347437256E+03  0.18019961954E+04  0.16590099745E+04 0.  0.
        2    1    3    3  502    0  0.52311617854E+03  0.64012840364E+03  0.27756071122E+03  0.87204062854E+03  0.25500000920E-02 0. -1.
       -2    1    3    3    0  502 -0.52311617854E+03 -0.64012840364E+03  0.42591366134E+03  0.92995556685E+03  0.25500000920E-02 0.  1.
</event>
<event>
 5   0  0.1523029E-05  0.2889373E+04  0.7818609E-02  0.8276046E-01
        2   -1    0    0  501    0  0.00000000000E+00  0.00000000000E+00  0.18431956689E+04  0.18431956689E+04  0.25500000920E-02 0.  1.
       -2   -1    0    0    0  501  0.00000000000E+00  0.00000000000E+00 -0.11323370043E+04  0.11323370043E+04  0.25500000920E-02 0. -1.
    10030    2    1    2    0    0  0.00000000000E+00  0.00000000000E+00  0.71085866456E+03  0.29755326732E+04  0.28893727084E+04 0.  0.
        5    1    3    3  502    0 -0.61984834492E+03  0.37811092403E+03 -0.93078061828E+03  0.11804890897E+04  0.46999998093E+01 0. -1.
       -5    1    3    3    0  502  0.61984834492E+03 -0.37811092403E+03  0.16416392828E+04  0.17950435835E+04  0.46999998093E+01 0.  1.
</event>
<event>
 5   0  0.1523029E-05  0.2941454E+04  0.7818609E-02  0.8260649E-01
        2   -1    0    0  501    0  0.00000000000E+00  0.00000000000E+00  0.11372206923E+04  0.11372206923E+04  0.25500000920E-02 0.  1.
       -2   -1    0    0    0  501  0.00000000000E+00  0.00000000000E+00 -0.19020394426E+04  0.19020394426E+04  0.25500000920E-02 0. -1.
    10030    2    1    2    0    0  0.00000000000E+00  0.00000000000E+00 -0.76481875026E+03  0.30392601349E+04  0.29414544781E+04 0.  0.
        5    1    3    3  502    0 -0.12917600827E+04 -0.58068586745E+03 -0.79204650935E+03  0.16227137612E+04  0.46999998093E+01 0. -1.
       -5    1    3    3    0  502  0.12917600827E+04  0.58068586745E+03  0.27227759085E+02  0.14165463737E+04  0.46999998093E+01 0.  1.
</event>
<event>
 5   0  0.1388724E-05  0.2973677E+04  0.7818609E-02  0.8251288E-01
       -2   -1    0    0    0  501  0.00000000000E+00  0.00000000000E+00  0.13211130438E+04  0.13211130438E+04  0.25500000920E-02 0. -1.
        2   -1    0    0  501    0  0.00000000000E+00  0.00000000000E+00 -0.16733529301E+04  0.16733529301E+04  0.25500000920E-02 0.  1.
    10030    2    1    2    0    0  0.00000000000E+00  0.00000000000E+00 -0.35223988622E+03  0.29944659739E+04  0.29736767698E+04 0.  0.
        4    1    3    3  502    0  0.83201265822E+03 -0.86214871479E+03 -0.10626961275E+04  0.16015211963E+04  0.12699999809E+01 0.  1.
       -4    1    3    3    0  502 -0.83201265822E+03  0.86214871479E+03  0.71045624126E+03  0.13929447776E+04  0.12699999809E+01 0. -1.
</event>
<event>
 5   0  0.1388724E-05  0.2832709E+04  0.7818609E-02  0.8293185E-01
       -2   -1    0    0    0  501  0.00000000000E+00  0.00000000000E+00  0.19615141301E+04  0.19615141301E+04  0.25500000920E-02 0.  1.
        2   -1    0    0  501    0  0.00000000000E+00  0.00000000000E+00 -0.10227099598E+04  0.10227099598E+04  0.25500000920E-02 0. -1.
    10030    2    1    2    0    0  0.00000000000E+00  0.00000000000E+00  0.93880417025E+03  0.29842240899E+04  0.28327089770E+04 0.  0.
        4    1    3    3  502    0 -0.12162693240E+04 -0.21704898041E+03  0.11990038154E+04  0.17216367476E+04  0.12699999809E+01 0.  1.
       -4    1    3    3    0  502  0.12162693240E+04  0.21704898041E+03 -0.26019964517E+03  0.12625873422E+04  0.12699999809E+01 0. -1.
</event>
<event>
 5   0  0.5392262E-06  0.2992914E+04  0.7818609E-02  0.8245757E-01
        1   -1    0    0  501    0  0.00000000000E+00  0.00000000000E+00  0.18039611275E+04  0.18039611275E+04  0.50400001928E-02 0. -1.
       -1   -1    0    0    0  501  0.00000000000E+00  0.00000000000E+00 -0.12413699126E+04  0.12413699127E+04  0.50400001928E-02 0.  1.
    10030    2    1    2    0    0  0.00000000000E+00  0.00000000000E+00  0.56259121482E+03  0.30453310401E+04  0.29929136755E+04 0.  0.
        2    1    3    3  502    0  0.54252071733E+03  0.99669060147E+03  0.12739126430E+04  0.17060405347E+04  0.25500000920E-02 0. -1.
       -2    1    3    3    0  502 -0.54252071733E+03 -0.99669060147E+03 -0.71132142822E+03  0.13392905055E+04  0.25500000920E-02 0.  1.
</event>
<event>
 5   0  0.1423692E-05  0.3025791E+04  0.7818609E-02  0.8236404E-01
        2   -1    0    0  501    0  0.00000000000E+00  0.00000000000E+00  0.24269756154E+04  0.24269756154E+04  0.25500000920E-02 0.  1.
       -2   -1    0    0    0  501  0.00000000000E+00  0.00000000000E+00 -0.94308825534E+03  0.94308825535E+03  0.25500000920E-02 0. -1.
    10030    2    1    2    0    0  0.00000000000E+00  0.00000000000E+00  0.14838873601E+04  0.33700638707E+04  0.30257906067E+04 0.  0.
        3    1    3    3  502    0  0.48932536063E+03 -0.60625061176E+03  0.21863715873E+04  0.23210342179E+04  0.10100000352E+00 0.  1.
       -3    1    3    3    0  502 -0.48932536063E+03  0.60625061176E+03 -0.70248422723E+03  0.10490296528E+04  0.10100000352E+00 0. -1.
</event>
<event>
 5   0  0.5329891E-06  0.3019790E+04  0.7818609E-02  0.8238102E-01
        1   -1    0    0  501    0  0.00000000000E+00  0.00000000000E+00  0.26289774281E+04  0.26289774281E+04  0.50400001928E-02 0. -1.
       -1   -1    0    0    0  501  0.00000000000E+00  0.00000000000E+00 -0.86717468297E+03  0.86717468299E+03  0.50400001928E-02 0.  1.
    10030    2    1    2    0    0  0.00000000000E+00  0.00000000000E+00  0.17618027451E+04  0.34961521111E+04  0.30197898389E+04 0.  0.
        4    1    3    3  502    0 -0.14905341861E+04  0.14200979653E+03  0.11063563677E+04  0.18616887408E+04  0.12699999809E+01 0. -1.
       -4    1    3    3    0  502  0.14905341861E+04 -0.14200979653E+03  0.65544637746E+03  0.16344633703E+04  0.12699999809E+01 0.  1.
</event>
<event>
 5   0  0.1480547E-05  0.2599675E+04  0.7818609E-02  0.8368312E-01
        2   -1    0    0  501    0  0.00000000000E+00  0.00000000000E+00  0.13025831201E+04  0.13025831201E+04  0.25500000920E-02 0.  1.
       -2   -1    0    0    0  501  0.00000000000E+00  0.00000000000E+00 -0.12970975179E+04  0.12970975179E+04  0.25500000920E-02 0. -1.
    10030    2    1    2    0    0  0.00000000000E+00  0.00000000000E+00  0.54856021467E+01  0.25996806380E+04  0.25996748504E+04 0.  0.
        1    1    3    3  502    0  0.52039535765E+03 -0.80176770308E+03  0.88361623628E+03  0.13016990555E+04  0.50400001928E-02 0.  1.
       -1    1    3    3    0  502 -0.52039535765E+03  0.80176770308E+03 -0.87813063414E+03  0.12979815825E+04  0.50400001928E-02 0. -1.
</event>
<event>
 5   0  0.1345931E-05  0.2982936E+04  0.7818609E-02  0.8248620E-01
       -2   -1    0    0    0  501  0.00000000000E+00  0.00000000000E+00  0.80630110678E+03  0.80630110679E+03  0.25500000920E-02 0. -1.
        2   -1    0    0  501    0  0.00000000000E+00  0.00000000000E+00 -0.27588660846E+04  0.27588660846E+04  0.25500000920E-02 0.  1.
    10030    2    1    2    0    0  0.00000000000E+00  0.00000000000E+00 -0.19525649778E+04  0.35651671914E+04  0.29829359883E+04 0.  0.
        2    1    3    3  502    0 -0.47912170471E+03  0.61731483786E+03  0.54204835729E+03  0.95102662350E+03  0.25500000920E-02 0. -1.
       -2    1    3    3    0  502  0.47912170471E+03 -0.61731483786E+03 -0.24946133351E+04  0.26141405679E+04  0.25500000920E-02 0.  1.
</event>
<event>
 5   0  0.5329891E-06  0.2797924E+04  0.7818609E-02  0.8303913E-01
        1   -1    0    0  501    0  0.00000000000E+00  0.00000000000E+00  0.18997188559E+04  0.18997188559E+04  0.50400001928E-02 0.  1.
       -1   -1    0    0    0  501  0.00000000000E+00  0.00000000000E+00 -0.10302025726E+04  0.10302025726E+04  0.50400001928E-02 0. -1.
    10030    2    1    2    0    0  0.00000000000E+00  0.00000000000E+00  0.86951628328E+03  0.29299214285E+04  0.27979244111E+04 0.  0.
        4    1    3    3  502    0  0.11437849783E+04 -0.66476439708E+03  0.91112328209E+03  0.16063321662E+04  0.12699999809E+01 0.  1.
       -4    1    3    3    0  502 -0.11437849783E+04  0.66476439708E+03 -0.41606998808E+02  0.13235892623E+04  0.12699999809E+01 0. -1.
</event>
<event>
 5   0  0.5392262E-06  0.3059948E+04  0.7818609E-02  0.8226817E-01
       -1   -1    0    0    0  501  0.00000000000E+00  0.00000000000E+00  0.15062489981E+04  0.15062489981E+04  0.50400001928E-02 0.  1.
        1   -1    0    0  501    0  0.00000000000E+00  0.00000000000E+00 -0.15540725560E+04  0.15540725560E+04  0.50400001928E-02 0. -1.
    10030    2    1    2    0    0  0.00000000000E+00  0.00000000000E+00 -0.47823557929E+02  0.30603215541E+04  0.30599478626E+04 0.  0.
        2    1    3    3  502    0 -0.11495484365E+04 -0.46273357047E+03 -0.92137094449E+03  0.15441853459E+04  0.25500000920E-02 0. -1.
       -2    1    3    3    0  502  0.11495484365E+04  0.46273357047E+03  0.87354738656E+03  0.15161362082E+04  0.25500000920E-02 0.  1.
</event>
<event>
 5   0  0.1388724E-05  0.2912643E+04  0.7818609E-02  0.8269126E-01
       -2   -1    0    0    0  501  0.00000000000E+00  0.00000000000E+00  0.11553501951E+04  0.11553501951E+04  0.25500000920E-02 0. -1.
        2   -1    0    0  501    0  0.00000000000E+00  0.00000000000E+00 -0.18356960215E+04  0.18356960215E+04  0.25500000920E-02 0.  1.
    10030    2    1    2    0    0  0.00000000000E+00  0.00000000000E+00 -0.68034582640E+03  0.29910462166E+04  0.29126426190E+04 0.  0.
        4    1    3    3  502    0 -0.48799517314E+03  0.11751897650E+04 -0.10675181594E+04  0.16609656547E+04  0.12699999809E+01 0.  1.
       -4    1    3    3    0  502  0.48799517314E+03 -0.11751897650E+04  0.38717233295E+03  0.13300805619E+04  0.12699999809E+01 0. -1.
</event>
<event>
 5   0  0.1388724E-05  0.2471920E+04  0.7818609E-02  0.8413058E-01
        2   -1    0    0  501    0  0.00000000000E+00  0.00000000000E+00  0.99083800651E+03  0.99083800651E+03  0.25500000920E-02 0.  1.
       -2   -1    0    0    0  501  0.00000000000E+00  0.00000000000E+00 -0.15417228701E+04  0.15417228701E+04  0.25500000920E-02 0. -1.
    10030    2    1    2    0    0  0.00000000000E+00  0.00000000000E+00 -0.55088486363E+03  0.25325608767E+04  0.24719203994E+04 0.  0.
        4    1    3    3  502    0  0.40591469040E+03  0.25109893923E+03 -0.14434888484E+04  0.15203549195E+04  0.12699999809E+01 0. -1.
       -4    1    3    3    0  502 -0.40591469040E+03 -0.25109893923E+03  0.89260398472E+03  0.10122059571E+04  0.12699999809E+01 0.  1.
</event>
<event>
 5   0  0.5329891E-06  0.2597880E+04  0.7818609E-02  0.8368922E-01
        1   -1    0    0  501    0  0.00000000000E+00  0.00000000000E+00  0.13903477658E+04  0.13903477658E+04  0.50400001928E-02 0.  1.
       -1   -1    0    0    0  501  0.00000000000E+00  0.00000000000E+00 -0.12135419250E+04  0.12135419250E+04  0.50400001928E-02 0. -1.
    10030    2    1    2    0    0  0.00000000000E+00  0.00000000000E+00  0.17680584079E+03  0.26038896907E+04  0.25978801389E+04 0.  0.
        4    1    3    3  502    0 -0.68381734312E+03 -0.86129816077E+03  0.78123488064E+03  0.13489885960E+04  0.12699999809E+01 0.  1.
       -4    1    3    3    0  502  0.68381734312E+03  0.86129816077E+03 -0.60442903985E+03  0.12549010948E+04  0.12699999809E+01 0. -1.
</event>
<event>
 5   0  0.5392262E-06  0.2949422E+04  0.7818609E-02  0.8258323E-01
        1   -1    0    0  501    0  0.00000000000E+00  0.00000000000E+00  0.22132013539E+04  0.22132013539E+04  0.50400001928E-02 0.  1.
       -1   -1    0    0    0  501  0.00000000000E+00  0.00000000000E+00 -0.98263624455E+03  0.98263624456E+03  0.50400001928E-02 0. -1.
    10030    2    1    2    0    0  0.00000000000E+00  0.00000000000E+00  0.12305651094E+04  0.31958375985E+04  0.29494215480E+04 0.  0.
        2    1    3    3  502    0  0.58854701097E+03  0.18623676667E+03 -0.83590242695E+03  0.10391364611E+04  0.25500000920E-02 0. -1.
       -2    1    3    3    0  502 -0.58854701097E+03 -0.18623676667E+03  0.20664675363E+04  0.21567011374E+04  0.25500000920E-02 0.  1.
</event>
<event>
 5   0  0.1523029E-05  0.2897769E+04  0.7818609E-02  0.8273541E-01
        2   -1    0    0  501    0  0.00000000000E+00  0.00000000000E+00  0.16938006244E+04  0.16938006244E+04  0.25500000920E-02 0. -1.
       -2   -1    0    0    0  501  0.00000000000E+00  0.00000000000E+00 -0.12393824577E+04  0.12393824577E+04  0.25500000920E-02 0.  1.
    10030    2    1    2    0    0  0.00000000000E+00  0.00000000000E+00  0.45441816668E+03  0.29331830821E+04  0.28977693357E+04 0.  0.
        5    1    3    3  502    0 -0.62600304174E+03 -0.74357979246E+03 -0.86037707249E+03  0.12980991922E+04  0.46999998093E+01 0.  1.
       -5    1    3    3    0  502  0.62600304174E+03  0.74357979246E+03  0.13147952392E+04  0.16350838899E+04  0.46999998093E+01 0. -1.
</event>
<event>
 5   0  0.1523029E-05  0.2930173E+04  0.7818609E-02  0.8263956E-01
       -2   -1    0    0    0  501  0.00000000000E+00  0.00000000000E+00  0.99667421450E+03  0.99667421450E+03  0.25500000920E-02 0.  1.
        2   -1    0    0  501    0  0.00000000000E+00  0.00000000000E+00 -0.21536410267E+04  0.21536410267E+04  0.25500000920E-02 0. -1.
    10030    2    1    2    0    0  0.00000000000E+00  0.00000000000E+00 -0.11569668122E+04  0.31503152412E+04  0.29301730178E+04 0.  0.
        5    1    3    3  502    0  0.41827124616E+03 -0.11228603787E+04 -0.14848437371E+04  0.19080223476E+04  0.46999998093E+01 0. -1.
       -5    1    3    3    0  502 -0.41827124616E+03  0.11228603787E+04  0.32787692488E+03  0.12422928936E+04  0.46999998093E+01 0.  1.
</event>
<event>
 5   0  0.7032692E-06  0.2403801E+04  0.7818609E-02  0.8438082E-01
        1   -1    0    0  501    0  0.00000000000E+00  0.00000000000E+00  0.75027184502E+03  0.75027184504E+03  0.50400001928E-02 0.  1.
       -1   -1    0    0    0  501  0.00000000000E+00  0.00000000000E+00 -0.19253890547E+04  0.19253890547E+04  0.50400001928E-02 0. -1.
    10030    2    1    2    0    0  0.00000000000E+00  0.00000000000E+00 -0.11751172096E+04  0.26756608997E+04  0.24038013216E+04 0.  0.
        5    1    3    3  502    0  0.23697377215E+03 -0.84897558394E+03  0.32193457736E+03  0.93839228093E+03  0.46999998093E+01 0.  1.
       -5    1    3    3    0  502 -0.23697377215E+03  0.84897558394E+03 -0.14970517870E+04  0.17372686188E+04  0.46999998093E+01 0. -1.
</event>
<event>
 5   0  0.1345931E-05  0.2985644E+04  0.7818609E-02  0.8247842E-01
       -2   -1    0    0    0  501  0.00000000000E+00  0.00000000000E+00  0.15554179488E+04  0.15554179488E+04  0.25500000920E-02 0.  1.
        2   -1    0    0  501    0  0.00000000000E+00  0.00000000000E+00 -0.14327455200E+04  0.14327455200E+04  0.25500000920E-02 0. -1.
    10030    2    1    2    0    0  0.00000000000E+00  0.00000000000E+00  0.12267242881E+03  0.29881634688E+04  0.29856443847E+04 0.  0.
        2    1    3    3  502    0  0.24752536376E+03  0.34350951127E+03  0.14940643826E+04  0.15528992141E+04  0.25500000920E-02 0.  1.
       -2    1    3    3    0  502 -0.24752536376E+03 -0.34350951127E+03 -0.13713919537E+04  0.14352642547E+04  0.25500000920E-02 0. -1.
</event>
<event>
 5   0  0.5329891E-06  0.1570615E+04  0.7818609E-02  0.8838806E-01
        1   -1    0    0  501    0  0.00000000000E+00  0.00000000000E+00  0.97580179104E+03  0.97580179105E+03  0.50400001928E-02 0. -1.
       -1   -1    0    0    0  501  0.00000000000E+00  0.00000000000E+00 -0.63200136270E+03  0.63200136272E+03  0.50400001928E-02 0.  1.
    10030    2    1    2    0    0  0.00000000000E+00  0.00000000000E+00  0.34380042834E+03  0.16078031538E+04  0.15706152447E+04 0.  0.
        4    1    3    3  502    0  0.21086467559E+03 -0.55233427904E+03 -0.35722250612E+03  0.69075798873E+03  0.12699999809E+01 0.  1.
       -4    1    3    3    0  502 -0.21086467559E+03  0.55233427904E+03  0.70102293446E+03  0.91704516505E+03  0.12699999809E+01 0. -1.
</event>
<event>
 5   0  0.1423692E-05  0.2973493E+04  0.7818609E-02  0.8251341E-01
       -2   -1    0    0    0  501  0.00000000000E+00  0.00000000000E+00  0.11994970570E+04  0.11994970570E+04  0.25500000920E-02 0. -1.
        2   -1    0    0  501    0  0.00000000000E+00  0.00000000000E+00 -0.18427850420E+04  0.18427850420E+04  0.25500000920E-02 0.  1.
    10030    2    1    2    0    0  0.00000000000E+00  0.00000000000E+00 -0.64328798501E+03  0.30422820990E+04  0.29734930533E+04 0.  0.
        3    1    3    3  502    0 -0.37441845416E+03  0.11945081635E+03  0.11453881364E+04  0.12109383426E+04  0.10100000352E+00 0. -1.
       -3    1    3    3    0  502  0.37441845416E+03 -0.11945081635E+03 -0.17886761214E+04  0.18313437564E+04  0.10100000352E+00 0.  1.
</event>
<event>
 5   0  0.1523029E-05  0.2384743E+04  0.7818609E-02  0.8445238E-01
        2   -1    0    0  501    0  0.00000000000E+00  0.00000000000E+00  0.14604478371E+04  0.14604478371E+04  0.25500000920E-02 0. -1.
       -2   -1    0    0    0  501  0.00000000000E+00  0.00000000000E+00 -0.97350248510E+03  0.97350248510E+03  0.25500000920E-02 0.  1.
    10030    2    1    2    0    0  0.00000000000E+00  0.00000000000E+00  0.48694535203E+03  0.24339503222E+04  0.23847428363E+04 0.  0.
        5    1    3    3  502    0  0.18575963289E+03  0.97862160316E+03 -0.42542882220E+03  0.10831521851E+04  0.46999998093E+01 0.  1.
       -5    1    3    3    0  502 -0.18575963289E+03 -0.97862160316E+03  0.91237417423E+03  0.13507981371E+04  0.46999998093E+01 0. -1.
</event>
<event>
 5   0  0.1345931E-05  0.3012775E+04  0.7818609E-02  0.8240092E-01
       -2   -1    0    0    0  501  0.00000000000E+00  0.00000000000E+00  0.15879736577E+04  0.15879736577E+04  0.25500000920E-02 0.  1.
        2   -1    0    0  501    0  0.00000000000E+00  0.00000000000E+00 -0.14289928054E+04  0.14289928054E+04  0.25500000920E-02 0. -1.
    10030    2    1    2    0    0  0.00000000000E+00  0.00000000000E+00  0.15898085231E+03  0.30169664630E+04  0.30127747556E+04 0.  0.
        2    1    3    3  502    0 -0.13243810386E+04 -0.68988339111E+03 -0.11897387030E+03  0.14980250367E+04  0.25500000920E-02 0. -1.
       -2    1    3    3    0  502  0.13243810386E+04  0.68988339111E+03  0.27795472261E+03  0.15189414263E+04  0.25500000920E-02 0.  1.
</event>
<event>
 5   0  0.5522695E-06  0.2973337E+04  0.7818609E-02  0.8251386E-01
       -1   -1    0    0    0  501  0.00000000000E+00  0.00000000000E+00  0.13975872311E+04  0.13975872311E+04  0.50400001928E-02 0. -1.
        1   -1    0    0  501    0  0.00000000000E+00  0.00000000000E+00 -0.15814277030E+04  0.15814277030E+04  0.50400001928E-02 0.  1.
    10030    2    1    2    0    0  0.00000000000E+00  0.00000000000E+00 -0.18384047194E+03  0.29790149341E+04  0.29733369568E+04 0.  0.
        3    1    3    3  502    0  0.10053674079E+04 -0.64724698572E+03  0.79322077813E+03  0.14348837927E+04  0.10100000352E+00 0. -1.
       -3    1    3    3    0  502 -0.10053674079E+04  0.64724698572E+03 -0.97706125007E+03  0.15441311414E+04  0.10100000352E+00 0.  1.
</event>
<event>
 5   0  0.1345931E-05  0.2980691E+04  0.7818609E-02  0.8249266E-01
       -2   -1    0    0    0  501  0.00000000000E+00  0.00000000000E+00  0.76759289475E+03  0.76759289476E+03  0.25500000920E-02 0.  1.
        2   -1    0    0  501    0  0.00000000000E+00  0.00000000000E+00 -0.28936292017E+04  0.28936292017E+04  0.25500000920E-02 0. -1.
    10030    2    1    2    0    0  0.00000000000E+00  0.00000000000E+00 -0.21260363069E+04  0.36612220964E+04  0.29806906685E+04 0.  0.
        2    1    3    3  502    0  0.22694221851E+03  0.14585752938E+04 -0.81073635824E+03  0.16841134466E+04  0.25500000920E-02 0.  1.
       -2    1    3    3    0  502 -0.22694221851E+03 -0.14585752938E+04 -0.13152999487E+04  0.19771086499E+04  0.25500000920E-02 0. -1.
</event>
<event>
 5   0  0.7032692E-06  0.1817815E+04  0.7818609E-02  0.8696883E-01
       -1   -1    0    0    0  501  0.00000000000E+00  0.00000000000E+00  0.10025137948E+04  0.10025137949E+04  0.50400001928E-02 0.  1.
        1   -1    0    0  501    0  0.00000000000E+00  0.00000000000E+00 -0.82404099876E+03  0.82404099878E+03  0.50400001928E-02 0. -1.
    10030    2    1    2    0    0  0.00000000000E+00  0.00000000000E+00  0.17847279608E+03  0.18265547936E+04  0.18178145877E+04 0.  0.
        5    1    3    3  502    0 -0.35010980026E+02 -0.56742961375E+03 -0.62331937336E+03  0.84365352277E+03  0.46999998093E+01 0. -1.
       -5    1    3    3    0  502  0.35010980026E+02  0.56742961375E+03  0.80179216945E+03  0.98290127086E+03  0.46999998093E+01 0.  1.
</event>
<event>
 5   0  0.5329891E-06  0.2640449E+04  0.7818609E-02  0.8354590E-01
        1   -1    0    0  501    0  0.00000000000E+00  0.00000000000E+00  0.19923042226E+04  0.19923042226E+04  0.50400001928E-02 0.  1.
       -1   -1    0    0    0  501  0.00000000000E+00  0.00000000000E+00 -0.87486243248E+03  0.87486243249E+03  0.50400001928E-02 0. -1.
    10030    2    1    2    0    0  0.00000000000E+00  0.00000000000E+00  0.11174417901E+04  0.28671666551E+04  0.26404485365E+04 0.  0.
        4    1    3    3  502    0 -0.12319618141E+03  0.13431364435E+03  0.19785774270E+04  0.19869543783E+04  0.12699999809E+01 0.  1.
       -4    1    3    3    0  502  0.12319618141E+03 -0.13431364435E+03 -0.86113563686E+03  0.88021227675E+03  0.12699999809E+01 0. -1.
</event>
<event>
 5   0  0.1423692E-05  0.3009462E+04  0.7818609E-02  0.8241034E-01
        2   -1    0    0  501    0  0.00000000000E+00  0.00000000000E+00  0.14290300531E+04  0.14290300531E+04  0.25500000920E-02 0. -1.
       -2   -1    0    0    0  501  0.00000000000E+00  0.00000000000E+00 -0.15844418659E+04  0.15844418659E+04  0.25500000920E-02 0.  1.
    10030    2    1    2    0    0  0.00000000000E+00  0.00000000000E+00 -0.15541181280E+03  0.30134719190E+04  0.30094617750E+04 0.  0.
        3    1    3    3  502    0  0.12680405404E+04 -0.33427013809E+03 -0.81662667792E+03  0.15448438363E+04  0.10100000352E+00 0.  1.
       -3    1    3    3    0  502 -0.12680405404E+04  0.33427013809E+03  0.66121486512E+03  0.14686280827E+04  0.10100000352E+00 0. -1.
</event>
<event>
 5   0  0.5522695E-06  0.3058625E+04  0.7818609E-02  0.8227186E-01
        1   -1    0    0  501    0  0.00000000000E+00  0.00000000000E+00  0.14634387358E+04  0.14634387358E+04  0.50400001928E-02 0. -1.
       -1   -1    0    0    0  501  0.00000000000E+00  0.00000000000E+00 -0.15981510995E+04  0.15981510996E+04  0.50400001928E-02 0.  1.
    10030    2    1    2    0    0  0.00000000000E+00  0.00000000000E+00 -0.13471236377E+03  0.30615898353E+04  0.30586246744E+04 0.  0.
        3    1    3    3  502    0 -0.14601091224E+04  0.43062470784E+03  0.79209557772E+02  0.15243459097E+04  0.10100000352E+00 0. -1.
       -3    1    3    3    0  502  0.14601091224E+04 -0.43062470784E+03 -0.21392192154E+03  0.15372439256E+04  0.10100000352E+00 0.  1.
</event>
<event>
 5   0  0.5392262E-06  0.3006261E+04  0.7818609E-02  0.8241945E-01
       -1   -1    0    0    0  501  0.00000000000E+00  0.00000000000E+00  0.12687831270E+04  0.12687831270E+04  0.50400001928E-02 0. -1.
        1   -1    0    0  501    0  0.00000000000E+00  0.00000000000E+00 -0.17807618562E+04  0.17807618562E+04  0.50400001928E-02 0.  1.
    10030    2    1    2    0    0  0.00000000000E+00  0.00000000000E+00 -0.51197872924E+03  0.30495449832E+04  0.30062605318E+04 0.  0.
        2    1    3    3  502    0 -0.10950938423E+04 -0.82183069983E+03 -0.88521419912E+03  0.16304111141E+04  0.25500000920E-02 0. -1.
       -2    1    3    3    0  502  0.10950938423E+04  0.82183069983E+03  0.37323546988E+03  0.14191338691E+04  0.25500000920E-02 0.  1.
</event>
<event>
 5   0  0.5392262E-06  0.3010001E+04  0.7818609E-02  0.8240881E-01
       -1   -1    0    0    0  501  0.00000000000E+00  0.00000000000E+00  0.10733085191E+04  0.10733085191E+04  0.50400001928E-02 0. -1.
        1   -1    0    0  501    0  0.00000000000E+00  0.00000000000E+00 -0.21103225547E+04  0.21103225547E+04  0.50400001928E-02 0.  1.
    10030    2    1    2    0    0  0.00000000000E+00  0.00000000000E+00 -0.10370140356E+04  0.31836310738E+04  0.30100014458E+04 0.  0.
        2    1    3    3  502    0  0.36422632123E+03  0.59595967990E+03 -0.19285228541E+04  0.20511043737E+04  0.25500000920E-02 0.  1.
       -2    1    3    3    0  502 -0.36422632123E+03 -0.59595967990E+03  0.89150881842E+03  0.11325267001E+04  0.25500000920E-02 0. -1.
</event>
<event>
 5   0  0.1388724E-05  0.3040445E+04  0.7818609E-02  0.8232275E-01
       -2   -1    0    0    0  501  0.00000000000E+00  0.00000000000E+00  0.97901490542E+03  0.97901490542E+03  0.25500000920E-02 0.  1.
        2   -1    0    0  501    0  0.00000000000E+00  0.00000000000E+00 -0.23606135553E+04  0.23606135553E+04  0.25500000920E-02 0. -1.
    10030    2    1    2    0    0  0.00000000000E+00  0.00000000000E+00 -0.13815986499E+04  0.33396284608E+04  0.30404446100E+04 0.  0.
        4    1    3    3  502    0 -0.11502685581E+04 -0.90963775986E+03 -0.11308672610E+04  0.18518695918E+04  0.12699999809E+01 0. -1.
       -4    1    3    3    0  502  0.11502685581E+04  0.90963775986E+03 -0.25073138888E+03  0.14877588690E+04  0.12699999809E+01 0.  1.
</event>
<event>
 5   0  0.5329891E-06  0.2901114E+04  0.7818609E-02  0.8272546E-01
       -1   -1    0    0    0  501  0.00000000000E+00  0.00000000000E+00  0.19413034504E+04  0.19413034504E+04  0.50400001928E-02 0. -1.
        1   -1    0    0  501    0  0.00000000000E+00  0.00000000000E+00 -0.10838674648E+04  0.10838674648E+04  0.50400001928E-02 0.  1.
    10030    2    1    2    0    0  0.00000000000E+00  0.00000000000E+00  0.85743598564E+03  0.30251709153E+04  0.29011140269E+04 0.  0.
        4    1    3    3  502    0  0.15979478403E+03 -0.93603733392E+02  0.19289250276E+04  0.19377949858E+04  0.12699999809E+01 0. -1.
       -4    1    3    3    0  502 -0.15979478403E+03  0.93603733392E+02 -0.10714890420E+04  0.10873759294E+04  0.12699999809E+01 0.  1.
</event>
<event>
 5   0  0.5730920E-06  0.3011990E+04  0.7818609E-02  0.8240315E-01
       -1   -1    0    0    0  501  0.00000000000E+00  0.00000000000E+00  0.14438205249E+04  0.14438205249E+04  0.50400001928E-02 0. -1.
        1   -1    0    0  501    0  0.00000000000E+00  0.00000000000E+00 -0.15708470663E+04  0.15708470663E+04  0.50400001928E-02 0.  1.
    10030    2    1    2    0    0  0.00000000000E+00  0.00000000000E+00 -0.12702654140E+03  0.30146675912E+04  0.30119901964E+04 0.  0.
        1    1    3    3  502    0 -0.10237974620E+04  0.99271198321E+03  0.42104816807E+03  0.14869162332E+04  0.50400001928E-02 0. -1.
       -1    1    3    3    0  502  0.10237974620E+04 -0.99271198321E+03 -0.54807470947E+03  0.15277513580E+04  0.50400001928E-02 0.  1.
</event>
<event>
 5   0  0.1523029E-05  0.2920750E+04  0.7818609E-02  0.8266730E-01
       -2   -1    0    0    0  501  0.00000000000E+00  0.00000000000E+00  0.99640515081E+03  0.99640515082E+03  0.25500000920E-02 0.  1.
        2   -1    0    0  501    0  0.00000000000E+00  0.00000000000E+00 -0.21403896335E+04  0.21403896335E+04  0.25500000920E-02 0. -1.
    10030    2    1    2    0    0  0.00000000000E+00  0.00000000000E+00 -0.11439844827E+04  0.31367947843E+04  0.29207500787E+04 0.  0.
        5    1    3    3  502    0  0.13844291989E+04  0.32748021900E+03 -0.92621588436E+03  0.16975822381E+04  0.46999998093E+01 0. -1.
       -5    1    3    3    0  502 -0.13844291989E+04 -0.32748021900E+03 -0.21776859830E+03  0.14392125462E+04  0.46999998093E+01 0.  1.
</event>
<event>
 5   0  0.1480547E-05  0.3065083E+04  0.7818609E-02  0.8225386E-01
       -2   -1    0    0    0  501  0.00000000000E+00  0.00000000000E+00  0.11649758007E+04  0.11649758007E+04  0.25500000920E-02 0. -1.
        2   -1    0    0  501    0  0.00000000000E+00  0.00000000000E+00 -0.20160787905E+04  0.20160787906E+04  0.25500000920E-02 0.  1.
    10030    2    1    2    0    0  0.00000000000E+00  0.00000000000E+00 -0.85110298988E+03  0.31810545912E+04  0.30650827090E+04 0.  0.
        1    1    3    3  502    0 -0.27889999158E+01  0.67984823886E+03  0.99990908124E+03  0.12091400155E+04  0.50400001928E-02 0. -1.
       -1    1    3    3    0  502  0.27889999158E+01 -0.67984823886E+03 -0.18510120711E+04  0.19719145757E+04  0.50400001928E-02 0.  1.
</event>
<event>
 5   0  0.1480547E-05  0.3055522E+04  0.7818609E-02  0.8228052E-01
        2   -1    0    0  501    0  0.00000000000E+00  0.00000000000E+00  0.25396996573E+04  0.25396996573E+04  0.25500000920E-02 0.  1.
       -2   -1    0    0    0  501  0.00000000000E+00  0.00000000000E+00 -0.91902734062E+03  0.91902734062E+03  0.25500000920E-02 0. -1.
    10030    2    1    2    0    0  0.00000000000E+00  0.00000000000E+00  0.16206723167E+04  0.34587269980E+04  0.30555218357E+04 0.  0.
        1    1    3    3  502    0 -0.14712668036E+04  0.17170620529E+03  0.12337925034E+04  0.19277844718E+04  0.50400001928E-02 0.  1.
       -1    1    3    3    0  502  0.14712668036E+04 -0.17170620529E+03  0.38687981334E+03  0.15309425261E+04  0.50400001928E-02 0. -1.
</event>
<event>
 5   0  0.5522695E-06  0.1871378E+04  0.7818609E-02  0.8669236E-01
        1   -1    0    0  501    0  0.00000000000E+00  0.00000000000E+00  0.66805263793E+03  0.66805263795E+03  0.50400001928E-02 0.  1.
       -1   -1    0    0    0  501  0.00000000000E+00  0.00000000000E+00 -0.13105462372E+04  0.13105462372E+04  0.50400001928E-02 0. -1.
    10030    2    1    2    0    0  0.00000000000E+00  0.00000000000E+00 -0.64249359931E+03  0.19785988752E+04  0.18713779639E+04 0.  0.
        3    1    3    3  502    0 -0.31818892807E+03 -0.38052424066E+03 -0.11600963950E+04  0.12616919384E+04  0.10100000352E+00 0. -1.
       -3    1    3    3    0  502  0.31818892807E+03  0.38052424066E+03  0.51760279567E+03  0.71690693675E+03  0.10100000352E+00 0.  1.
</event>
<event>
 5   0  0.1523029E-05  0.2911184E+04  0.7818609E-02  0.8269558E-01
        2   -1    0    0  501    0  0.00000000000E+00  0.00000000000E+00  0.14390354732E+04  0.14390354732E+04  0.25500000920E-02 0. -1.
       -2   -1    0    0    0  501  0.00000000000E+00  0.00000000000E+00 -0.14723387585E+04  0.14723387585E+04  0.25500000920E-02 0.  1.
    10030    2    1    2    0    0  0.00000000000E+00  0.00000000000E+00 -0.33303285338E+02  0.29113742317E+04  0.29111837469E+04 0.  0.
        5    1    3    3  502    0  0.97993966051E+03  0.48188499730E+03  0.94582014269E+03  0.14446773762E+04  0.46999998093E+01 0. -1.
       -5    1    3    3    0  502 -0.97993966051E+03 -0.48188499730E+03 -0.97912342803E+03  0.14666968556E+04  0.46999998093E+01 0.  1.
</event>
<event>
 5   0  0.1345931E-05  0.1480946E+04  0.7818609E-02  0.8897223E-01
        2   -1    0    0  501    0  0.00000000000E+00  0.00000000000E+00  0.24643335311E+04  0.24643335311E+04  0.25500000920E-02 0.  1.
       -2   -1    0    0    0  501  0.00000000000E+00  0.00000000000E+00 -0.22249445581E+03  0.22249445582E+03  0.25500000920E-02 0. -1.
    10030    2    1    2    0    0  0.00000000000E+00  0.00000000000E+00  0.22418390753E+04  0.26868279869E+04  0.14809463838E+04 0.  0.
        2    1    3    3  502    0  0.40230397251E+03  0.13425298547E+03  0.22221468104E+04  0.22622574560E+04  0.25500000920E-02 0.  1.
       -2    1    3    3    0  502 -0.40230397251E+03 -0.13425298547E+03  0.19692264907E+02  0.42457053090E+03  0.25500000920E-02 0. -1.
</event>
<event>
 5   0  0.7032692E-06  0.3088907E+04  0.7818609E-02  0.8218789E-01
       -1   -1    0    0    0  501  0.00000000000E+00  0.00000000000E+00  0.11301221462E+04  0.11301221462E+04  0.50400001928E-02 0.  1.
        1   -1    0    0  501    0  0.00000000000E+00  0.00000000000E+00 -0.21106886882E+04  0.21106886882E+04  0.50400001928E-02 0. -1.
    10030    2    1    2    0    0  0.00000000000E+00  0.00000000000E+00 -0.98056654195E+03  0.32408108344E+04  0.30889066223E+04 0.  0.
        5    1    3    3  502    0 -0.11953050485E+04  0.37915674963E+03 -0.14361734883E+04  0.19066017881E+04  0.46999998093E+01 0. -1.
       -5    1    3    3    0  502  0.11953050485E+04 -0.37915674963E+03  0.45560694637E+03  0.13342090463E+04  0.46999998093E+01 0.  1.
</event>
<event>
 5   0  0.1480547E-05  0.2087771E+04  0.7818609E-02  0.8566650E-01
        2   -1    0    0  501    0  0.00000000000E+00  0.00000000000E+00  0.10972720411E+04  0.10972720411E+04  0.25500000920E-02 0. -1.
       -2   -1    0    0    0  501  0.00000000000E+00  0.00000000000E+00 -0.99309637758E+03  0.99309637758E+03  0.25500000920E-02 0.  1.
    10030    2    1    2    0    0  0.00000000000E+00  0.00000000000E+00  0.10417566356E+03  0.20903684187E+04  0.20877709542E+04 0.  0.
        1    1    3    3  502    0  0.80615999721E+03  0.14004896626E+03  0.70111435521E+03  0.10775291148E+04  0.50400001928E-02 0. -1.
       -1    1    3    3    0  502 -0.80615999721E+03 -0.14004896626E+03 -0.59693869165E+03  0.10128393040E+04  0.50400001928E-02 0.  1.
</event>
<event>
 5   0  0.1388724E-05  0.2893988E+04  0.7818609E-02  0.8274668E-01
        2   -1    0    0  501    0  0.00000000000E+00  0.00000000000E+00  0.95250535813E+03  0.95250535813E+03  0.25500000920E-02 0. -1.
       -2   -1    0    0    0  501  0.00000000000E+00  0.00000000000E+00 -0.21981940027E+04  0.21981940027E+04  0.25500000920E-02 0.  1.
    10030    2    1    2    0    0  0.00000000000E+00  0.00000000000E+00 -0.12456886445E+04  0.31506993608E+04  0.28939879514E+04 0.  0.
        4    1    3    3  502    0  0.99333430651E+03  0.10282693878E+04 -0.38003874452E+03  0.14793518982E+04  0.12699999809E+01 0. -1.
       -4    1    3    3    0  502 -0.99333430651E+03 -0.10282693878E+04 -0.86564990002E+03  0.16713474626E+04  0.12699999809E+01 0.  1.
</event>
<event>
 5   0  0.1480547E-05  0.2210222E+04  0.7818609E-02  0.8514185E-01
       -2   -1    0    0    0  501  0.00000000000E+00  0.00000000000E+00  0.71718579698E+03  0.71718579698E+03  0.25500000920E-02 0. -1.
        2   -1    0    0  501    0  0.00000000000E+00  0.00000000000E+00 -0.17028652220E+04  0.17028652220E+04  0.25500000920E-02 0.  1.
    10030    2    1    2    0    0  0.00000000000E+00  0.00000000000E+00 -0.98567942502E+03  0.24200510190E+04  0.22102223883E+04 0.  0.
        1    1    3    3  502    0  0.35330756752E+03  0.99991527067E+03 -0.15250323294E+03  0.10714074957E+04  0.50400001928E-02 0. -1.
       -1    1    3    3    0  502 -0.35330756752E+03 -0.99991527067E+03 -0.83317619208E+03  0.13486435233E+04  0.50400001928E-02 0.  1.
</event>
<event>
 5   0  0.1345931E-05  0.2980862E+04  0.7818609E-02  0.8249217E-01
       -2   -1    0    0    0  501  0.00000000000E+00  0.00000000000E+00  0.92826312938E+03  0.92826312939E+03  0.25500000920E-02 0.  1.
        2   -1    0    0  501    0  0.00000000000E+00  0.00000000000E+00 -0.23930554990E+04  0.23930554990E+04  0.25500000920E-02 0. -1.
    10030    2    1    2    0    0  0.00000000000E+00  0.00000000000E+00 -0.14647923696E+04  0.33213186284E+04  0.29808624164E+04 0.  0.
        2    1    3    3  502    0  0.24503229213E+03 -0.12985426568E+04  0.35628970130E+02  0.13219392116E+04  0.25500000920E-02 0.  1.
       -2    1    3    3    0  502 -0.24503229213E+03  0.12985426568E+04 -0.15004213398E+04  0.19993794168E+04  0.25500000920E-02 0. -1.
</event>
<event>
 5   0  0.5392262E-06  0.3047904E+04  0.7818609E-02  0.8230182E-01
       -1   -1    0    0    0  501  0.00000000000E+00  0.00000000000E+00  0.14491919584E+04  0.14491919584E+04  0.50400001928E-02 0.  1.
        1   -1    0    0  501    0  0.00000000000E+00  0.00000000000E+00 -0.16025684031E+04  0.16025684031E+04  0.50400001928E-02 0. -1.
    10030    2    1    2    0    0  0.00000000000E+00  0.00000000000E+00 -0.15337644476E+03  0.30517603615E+04  0.30479037010E+04 0.  0.
        2    1    3    3  502    0  0.12375496009E+04  0.56711964687E+03  0.60921547313E+03  0.14914077918E+04  0.25500000920E-02 0.  1.
       -2    1    3    3    0  502 -0.12375496009E+04 -0.56711964687E+03 -0.76259191789E+03  0.15603525697E+04  0.25500000920E-02 0. -1.
</event>
<event>
 5   0  0.5392262E-06  0.2983426E+04  0.7818609E-02  0.8248480E-01
       -1   -1    0    0    0  501  0.00000000000E+00  0.00000000000E+00  0.19322687772E+04  0.19322687772E+04  0.50400001928E-02 0. -1.
        1   -1    0    0  501    0  0.00000000000E+00  0.00000000000E+00 -0.11516035564E+04  0.11516035564E+04  0.50400001928E-02 0.  1.
    10030    2    1    2    0    0  0.00000000000E+00  0.00000000000E+00  0.78066522078E+03  0.30838723336E+04  0.29834259473E+04 0.  0.
        2    1    3    3  502    0 -0.47582345286E+03  0.14131529923E+04  0.34649901361E+03  0.15308399343E+04  0.25500000920E-02 0.  1.
       -2    1    3    3    0  502  0.47582345286E+03 -0.14131529923E+04  0.43416620717E+03  0.15530323993E+04  0.25500000920E-02 0. -1.
</event>
<event>
 5   0  0.1480547E-05  0.2414575E+04  0.7818609E-02  0.8434067E-01
        2   -1    0    0  501    0  0.00000000000E+00  0.00000000000E+00  0.17960946036E+04  0.17960946036E+04  0.25500000920E-02 0. -1.
       -2   -1    0    0    0  501  0.00000000000E+00  0.00000000000E+00 -0.81150702219E+03  0.81150702219E+03  0.25500000920E-02 0.  1.
    10030    2    1    2    0    0  0.00000000000E+00  0.00000000000E+00  0.98458758145E+03  0.26076016258E+04  0.24145752284E+04 0.  0.
        1    1    3    3  502    0 -0.93639432167E+03 -0.50491052047E+03  0.11086886317E+04  0.15365413894E+04  0.50400001928E-02 0. -1.
       -1    1    3    3    0  502  0.93639432167E+03  0.50491052047E+03 -0.12410105025E+03  0.10710602364E+04  0.50400001928E-02 0.  1.
</event>
<event>
 5   0  0.5730920E-06  0.1500110E+04  0.7818609E-02  0.8884380E-01
        1   -1    0    0  501    0  0.00000000000E+00  0.00000000000E+00  0.10708830742E+04  0.10708830742E+04  0.50400001928E-02 0. -1.
       -1   -1    0    0    0  501  0.00000000000E+00  0.00000000000E+00 -0.52534442349E+03  0.52534442352E+03  0.50400001928E-02 0.  1.
    10030    2    1    2    0    0  0.00000000000E+00  0.00000000000E+00  0.54553865068E+03  0.15962274977E+04  0.15001099310E+04 0.  0.
        1    1    3    3  502    0 -0.66533763066E+03 -0.27857186376E+03  0.53906142381E+02  0.72331343017E+03  0.50400001928E-02 0.  1.
       -1    1    3    3    0  502  0.66533763066E+03  0.27857186376E+03  0.49163250830E+03  0.87291406753E+03  0.50400001928E-02 0. -1.
</event>
<event>
 5   0  0.7032692E-06  0.2110529E+04  0.7818609E-02  0.8556620E-01
        1   -1    0    0  501    0  0.00000000000E+00  0.00000000000E+00  0.10589637658E+04  0.10589637658E+04  0.50400001928E-02 0. -1.
       -1   -1    0    0    0  501  0.00000000000E+00  0.00000000000E+00 -0.10515778148E+04  0.10515778148E+04  0.50400001928E-02 0.  1.
    10030    2    1    2    0    0  0.00000000000E+00  0.00000000000E+00  0.73859510297E+01  0.21105415806E+04  0.21105286568E+04 0.  0.
        5    1    3    3  502    0 -0.71433596197E+03 -0.77202953096E+03 -0.81485298547E+02  0.10549727044E+04  0.46999998093E+01 0. -1.
       -5    1    3    3    0  502  0.71433596197E+03  0.77202953096E+03  0.88871249576E+02  0.10555688761E+04  0.46999998093E+01 0.  1.
</event>
<event>
 5   0  0.1480547E-05  0.2985766E+04  0.7818609E-02  0.8247807E-01
        2   -1    0    0  501    0  0.00000000000E+00  0.00000000000E+00  0.20981175036E+04  0.20981175036E+04  0.25500000920E-02 0.  1.
       -2   -1    0    0    0  501  0.00000000000E+00  0.00000000000E+00 -0.10622378952E+04  0.10622378952E+04  0.25500000920E-02 0. -1.
    10030    2    1    2    0    0  0.00000000000E+00  0.00000000000E+00  0.10358796084E+04  0.31603553988E+04  0.29857661803E+04 0.  0.
        1    1    3    3  502    0 -0.52365343034E+03 -0.13860639995E+04  0.71113257934E+03  0.16435011017E+04  0.50400001928E-02 0.  1.
       -1    1    3    3    0  502  0.52365343034E+03  0.13860639995E+04  0.32474702911E+03  0.15168542971E+04  0.50400001928E-02 0. -1.
</event>
<event>
 5   0  0.5329891E-06  0.2894204E+04  0.7818609E-02  0.8274604E-01
       -1   -1    0    0    0  501  0.00000000000E+00  0.00000000000E+00  0.10223076784E+04  0.10223076784E+04  0.50400001928E-02 0.  1.
        1   -1    0    0  501    0  0.00000000000E+00  0.00000000000E+00 -0.20484088137E+04  0.20484088137E+04  0.50400001928E-02 0. -1.
    10030    2    1    2    0    0  0.00000000000E+00  0.00000000000E+00 -0.10261011353E+04  0.30707164921E+04  0.28942039035E+04 0.  0.
        4    1    3    3  502    0  0.12164790839E+04 -0.24342770906E+02 -0.13442104902E+04  0.18130960777E+04  0.12699999809E+01 0. -1.
       -4    1    3    3    0  502 -0.12164790839E+04  0.24342770906E+02  0.31810935492E+03  0.12576204144E+04  0.12699999809E+01 0.  1.
</event>
<event>
 5   0  0.1345931E-05  0.1886501E+04  0.7818609E-02  0.8661605E-01
        2   -1    0    0  501    0  0.00000000000E+00  0.00000000000E+00  0.11822359249E+04  0.11822359249E+04  0.25500000920E-02 0.  1.
       -2   -1    0    0    0  501  0.00000000000E+00  0.00000000000E+00 -0.75257488068E+03  0.75257488069E+03  0.25500000920E-02 0. -1.
    10030    2    1    2    0    0  0.00000000000E+00  0.00000000000E+00  0.42966104424E+03  0.19348108056E+04  0.18865005276E+04 0.  0.
        2    1    3    3  502    0  0.54981906090E+03 -0.73787129675E+03  0.42742113551E+03  0.10146151376E+04  0.25500000920E-02 0. -1.
       -2    1    3    3    0  502 -0.54981906090E+03  0.73787129675E+03  0.22399087251E+01  0.92019566804E+03  0.25500000920E-02 0.  1.
</event>
<event>
 5   0  0.5329891E-06  0.2989835E+04  0.7818609E-02  0.8246639E-01
        1   -1    0    0  501    0  0.00000000000E+00  0.00000000000E+00  0.24454358834E+04  0.24454358835E+04  0.50400001928E-02 0.  1.
       -1   -1    0    0    0  501  0.00000000000E+00  0.00000000000E+00 -0.91385707565E+03  0.91385707566E+03  0.50400001928E-02 0. -1.
    10030    2    1    2    0    0  0.00000000000E+00  0.00000000000E+00  0.15315788078E+04  0.33592929591E+04  0.29898353702E+04 0.  0.
        4    1    3    3  502    0  0.36639529567E+03 -0.37795917491E+03 -0.80627850885E+03  0.96290461486E+03  0.12699999809E+01 0. -1.
       -4    1    3    3    0  502 -0.36639529567E+03  0.37795917491E+03  0.23378573166E+04  0.23963883443E+04  0.12699999809E+01 0.  1.
</event>
<event>
 5   0  0.5730920E-06  0.2946023E+04  0.7818609E-02  0.8259315E-01
       -1   -1    0    0    0  501  0.00000000000E+00  0.00000000000E+00  0.19466115932E+04  0.19466115932E+04  0.50400001928E-02 0. -1.
        1   -1    0    0  501    0  0.00000000000E+00  0.00000000000E+00 -0.11146355574E+04  0.11146355574E+04  0.50400001928E-02 0.  1.
    10030    2    1    2    0    0  0.00000000000E+00  0.00000000000E+00  0.83197603577E+03  0.30612471506E+04  0.29460227414E+04 0.  0.
        1    1    3    3  502    0 -0.54656537069E+03 -0.18972536794E+03 -0.99162815341E+03  0.11480661193E+04  0.50400001928E-02 0.  1.
       -1    1    3    3    0  502  0.54656537069E+03  0.18972536794E+03  0.18236041892E+04  0.19131810313E+04  0.50400001928E-02 0. -1.
</event>
<event>
 5   0  0.1523029E-05  0.2945435E+04  0.7818609E-02  0.8259486E-01
       -2   -1    0    0    0  501  0.00000000000E+00  0.00000000000E+00  0.12084617241E+04  0.12084617241E+04  0.25500000920E-02 0.  1.
        2   -1    0    0  501    0  0.00000000000E+00  0.00000000000E+00 -0.17947578464E+04  0.17947578464E+04  0.25500000920E-02 0. -1.
    10030    2    1    2    0    0  0.00000000000E+00  0.00000000000E+00 -0.58629612228E+03  0.30032195705E+04  0.29454345428E+04 0.  0.
        5    1    3    3  502    0 -0.12316982575E+04  0.79627885547E+03 -0.42892763134E+03  0.15281170165E+04  0.46999998093E+01 0. -1.
       -5    1    3    3    0  502  0.12316982575E+04 -0.79627885547E+03 -0.15736849094E+03  0.14751025541E+04  0.46999998093E+01 0.  1.
</event>
<event>
 5   0  0.5522695E-06  0.3002683E+04  0.7818609E-02  0.8242965E-01
       -1   -1    0    0    0  501  0.00000000000E+00  0.00000000000E+00  0.95080244660E+03  0.95080244661E+03  0.50400001928E-02 0. -1.
        1   -1    0    0  501    0  0.00000000000E+00  0.00000000000E+00 -0.23706565215E+04  0.23706565215E+04  0.50400001928E-02 0.  1.
    10030    2    1    2    0    0  0.00000000000E+00  0.00000000000E+00 -0.14198540749E+04  0.33214589681E+04  0.30026828142E+04 0.  0.
        3    1    3    3  502    0  0.17632259901E+03  0.12959602322E+04  0.10550658089E+03  0.13121487077E+04  0.10100000352E+00 0. -1.
       -3    1    3    3    0  502 -0.17632259901E+03 -0.12959602322E+04 -0.15253606558E+04  0.20093102604E+04  0.10100000352E+00 0.  1.
</event>
<event>
 5   0  0.5522695E-06  0.2901489E+04  0.7818609E-02  0.8272435E-01
       -1   -1    0    0    0  501  0.00000000000E+00  0.00000000000E+00  0.14700056767E+04  0.14700056767E+04  0.50400001928E-02 0.  1.
        1   -1    0    0  501    0  0.00000000000E+00  0.00000000000E+00 -0.14317359279E+04  0.14317359279E+04  0.50400001928E-02 0. -1.
    10030    2    1    2    0    0  0.00000000000E+00  0.00000000000E+00  0.38269748863E+02  0.29017416046E+04  0.29014892325E+04 0.  0.
        3    1    3    3  502    0  0.10141104041E+04  0.64812206992E+03 -0.79098360829E+03  0.14401865185E+04  0.10100000352E+00 0. -1.
       -3    1    3    3    0  502 -0.10141104041E+04 -0.64812206992E+03  0.82925335715E+03  0.14615550861E+04  0.10100000352E+00 0.  1.
</event>
<event>
 5   0  0.1345931E-05  0.3033367E+04  0.7818609E-02  0.8234266E-01
       -2   -1    0    0    0  501  0.00000000000E+00  0.00000000000E+00  0.71346146408E+03  0.71346146408E+03  0.25500000920E-02 0.  1.
        2   -1    0    0  501    0  0.00000000000E+00  0.00000000000E+00 -0.32241815048E+04  0.32241815048E+04  0.25500000920E-02 0. -1.
    10030    2    1    2    0    0  0.00000000000E+00  0.00000000000E+00 -0.25107200407E+04  0.39376429688E+04  0.30333672754E+04 0.  0.
        2    1    3    3  502    0  0.11989086909E+04 -0.50961225108E+03 -0.22635847044E+04  0.26116857410E+04  0.25500000920E-02 0. -1.
       -2    1    3    3    0  502 -0.11989086909E+04  0.50961225108E+03 -0.24713533624E+03  0.13259572278E+04  0.25500000920E-02 0.  1.
</event>
<event>
 5   0  0.1388724E-05  0.2975180E+04  0.7818609E-02  0.8250854E-01
       -2   -1    0    0    0  501  0.00000000000E+00  0.00000000000E+00  0.81111121676E+03  0.81111121676E+03  0.25500000920E-02 0.  1.
        2   -1    0    0  501    0  0.00000000000E+00  0.00000000000E+00 -0.27282614333E+04  0.27282614333E+04  0.25500000920E-02 0. -1.
    10030    2    1    2    0    0  0.00000000000E+00  0.00000000000E+00 -0.19171502165E+04  0.35393726500E+04  0.29751796254E+04 0.  0.
        4    1    3    3  502    0 -0.31882698213E+03 -0.25450622215E+03 -0.26604151507E+04  0.26915115547E+04  0.12699999809E+01 0. -1.
       -4    1    3    3    0  502  0.31882698213E+03  0.25450622215E+03  0.74326493425E+03  0.84786109536E+03  0.12699999809E+01 0.  1.
</event>
<event>
 5   0  0.5522695E-06  0.3039602E+04  0.7818609E-02  0.8232512E-01
        1   -1    0    0  501    0  0.00000000000E+00  0.00000000000E+00  0.18550187706E+04  0.18550187706E+04  0.50400001928E-02 0. -1.
       -1   -1    0    0    0  501  0.00000000000E+00  0.00000000000E+00 -0.12451600192E+04  0.12451600192E+04  0.50400001928E-02 0.  1.
    10030    2    1    2    0    0  0.00000000000E+00  0.00000000000E+00  0.60985875138E+03  0.31001787897E+04  0.30396020844E+04 0.  0.
        3    1    3    3  502    0  0.10289413747E+04  0.44643343608E+03 -0.74106853277E+03  0.13443235273E+04  0.10100000352E+00 0.  1.
       -3    1    3    3    0  502 -0.10289413747E+04 -0.44643343608E+03  0.13509272842E+04  0.17558552625E+04  0.10100000352E+00 0. -1.
</event>
<event>
 5   0  0.1345931E-05  0.1809637E+04  0.7818609E-02  0.8701191E-01
        2   -1    0    0  501    0  0.00000000000E+00  0.00000000000E+00  0.19106683402E+04  0.19106683402E+04  0.25500000920E-02 0.  1.
       -2   -1    0    0    0  501  0.00000000000E+00  0.00000000000E+00 -0.42848721946E+03  0.42848721947E+03  0.25500000920E-02 0. -1.
    10030    2    1    2    0    0  0.00000000000E+00  0.00000000000E+00  0.14821811208E+04  0.23391555597E+04  0.18096374935E+04 0.  0.
        2    1    3    3  502    0  0.29535963956E+03 -0.85137728231E+03  0.84623285255E+03  0.12362000786E+04  0.25500000920E-02 0.  1.
       -2    1    3    3    0  502 -0.29535963956E+03  0.85137728231E+03  0.63594826824E+03  0.11029554811E+04  0.25500000920E-02 0. -1.
</event>
<event>
 5   0  0.1388724E-05  0.3160867E+04  0.7818609E-02  0.8199229E-01
        2   -1    0    0  501    0  0.00000000000E+00  0.00000000000E+00  0.11485992037E+04  0.11485992037E+04  0.25500000920E-02 0.  1.
       -2   -1    0    0    0  501  0.00000000000E+00  0.00000000000E+00 -0.21746232803E+04  0.21746232803E+04  0.25500000920E-02 0. -1.
    10030    2    1    2    0    0  0.00000000000E+00  0.00000000000E+00 -0.10260240767E+04  0.33232224840E+04  0.31608673291E+04 0.  0.
        4    1    3    3  502    0 -0.14910824115E+04  0.72166810880E+02  0.32517437913E+02  0.14931824414E+04  0.12699999809E+01 0.  1.
       -4    1    3    3    0  502  0.14910824115E+04 -0.72166810880E+02 -0.10585415146E+04  0.18300400426E+04  0.12699999809E+01 0. -1.
</event>
<event>
 5   0  0.1423692E-05  0.1693082E+04  0.7818609E-02  0.8765320E-01
        2   -1    0    0  501    0  0.00000000000E+00  0.00000000000E+00  0.10714799204E+04  0.10714799204E+04  0.25500000920E-02 0.  1.
       -2   -1    0    0    0  501  0.00000000000E+00  0.00000000000E+00 -0.66882451323E+03  0.66882451323E+03  0.25500000920E-02 0. -1.
    10030    2    1    2    0    0  0.00000000000E+00  0.00000000000E+00  0.40265540716E+03  0.17403044336E+04  0.16930824389E+04 0.  0.
        3    1    3    3  502    0 -0.66964757313E+03 -0.19039480999E+03  0.69637652015E+03  0.98469199442E+03  0.10100000352E+00 0.  1.
       -3    1    3    3    0  502  0.66964757313E+03  0.19039480999E+03 -0.29372111298E+03  0.75561243920E+03  0.10100000352E+00 0. -1.
</event>
<event>
 5   0  0.5522695E-06  0.2824457E+04  0.7818609E-02  0.8295715E-01
        1   -1    0    0  501    0  0.00000000000E+00  0.00000000000E+00  0.19938772178E+04  0.19938772178E+04  0.50400001928E-02 0.  1.
       -1   -1    0    0    0  501  0.00000000000E+00  0.00000000000E+00 -0.10002570234E+04  0.10002570234E+04  0.50400001928E-02 0. -1.
    10030    2    1    2    0    0  0.00000000000E+00  0.00000000000E+00  0.99362019441E+03  0.29941342412E+04  0.28244572511E+04 0.  0.
        3    1    3    3  502    0  0.42268489874E+03  0.66959501828E+03 -0.74278323915E+03  0.10857011388E+04  0.10100000352E+00 0. -1.
       -3    1    3    3    0  502 -0.42268489874E+03 -0.66959501828E+03  0.17364034336E+04  0.19084331024E+04  0.10100000352E+00 0.  1.
</event>
<event>
 5   0  0.1345931E-05  0.2969528E+04  0.7818609E-02  0.8252486E-01
       -2   -1    0    0    0  501  0.00000000000E+00  0.00000000000E+00  0.10882696650E+04  0.10882696650E+04  0.25500000920E-02 0.  1.
        2   -1    0    0  501    0  0.00000000000E+00  0.00000000000E+00 -0.20257154442E+04  0.20257154442E+04  0.25500000920E-02 0. -1.
    10030    2    1    2    0    0  0.00000000000E+00  0.00000000000E+00 -0.93744577928E+03  0.31139851092E+04  0.29695283584E+04 0.  0.
        2    1    3    3  502    0 -0.12691997612E+03 -0.46333808891E+03 -0.19419623539E+04  0.20005020992E+04  0.25500000920E-02 0. -1.
       -2    1    3    3    0  502  0.12691997612E+03  0.46333808891E+03  0.10045165746E+04  0.11134830100E+04  0.25500000920E-02 0.  1.
</event>
<event>
 5   0  0.4806125E-06  0.1895792E+04  0.7818609E-02  0.8656954E-01
        3   -1    0    0  501    0  0.00000000000E+00  0.00000000000E+00  0.13906574041E+04  0.13906574078E+04  0.10100000352E+00 0. -1.
       -3   -1    0    0    0  501  0.00000000000E+00  0.00000000000E+00 -0.64610203037E+03  0.64610203826E+03  0.10100000352E+00 0.  1.
    10030    2    1    2    0    0  0.00000000000E+00  0.00000000000E+00  0.74455537374E+03  0.20367594460E+04  0.18957917440E+04 0.  0.
        5    1    3    3  502    0 -0.52127862760E+03 -0.40616896663E+03 -0.35779584539E+03  0.75149490619E+03  0.46999998093E+01 0.  1.
       -5    1    3    3    0  502  0.52127862760E+03  0.40616896663E+03  0.11023512191E+04  0.12852645398E+04  0.46999998093E+01 0. -1.
</event>
<event>
 5   0  0.5329891E-06  0.2987023E+04  0.7818609E-02  0.8247446E-01
       -1   -1    0    0    0  501  0.00000000000E+00  0.00000000000E+00  0.14093248694E+04  0.14093248694E+04  0.50400001928E-02 0. -1.
        1   -1    0    0  501    0  0.00000000000E+00  0.00000000000E+00 -0.15827269772E+04  0.15827269772E+04  0.50400001928E-02 0.  1.
    10030    2    1    2    0    0  0.00000000000E+00  0.00000000000E+00 -0.17340210776E+03  0.29920518467E+04  0.29870229263E+04 0.  0.
        4    1    3    3  502    0  0.11319310611E+03 -0.14888100824E+04 -0.51904450869E+02  0.14940093124E+04  0.12699999809E+01 0. -1.
       -4    1    3    3    0  502 -0.11319310611E+03  0.14888100824E+04 -0.12149765690E+03  0.14980425342E+04  0.12699999809E+01 0.  1.
</event>
<event>
 5   0  0.1345931E-05  0.1791453E+04  0.7818609E-02  0.8710858E-01
       -2   -1    0    0    0  501  0.00000000000E+00  0.00000000000E+00  0.48339689985E+03  0.48339689986E+03  0.25500000920E-02 0. -1.
        2   -1    0    0  501    0  0.00000000000E+00  0.00000000000E+00 -0.16597672715E+04  0.16597672715E+04  0.25500000920E-02 0.  1.
    10030    2    1    2    0    0  0.00000000000E+00  0.00000000000E+00 -0.11763703716E+04  0.21431641713E+04  0.17914534362E+04 0.  0.
        2    1    3    3  502    0  0.81391354376E+03  0.22426421368E+03 -0.23013216128E+03  0.87504885916E+03  0.25500000920E-02 0. -1.
       -2    1    3    3    0  502 -0.81391354376E+03 -0.22426421368E+03 -0.94623821033E+03  0.12681153122E+04  0.25500000920E-02 0.  1.
</event>
<event>
 5   0  0.7032692E-06  0.2459394E+04  0.7818609E-02  0.8417596E-01
        1   -1    0    0  501    0  0.00000000000E+00  0.00000000000E+00  0.16058781110E+04  0.16058781110E+04  0.50400001928E-02 0.  1.
       -1   -1    0    0    0  501  0.00000000000E+00  0.00000000000E+00 -0.94163717674E+03  0.94163717676E+03  0.50400001928E-02 0. -1.
    10030    2    1    2    0    0  0.00000000000E+00  0.00000000000E+00  0.66424093424E+03  0.25475152877E+04  0.24593938527E+04 0.  0.
        5    1    3    3  502    0 -0.91762858646E+03  0.13333415639E+03  0.11687177951E+04  0.14918926217E+04  0.46999998093E+01 0.  1.
       -5    1    3    3    0  502  0.91762858646E+03 -0.13333415639E+03 -0.50447686089E+03  0.10556226661E+04  0.46999998093E+01 0. -1.
</event>
<event>
 5   0  0.5522695E-06  0.2893306E+04  0.7818609E-02  0.8274872E-01
        1   -1    0    0  501    0  0.00000000000E+00  0.00000000000E+00  0.20159845281E+04  0.20159845281E+04  0.50400001928E-02 0. -1.
       -1   -1    0    0    0  501  0.00000000000E+00  0.00000000000E+00 -0.10381058897E+04  0.10381058897E+04  0.50400001928E-02 0.  1.
    10030    2    1    2    0    0  0.00000000000E+00  0.00000000000E+00  0.97787863839E+03  0.30540904178E+04  0.28933063524E+04 0.  0.
        3    1    3    3  502    0  0.49415148656E+03 -0.11121758122E+04 -0.33662567416E+03  0.12627104116E+04  0.10100000352E+00 0.  1.
       -3    1    3    3    0  502 -0.49415148656E+03  0.11121758122E+04  0.13145043125E+04  0.17913800062E+04  0.10100000352E+00 0. -1.
</event>
<event>
 5   0  0.5522695E-06  0.2941233E+04  0.7818609E-02  0.8260714E-01
        1   -1    0    0  501    0  0.00000000000E+00  0.00000000000E+00  0.19671514848E+04  0.19671514848E+04  0.50400001928E-02 0.  1.
       -1   -1    0    0    0  501  0.00000000000E+00  0.00000000000E+00 -0.10994134965E+04  0.10994134965E+04  0.50400001928E-02 0. -1.
    10030    2    1    2    0    0  0.00000000000E+00  0.00000000000E+00  0.86773798829E+03  0.30665649813E+04  0.29412330013E+04 0.  0.
        3    1    3    3  502    0  0.55901458592E+03  0.68070393404E+03 -0.79396229739E+03  0.11858462350E+04  0.10100000352E+00 0. -1.
       -3    1    3    3    0  502 -0.55901458592E+03 -0.68070393404E+03  0.16617002857E+04  0.18807187463E+04  0.10100000352E+00 0.  1.
</event>
<event>
 5   0  0.5392262E-06  0.3007558E+04  0.7818609E-02  0.8241576E-01
        1   -1    0    0  501    0  0.00000000000E+00  0.00000000000E+00  0.96454155250E+03  0.96454155251E+03  0.50400001928E-02 0. -1.
       -1   -1    0    0    0  501  0.00000000000E+00  0.00000000000E+00 -0.23444827805E+04  0.23444827805E+04  0.50400001928E-02 0.  1.
    10030    2    1    2    0    0  0.00000000000E+00  0.00000000000E+00 -0.13799412280E+04  0.33090243330E+04  0.30075578538E+04 0.  0.
        2    1    3    3  502    0  0.73658470648E+03  0.11267743828E+03  0.74713251615E+03  0.10552062507E+04  0.25500000920E-02 0. -1.
       -2    1    3    3    0  502 -0.73658470648E+03 -0.11267743828E+03 -0.21270737442E+04  0.22538180823E+04  0.25500000920E-02 0.  1.
</event>
<event>
 5   0  0.1523029E-05  0.2775895E+04  0.7818609E-02  0.8310791E-01
       -2   -1    0    0    0  501  0.00000000000E+00  0.00000000000E+00  0.90655832782E+03  0.90655832782E+03  0.25500000920E-02 0.  1.
        2   -1    0    0  501    0  0.00000000000E+00  0.00000000000E+00 -0.21249579953E+04  0.21249579953E+04  0.25500000920E-02 0. -1.
    10030    2    1    2    0    0  0.00000000000E+00  0.00000000000E+00 -0.12183996675E+04  0.30315163231E+04  0.27758950751E+04 0.  0.
        5    1    3    3  502    0 -0.74777286642E+03  0.11056465773E+04 -0.19369350158E+03  0.13487616084E+04  0.46999998093E+01 0. -1.
       -5    1    3    3    0  502  0.74777286642E+03 -0.11056465773E+04 -0.10247061659E+04  0.16827547148E+04  0.46999998093E+01 0.  1.
</event>
<event>
 5   0  0.5329891E-06  0.3151816E+04  0.7818609E-02  0.8201660E-01
       -1   -1    0    0    0  501  0.00000000000E+00  0.00000000000E+00  0.23933148111E+04  0.23933148111E+04  0.50400001928E-02 0.  1.
        1   -1    0    0  501    0  0.00000000000E+00  0.00000000000E+00 -0.10376762827E+04  0.10376762827E+04  0.50400001928E-02 0. -1.
    10030    2    1    2    0    0  0.00000000000E+00  0.00000000000E+00  0.13556385284E+04  0.34309910938E+04  0.31518159950E+04 0.  0.
        4    1    3    3  502    0 -0.12201934082E+03  0.15348712273E+04  0.10433701347E+04  0.18599304436E+04  0.12699999809E+01 0.  1.
       -4    1    3    3    0  502  0.12201934082E+03 -0.15348712273E+04  0.31226839366E+03  0.15710606502E+04  0.12699999809E+01 0. -1.
</event>
<event>
 5   0  0.5522695E-06  0.2901019E+04  0.7818609E-02  0.8272574E-01
       -1   -1    0    0    0  501  0.00000000000E+00  0.00000000000E+00  0.11406596062E+04  0.11406596063E+04  0.50400001928E-02 0.  1.
        1   -1    0    0  501    0  0.00000000000E+00  0.00000000000E+00 -0.18445279004E+04  0.18445279004E+04  0.50400001928E-02 0. -1.
    10030    2    1    2    0    0  0.00000000000E+00  0.00000000000E+00 -0.70386829415E+03  0.29851875067E+04  0.29010194543E+04 0.  0.
        3    1    3    3  502    0 -0.71915372106E+03 -0.29156634352E+03 -0.16129627009E+04  0.17899278454E+04  0.10100000352E+00 0. -1.
       -3    1    3    3    0  502  0.71915372106E+03  0.29156634352E+03  0.90909440674E+03  0.11952596612E+04  0.10100000352E+00 0.  1.
</event>
<event>
 5   0  0.1345931E-05  0.3014559E+04  0.7818609E-02  0.8239586E-01
        2   -1    0    0  501    0  0.00000000000E+00  0.00000000000E+00  0.14601257452E+04  0.14601257452E+04  0.25500000920E-02 0.  1.
       -2   -1    0    0    0  501  0.00000000000E+00  0.00000000000E+00 -0.15559560302E+04  0.15559560302E+04  0.25500000920E-02 0. -1.
    10030    2    1    2    0    0  0.00000000000E+00  0.00000000000E+00 -0.95830284988E+02  0.30160817754E+04  0.30145589780E+04 0.  0.
        2    1    3    3  502    0 -0.68727069435E+03 -0.12292642898E+04 -0.58527094603E+03  0.15251143504E+04  0.25500000920E-02 0.  1.
       -2    1    3    3    0  502  0.68727069435E+03  0.12292642898E+04  0.48944066104E+03  0.14909674249E+04  0.25500000920E-02 0. -1.
</event>
<event>
 5   0  0.5392262E-06  0.3078681E+04  0.7818609E-02  0.8221613E-01
        1   -1    0    0  501    0  0.00000000000E+00  0.00000000000E+00  0.26990745601E+04  0.26990745601E+04  0.50400001928E-02 0.  1.
       -1   -1    0    0    0  501  0.00000000000E+00  0.00000000000E+00 -0.87791896233E+03  0.87791896235E+03  0.50400001928E-02 0. -1.
    10030    2    1    2    0    0  0.00000000000E+00  0.00000000000E+00  0.18211555978E+04  0.35769935225E+04  0.30786807156E+04 0.  0.
        2    1    3    3  502    0  0.38418579549E+03  0.11951240276E+04  0.19456427941E+04  0.23154796586E+04  0.25500000920E-02 0.  1.
       -2    1    3    3    0  502 -0.38418579549E+03 -0.11951240276E+04 -0.12448719634E+03  0.12615138639E+04  0.25500000920E-02 0. -1.
</event>
<event>
 5   0  0.1523029E-05  0.3059432E+04  0.7818609E-02  0.8226960E-01
        2   -1    0    0  501    0  0.00000000000E+00  0.00000000000E+00  0.80680812636E+03  0.80680812636E+03  0.25500000920E-02 0. -1.
       -2   -1    0    0    0  501  0.00000000000E+00  0.00000000000E+00 -0.29003567345E+04  0.29003567345E+04  0.25500000920E-02 0.  1.
    10030    2    1    2    0    0  0.00000000000E+00  0.00000000000E+00 -0.20935486082E+04  0.37071648609E+04  0.30594322236E+04 0.  0.
        5    1    3    3  502    0 -0.42529807898E+02 -0.14199538544E+04 -0.17342903522E+04  0.22418436273E+04  0.46999998093E+01 0.  1.
       -5    1    3    3    0  502  0.42529807898E+02  0.14199538544E+04 -0.35925825596E+03  0.14653212336E+04  0.46999998093E+01 0. -1.
</event>
<event>
 5   0  0.5730920E-06  0.1921073E+04  0.7818609E-02  0.8644437E-01
       -1   -1    0    0    0  501  0.00000000000E+00  0.00000000000E+00  0.57844302792E+03  0.57844302794E+03  0.50400001928E-02 0. -1.
        1   -1    0    0  501    0  0.00000000000E+00  0.00000000000E+00 -0.15950239745E+04  0.15950239745E+04  0.50400001928E-02 0.  1.
    10030    2    1    2    0    0  0.00000000000E+00  0.00000000000E+00 -0.10165809466E+04  0.21734670024E+04  0.19210731349E+04 0.  0.
        1    1    3    3  502    0  0.36312766459E+03 -0.58665144926E+03 -0.12643793107E+04  0.14403737935E+04  0.50400001928E-02 0.  1.
       -1    1    3    3    0  502 -0.36312766459E+03  0.58665144926E+03  0.24779836410E+03  0.73309320894E+03  0.50400001928E-02 0. -1.
</event>
<event>
 5   0  0.1423692E-05  0.3146437E+04  0.7818609E-02  0.8203108E-01
        2   -1    0    0  501    0  0.00000000000E+00  0.00000000000E+00  0.98857621348E+03  0.98857621348E+03  0.25500000920E-02 0. -1.
       -2   -1    0    0    0  501  0.00000000000E+00  0.00000000000E+00 -0.25036175580E+04  0.25036175580E+04  0.25500000920E-02 0.  1.
    10030    2    1    2    0    0  0.00000000000E+00  0.00000000000E+00 -0.15150413445E+04  0.34921937715E+04  0.31464372013E+04 0.  0.
        3    1    3    3  502    0 -0.36680591654E+03 -0.85840836955E+03  0.64797010240E+03  0.11363435982E+04  0.10100000352E+00 0.  1.
       -3    1    3    3    0  502  0.36680591654E+03  0.85840836955E+03 -0.21630114469E+04  0.23558501733E+04  0.10100000352E+00 0. -1.
</event>
<event>
 5   0  0.1523029E-05  0.2880772E+04  0.7818609E-02  0.8278621E-01
       -2   -1    0    0    0  501  0.00000000000E+00  0.00000000000E+00  0.12069959116E+04  0.12069959116E+04  0.25500000920E-02 0.  1.
        2   -1    0    0  501    0  0.00000000000E+00  0.00000000000E+00 -0.17189054726E+04  0.17189054726E+04  0.25500000920E-02 0. -1.
    10030    2    1    2    0    0  0.00000000000E+00  0.00000000000E+00 -0.51190956107E+03  0.29259013842E+04  0.28807720339E+04 0.  0.
        5    1    3    3  502    0  0.99881791319E+03 -0.98575370624E+03 -0.58560394040E+03  0.15206254168E+04  0.46999998093E+01 0.  1.
       -5    1    3    3    0  502 -0.99881791319E+03  0.98575370624E+03  0.73694379332E+02  0.14052759674E+04  0.46999998093E+01 0. -1.
</event>
<event>
 5   0  0.5730920E-06  0.3017023E+04  0.7818609E-02  0.8238887E-01
       -1   -1    0    0    0  501  0.00000000000E+00  0.00000000000E+00  0.28143918948E+04  0.28143918948E+04  0.50400001928E-02 0.  1.
        1   -1    0    0  501    0  0.00000000000E+00  0.00000000000E+00 -0.80856072311E+03  0.80856072312E+03  0.50400001928E-02 0. -1.
    10030    2    1    2    0    0  0.00000000000E+00  0.00000000000E+00  0.20058311717E+04  0.36229526180E+04  0.30170228674E+04 0.  0.
        1    1    3    3  502    0  0.26288447113E+02  0.14668878168E+04  0.58149913954E+03  0.15781610180E+04  0.50400001928E-02 0. -1.
       -1    1    3    3    0  502 -0.26288447113E+02 -0.14668878168E+04  0.14243320322E+04  0.20447916000E+04  0.50400001928E-02 0.  1.
</event>
<event>
 5   0  0.1345931E-05  0.3131214E+04  0.7818609E-02  0.8207223E-01
       -2   -1    0    0    0  501  0.00000000000E+00  0.00000000000E+00  0.14107159674E+04  0.14107159674E+04  0.25500000920E-02 0.  1.
        2   -1    0    0  501    0  0.00000000000E+00  0.00000000000E+00 -0.17375042568E+04  0.17375042568E+04  0.25500000920E-02 0. -1.
    10030    2    1    2    0    0  0.00000000000E+00  0.00000000000E+00 -0.32678828944E+03  0.31482202242E+04  0.31312138212E+04 0.  0.
        2    1    3    3  502    0 -0.40143463906E+03  0.35105368619E+03 -0.16433727347E+04  0.17277333142E+04  0.25500000920E-02 0. -1.
       -2    1    3    3    0  502  0.40143463906E+03 -0.35105368619E+03  0.13165844452E+04  0.14204869100E+04  0.25500000920E-02 0.  1.
</event>
<event>
 5   0  0.1523029E-05  0.2974630E+04  0.7818609E-02  0.8251013E-01
       -2   -1    0    0    0  501  0.00000000000E+00  0.00000000000E+00  0.12223412810E+04  0.12223412810E+04  0.25500000920E-02 0.  1.
        2   -1    0    0  501    0  0.00000000000E+00  0.00000000000E+00 -0.18097281499E+04  0.18097281499E+04  0.25500000920E-02 0. -1.
    10030    2    1    2    0    0  0.00000000000E+00  0.00000000000E+00 -0.58738686887E+03  0.30320694309E+04  0.29746296745E+04 0.  0.
        5    1    3    3  502    0 -0.27556375642E+03  0.80812524786E+02  0.11938067135E+04  0.12278691328E+04  0.46999998093E+01 0.  1.
       -5    1    3    3    0  502  0.27556375642E+03 -0.80812524786E+02 -0.17811935824E+04  0.18042002982E+04  0.46999998093E+01 0. -1.
</event>
<event>
 5   0  0.5392262E-06  0.2994649E+04  0.7818609E-02  0.8245261E-01
        1   -1    0    0  501    0  0.00000000000E+00  0.00000000000E+00  0.97014498960E+03  0.97014498962E+03  0.50400001928E-02 0. -1.
       -1   -1    0    0    0  501  0.00000000000E+00  0.00000000000E+00 -0.23109741275E+04  0.23109741275E+04  0.50400001928E-02 0.  1.
    10030    2    1    2    0    0  0.00000000000E+00  0.00000000000E+00 -0.13408291379E+04  0.32811191171E+04  0.29946485409E+04 0.  0.
        2    1    3    3  502    0  0.35578536114E+03 -0.10036599111E+04  0.48292838821E+03  0.11692460257E+04  0.25500000920E-02 0. -1.
       -2    1    3    3    0  502 -0.35578536114E+03  0.10036599111E+04 -0.18237575261E+04  0.21118730915E+04  0.25500000920E-02 0.  1.
</event>
<event>
 5   0  0.1423692E-05  0.2941370E+04  0.7818609E-02  0.8260674E-01
       -2   -1    0    0    0  501  0.00000000000E+00  0.00000000000E+00  0.14067645737E+04  0.14067645737E+04  0.25500000920E-02 0. -1.
        2   -1    0    0  501    0  0.00000000000E+00  0.00000000000E+00 -0.15375094643E+04  0.15375094643E+04  0.25500000920E-02 0.  1.
    10030    2    1    2    0    0  0.00000000000E+00  0.00000000000E+00 -0.13074489066E+03  0.29442740380E+04  0.29413696443E+04 0.  0.
        3    1    3    3  502    0 -0.11025850068E+04 -0.78058830219E+03  0.51649496157E+03  0.14462983268E+04  0.10100000352E+00 0. -1.
       -3    1    3    3    0  502  0.11025850068E+04  0.78058830219E+03 -0.64723985222E+03  0.14979757112E+04  0.10100000352E+00 0.  1.
</event>
<event>
 5   0  0.5329891E-06  0.2856017E+04  0.7818609E-02  0.8286085E-01
       -1   -1    0    0    0  501  0.00000000000E+00  0.00000000000E+00  0.10275391549E+04  0.10275391550E+04  0.50400001928E-02 0. -1.
        1   -1    0    0  501    0  0.00000000000E+00  0.00000000000E+00 -0.19845547117E+04  0.19845547117E+04  0.50400001928E-02 0.  1.
    10030    2    1    2    0    0  0.00000000000E+00  0.00000000000E+00 -0.95701555672E+03  0.30120938666E+04  0.28560165765E+04 0.  0.
        4    1    3    3  502    0  0.34152160789E+02  0.11901140134E+04 -0.13100554415E+04  0.17702498715E+04  0.12699999809E+01 0.  1.
       -4    1    3    3    0  502 -0.34152160789E+02 -0.11901140134E+04  0.35303988481E+03  0.12418439951E+04  0.12699999809E+01 0. -1.
</event>
<event>
 5   0  0.7032692E-06  0.3037436E+04  0.7818609E-02  0.8233121E-01
        1   -1    0    0  501    0  0.00000000000E+00  0.00000000000E+00  0.21218246256E+04  0.21218246256E+04  0.50400001928E-02 0.  1.
       -1   -1    0    0    0  501  0.00000000000E+00  0.00000000000E+00 -0.10870384932E+04  0.10870384932E+04  0.50400001928E-02 0. -1.
    10030    2    1    2    0    0  0.00000000000E+00  0.00000000000E+00  0.10347861324E+04  0.32088631188E+04  0.30374364479E+04 0.  0.
        5    1    3    3  502    0  0.53082814791E+03  0.10146755450E+04  0.15712596651E+04  0.19442798177E+04  0.46999998093E+01 0.  1.
       -5    1    3    3    0  502 -0.53082814791E+03 -0.10146755450E+04 -0.53647353272E+03  0.12645833011E+04  0.46999998093E+01 0. -1.
</event>
<event>
 5   0  0.7032692E-06  0.3006296E+04  0.7818609E-02  0.8241935E-01
        1   -1    0    0  501    0  0.00000000000E+00  0.00000000000E+00  0.20512433991E+04  0.20512433991E+04  0.50400001928E-02 0. -1.
       -1   -1    0    0    0  501  0.00000000000E+00  0.00000000000E+00 -0.11015043256E+04  0.11015043256E+04  0.50400001928E-02 0.  1.
    10030    2    1    2    0    0  0.00000000000E+00  0.00000000000E+00  0.94973907353E+03  0.31527477247E+04  0.30062957119E+04 0.  0.
        5    1    3    3  502    0  0.64982633366E+03 -0.48907251370E+03 -0.85081802647E+03  0.11770214916E+04  0.46999998093E+01 0.  1.
       -5    1    3    3    0  502 -0.64982633366E+03  0.48907251370E+03  0.18005571000E+04  0.19757262330E+04  0.46999998093E+01 0. -1.
</event>
<event>
 5   0  0.1423692E-05  0.2257856E+04  0.7818609E-02  0.8494726E-01
        2   -1    0    0  501    0  0.00000000000E+00  0.00000000000E+00  0.18998910668E+04  0.18998910668E+04  0.25500000920E-02 0.  1.
       -2   -1    0    0    0  501  0.00000000000E+00  0.00000000000E+00 -0.67081637041E+03  0.67081637041E+03  0.25500000920E-02 0. -1.
    10030    2    1    2    0    0  0.00000000000E+00  0.00000000000E+00  0.12290746964E+04  0.25707074373E+04  0.22578556461E+04 0.  0.
        3    1    3    3  502    0 -0.25675942526E+03  0.58853530221E+03 -0.44265778561E+03  0.77990071789E+03  0.10100000352E+00 0. -1.
       -3    1    3    3    0  502  0.25675942526E+03 -0.58853530221E+03  0.16717324820E+04  0.17908067194E+04  0.10100000352E+00 0.  1.
</event>
<event>
 5   0  0.7032692E-06  0.1786620E+04  0.7818609E-02  0.8713447E-01
        1   -1    0    0  501    0  0.00000000000E+00  0.00000000000E+00  0.96727110965E+03  0.96727110966E+03  0.50400001928E-02 0.  1.
       -1   -1    0    0    0  501  0.00000000000E+00  0.00000000000E+00 -0.82500417342E+03  0.82500417344E+03  0.50400001928E-02 0. -1.
    10030    2    1    2    0    0  0.00000000000E+00  0.00000000000E+00  0.14226693623E+03  0.17922752831E+04  0.17866199398E+04 0.  0.
        5    1    3    3  502    0 -0.26129175633E+03 -0.39895507598E+03  0.82886677687E+03  0.95628487302E+03  0.46999998093E+01 0.  1.
       -5    1    3    3    0  502  0.26129175633E+03  0.39895507598E+03 -0.68659984064E+03  0.83599041008E+03  0.46999998093E+01 0. -1.
</event>
<event>
 5   0  0.7032692E-06  0.3007931E+04  0.7818609E-02  0.8241470E-01
        1   -1    0    0  501    0  0.00000000000E+00  0.00000000000E+00  0.15905196302E+04  0.15905196302E+04  0.50400001928E-02 0. -1.
       -1   -1    0    0    0  501  0.00000000000E+00  0.00000000000E+00 -0.14221211240E+04  0.14221211240E+04  0.50400001928E-02 0.  1.
    10030    2    1    2    0    0  0.00000000000E+00  0.00000000000E+00  0.16839850625E+03  0.30126407542E+04  0.30079305605E+04 0.  0.
        5    1    3    3  502    0 -0.14915568358E+03  0.96976949722E+03  0.12258039264E+04  0.15701330044E+04  0.46999998093E+01 0. -1.
       -5    1    3    3    0  502  0.14915568358E+03 -0.96976949722E+03 -0.10574054201E+04  0.14425077498E+04  0.46999998093E+01 0.  1.
</event>
<event>
 5   0  0.1423692E-05  0.2978223E+04  0.7818609E-02  0.8249977E-01
        2   -1    0    0  501    0  0.00000000000E+00  0.00000000000E+00  0.27034860337E+04  0.27034860337E+04  0.25500000920E-02 0. -1.
       -2   -1    0    0    0  501  0.00000000000E+00  0.00000000000E+00 -0.82022009623E+03  0.82022009624E+03  0.25500000920E-02 0.  1.
    10030    2    1    2    0    0  0.00000000000E+00  0.00000000000E+00  0.18832659375E+04  0.35237061299E+04  0.29782233461E+04 0.  0.
        3    1    3    3  502    0  0.11216776044E+04 -0.36510579454E+03 -0.13366788462E+03  0.11871520556E+04  0.10100000352E+00 0.  1.
       -3    1    3    3    0  502 -0.11216776044E+04  0.36510579454E+03  0.20169338221E+04  0.23365540744E+04  0.10100000352E+00 0. -1.
</event>
<event>
 5   0  0.1480547E-05  0.2960789E+04  0.7818609E-02  0.8255017E-01
        2   -1    0    0  501    0  0.00000000000E+00  0.00000000000E+00  0.26249293565E+04  0.26249293565E+04  0.25500000920E-02 0.  1.
       -2   -1    0    0    0  501  0.00000000000E+00  0.00000000000E+00 -0.83490570995E+03  0.83490570996E+03  0.25500000920E-02 0. -1.
    10030    2    1    2    0    0  0.00000000000E+00  0.00000000000E+00  0.17900236466E+04  0.34598350665E+04  0.29607894272E+04 0.  0.
        1    1    3    3  502    0  0.23773455366E+03 -0.24754378480E+03  0.25777961893E+04  0.26005439502E+04  0.50400001928E-02 0.  1.
       -1    1    3    3    0  502 -0.23773455366E+03  0.24754378480E+03 -0.78777254273E+03  0.85929111627E+03  0.50400001928E-02 0. -1.
</event>
<event>
 5   0  0.1388724E-05  0.2979794E+04  0.7818609E-02  0.8249524E-01
        2   -1    0    0  501    0  0.00000000000E+00  0.00000000000E+00  0.18834197825E+04  0.18834197825E+04  0.25500000920E-02 0. -1.
       -2   -1    0    0    0  501  0.00000000000E+00  0.00000000000E+00 -0.11785974652E+04  0.11785974653E+04  0.25500000920E-02 0.  1.
    10030    2    1    2    0    0  0.00000000000E+00  0.00000000000E+00  0.70482231723E+03  0.30620172477E+04  0.29797944772E+04 0.  0.
        4    1    3    3  502    0 -0.22596561189E+03 -0.80100521154E+03  0.16222781667E+04  0.18233095924E+04  0.12699999809E+01 0. -1.
       -4    1    3    3    0  502  0.22596561189E+03  0.80100521154E+03 -0.91745584949E+03  0.12387076553E+04  0.12699999809E+01 0.  1.
</event>
<event>
 5   0  0.5392262E-06  0.2292926E+04  0.7818609E-02  0.8480716E-01
       -1   -1    0    0    0  501  0.00000000000E+00  0.00000000000E+00  0.71301431932E+03  0.71301431934E+03  0.50400001928E-02 0.  1.
        1   -1    0    0  501    0  0.00000000000E+00  0.00000000000E+00 -0.18434089256E+04  0.18434089256E+04  0.50400001928E-02 0. -1.
    10030    2    1    2    0    0  0.00000000000E+00  0.00000000000E+00 -0.11303946063E+04  0.25564232449E+04  0.22929256075E+04 0.  0.
        2    1    3    3  502    0 -0.79409725204E+03  0.55973681961E+03  0.11342149387E+03  0.97814119032E+03  0.25500000920E-02 0.  1.
       -2    1    3    3    0  502  0.79409725204E+03 -0.55973681961E+03 -0.12438161002E+04  0.15782820546E+04  0.25500000920E-02 0. -1.
</event>
<event>
 5   0  0.1523029E-05  0.3010154E+04  0.7818609E-02  0.8240837E-01
        2   -1    0    0  501    0  0.00000000000E+00  0.00000000000E+00  0.12499778806E+04  0.12499778806E+04  0.25500000920E-02 0.  1.
       -2   -1    0    0    0  501  0.00000000000E+00  0.00000000000E+00 -0.18122372013E+04  0.18122372013E+04  0.25500000920E-02 0. -1.
    10030    2    1    2    0    0  0.00000000000E+00  0.00000000000E+00 -0.56225932073E+03  0.30622150819E+04  0.30101537608E+04 0.  0.
        5    1    3    3  502    0 -0.82784275139E+03  0.10454019784E+04 -0.99108615695E+03  0.16614640465E+04  0.46999998093E+01 0.  1.
       -5    1    3    3    0  502  0.82784275139E+03 -0.10454019784E+04  0.42882683622E+03  0.14007510353E+04  0.46999998093E+01 0. -1.
</event>
<event>
 5   0  0.5329891E-06  0.2946963E+04  0.7818609E-02  0.8259040E-01
       -1   -1    0    0    0  501  0.00000000000E+00  0.00000000000E+00  0.11235000485E+04  0.11235000485E+04  0.50400001928E-02 0. -1.
        1   -1    0    0  501    0  0.00000000000E+00  0.00000000000E+00 -0.19324861091E+04  0.19324861091E+04  0.50400001928E-02 0.  1.
    10030    2    1    2    0    0  0.00000000000E+00  0.00000000000E+00 -0.80898606058E+03  0.30559861576E+04  0.29469633437E+04 0.  0.
        4    1    3    3  502    0  0.40741063566E+03 -0.11461439560E+04 -0.12668322763E+04  0.17562730492E+04  0.12699999809E+01 0. -1.
       -4    1    3    3    0  502 -0.40741063566E+03  0.11461439560E+04  0.45784621575E+03  0.12997131084E+04  0.12699999809E+01 0.  1.
</event>
<event>
 5   0  0.1480547E-05  0.2213174E+04  0.7818609E-02  0.8512965E-01
        2   -1    0    0  501    0  0.00000000000E+00  0.00000000000E+00  0.71160808287E+03  0.71160808288E+03  0.25500000920E-02 0. -1.
       -2   -1    0    0    0  501  0.00000000000E+00  0.00000000000E+00 -0.17207996339E+04  0.17207996339E+04  0.25500000920E-02 0.  1.
    10030    2    1    2    0    0  0.00000000000E+00  0.00000000000E+00 -0.10091915510E+04  0.24324077168E+04  0.22131741264E+04 0.  0.
        1    1    3    3  502    0 -0.11032915677E+03  0.85631903447E+03  0.25612427209E+03  0.90058561748E+03  0.50400001928E-02 0. -1.
       -1    1    3    3    0  502  0.11032915677E+03 -0.85631903447E+03 -0.12653158231E+04  0.15318220993E+04  0.50400001928E-02 0.  1.
</event>
<event>
 5   0  0.1523029E-05  0.3083481E+04  0.7818609E-02  0.8220286E-01
       -2   -1    0    0    0  501  0.00000000000E+00  0.00000000000E+00  0.11356734681E+04  0.11356734681E+04  0.25500000920E-02 0. -1.
        2   -1    0    0  501    0  0.00000000000E+00  0.00000000000E+00 -0.20929999255E+04  0.20929999255E+04  0.25500000920E-02 0.  1.
    10030    2    1    2    0    0  0.00000000000E+00  0.00000000000E+00 -0.95732645736E+03  0.32286733936E+04  0.30834814636E+04 0.  0.
        5    1    3    3  502    0  0.94907034989E+03 -0.44138310863E+03  0.70662299709E+03  0.12628902279E+04  0.46999998093E+01 0. -1.
       -5    1    3    3    0  502 -0.94907034989E+03  0.44138310863E+03 -0.16639494544E+04  0.19657831657E+04  0.46999998093E+01 0.  1.
</event>
<event>
 5   0  0.1345931E-05  0.1589225E+04  0.7818609E-02  0.8827195E-01
        2   -1    0    0  501    0  0.00000000000E+00  0.00000000000E+00  0.12831299736E+04  0.12831299736E+04  0.25500000920E-02 0. -1.
       -2   -1    0    0    0  501  0.00000000000E+00  0.00000000000E+00 -0.49208529560E+03  0.49208529561E+03  0.25500000920E-02 0.  1.
    10030    2    1    2    0    0  0.00000000000E+00  0.00000000000E+00  0.79104467804E+03  0.17752152693E+04  0.15892254622E+04 0.  0.
        2    1    3    3  502    0  0.53228767594E+03  0.44058994699E+03  0.83381991414E+03  0.10829151955E+04  0.25500000920E-02 0. -1.
       -2    1    3    3    0  502 -0.53228767594E+03 -0.44058994699E+03 -0.42775236100E+02  0.69230007379E+03  0.25500000920E-02 0.  1.
</event>
<event>
 5   0  0.5730920E-06  0.2968783E+04  0.7818609E-02  0.8252702E-01
        1   -1    0    0  501    0  0.00000000000E+00  0.00000000000E+00  0.16246240303E+04  0.16246240303E+04  0.50400001928E-02 0. -1.
       -1   -1    0    0    0  501  0.00000000000E+00  0.00000000000E+00 -0.13562634422E+04  0.13562634422E+04  0.50400001928E-02 0.  1.
    10030    2    1    2    0    0  0.00000000000E+00  0.00000000000E+00  0.26836058805E+03  0.29808874725E+04  0.29687830367E+04 0.  0.
        1    1    3    3  502    0  0.35460084790E+03 -0.12797155138E+04 -0.53185269624E+03  0.14304827325E+04  0.50400001928E-02 0.  1.
       -1    1    3    3    0  502 -0.35460084790E+03  0.12797155138E+04  0.80021328429E+03  0.15504047400E+04  0.50400001928E-02 0. -1.
</event>
<event>
 5   0  0.5329891E-06  0.2403582E+04  0.7818609E-02  0.8438164E-01
       -1   -1    0    0    0  501  0.00000000000E+00  0.00000000000E+00  0.69575346768E+03  0.69575346770E+03  0.50400001928E-02 0. -1.
        1   -1    0    0  501    0  0.00000000000E+00  0.00000000000E+00 -0.20758804428E+04  0.20758804429E+04  0.50400001928E-02 0.  1.
    10030    2    1    2    0    0  0.00000000000E+00  0.00000000000E+00 -0.13801269752E+04  0.27716339106E+04  0.24035815082E+04 0.  0.
        4    1    3    3  502    0 -0.11697094000E+03 -0.97059410545E+03  0.11594176176E+03  0.98446900579E+03  0.12699999809E+01 0. -1.
       -4    1    3    3    0  502  0.11697094000E+03  0.97059410545E+03 -0.14960687369E+04  0.17871649048E+04  0.12699999809E+01 0.  1.
</event>
<event>
 5   0  0.1345931E-05  0.2468975E+04  0.7818609E-02  0.8414122E-01
       -2   -1    0    0    0  501  0.00000000000E+00  0.00000000000E+00  0.73245809331E+03  0.73245809331E+03  0.25500000920E-02 0.  1.
        2   -1    0    0  501    0  0.00000000000E+00  0.00000000000E+00 -0.20806104869E+04  0.20806104869E+04  0.25500000920E-02 0. -1.
    10030    2    1    2    0    0  0.00000000000E+00  0.00000000000E+00 -0.13481523936E+04  0.28130685802E+04  0.24689754881E+04 0.  0.
        2    1    3    3  502    0  0.16261310306E+03  0.12237240295E+04 -0.66945247550E+03  0.14043183893E+04  0.25500000920E-02 0.  1.
       -2    1    3    3    0  502 -0.16261310306E+03 -0.12237240295E+04 -0.67869991812E+03  0.14087501909E+04  0.25500000920E-02 0. -1.
</event>
<event>
 5   0  0.1523029E-05  0.2964644E+04  0.7818609E-02  0.8253900E-01
       -2   -1    0    0    0  501  0.00000000000E+00  0.00000000000E+00  0.16881951180E+04  0.16881951180E+04  0.25500000920E-02 0. -1.
        2   -1    0    0  501    0  0.00000000000E+00  0.00000000000E+00 -0.13015548761E+04  0.13015548761E+04  0.25500000920E-02 0.  1.
    10030    2    1    2    0    0  0.00000000000E+00  0.00000000000E+00  0.38664024195E+03  0.29897499941E+04  0.29646440513E+04 0.  0.
        5    1    3    3  502    0  0.13590111414E+04  0.35734630347E+03  0.66917281180E+03  0.15564131858E+04  0.46999998093E+01 0. -1.
       -5    1    3    3    0  502 -0.13590111414E+04 -0.35734630347E+03 -0.28253256985E+03  0.14333368083E+04  0.46999998093E+01 0.  1.
</event>
<event>
 5   0  0.5329891E-06  0.3000378E+04  0.7818609E-02  0.8243623E-01
       -1   -1    0    0    0  501  0.00000000000E+00  0.00000000000E+00  0.13194818240E+04  0.13194818240E+04  0.50400001928E-02 0. -1.
        1   -1    0    0  501    0  0.00000000000E+00  0.00000000000E+00 -0.17056448434E+04  0.17056448434E+04  0.50400001928E-02 0.  1.
    10030    2    1    2    0    0  0.00000000000E+00  0.00000000000E+00 -0.38616301940E+03  0.30251266674E+04  0.30003782222E+04 0.  0.
        4    1    3    3  502    0 -0.88085519328E+03  0.86557871148E+03 -0.10518306727E+04  0.16221842541E+04  0.12699999809E+01 0.  1.
       -4    1    3    3    0  502  0.88085519328E+03 -0.86557871148E+03  0.66566765332E+03  0.14029424132E+04  0.12699999809E+01 0. -1.
</event>
<event>
 5   0  0.5392262E-06  0.3013358E+04  0.7818609E-02  0.8239927E-01
        1   -1    0    0  501    0  0.00000000000E+00  0.00000000000E+00  0.16411537185E+04  0.16411537185E+04  0.50400001928E-02 0.  1.
       -1   -1    0    0    0  501  0.00000000000E+00  0.00000000000E+00 -0.13832227093E+04  0.13832227093E+04  0.50400001928E-02 0. -1.
    10030    2    1    2    0    0  0.00000000000E+00  0.00000000000E+00  0.25793100913E+03  0.30243764278E+04  0.30133576574E+04 0.  0.
        2    1    3    3  502    0  0.60855420787E+03 -0.90356097291E+03  0.11735982403E+04  0.16012787032E+04  0.25500000920E-02 0. -1.
       -2    1    3    3    0  502 -0.60855420787E+03  0.90356097291E+03 -0.91566723114E+03  0.14230977246E+04  0.25500000920E-02 0.  1.
</event>
<event>
 5   0  0.1388724E-05  0.2903992E+04  0.7818609E-02  0.8271691E-01
        2   -1    0    0  501    0  0.00000000000E+00  0.00000000000E+00  0.17314728438E+04  0.17314728438E+04  0.25500000920E-02 0.  1.
       -2   -1    0    0    0  501  0.00000000000E+00  0.00000000000E+00 -0.12176295085E+04  0.12176295085E+04  0.25500000920E-02 0. -1.
    10030    2    1    2    0    0  0.00000000000E+00  0.00000000000E+00  0.51384333533E+03  0.29491023524E+04  0.29039920302E+04 0.  0.
        4    1    3    3  502    0 -0.61526114898E+03  0.31231503616E+03 -0.10405014280E+04  0.12484918092E+04  0.12699999809E+01 0. -1.
       -4    1    3    3    0  502  0.61526114898E+03 -0.31231503616E+03  0.15543447633E+04  0.17006105431E+04  0.12699999809E+01 0.  1.
</event>
<event>
 5   0  0.4806125E-06  0.3149119E+04  0.7818609E-02  0.8202386E-01
        3   -1    0    0  501    0  0.00000000000E+00  0.00000000000E+00  0.13962043663E+04  0.13962043700E+04  0.10100000352E+00 0. -1.
       -3   -1    0    0    0  501  0.00000000000E+00  0.00000000000E+00 -0.17756978373E+04  0.17756978401E+04  0.10100000352E+00 0.  1.
    10030    2    1    2    0    0  0.00000000000E+00  0.00000000000E+00 -0.37949347097E+03  0.31719022101E+04  0.31491186602E+04 0.  0.
        3    1    3    3  502    0  0.11664984099E+03  0.94004604103E+03 -0.14565997375E+04  0.17375202302E+04  0.10100000352E+00 0.  1.
       -3    1    3    3    0  502 -0.11664984099E+03 -0.94004604103E+03  0.10771062666E+04  0.14343819799E+04  0.10100000352E+00 0. -1.
</event>
<event>
 5   0  0.1388724E-05  0.2705459E+04  0.7818609E-02  0.8333236E-01
        2   -1    0    0  501    0  0.00000000000E+00  0.00000000000E+00  0.23320820863E+04  0.23320820863E+04  0.25500000920E-02 0.  1.
       -2   -1    0    0    0  501  0.00000000000E+00  0.00000000000E+00 -0.78465400449E+03  0.78465400450E+03  0.25500000920E-02 0. -1.
    10030    2    1    2    0    0  0.00000000000E+00  0.00000000000E+00  0.15474280818E+04  0.31167360908E+04  0.27054593309E+04 0.  0.
        4    1    3    3  502    0  0.47578228724E+03  0.69347902487E+03 -0.44687755930E+03  0.95235660794E+03  0.12699999809E+01 0. -1.
       -4    1    3    3    0  502 -0.47578228724E+03 -0.69347902487E+03  0.19943056411E+04  0.21643794829E+04  0.12699999809E+01 0.  1.
</event>
<event>
 5   0  0.1388724E-05  0.2985363E+04  0.7818609E-02  0.8247923E-01
        2   -1    0    0  501    0  0.00000000000E+00  0.00000000000E+00  0.14370748617E+04  0.14370748617E+04  0.25500000920E-02 0. -1.
       -2   -1    0    0    0  501  0.00000000000E+00  0.00000000000E+00 -0.15504394928E+04  0.15504394928E+04  0.25500000920E-02 0.  1.
    10030    2    1    2    0    0  0.00000000000E+00  0.00000000000E+00 -0.11336463112E+03  0.29875143546E+04  0.29853627048E+04 0.  0.
        4    1    3    3  502    0 -0.88278775610E+03 -0.25913420767E+03 -0.12329575977E+04  0.15383922811E+04  0.12699999809E+01 0.  1.
       -4    1    3    3    0  502  0.88278775610E+03  0.25913420767E+03  0.11195929666E+04  0.14491220734E+04  0.12699999809E+01 0. -1.
</event>
<event>
 5   0  0.1423692E-05  0.2775624E+04  0.7818609E-02  0.8310876E-01
       -2   -1    0    0    0  501  0.00000000000E+00  0.00000000000E+00  0.94459424063E+03  0.94459424064E+03  0.25500000920E-02 0. -1.
        2   -1    0    0  501    0  0.00000000000E+00  0.00000000000E+00 -0.20389941794E+04  0.20389941794E+04  0.25500000920E-02 0.  1.
    10030    2    1    2    0    0  0.00000000000E+00  0.00000000000E+00 -0.10943999388E+04  0.29835884200E+04  0.27756240081E+04 0.  0.
        3    1    3    3  502    0 -0.47922704912E+03 -0.40018514139E+02  0.85217032172E+03  0.97849594455E+03  0.10100000352E+00 0. -1.
       -3    1    3    3    0  502  0.47922704912E+03  0.40018514139E+02 -0.19465702605E+04  0.20050924755E+04  0.10100000352E+00 0.  1.
</event>
<event>
 5   0  0.5392262E-06  0.3015437E+04  0.7818609E-02  0.8239337E-01
       -1   -1    0    0    0  501  0.00000000000E+00  0.00000000000E+00  0.78113685387E+03  0.78113685388E+03  0.50400001928E-02 0.  1.
        1   -1    0    0  501    0  0.00000000000E+00  0.00000000000E+00 -0.29101361061E+04  0.29101361061E+04  0.50400001928E-02 0. -1.
    10030    2    1    2    0    0  0.00000000000E+00  0.00000000000E+00 -0.21289992522E+04  0.36912729600E+04  0.30154366598E+04 0.  0.
        2    1    3    3  502    0  0.11994186480E+03  0.10085928146E+04 -0.24284902629E+04  0.26323393538E+04  0.25500000920E-02 0. -1.
       -2    1    3    3    0  502 -0.11994186480E+03 -0.10085928146E+04  0.29949101073E+03  0.10589336061E+04  0.25500000920E-02 0.  1.
</event>
<event>
 5   0  0.5329891E-06  0.2932039E+04  0.7818609E-02  0.8263408E-01
        1   -1    0    0  501    0  0.00000000000E+00  0.00000000000E+00  0.25036919603E+04  0.25036919604E+04  0.50400001928E-02 0. -1.
       -1   -1    0    0    0  501  0.00000000000E+00  0.00000000000E+00 -0.85841778767E+03  0.85841778768E+03  0.50400001928E-02 0.  1.
    10030    2    1    2    0    0  0.00000000000E+00  0.00000000000E+00  0.16452741727E+04  0.33621097480E+04  0.29320393678E+04 0.  0.
        4    1    3    3  502    0  0.11018564011E+04 -0.91715674407E+03  0.47116888348E+03  0.15090612153E+04  0.12699999809E+01 0. -1.
       -4    1    3    3    0  502 -0.11018564011E+04  0.91715674407E+03  0.11741052892E+04  0.18530485328E+04  0.12699999809E+01 0.  1.
</event>
<event>
 5   0  0.4806125E-06  0.3038270E+04  0.7818609E-02  0.8232886E-01
        3   -1    0    0  501    0  0.00000000000E+00  0.00000000000E+00  0.15686035659E+04  0.15686035691E+04  0.10100000352E+00 0. -1.
       -3   -1    0    0    0  501  0.00000000000E+00  0.00000000000E+00 -0.14712269293E+04  0.14712269328E+04  0.10100000352E+00 0.  1.
    10030    2    1    2    0    0  0.00000000000E+00  0.00000000000E+00  0.97376636557E+02  0.30398305019E+04  0.30382704407E+04 0.  0.
        4    1    3    3  502    0 -0.11102621695E+04  0.93258576323E+03 -0.40472415706E+03  0.15053908287E+04  0.12699999809E+01 0.  1.
       -4    1    3    3    0  502  0.11102621695E+04 -0.93258576323E+03  0.50210079361E+03  0.15344396732E+04  0.12699999809E+01 0. -1.
</event>
<event>
 5   0  0.1480547E-05  0.2602084E+04  0.7818609E-02  0.8367494E-01
        2   -1    0    0  501    0  0.00000000000E+00  0.00000000000E+00  0.15031391737E+04  0.15031391737E+04  0.25500000920E-02 0. -1.
       -2   -1    0    0    0  501  0.00000000000E+00  0.00000000000E+00 -0.11261163794E+04  0.11261163794E+04  0.25500000920E-02 0.  1.
    10030    2    1    2    0    0  0.00000000000E+00  0.00000000000E+00  0.37702279422E+03  0.26292555531E+04  0.26020835067E+04 0.  0.
        1    1    3    3  502    0  0.56011042913E+03  0.79992024258E+02  0.13723201493E+04  0.14843803451E+04  0.50400001928E-02 0. -1.
       -1    1    3    3    0  502 -0.56011042913E+03 -0.79992024258E+02 -0.99529735508E+03  0.11448752080E+04  0.50400001928E-02 0.  1.
</event>
<event>
 5   0  0.1523029E-05  0.1535988E+04  0.7818609E-02  0.8860868E-01
        2   -1    0    0  501    0  0.00000000000E+00  0.00000000000E+00  0.54763278074E+03  0.54763278075E+03  0.25500000920E-02 0.  1.
       -2   -1    0    0    0  501  0.00000000000E+00  0.00000000000E+00 -0.10770257985E+04  0.10770257985E+04  0.25500000920E-02 0. -1.
    10030    2    1    2    0    0  0.00000000000E+00  0.00000000000E+00 -0.52939301774E+03  0.16246585792E+04  0.15359878033E+04 0.  0.
        5    1    3    3  502    0  0.61952221976E+02  0.65501919207E+03 -0.68367506525E+03  0.94885294152E+03  0.46999998093E+01 0. -1.
       -5    1    3    3    0  502 -0.61952221976E+02 -0.65501919207E+03  0.15428204750E+03  0.67580563772E+03  0.46999998093E+01 0.  1.
</event>
<event>
 5   0  0.1388724E-05  0.2569626E+04  0.7818609E-02  0.8378592E-01
       -2   -1    0    0    0  501  0.00000000000E+00  0.00000000000E+00  0.10516506908E+04  0.10516506908E+04  0.25500000920E-02 0. -1.
        2   -1    0    0  501    0  0.00000000000E+00  0.00000000000E+00 -0.15696702813E+04  0.15696702813E+04  0.25500000920E-02 0.  1.
    10030    2    1    2    0    0  0.00000000000E+00  0.00000000000E+00 -0.51801959045E+03  0.26213209721E+04  0.25696263041E+04 0.  0.
        4    1    3    3  502    0 -0.35105750386E+02  0.10198241087E+04 -0.10554006342E+04  0.14680414633E+04  0.12699999809E+01 0. -1.
       -4    1    3    3    0  502  0.35105750386E+02 -0.10198241087E+04  0.53738104375E+03  0.11532795088E+04  0.12699999809E+01 0.  1.
</event>
<event>
 5   0  0.7032692E-06  0.2350353E+04  0.7818609E-02  0.8458328E-01
        1   -1    0    0  501    0  0.00000000000E+00  0.00000000000E+00  0.17778870680E+04  0.17778870680E+04  0.50400001928E-02 0. -1.
       -1   -1    0    0    0  501  0.00000000000E+00  0.00000000000E+00 -0.77678746177E+03  0.77678746179E+03  0.50400001928E-02 0.  1.
    10030    2    1    2    0    0  0.00000000000E+00  0.00000000000E+00  0.10010996063E+04  0.25546745298E+04  0.23503534908E+04 0.  0.
        5    1    3    3  502    0 -0.52084616536E+03  0.10308948287E+04  0.26492505337E+03  0.11850030589E+04  0.46999998093E+01 0.  1.
       -5    1    3    3    0  502  0.52084616536E+03 -0.10308948287E+04  0.73617455288E+03  0.13696714709E+04  0.46999998093E+01 0. -1.
</event>
<event>
 5   0  0.5730920E-06  0.2162824E+04  0.7818609E-02  0.8534063E-01
       -1   -1    0    0    0  501  0.00000000000E+00  0.00000000000E+00  0.15184233717E+04  0.15184233717E+04  0.50400001928E-02 0.  1.
        1   -1    0    0  501    0  0.00000000000E+00  0.00000000000E+00 -0.77017518759E+03  0.77017518761E+03  0.50400001928E-02 0. -1.
    10030    2    1    2    0    0  0.00000000000E+00  0.00000000000E+00  0.74824818413E+03  0.22885985593E+04  0.21628240846E+04 0.  0.
        1    1    3    3  502    0 -0.87092896659E+03  0.22366467792E+03 -0.26156855824E+03  0.93646209944E+03  0.50400001928E-02 0. -1.
       -1    1    3    3    0  502  0.87092896659E+03 -0.22366467792E+03  0.10098167424E+04  0.13521364599E+04  0.50400001928E-02 0.  1.
</event>
<event>
 5   0  0.5392262E-06  0.2934798E+04  0.7818609E-02  0.8262599E-01
       -1   -1    0    0    0  501  0.00000000000E+00  0.00000000000E+00  0.19265319568E+04  0.19265319568E+04  0.50400001928E-02 0. -1.
        1   -1    0    0  501    0  0.00000000000E+00  0.00000000000E+00 -0.11176873651E+04  0.11176873651E+04  0.50400001928E-02 0.  1.
    10030    2    1    2    0    0  0.00000000000E+00  0.00000000000E+00  0.80884459172E+03  0.30442193219E+04  0.29347984098E+04 0.  0.
        2    1    3    3  502    0 -0.33594126242E+03 -0.12364910749E+04 -0.33743063099E+03  0.13250004305E+04  0.25500000920E-02 0.  1.
       -2    1    3    3    0  502  0.33594126242E+03  0.12364910749E+04  0.11462752227E+04  0.17192188914E+04  0.25500000920E-02 0. -1.
</event>
<event>
 5   0  0.5392262E-06  0.2001992E+04  0.7818609E-02  0.8605690E-01
       -1   -1    0    0    0  501  0.00000000000E+00  0.00000000000E+00  0.10139628685E+04  0.10139628685E+04  0.50400001928E-02 0. -1.
        1   -1    0    0  501    0  0.00000000000E+00  0.00000000000E+00 -0.98819497448E+03  0.98819497449E+03  0.50400001928E-02 0.  1.
    10030    2    1    2    0    0  0.00000000000E+00  0.00000000000E+00  0.25767894014E+02  0.20021578430E+04  0.20019920189E+04 0.  0.
        2    1    3    3  502    0 -0.79960982999E+03  0.37719541498E+03 -0.45655960938E+03  0.99503715419E+03  0.25500000920E-02 0.  1.
       -2    1    3    3    0  502  0.79960982999E+03 -0.37719541498E+03  0.48232750340E+03  0.10071206888E+04  0.25500000920E-02 0. -1.
</event>
<event>
 5   0  0.7032692E-06  0.2275878E+04  0.7818609E-02  0.8487493E-01
       -1   -1    0    0    0  501  0.00000000000E+00  0.00000000000E+00  0.79944427876E+03  0.79944427878E+03  0.50400001928E-02 0. -1.
        1   -1    0    0  501    0  0.00000000000E+00  0.00000000000E+00 -0.16197562774E+04  0.16197562774E+04  0.50400001928E-02 0.  1.
    10030    2    1    2    0    0  0.00000000000E+00  0.00000000000E+00 -0.82031199865E+03  0.24192005562E+04  0.22758777551E+04 0.  0.
        5    1    3    3  502    0  0.42323760345E+03  0.78744323194E+03 -0.11585429728E+04  0.14633662639E+04  0.46999998093E+01 0.  1.
       -5    1    3    3    0  502 -0.42323760345E+03 -0.78744323194E+03  0.33823097413E+03  0.95583429231E+03  0.46999998093E+01 0. -1.
</event>
<event>
 5   0  0.1480547E-05  0.2853429E+04  0.7818609E-02  0.8286870E-01
       -2   -1    0    0    0  501  0.00000000000E+00  0.00000000000E+00  0.18026634083E+04  0.18026634083E+04  0.25500000920E-02 0. -1.
        2   -1    0    0  501    0  0.00000000000E+00  0.00000000000E+00 -0.11291704222E+04  0.11291704222E+04  0.25500000920E-02 0.  1.
    10030    2    1    2    0    0  0.00000000000E+00  0.00000000000E+00  0.67349298615E+03  0.29318338305E+04  0.28534289560E+04 0.  0.
        1    1    3    3  502    0 -0.13175339236E+04  0.37255446828E+03  0.74879149694E+03  0.15605707859E+04  0.50400001928E-02 0. -1.
       -1    1    3    3    0  502  0.13175339236E+04 -0.37255446828E+03 -0.75298510797E+02  0.13712630446E+04  0.50400001928E-02 0.  1.
</event>
<event>
 5   0  0.5392262E-06  0.2988659E+04  0.7818609E-02  0.8246977E-01
        1   -1    0    0  501    0  0.00000000000E+00  0.00000000000E+00  0.27416889528E+04  0.27416889528E+04  0.50400001928E-02 0. -1.
       -1   -1    0    0    0  501  0.00000000000E+00  0.00000000000E+00 -0.81446895614E+03  0.81446895615E+03  0.50400001928E-02 0.  1.
    10030    2    1    2    0    0  0.00000000000E+00  0.00000000000E+00  0.19272199966E+04  0.35561579089E+04  0.29886589230E+04 0.  0.
        2    1    3    3  502    0 -0.25537041629E+03  0.82351753510E+03 -0.48864610825E+03  0.99104500364E+03  0.25500000920E-02 0.  1.
       -2    1    3    3    0  502  0.25537041629E+03 -0.82351753510E+03  0.24158661049E+04  0.25651129053E+04  0.25500000920E-02 0. -1.
</event>
<event>
 5   0  0.5730920E-06  0.2386322E+04  0.7818609E-02  0.8444642E-01
       -1   -1    0    0    0  501  0.00000000000E+00  0.00000000000E+00  0.11179050893E+04  0.11179050893E+04  0.50400001928E-02 0.  1.
        1   -1    0    0  501    0  0.00000000000E+00  0.00000000000E+00 -0.12734835541E+04  0.12734835541E+04  0.50400001928E-02 0. -1.
    10030    2    1    2    0    0  0.00000000000E+00  0.00000000000E+00 -0.15557846481E+03  0.23913886433E+04  0.23863224813E+04 0.  0.
        1    1    3    3  502    0  0.75081508072E+03  0.48037119242E+03  0.71708698525E+03  0.11439814301E+04  0.50400001928E-02 0.  1.
       -1    1    3    3    0  502 -0.75081508072E+03 -0.48037119242E+03 -0.87266545006E+03  0.12474072133E+04  0.50400001928E-02 0. -1.
</event>
<event>
 5   0  0.1388724E-05  0.2635177E+04  0.7818609E-02  0.8356350E-01
        2   -1    0    0  501    0  0.00000000000E+00  0.00000000000E+00  0.14759384761E+04  0.14759384761E+04  0.25500000920E-02 0. -1.
       -2   -1    0    0    0  501  0.00000000000E+00  0.00000000000E+00 -0.11762276669E+04  0.11762276669E+04  0.25500000920E-02 0.  1.
    10030    2    1    2    0    0  0.00000000000E+00  0.00000000000E+00  0.29971080916E+03  0.26521661430E+04  0.26351771631E+04 0.  0.
        4    1    3    3  502    0 -0.15251716478E+02  0.83857961953E+03 -0.87285999468E+03  0.12105100480E+04  0.12699999809E+01 0.  1.
       -4    1    3    3    0  502  0.15251716478E+02 -0.83857961953E+03  0.11725708038E+04  0.14416560949E+04  0.12699999809E+01 0. -1.
</event>
<event>
 5   0  0.7032692E-06  0.2878343E+04  0.7818609E-02  0.8279350E-01
        1   -1    0    0  501    0  0.00000000000E+00  0.00000000000E+00  0.14470314746E+04  0.14470314746E+04  0.50400001928E-02 0. -1.
       -1   -1    0    0    0  501  0.00000000000E+00  0.00000000000E+00 -0.14313544762E+04  0.14313544762E+04  0.50400001928E-02 0.  1.
    10030    2    1    2    0    0  0.00000000000E+00  0.00000000000E+00  0.15676998447E+02  0.28783859508E+04  0.28783432585E+04 0.  0.
        5    1    3    3  502    0  0.16708852137E+02 -0.10493084640E+04  0.99267057676E+03  0.14445568186E+04  0.46999998093E+01 0. -1.
       -5    1    3    3    0  502 -0.16708852137E+02  0.10493084640E+04 -0.97699357831E+03  0.14338291322E+04  0.46999998093E+01 0.  1.
</event>
<event>
 5   0  0.4806125E-06  0.2952241E+04  0.7818609E-02  0.8257502E-01
        3   -1    0    0  501    0  0.00000000000E+00  0.00000000000E+00  0.82654344171E+03  0.82654344789E+03  0.10100000352E+00 0.  1.
       -3   -1    0    0    0  501  0.00000000000E+00  0.00000000000E+00 -0.26361969628E+04  0.26361969647E+04  0.10100000352E+00 0. -1.
    10030    2    1    2    0    0  0.00000000000E+00  0.00000000000E+00 -0.18096535210E+04  0.34627404126E+04  0.29522407251E+04 0.  0.
        2    1    3    3  502    0  0.35342153369E+02 -0.18050448199E+03 -0.26227034216E+04  0.26291451412E+04  0.25500000920E-02 0. -1.
       -2    1    3    3    0  502 -0.35342153369E+02  0.18050448199E+03  0.81304990051E+03  0.83359527143E+03  0.25500000920E-02 0.  1.
</event>
<event>
 5   0  0.5392262E-06  0.3029282E+04  0.7818609E-02  0.8235418E-01
       -1   -1    0    0    0  501  0.00000000000E+00  0.00000000000E+00  0.11631324377E+04  0.11631324377E+04  0.50400001928E-02 0.  1.
        1   -1    0    0  501    0  0.00000000000E+00  0.00000000000E+00 -0.19723779747E+04  0.19723779747E+04  0.50400001928E-02 0. -1.
    10030    2    1    2    0    0  0.00000000000E+00  0.00000000000E+00 -0.80924553698E+03  0.31355104124E+04  0.30292816322E+04 0.  0.
        2    1    3    3  502    0  0.24647992185E+03 -0.14446433924E+04 -0.80064920728E+03  0.16699658788E+04  0.25500000920E-02 0.  1.
       -2    1    3    3    0  502 -0.24647992185E+03  0.14446433924E+04 -0.85963297033E+01  0.14655445336E+04  0.25500000920E-02 0. -1.
</event>
<event>
 5   0  0.1480547E-05  0.1557514E+04  0.7818609E-02  0.8847083E-01
       -2   -1    0    0    0  501  0.00000000000E+00  0.00000000000E+00  0.42409257333E+03  0.42409257333E+03  0.25500000920E-02 0. -1.
        2   -1    0    0  501    0  0.00000000000E+00  0.00000000000E+00 -0.14300229951E+04  0.14300229951E+04  0.25500000920E-02 0.  1.
    10030    2    1    2    0    0  0.00000000000E+00  0.00000000000E+00 -0.10059304217E+04  0.18541155684E+04  0.15575135722E+04 0.  0.
        1    1    3    3  502    0 -0.51373213415E+03 -0.24808414289E+03  0.12807173299E+03  0.58469549034E+03  0.50400001928E-02 0. -1.
       -1    1    3    3    0  502  0.51373213415E+03  0.24808414289E+03 -0.11340021547E+04  0.12694200780E+04  0.50400001928E-02 0.  1.
</event>
<event>
 5   0  0.5329891E-06  0.2996808E+04  0.7818609E-02  0.8244643E-01
        1   -1    0    0  501    0  0.00000000000E+00  0.00000000000E+00  0.19408331505E+04  0.19408331505E+04  0.50400001928E-02 0. -1.
       -1   -1    0    0    0  501  0.00000000000E+00  0.00000000000E+00 -0.11568304486E+04  0.11568304486E+04  0.50400001928E-02 0.  1.
    10030    2    1    2    0    0  0.00000000000E+00  0.00000000000E+00  0.78400270193E+03  0.30976635991E+04  0.29968082249E+04 0.  0.
        4    1    3    3  502    0  0.68774771985E+03 -0.92835419720E+03 -0.59424502696E+03  0.12992179211E+04  0.12699999809E+01 0.  1.
       -4    1    3    3    0  502 -0.68774771985E+03  0.92835419720E+03  0.13782477289E+04  0.17984456780E+04  0.12699999809E+01 0. -1.
</event>
<event>
 5   0  0.1480547E-05  0.2967060E+04  0.7818609E-02  0.8253200E-01
       -2   -1    0    0    0  501  0.00000000000E+00  0.00000000000E+00  0.15986282871E+04  0.15986282871E+04  0.25500000920E-02 0.  1.
        2   -1    0    0  501    0  0.00000000000E+00  0.00000000000E+00 -0.13767188106E+04  0.13767188106E+04  0.25500000920E-02 0. -1.
    10030    2    1    2    0    0  0.00000000000E+00  0.00000000000E+00  0.22190947657E+03  0.29753470977E+04  0.29670602515E+04 0.  0.
        1    1    3    3  502    0  0.43261673143E+03  0.84889539146E+03 -0.10293584274E+04  0.14026258924E+04  0.50400001928E-02 0. -1.
       -1    1    3    3    0  502 -0.43261673143E+03 -0.84889539146E+03  0.12512679040E+04  0.15727212053E+04  0.50400001928E-02 0.  1.
</event>
<event>
 5   0  0.1423692E-05  0.1514005E+04  0.7818609E-02  0.8875193E-01
       -2   -1    0    0    0  501  0.00000000000E+00  0.00000000000E+00  0.61581588495E+03  0.61581588495E+03  0.25500000920E-02 0.  1.
        2   -1    0    0  501    0  0.00000000000E+00  0.00000000000E+00 -0.93055906636E+03  0.93055906637E+03  0.25500000920E-02 0. -1.
    10030    2    1    2    0    0  0.00000000000E+00  0.00000000000E+00 -0.31474318142E+03  0.15463749513E+04  0.15140053566E+04 0.  0.
        3    1    3    3  502    0  0.44178930941E+03  0.23361787457E+03 -0.73812111521E+03  0.89139098949E+03  0.10100000352E+00 0. -1.
       -3    1    3    3    0  502 -0.44178930941E+03 -0.23361787457E+03  0.42337793379E+03  0.65498396183E+03  0.10100000352E+00 0.  1.
</event>
<event>
 5   0  0.1423692E-05  0.2990886E+04  0.7818609E-02  0.8246338E-01
       -2   -1    0    0    0  501  0.00000000000E+00  0.00000000000E+00  0.98405506912E+03  0.98405506912E+03  0.25500000920E-02 0.  1.
        2   -1    0    0  501    0  0.00000000000E+00  0.00000000000E+00 -0.22725864896E+04  0.22725864896E+04  0.25500000920E-02 0. -1.
    10030    2    1    2    0    0  0.00000000000E+00  0.00000000000E+00 -0.12885314205E+04  0.32566415587E+04  0.29908863269E+04 0.  0.
        3    1    3    3  502    0 -0.26673996026E+03 -0.67558316831E+03 -0.20676234675E+04  0.21914902777E+04  0.10100000352E+00 0. -1.
       -3    1    3    3    0  502  0.26673996026E+03  0.67558316831E+03  0.77909204697E+03  0.10651512811E+04  0.10100000352E+00 0.  1.
</event>
<event>
 5   0  0.5730920E-06  0.2989138E+04  0.7818609E-02  0.8246840E-01
        1   -1    0    0  501    0  0.00000000000E+00  0.00000000000E+00  0.21804792704E+04  0.21804792704E+04  0.50400001928E-02 0. -1.
       -1   -1    0    0    0  501  0.00000000000E+00  0.00000000000E+00 -0.10244242198E+04  0.10244242198E+04  0.50400001928E-02 0.  1.
    10030    2    1    2    0    0  0.00000000000E+00  0.00000000000E+00  0.11560550506E+04  0.32049034902E+04  0.29891375180E+04 0.  0.
        1    1    3    3  502    0  0.38072983115E+03  0.12917219512E+04 -0.11702104779E+03  0.13517376703E+04  0.50400001928E-02 0.  1.
       -1    1    3    3    0  502 -0.38072983115E+03 -0.12917219512E+04  0.12730760984E+04  0.18531658199E+04  0.50400001928E-02 0. -1.
</event>
<event>
 5   0  0.7032692E-06  0.3065161E+04  0.7818609E-02  0.8225365E-01
       -1   -1    0    0    0  501  0.00000000000E+00  0.00000000000E+00  0.10464689086E+04  0.10464689086E+04  0.50400001928E-02 0.  1.
        1   -1    0    0  501    0  0.00000000000E+00  0.00000000000E+00 -0.22445027163E+04  0.22445027163E+04  0.50400001928E-02 0. -1.
    10030    2    1    2    0    0  0.00000000000E+00  0.00000000000E+00 -0.11980338077E+04  0.32909716249E+04  0.30651605556E+04 0.  0.
        5    1    3    3  502    0 -0.11080086954E+04 -0.10314570900E+04 -0.34224755220E+03  0.15520123951E+04  0.46999998093E+01 0.  1.
       -5    1    3    3    0  502  0.11080086954E+04  0.10314570900E+04 -0.85578625548E+03  0.17389592297E+04  0.46999998093E+01 0. -1.
</event>
<event>
 5   0  0.1423692E-05  0.1851213E+04  0.7818609E-02  0.8679529E-01
       -2   -1    0    0    0  501  0.00000000000E+00  0.00000000000E+00  0.83737467136E+03  0.83737467137E+03  0.25500000920E-02 0.  1.
        2   -1    0    0  501    0  0.00000000000E+00  0.00000000000E+00 -0.10231350686E+04  0.10231350686E+04  0.25500000920E-02 0. -1.
    10030    2    1    2    0    0  0.00000000000E+00  0.00000000000E+00 -0.18576039728E+03  0.18605097400E+04  0.18512129990E+04 0.  0.
        3    1    3    3  502    0  0.78309521376E+03 -0.25829533187E+03  0.32969872328E+03  0.88806297671E+03  0.10100000352E+00 0.  1.
       -3    1    3    3    0  502 -0.78309521376E+03  0.25829533187E+03 -0.51545912056E+03  0.97244676330E+03  0.10100000352E+00 0. -1.
</event>
<event>
 5   0  0.7032692E-06  0.3065177E+04  0.7818609E-02  0.8225360E-01
        1   -1    0    0  501    0  0.00000000000E+00  0.00000000000E+00  0.15387693018E+04  0.15387693018E+04  0.50400001928E-02 0.  1.
       -1   -1    0    0    0  501  0.00000000000E+00  0.00000000000E+00 -0.15264329211E+04  0.15264329211E+04  0.50400001928E-02 0. -1.
    10030    2    1    2    0    0  0.00000000000E+00  0.00000000000E+00  0.12336380739E+02  0.30652022229E+04  0.30651773979E+04 0.  0.
        5    1    3    3  502    0  0.40635679848E+03 -0.11346767319E+04  0.95284839673E+03  0.15364111724E+04  0.46999998093E+01 0.  1.
       -5    1    3    3    0  502 -0.40635679848E+03  0.11346767319E+04 -0.94051201599E+03  0.15287910504E+04  0.46999998093E+01 0. -1.
</event>
<event>
 5   0  0.1345931E-05  0.3053861E+04  0.7818609E-02  0.8228516E-01
       -2   -1    0    0    0  501  0.00000000000E+00  0.00000000000E+00  0.18529142250E+04  0.18529142250E+04  0.25500000920E-02 0.  1.
        2   -1    0    0  501    0  0.00000000000E+00  0.00000000000E+00 -0.12582967987E+04  0.12582967987E+04  0.25500000920E-02 0. -1.
    10030    2    1    2    0    0  0.00000000000E+00  0.00000000000E+00  0.59461742623E+03  0.31112110237E+04  0.30538605322E+04 0.  0.
        2    1    3    3  502    0 -0.11167566997E+04 -0.79489031808E+03  0.98263771042E+03  0.16865862012E+04  0.25500000920E-02 0.  1.
       -2    1    3    3    0  502  0.11167566997E+04  0.79489031808E+03 -0.38802028419E+03  0.14246248225E+04  0.25500000920E-02 0. -1.
</event>
<event>
 5   0  0.5730920E-06  0.3008945E+04  0.7818609E-02  0.8241181E-01
        1   -1    0    0  501    0  0.00000000000E+00  0.00000000000E+00  0.15439247298E+04  0.15439247298E+04  0.50400001928E-02 0.  1.
       -1   -1    0    0    0  501  0.00000000000E+00  0.00000000000E+00 -0.14660288050E+04  0.14660288050E+04  0.50400001928E-02 0. -1.
    10030    2    1    2    0    0  0.00000000000E+00  0.00000000000E+00  0.77895924836E+02  0.30099535348E+04  0.30089454144E+04 0.  0.
        1    1    3    3  502    0 -0.11214970818E+04 -0.98876636484E+03 -0.12851032822E+03  0.15006430399E+04  0.50400001928E-02 0.  1.
       -1    1    3    3    0  502  0.11214970818E+04  0.98876636484E+03  0.20640625305E+03  0.15093104949E+04  0.50400001928E-02 0. -1.
</event>
<event>
 5   0  0.5730920E-06  0.2935141E+04  0.7818609E-02  0.8262498E-01
       -1   -1    0    0    0  501  0.00000000000E+00  0.00000000000E+00  0.11858164123E+04  0.11858164123E+04  0.50400001928E-02 0.  1.
        1   -1    0    0  501    0  0.00000000000E+00  0.00000000000E+00 -0.18162704180E+04  0.18162704180E+04  0.50400001928E-02 0. -1.
    10030    2    1    2    0    0  0.00000000000E+00  0.00000000000E+00 -0.63045400572E+03  0.30020868304E+04  0.29351410671E+04 0.  0.
        1    1    3    3  502    0  0.36539696282E+03 -0.17699395065E+03 -0.17576847103E+04  0.18039671116E+04  0.50400001928E-02 0. -1.
       -1    1    3    3    0  502 -0.36539696282E+03  0.17699395065E+03  0.11272307046E+04  0.11981197187E+04  0.50400001928E-02 0.  1.
</event>
<event>
 5   0  0.5329891E-06  0.2812508E+04  0.7818609E-02  0.8299396E-01
        1   -1    0    0  501    0  0.00000000000E+00  0.00000000000E+00  0.16485979001E+04  0.16485979001E+04  0.50400001928E-02 0. -1.
       -1   -1    0    0    0  501  0.00000000000E+00  0.00000000000E+00 -0.11995347675E+04  0.11995347675E+04  0.50400001928E-02 0.  1.
    10030    2    1    2    0    0  0.00000000000E+00  0.00000000000E+00  0.44906313262E+03  0.28481326676E+04  0.28125081325E+04 0.  0.
        4    1    3    3  502    0 -0.37866988826E+03 -0.12646032208E+04  0.71537372371E+03  0.15014570816E+04  0.12699999809E+01 0. -1.
       -4    1    3    3    0  502  0.37866988826E+03  0.12646032208E+04 -0.26631059108E+03  0.13466755861E+04  0.12699999809E+01 0.  1.
</event>
<event>
 5   0  0.1345931E-05  0.3105350E+04  0.7818609E-02  0.8214271E-01
        2   -1    0    0  501    0  0.00000000000E+00  0.00000000000E+00  0.26475491184E+04  0.26475491184E+04  0.25500000920E-02 0. -1.
       -2   -1    0    0    0  501  0.00000000000E+00  0.00000000000E+00 -0.91057783742E+03  0.91057783742E+03  0.25500000920E-02 0.  1.
    10030    2    1    2    0    0  0.00000000000E+00  0.00000000000E+00  0.17369712810E+04  0.35581269558E+04  0.31053499324E+04 0.  0.
        2    1    3    3  502    0 -0.15280618531E+03  0.14376632809E+04  0.15172322731E+04  0.20957622027E+04  0.25500000920E-02 0. -1.
       -2    1    3    3    0  502  0.15280618531E+03 -0.14376632809E+04  0.21973900789E+03  0.14623647531E+04  0.25500000920E-02 0.  1.
</event>
<event>
 5   0  0.5522695E-06  0.3032833E+04  0.7818609E-02  0.8234417E-01
        1   -1    0    0  501    0  0.00000000000E+00  0.00000000000E+00  0.13807395399E+04  0.13807395399E+04  0.50400001928E-02 0. -1.
       -1   -1    0    0    0  501  0.00000000000E+00  0.00000000000E+00 -0.16654257722E+04  0.16654257723E+04  0.50400001928E-02 0.  1.
    10030    2    1    2    0    0  0.00000000000E+00  0.00000000000E+00 -0.28468623238E+03  0.30461653121E+04  0.30328331405E+04 0.  0.
        3    1    3    3  502    0  0.10700451231E+04 -0.66980827941E+03 -0.98620279956E+03  0.16019474613E+04  0.10100000352E+00 0.  1.
       -3    1    3    3    0  502 -0.10700451231E+04  0.66980827941E+03  0.70151656718E+03  0.14442178509E+04  0.10100000352E+00 0. -1.
</event>
<event>
 5   0  0.7032692E-06  0.2989786E+04  0.7818609E-02  0.8246654E-01
       -1   -1    0    0    0  501  0.00000000000E+00  0.00000000000E+00  0.96195780909E+03  0.96195780910E+03  0.50400001928E-02 0.  1.
        1   -1    0    0  501    0  0.00000000000E+00  0.00000000000E+00 -0.23230797147E+04  0.23230797147E+04  0.50400001928E-02 0. -1.
    10030    2    1    2    0    0  0.00000000000E+00  0.00000000000E+00 -0.13611219056E+04  0.32850375238E+04  0.29897857266E+04 0.  0.
        5    1    3    3  502    0  0.87520552213E+03  0.86870493224E+03  0.24790175746E+03  0.12578196757E+04  0.46999998093E+01 0.  1.
       -5    1    3    3    0  502 -0.87520552213E+03 -0.86870493224E+03 -0.16090236630E+04  0.20272178481E+04  0.46999998093E+01 0. -1.
</event>
<event>
 5   0  0.5329891E-06  0.1742859E+04  0.7818609E-02  0.8737291E-01
        1   -1    0    0  501    0  0.00000000000E+00  0.00000000000E+00  0.18076609533E+04  0.18076609533E+04  0.50400001928E-02 0. -1.
       -1   -1    0    0    0  501  0.00000000000E+00  0.00000000000E+00 -0.42009504268E+03  0.42009504271E+03  0.50400001928E-02 0.  1.
    10030    2    1    2    0    0  0.00000000000E+00  0.00000000000E+00  0.13875659106E+04  0.22277559960E+04  0.17428590366E+04 0.  0.
        4    1    3    3  502    0 -0.21261127007E+03  0.75544139934E+03  0.20958828031E+03  0.81229558668E+03  0.12699999809E+01 0.  1.
       -4    1    3    3    0  502  0.21261127007E+03 -0.75544139934E+03  0.11779776303E+04  0.14154604094E+04  0.12699999809E+01 0. -1.
</event>
<event>
 5   0  0.1345931E-05  0.3088136E+04  0.7818609E-02  0.8219002E-01
       -2   -1    0    0    0  501  0.00000000000E+00  0.00000000000E+00  0.22425505983E+04  0.22425505983E+04  0.25500000920E-02 0. -1.
        2   -1    0    0  501    0  0.00000000000E+00  0.00000000000E+00 -0.10631400852E+04  0.10631400852E+04  0.25500000920E-02 0.  1.
    10030    2    1    2    0    0  0.00000000000E+00  0.00000000000E+00  0.11794105131E+04  0.33056906835E+04  0.30881356409E+04 0.  0.
        2    1    3    3  502    0  0.23221192901E+03 -0.72604495308E+03  0.20270917465E+04  0.21656787856E+04  0.25500000920E-02 0. -1.
       -2    1    3    3    0  502 -0.23221192901E+03  0.72604495308E+03 -0.84768123340E+03  0.11400118979E+04  0.25500000920E-02 0.  1.
</event>
<event>
 5   0  0.1388724E-05  0.2942284E+04  0.7818609E-02  0.8260407E-01
       -2   -1    0    0    0  501  0.00000000000E+00  0.00000000000E+00  0.14464187924E+04  0.14464187924E+04  0.25500000920E-02 0.  1.
        2   -1    0    0  501    0  0.00000000000E+00  0.00000000000E+00 -0.14962874522E+04  0.14962874522E+04  0.25500000920E-02 0. -1.
    10030    2    1    2    0    0  0.00000000000E+00  0.00000000000E+00 -0.49868659873E+02  0.29427062446E+04  0.29422836639E+04 0.  0.
        4    1    3    3  502    0  0.60374827672E+03  0.18032622532E+03  0.13046275582E+04  0.14488216618E+04  0.12699999809E+01 0.  1.
       -4    1    3    3    0  502 -0.60374827672E+03 -0.18032622532E+03 -0.13544962180E+04  0.14938845828E+04  0.12699999809E+01 0. -1.
</event>
<event>
 5   0  0.1388724E-05  0.2915320E+04  0.7818609E-02  0.8268334E-01
       -2   -1    0    0    0  501  0.00000000000E+00  0.00000000000E+00  0.21203834228E+04  0.21203834228E+04  0.25500000920E-02 0.  1.
        2   -1    0    0  501    0  0.00000000000E+00  0.00000000000E+00 -0.10020703237E+04  0.10020703237E+04  0.25500000920E-02 0. -1.
    10030    2    1    2    0    0  0.00000000000E+00  0.00000000000E+00  0.11183130991E+04  0.31224537465E+04  0.29153204303E+04 0.  0.
        4    1    3    3  502    0  0.75278344428E+03  0.23443419904E+02  0.18958419605E+04  0.20399634458E+04  0.12699999809E+01 0.  1.
       -4    1    3    3    0  502 -0.75278344428E+03 -0.23443419904E+02 -0.77752886145E+03  0.10824903007E+04  0.12699999809E+01 0. -1.
</event>
<event>
 5   0  0.5329891E-06  0.3019265E+04  0.7818609E-02  0.8238251E-01
        1   -1    0    0  501    0  0.00000000000E+00  0.00000000000E+00  0.87650387494E+03  0.87650387495E+03  0.50400001928E-02 0.  1.
       -1   -1    0    0    0  501  0.00000000000E+00  0.00000000000E+00 -0.26000920576E+04  0.26000920576E+04  0.50400001928E-02 0. -1.
    10030    2    1    2    0    0  0.00000000000E+00  0.00000000000E+00 -0.17235881826E+04  0.34765959325E+04  0.30192653171E+04 0.  0.
        4    1    3    3  502    0  0.86270594015E+03  0.11411238570E+04 -0.14170895751E+04  0.20135962041E+04  0.12699999809E+01 0. -1.
       -4    1    3    3    0  502 -0.86270594015E+03 -0.11411238570E+04 -0.30649860753E+03  0.14629997285E+04  0.12699999809E+01 0.  1.
</event>
<event>
 5   0  0.1345931E-05  0.2983117E+04  0.7818609E-02  0.8248568E-01
       -2   -1    0    0    0  501  0.00000000000E+00  0.00000000000E+00  0.71192688811E+03  0.71192688811E+03  0.25500000920E-02 0. -1.
        2   -1    0    0  501    0  0.00000000000E+00  0.00000000000E+00 -0.31249646028E+04  0.31249646028E+04  0.25500000920E-02 0.  1.
    10030    2    1    2    0    0  0.00000000000E+00  0.00000000000E+00 -0.24130377147E+04  0.38368914909E+04  0.29831167092E+04 0.  0.
        2    1    3    3  502    0  0.14323838728E+04  0.18472590257E+03 -0.16858757754E+04  0.22199153921E+04  0.25500000920E-02 0.  1.
       -2    1    3    3    0  502 -0.14323838728E+04 -0.18472590257E+03 -0.72716193934E+03  0.16169760988E+04  0.25500000920E-02 0. -1.
</event>
<event>
 5   0  0.1388724E-05  0.3343363E+04  0.7818609E-02  0.8151948E-01
       -2   -1    0    0    0  501  0.00000000000E+00  0.00000000000E+00  0.17974365354E+04  0.17974365354E+04  0.25500000920E-02 0. -1.
        2   -1    0    0  501    0  0.00000000000E+00  0.00000000000E+00 -0.15547248795E+04  0.15547248795E+04  0.25500000920E-02 0.  1.
    10030    2    1    2    0    0  0.00000000000E+00  0.00000000000E+00  0.24271165586E+03  0.33521614149E+04  0.33433631576E+04 0.  0.
        4    1    3    3  502    0 -0.15176516865E+04 -0.68159409599E+03 -0.42415788956E+02  0.16642229013E+04  0.12699999809E+01 0.  1.
       -4    1    3    3    0  502  0.15176516865E+04  0.68159409599E+03  0.28512744481E+03  0.16879385136E+04  0.12699999809E+01 0. -1.
</event>
<event>
 5   0  0.1523029E-05  0.2978602E+04  0.7818609E-02  0.8249868E-01
        2   -1    0    0  501    0  0.00000000000E+00  0.00000000000E+00  0.18393713094E+04  0.18393713094E+04  0.25500000920E-02 0.  1.
       -2   -1    0    0    0  501  0.00000000000E+00  0.00000000000E+00 -0.12058562009E+04  0.12058562009E+04  0.25500000920E-02 0. -1.
    10030    2    1    2    0    0  0.00000000000E+00  0.00000000000E+00  0.63351510856E+03  0.30452275103E+04  0.29786018862E+04 0.  0.
        5    1    3    3  502    0  0.18080942369E+03 -0.43851786673E+03 -0.11265587075E+04  0.12223528862E+04  0.46999998093E+01 0. -1.
       -5    1    3    3    0  502 -0.18080942369E+03  0.43851786673E+03  0.17600738160E+04  0.18228746241E+04  0.46999998093E+01 0.  1.
</event>
<event>
 5   0  0.4806125E-06  0.2941169E+04  0.7818609E-02  0.8260733E-01
        4   -1    0    0  501    0  0.00000000000E+00  0.00000000000E+00  0.14528756399E+04  0.14528761950E+04  0.12699999809E+01 0. -1.
       -4   -1    0    0    0  501  0.00000000000E+00  0.00000000000E+00 -0.14885076328E+04  0.14885081745E+04  0.12699999809E+01 0.  1.
    10030    2    1    2    0    0  0.00000000000E+00  0.00000000000E+00 -0.35631992843E+02  0.29413843695E+04  0.29411685383E+04 0.  0.
        5    1    3    3  502    0  0.66103959342E+03  0.74779415506E+03 -0.10979075471E+04  0.14837764368E+04  0.46999998093E+01 0.  1.
       -5    1    3    3    0  502 -0.66103959342E+03 -0.74779415506E+03  0.10622755543E+04  0.14576079327E+04  0.46999998093E+01 0. -1.
</event>
<event>
 5   0  0.1423692E-05  0.1672658E+04  0.7818609E-02  0.8777114E-01
       -2   -1    0    0    0  501  0.00000000000E+00  0.00000000000E+00  0.12878312047E+04  0.12878312047E+04  0.25500000920E-02 0.  1.
        2   -1    0    0  501    0  0.00000000000E+00  0.00000000000E+00 -0.54311940921E+03  0.54311940922E+03  0.25500000920E-02 0. -1.
    10030    2    1    2    0    0  0.00000000000E+00  0.00000000000E+00  0.74471179550E+03  0.18309506139E+04  0.16726579125E+04 0.  0.
        3    1    3    3  502    0 -0.55237459128E+03 -0.52091354371E+03  0.75622427577E+03  0.10716080322E+04  0.10100000352E+00 0.  1.
       -3    1    3    3    0  502  0.55237459128E+03  0.52091354371E+03 -0.11512480265E+02  0.75934258179E+03  0.10100000352E+00 0. -1.
</event>
<event>
 5   0  0.4806125E-06  0.2785716E+04  0.7818609E-02  0.8307717E-01
       -3   -1    0    0    0  501  0.00000000000E+00  0.00000000000E+00  0.17289509279E+04  0.17289509308E+04  0.10100000352E+00 0.  1.
        3   -1    0    0  501    0  0.00000000000E+00  0.00000000000E+00 -0.11220989028E+04  0.11220989074E+04  0.10100000352E+00 0. -1.
    10030    2    1    2    0    0  0.00000000000E+00  0.00000000000E+00  0.60685202504E+03  0.28510498382E+04  0.27857163889E+04 0.  0.
        4    1    3    3  502    0  0.13209083351E+04  0.39487583665E+03  0.10046575491E+03  0.13823243964E+04  0.12699999809E+01 0.  1.
       -4    1    3    3    0  502 -0.13209083351E+04 -0.39487583665E+03  0.50638627013E+03  0.14687254418E+04  0.12699999809E+01 0. -1.
</event>
<event>
 5   0  0.5392262E-06  0.3034771E+04  0.7818609E-02  0.8233871E-01
       -1   -1    0    0    0  501  0.00000000000E+00  0.00000000000E+00  0.99560171059E+03  0.99560171060E+03  0.50400001928E-02 0. -1.
        1   -1    0    0  501    0  0.00000000000E+00  0.00000000000E+00 -0.23126304616E+04  0.23126304616E+04  0.50400001928E-02 0.  1.
    10030    2    1    2    0    0  0.00000000000E+00  0.00000000000E+00 -0.13170287510E+04  0.33082321722E+04  0.30347710579E+04 0.  0.
        2    1    3    3  502    0  0.62928478652E+03 -0.10244738002E+03 -0.21595295910E+04  0.22516800089E+04  0.25500000920E-02 0.  1.
       -2    1    3    3    0  502 -0.62928478652E+03  0.10244738002E+03  0.84250084002E+03  0.10565521632E+04  0.25500000920E-02 0. -1.
</event>
<event>
 5   0  0.1480547E-05  0.3058359E+04  0.7818609E-02  0.8227260E-01
       -2   -1    0    0    0  501  0.00000000000E+00  0.00000000000E+00  0.14920456292E+04  0.14920456292E+04  0.25500000920E-02 0.  1.
        2   -1    0    0  501    0  0.00000000000E+00  0.00000000000E+00 -0.15672371843E+04  0.15672371843E+04  0.25500000920E-02 0. -1.
    10030    2    1    2    0    0  0.00000000000E+00  0.00000000000E+00 -0.75191555116E+02  0.30592828136E+04  0.30583586388E+04 0.  0.
        1    1    3    3  502    0  0.10248813496E+04 -0.11005506739E+03  0.10923009916E+04  0.15018706185E+04  0.50400001928E-02 0.  1.
       -1    1    3    3    0  502 -0.10248813496E+04  0.11005506739E+03 -0.11674925467E+04  0.15574121950E+04  0.50400001928E-02 0. -1.
</event>
<event>
 5   0  0.5329891E-06  0.2996189E+04  0.7818609E-02  0.8244820E-01
       -1   -1    0    0    0  501  0.00000000000E+00  0.00000000000E+00  0.22777008659E+04  0.22777008659E+04  0.50400001928E-02 0. -1.
        1   -1    0    0  501    0  0.00000000000E+00  0.00000000000E+00 -0.98533038683E+03  0.98533038684E+03  0.50400001928E-02 0.  1.
    10030    2    1    2    0    0  0.00000000000E+00  0.00000000000E+00  0.12923704791E+04  0.32630312528E+04  0.29961894969E+04 0.  0.
        4    1    3    3  502    0  0.14740174445E+04 -0.29229059026E+02  0.93576984928E+03  0.17462097779E+04  0.12699999809E+01 0. -1.
       -4    1    3    3    0  502 -0.14740174445E+04  0.29229059026E+02  0.35660062983E+03  0.15168214749E+04  0.12699999809E+01 0.  1.
</event>
<event>
 5   0  0.1423692E-05  0.2935260E+04  0.7818609E-02  0.8262463E-01
       -2   -1    0    0    0  501  0.00000000000E+00  0.00000000000E+00  0.17120922157E+04  0.17120922157E+04  0.25500000920E-02 0. -1.
        2   -1    0    0  501    0  0.00000000000E+00  0.00000000000E+00 -0.12580738922E+04  0.12580738922E+04  0.25500000920E-02 0.  1.
    10030    2    1    2    0    0  0.00000000000E+00  0.00000000000E+00  0.45401832353E+03  0.29701661079E+04  0.29352604774E+04 0.  0.
        3    1    3    3  502    0 -0.12407369238E+04 -0.45857338871E+03  0.87035343817E+03  0.15834243854E+04  0.10100000352E+00 0. -1.
       -3    1    3    3    0  502  0.12407369238E+04  0.45857338871E+03 -0.41633511464E+03  0.13867417224E+04  0.10100000352E+00 0.  1.
</event>
<event>
 5   0  0.7032692E-06  0.2327157E+04  0.7818609E-02  0.8467290E-01
       -1   -1    0    0    0  501  0.00000000000E+00  0.00000000000E+00  0.14970840892E+04  0.14970840892E+04  0.50400001928E-02 0.  1.
        1   -1    0    0  501    0  0.00000000000E+00  0.00000000000E+00 -0.90436801445E+03  0.90436801447E+03  0.50400001928E-02 0. -1.
    10030    2    1    2    0    0  0.00000000000E+00  0.00000000000E+00  0.59271607473E+03  0.24014521037E+04  0.23271570340E+04 0.  0.
        5    1    3    3  502    0 -0.72632999207E+03  0.11479597612E+03 -0.63418424103E+03  0.97105361082E+03  0.46999998093E+01 0. -1.
       -5    1    3    3    0  502  0.72632999207E+03 -0.11479597612E+03  0.12269003158E+04  0.14303984928E+04  0.46999998093E+01 0.  1.
</event>
<event>
 5   0  0.5522695E-06  0.2915636E+04  0.7818609E-02  0.8268240E-01
       -1   -1    0    0    0  501  0.00000000000E+00  0.00000000000E+00  0.29295469406E+04  0.29295469406E+04  0.50400001928E-02 0. -1.
        1   -1    0    0  501    0  0.00000000000E+00  0.00000000000E+00 -0.72544774242E+03  0.72544774244E+03  0.50400001928E-02 0.  1.
    10030    2    1    2    0    0  0.00000000000E+00  0.00000000000E+00  0.22040991982E+04  0.36549946830E+04  0.29156359268E+04 0.  0.
        3    1    3    3  502    0 -0.13592450100E+04  0.20836003548E+03  0.17088053893E+04  0.21933938931E+04  0.10100000352E+00 0. -1.
       -3    1    3    3    0  502  0.13592450100E+04 -0.20836003548E+03  0.49529380883E+03  0.14616007899E+04  0.10100000352E+00 0.  1.
</event>
<event>
 5   0  0.1345931E-05  0.2980637E+04  0.7818609E-02  0.8249282E-01
       -2   -1    0    0    0  501  0.00000000000E+00  0.00000000000E+00  0.30611022610E+04  0.30611022611E+04  0.25500000920E-02 0. -1.
        2   -1    0    0  501    0  0.00000000000E+00  0.00000000000E+00 -0.72557193200E+03  0.72557193200E+03  0.25500000920E-02 0.  1.
    10030    2    1    2    0    0  0.00000000000E+00  0.00000000000E+00  0.23355303291E+04  0.37866741931E+04  0.29806374363E+04 0.  0.
        2    1    3    3  502    0  0.16215332921E+03  0.59480161180E+03  0.28915053883E+04  0.29564989549E+04  0.25500000920E-02 0. -1.
       -2    1    3    3    0  502 -0.16215332921E+03 -0.59480161180E+03 -0.55597505925E+03  0.83017523818E+03  0.25500000920E-02 0.  1.
</event>
<event>
 5   0  0.1523029E-05  0.3021870E+04  0.7818609E-02  0.8237513E-01
        2   -1    0    0  501    0  0.00000000000E+00  0.00000000000E+00  0.21051828355E+04  0.21051828355E+04  0.25500000920E-02 0.  1.
       -2   -1    0    0    0  501  0.00000000000E+00  0.00000000000E+00 -0.10844306945E+04  0.10844306945E+04  0.25500000920E-02 0. -1.
    10030    2    1    2    0    0  0.00000000000E+00  0.00000000000E+00  0.10207521410E+04  0.31896135299E+04  0.30218702052E+04 0.  0.
        5    1    3    3  502    0  0.50587118624E+03 -0.10210076694E+04  0.15576952238E+04  0.19299737869E+04  0.46999998093E+01 0.  1.
       -5    1    3    3    0  502 -0.50587118624E+03  0.10210076694E+04 -0.53694308279E+03  0.12596397430E+04  0.46999998093E+01 0. -1.
</event>
<event>
 5   0  0.5329891E-06  0.2529665E+04  0.7818609E-02  0.8392493E-01
       -1   -1    0    0    0  501  0.00000000000E+00  0.00000000000E+00  0.10623203471E+04  0.10623203471E+04  0.50400001928E-02 0.  1.
        1   -1    0    0  501    0  0.00000000000E+00  0.00000000000E+00 -0.15059498705E+04  0.15059498705E+04  0.50400001928E-02 0. -1.
    10030    2    1    2    0    0  0.00000000000E+00  0.00000000000E+00 -0.44362952342E+03  0.25682702175E+04  0.25296649494E+04 0.  0.
        4    1    3    3  502    0  0.31240214727E+03 -0.77317606546E+03 -0.11873291911E+04  0.14509130059E+04  0.12699999809E+01 0. -1.
       -4    1    3    3    0  502 -0.31240214727E+03  0.77317606546E+03  0.74369966766E+03  0.11173572116E+04  0.12699999809E+01 0.  1.
</event>
<event>
 5   0  0.1388724E-05  0.3005119E+04  0.7818609E-02  0.8242271E-01
        2   -1    0    0  501    0  0.00000000000E+00  0.00000000000E+00  0.21371315138E+04  0.21371315138E+04  0.25500000920E-02 0.  1.
       -2   -1    0    0    0  501  0.00000000000E+00  0.00000000000E+00 -0.10564089758E+04  0.10564089758E+04  0.25500000920E-02 0. -1.
    10030    2    1    2    0    0  0.00000000000E+00  0.00000000000E+00  0.10807225380E+04  0.31935404896E+04  0.30051189086E+04 0.  0.
        4    1    3    3  502    0  0.13438741447E+02 -0.14319468136E+04  0.56825639563E+02  0.14331374823E+04  0.12699999809E+01 0.  1.
       -4    1    3    3    0  502 -0.13438741447E+02  0.14319468136E+04  0.10238968984E+04  0.17604030074E+04  0.12699999809E+01 0. -1.
</event>
<event>
 5   0  0.7032692E-06  0.2688933E+04  0.7818609E-02  0.8338605E-01
        1   -1    0    0  501    0  0.00000000000E+00  0.00000000000E+00  0.19700781555E+04  0.19700781555E+04  0.50400001928E-02 0. -1.
       -1   -1    0    0    0  501  0.00000000000E+00  0.00000000000E+00 -0.91752238109E+03  0.91752238110E+03  0.50400001928E-02 0.  1.
    10030    2    1    2    0    0  0.00000000000E+00  0.00000000000E+00  0.10525557744E+04  0.28876005366E+04  0.26889334690E+04 0.  0.
        5    1    3    3  502    0  0.12795072531E+04  0.39454824862E+03  0.39580404107E+03  0.13962414047E+04  0.46999998093E+01 0.  1.
       -5    1    3    3    0  502 -0.12795072531E+04 -0.39454824862E+03  0.65675173334E+03  0.14913591319E+04  0.46999998093E+01 0. -1.
</event>
<event>
 5   0  0.1345931E-05  0.2976754E+04  0.7818609E-02  0.8250400E-01
        2   -1    0    0  501    0  0.00000000000E+00  0.00000000000E+00  0.24463289714E+04  0.24463289714E+04  0.25500000920E-02 0.  1.
       -2   -1    0    0    0  501  0.00000000000E+00  0.00000000000E+00 -0.90554691981E+03  0.90554691982E+03  0.25500000920E-02 0. -1.
    10030    2    1    2    0    0  0.00000000000E+00  0.00000000000E+00  0.15407820516E+04  0.33518758912E+04  0.29767537116E+04 0.  0.
        2    1    3    3  502    0  0.14750555567E+04 -0.19298426890E+03  0.71717147499E+03  0.16514741136E+04  0.25500000920E-02 0. -1.
       -2    1    3    3    0  502 -0.14750555567E+04  0.19298426890E+03  0.82361057663E+03  0.17004017776E+04  0.25500000920E-02 0.  1.
</event>
<event>
 5   0  0.1423692E-05  0.2981010E+04  0.7818609E-02  0.8249174E-01
        2   -1    0    0  501    0  0.00000000000E+00  0.00000000000E+00  0.19926314124E+04  0.19926314124E+04  0.25500000920E-02 0. -1.
       -2   -1    0    0    0  501  0.00000000000E+00  0.00000000000E+00 -0.11149101692E+04  0.11149101692E+04  0.25500000920E-02 0.  1.
    10030    2    1    2    0    0  0.00000000000E+00  0.00000000000E+00  0.87772124323E+03  0.31075415816E+04  0.29810099129E+04 0.  0.
        3    1    3    3  502    0 -0.18295810117E+03  0.89426916304E+03  0.16671848616E+04  0.19007094401E+04  0.10100000352E+00 0. -1.
       -3    1    3    3    0  502  0.18295810117E+03 -0.89426916304E+03 -0.78946361841E+03  0.12068321415E+04  0.10100000352E+00 0.  1.
</event>
<event>
 5   0  0.5392262E-06  0.3036639E+04  0.7818609E-02  0.8233345E-01
        1   -1    0    0  501    0  0.00000000000E+00  0.00000000000E+00  0.22853786175E+04  0.22853786175E+04  0.50400001928E-02 0.  1.
       -1   -1    0    0    0  501  0.00000000000E+00  0.00000000000E+00 -0.10087145154E+04  0.10087145154E+04  0.50400001928E-02 0. -1.
    10030    2    1    2    0    0  0.00000000000E+00  0.00000000000E+00  0.12766641021E+04  0.32940931329E+04  0.30366393165E+04 0.  0.
        2    1    3    3  502    0  0.73865000674E+03 -0.13023863183E+04  0.36501717043E+03  0.15411202060E+04  0.25500000920E-02 0.  1.
       -2    1    3    3    0  502 -0.73865000674E+03  0.13023863183E+04  0.91164693166E+03  0.17529729269E+04  0.25500000920E-02 0. -1.
</event>
<event>
 5   0  0.7032692E-06  0.2883029E+04  0.7818609E-02  0.8277945E-01
       -1   -1    0    0    0  501  0.00000000000E+00  0.00000000000E+00  0.11097408233E+04  0.11097408233E+04  0.50400001928E-02 0. -1.
        1   -1    0    0  501    0  0.00000000000E+00  0.00000000000E+00 -0.18724771736E+04  0.18724771736E+04  0.50400001928E-02 0.  1.
    10030    2    1    2    0    0  0.00000000000E+00  0.00000000000E+00 -0.76273635026E+03  0.29822179969E+04  0.28830292126E+04 0.  0.
        5    1    3    3  502    0 -0.83466302387E+01 -0.77928751762E+03 -0.16357657288E+04  0.18119355151E+04  0.46999998093E+01 0.  1.
       -5    1    3    3    0  502  0.83466302387E+01  0.77928751762E+03  0.87302937853E+03  0.11702824818E+04  0.46999998093E+01 0. -1.
</event>
<event>
 5   0  0.1423692E-05  0.2963228E+04  0.7818609E-02  0.8254310E-01
        2   -1    0    0  501    0  0.00000000000E+00  0.00000000000E+00  0.17937360278E+04  0.17937360278E+04  0.25500000920E-02 0.  1.
       -2   -1    0    0    0  501  0.00000000000E+00  0.00000000000E+00 -0.12238033735E+04  0.12238033735E+04  0.25500000920E-02 0. -1.
    10030    2    1    2    0    0  0.00000000000E+00  0.00000000000E+00  0.56993265427E+03  0.30175394013E+04  0.29632281060E+04 0.  0.
        3    1    3    3  502    0 -0.96090113576E+03 -0.10363034259E+04  0.73800736475E+03  0.15943370609E+04  0.10100000352E+00 0.  1.
       -3    1    3    3    0  502  0.96090113576E+03  0.10363034259E+04 -0.16807471047E+03  0.14232023404E+04  0.10100000352E+00 0. -1.
</event>
<event>
 5   0  0.1423692E-05  0.1984386E+04  0.7818609E-02  0.8613956E-01
        2   -1    0    0  501    0  0.00000000000E+00  0.00000000000E+00  0.75877209402E+03  0.75877209402E+03  0.25500000920E-02 0. -1.
       -2   -1    0    0    0  501  0.00000000000E+00  0.00000000000E+00 -0.12974213080E+04  0.12974213080E+04  0.25500000920E-02 0.  1.
    10030    2    1    2    0    0  0.00000000000E+00  0.00000000000E+00 -0.53864921402E+03  0.20561934021E+04  0.19843861345E+04 0.  0.
        3    1    3    3  502    0  0.69700648997E+03  0.28214559741E+03  0.40141916671E+03  0.85238579458E+03  0.10100000352E+00 0. -1.
       -3    1    3    3    0  502 -0.69700648997E+03 -0.28214559741E+03 -0.94006838073E+03  0.12038076075E+04  0.10100000352E+00 0.  1.
</event>
<event>
 5   0  0.1345931E-05  0.2968706E+04  0.7818609E-02  0.8252724E-01
        2   -1    0    0  501    0  0.00000000000E+00  0.00000000000E+00  0.16804870684E+04  0.16804870684E+04  0.25500000920E-02 0. -1.
       -2   -1    0    0    0  501  0.00000000000E+00  0.00000000000E+00 -0.13111105264E+04  0.13111105264E+04  0.25500000920E-02 0.  1.
    10030    2    1    2    0    0  0.00000000000E+00  0.00000000000E+00  0.36937654203E+03  0.29915975948E+04  0.29687063074E+04 0.  0.
        2    1    3    3  502    0  0.43713901647E+03 -0.64702336090E+03 -0.10874143015E+04  0.13387305974E+04  0.25500000920E-02 0.  1.
       -2    1    3    3    0  502 -0.43713901647E+03  0.64702336090E+03  0.14567908436E+04  0.16528669974E+04  0.25500000920E-02 0. -1.
</event>
<event>
 5   0  0.5730920E-06  0.2837034E+04  0.7818609E-02  0.8291862E-01
       -1   -1    0    0    0  501  0.00000000000E+00  0.00000000000E+00  0.16871019005E+04  0.16871019005E+04  0.50400001928E-02 0.  1.
        1   -1    0    0  501    0  0.00000000000E+00  0.00000000000E+00 -0.11926908251E+04  0.11926908251E+04  0.50400001928E-02 0. -1.
    10030    2    1    2    0    0  0.00000000000E+00  0.00000000000E+00  0.49441107539E+03  0.28797927257E+04  0.28370343374E+04 0.  0.
        1    1    3    3  502    0 -0.11587289765E+04  0.64084750967E+03 -0.26923805329E+03  0.13512318458E+04  0.50400001928E-02 0. -1.
       -1    1    3    3    0  502  0.11587289765E+04 -0.64084750967E+03  0.76364912869E+03  0.15285608799E+04  0.50400001928E-02 0.  1.
</event>
<event>
 5   0  0.1388724E-05  0.2298392E+04  0.7818609E-02  0.8478555E-01
       -2   -1    0    0    0  501  0.00000000000E+00  0.00000000000E+00  0.13416783762E+04  0.13416783762E+04  0.25500000920E-02 0. -1.
        2   -1    0    0  501    0  0.00000000000E+00  0.00000000000E+00 -0.98432820124E+03  0.98432820124E+03  0.25500000920E-02 0.  1.
    10030    2    1    2    0    0  0.00000000000E+00  0.00000000000E+00  0.35735017492E+03  0.23260065774E+04  0.22983923622E+04 0.  0.
        4    1    3    3  502    0  0.80795605725E+03 -0.14784682417E+03  0.99207205506E+03  0.12879674876E+04  0.12699999809E+01 0. -1.
       -4    1    3    3    0  502 -0.80795605725E+03  0.14784682417E+03 -0.63472188014E+03  0.10380390898E+04  0.12699999809E+01 0.  1.
</event>
<event>
 5   0  0.1423692E-05  0.2344170E+04  0.7818609E-02  0.8460706E-01
       -2   -1    0    0    0  501  0.00000000000E+00  0.00000000000E+00  0.97701252304E+03  0.97701252305E+03  0.25500000920E-02 0. -1.
        2   -1    0    0  501    0  0.00000000000E+00  0.00000000000E+00 -0.14061055128E+04  0.14061055128E+04  0.25500000920E-02 0.  1.
    10030    2    1    2    0    0  0.00000000000E+00  0.00000000000E+00 -0.42909298978E+03  0.23831180359E+04  0.23441695286E+04 0.  0.
        3    1    3    3  502    0  0.82708751639E+03  0.70045771005E+03  0.23903693195E+03  0.11098889261E+04  0.10100000352E+00 0. -1.
       -3    1    3    3    0  502 -0.82708751639E+03 -0.70045771005E+03 -0.66812992173E+03  0.12732291097E+04  0.10100000352E+00 0.  1.
</event>
<event>
 5   0  0.5392262E-06  0.2945227E+04  0.7818609E-02  0.8259547E-01
        1   -1    0    0  501    0  0.00000000000E+00  0.00000000000E+00  0.15820993265E+04  0.15820993265E+04  0.50400001928E-02 0.  1.
       -1   -1    0    0    0  501  0.00000000000E+00  0.00000000000E+00 -0.13707041717E+04  0.13707041717E+04  0.50400001928E-02 0. -1.
    10030    2    1    2    0    0  0.00000000000E+00  0.00000000000E+00  0.21139515485E+03  0.29528034982E+04  0.29452267463E+04 0.  0.
        2    1    3    3  502    0 -0.17833667927E+03 -0.30400491526E+03 -0.13277943837E+04  0.13737761408E+04  0.25500000920E-02 0. -1.
       -2    1    3    3    0  502  0.17833667927E+03  0.30400491526E+03  0.15391895386E+04  0.15790273574E+04  0.25500000920E-02 0.  1.
</event>
<event>
 5   0  0.5730920E-06  0.2927225E+04  0.7818609E-02  0.8264823E-01
        1   -1    0    0  501    0  0.00000000000E+00  0.00000000000E+00  0.16770758334E+04  0.16770758334E+04  0.50400001928E-02 0. -1.
       -1   -1    0    0    0  501  0.00000000000E+00  0.00000000000E+00 -0.12773196067E+04  0.12773196067E+04  0.50400001928E-02 0.  1.
    10030    2    1    2    0    0  0.00000000000E+00  0.00000000000E+00  0.39975622669E+03  0.29543954402E+04  0.29272252008E+04 0.  0.
        1    1    3    3  502    0 -0.34335102210E+03  0.13408052152E+04 -0.28047359245E+03  0.14122018218E+04  0.50400001928E-02 0. -1.
       -1    1    3    3    0  502  0.34335102210E+03 -0.13408052152E+04  0.68022981914E+03  0.15421936183E+04  0.50400001928E-02 0.  1.
</event>
<event>
 5   0  0.1480547E-05  0.2957924E+04  0.7818609E-02  0.8255849E-01
        2   -1    0    0  501    0  0.00000000000E+00  0.00000000000E+00  0.28392633802E+04  0.28392633802E+04  0.25500000920E-02 0. -1.
       -2   -1    0    0    0  501  0.00000000000E+00  0.00000000000E+00 -0.77038587271E+03  0.77038587271E+03  0.25500000920E-02 0.  1.
    10030    2    1    2    0    0  0.00000000000E+00  0.00000000000E+00  0.20688775075E+04  0.36096492529E+04  0.29579238645E+04 0.  0.
        1    1    3    3  502    0 -0.14645230270E+03  0.13872697258E+04  0.16339719092E+04  0.21484482235E+04  0.50400001928E-02 0. -1.
       -1    1    3    3    0  502  0.14645230270E+03 -0.13872697258E+04  0.43490559830E+03  0.14612010294E+04  0.50400001928E-02 0.  1.
</event>
<event>
 5   0  0.7032692E-06  0.2948301E+04  0.7818609E-02  0.8258650E-01
       -1   -1    0    0    0  501  0.00000000000E+00  0.00000000000E+00  0.18566159711E+04  0.18566159712E+04  0.50400001928E-02 0. -1.
        1   -1    0    0  501    0  0.00000000000E+00  0.00000000000E+00 -0.11704735508E+04  0.11704735508E+04  0.50400001928E-02 0.  1.
    10030    2    1    2    0    0  0.00000000000E+00  0.00000000000E+00  0.68614242037E+03  0.30270895219E+04  0.29483011299E+04 0.  0.
        5    1    3    3  502    0 -0.82217668860E+03 -0.53124373002E+02 -0.91201189293E+03  0.12290583750E+04  0.46999998093E+01 0.  1.
       -5    1    3    3    0  502  0.82217668860E+03  0.53124373002E+02  0.15981543133E+04  0.17980311470E+04  0.46999998093E+01 0. -1.
</event>
<event>
 5   0  0.5329891E-06  0.2975870E+04  0.7818609E-02  0.8250655E-01
        1   -1    0    0  501    0  0.00000000000E+00  0.00000000000E+00  0.95264261836E+03  0.95264261837E+03  0.50400001928E-02 0.  1.
       -1   -1    0    0    0  501  0.00000000000E+00  0.00000000000E+00 -0.23240095019E+04  0.23240095019E+04  0.50400001928E-02 0. -1.
    10030    2    1    2    0    0  0.00000000000E+00  0.00000000000E+00 -0.13713668835E+04  0.32766521203E+04  0.29758699548E+04 0.  0.
        4    1    3    3  502    0 -0.74055281387E+03 -0.86393379305E+03 -0.17413075555E+04  0.20801330930E+04  0.12699999809E+01 0. -1.
       -4    1    3    3    0  502  0.74055281387E+03  0.86393379305E+03  0.36994067197E+03  0.11965190273E+04  0.12699999809E+01 0.  1.
</event>
<event>
 5   0  0.1423692E-05  0.2243402E+04  0.7818609E-02  0.8500578E-01
       -2   -1    0    0    0  501  0.00000000000E+00  0.00000000000E+00  0.76359785106E+03  0.76359785106E+03  0.25500000920E-02 0.  1.
        2   -1    0    0  501    0  0.00000000000E+00  0.00000000000E+00 -0.16477424968E+04  0.16477424968E+04  0.25500000920E-02 0. -1.
    10030    2    1    2    0    0  0.00000000000E+00  0.00000000000E+00 -0.88414464571E+03  0.24113403478E+04  0.22434015509E+04 0.  0.
        3    1    3    3  502    0  0.14583796562E+03  0.10955054338E+04 -0.64829895003E+03  0.12812854509E+04  0.10100000352E+00 0.  1.
       -3    1    3    3    0  502 -0.14583796562E+03 -0.10955054338E+04 -0.23584569569E+03  0.11300548970E+04  0.10100000352E+00 0. -1.
</event>
<event>
 5   0  0.5329891E-06  0.1754898E+04  0.7818609E-02  0.8730659E-01
        1   -1    0    0  501    0  0.00000000000E+00  0.00000000000E+00  0.13001308178E+04  0.13001308178E+04  0.50400001928E-02 0. -1.
       -1   -1    0    0    0  501  0.00000000000E+00  0.00000000000E+00 -0.59218423484E+03  0.59218423486E+03  0.50400001928E-02 0.  1.
    10030    2    1    2    0    0  0.00000000000E+00  0.00000000000E+00  0.70794658299E+03  0.18923150527E+04  0.17548982575E+04 0.  0.
        4    1    3    3  502    0 -0.54773717919E+03 -0.45114161866E+03  0.91049823215E+03  0.11543627771E+04  0.12699999809E+01 0. -1.
       -4    1    3    3    0  502  0.54773717919E+03  0.45114161866E+03 -0.20255164916E+03  0.73795227558E+03  0.12699999809E+01 0.  1.
</event>
<event>
 5   0  0.5730920E-06  0.2996788E+04  0.7818609E-02  0.8244649E-01
        1   -1    0    0  501    0  0.00000000000E+00  0.00000000000E+00  0.25652703491E+04  0.25652703491E+04  0.50400001928E-02 0. -1.
       -1   -1    0    0    0  501  0.00000000000E+00  0.00000000000E+00 -0.87522336963E+03  0.87522336964E+03  0.50400001928E-02 0.  1.
    10030    2    1    2    0    0  0.00000000000E+00  0.00000000000E+00  0.16900469795E+04  0.34404937188E+04  0.29967879865E+04 0.  0.
        1    1    3    3  502    0 -0.54590794712E+02 -0.33817521813E+03  0.25197135056E+04  0.25428918151E+04  0.50400001928E-02 0. -1.
       -1    1    3    3    0  502  0.54590794712E+02  0.33817521813E+03 -0.82966652606E+03  0.89760190370E+03  0.50400001928E-02 0.  1.
</event>
<event>
 5   0  0.5392262E-06  0.2970617E+04  0.7818609E-02  0.8252171E-01
        1   -1    0    0  501    0  0.00000000000E+00  0.00000000000E+00  0.23608395229E+04  0.23608395229E+04  0.50400001928E-02 0.  1.
       -1   -1    0    0    0  501  0.00000000000E+00  0.00000000000E+00 -0.93447343262E+03  0.93447343264E+03  0.50400001928E-02 0. -1.
    10030    2    1    2    0    0  0.00000000000E+00  0.00000000000E+00  0.14263660903E+04  0.32953129556E+04  0.29706173183E+04 0.  0.
        2    1    3    3  502    0 -0.14332591272E+04  0.35432826441E+03  0.53307397694E+03  0.15696968209E+04  0.25500000920E-02 0.  1.
       -2    1    3    3    0  502  0.14332591272E+04 -0.35432826441E+03  0.89329211338E+03  0.17256161347E+04  0.25500000920E-02 0. -1.
</event>
<event>
 5   0  0.1480547E-05  0.2961361E+04  0.7818609E-02  0.8254851E-01
       -2   -1    0    0    0  501  0.00000000000E+00  0.00000000000E+00  0.16048758872E+04  0.16048758872E+04  0.25500000920E-02 0.  1.
        2   -1    0    0  501    0  0.00000000000E+00  0.00000000000E+00 -0.13660958652E+04  0.13660958652E+04  0.25500000920E-02 0. -1.
    10030    2    1    2    0    0  0.00000000000E+00  0.00000000000E+00  0.23878002198E+03  0.29709717524E+04  0.29613607100E+04 0.  0.
        1    1    3    3  502    0  0.20856155544E+03  0.56818982182E+03  0.14750997696E+04  0.15944456486E+04  0.50400001928E-02 0.  1.
       -1    1    3    3    0  502 -0.20856155544E+03 -0.56818982182E+03 -0.12363197476E+04  0.13765261038E+04  0.50400001928E-02 0. -1.
</event>
<event>
 5   0  0.1423692E-05  0.1769915E+04  0.7818609E-02  0.8722464E-01
        2   -1    0    0  501    0  0.00000000000E+00  0.00000000000E+00  0.18218586784E+04  0.18218586784E+04  0.25500000920E-02 0. -1.
       -2   -1    0    0    0  501  0.00000000000E+00  0.00000000000E+00 -0.42986303415E+03  0.42986303415E+03  0.25500000920E-02 0.  1.
    10030    2    1    2    0    0  0.00000000000E+00  0.00000000000E+00  0.13919956443E+04  0.22517217126E+04  0.17699149124E+04 0.  0.
        3    1    3    3  502    0  0.34143392050E+03  0.23429983670E+03  0.16909978709E+04  0.17409616150E+04  0.10100000352E+00 0. -1.
       -3    1    3    3    0  502 -0.34143392050E+03 -0.23429983670E+03 -0.29900222658E+03  0.51076009755E+03  0.10100000352E+00 0.  1.
</event>
<event>
 5   0  0.1345931E-05  0.2639000E+04  0.7818609E-02  0.8355073E-01
       -2   -1    0    0    0  501  0.00000000000E+00  0.00000000000E+00  0.87147125762E+03  0.87147125763E+03  0.25500000920E-02 0.  1.
        2   -1    0    0  501    0  0.00000000000E+00  0.00000000000E+00 -0.19978626274E+04  0.19978626274E+04  0.25500000920E-02 0. -1.
    10030    2    1    2    0    0  0.00000000000E+00  0.00000000000E+00 -0.11263913698E+04  0.28693338851E+04  0.26389997018E+04 0.  0.
        2    1    3    3  502    0  0.52836251846E+02  0.97610891375E+03 -0.15268354727E+04  0.18129552784E+04  0.25500000920E-02 0.  1.
       -2    1    3    3    0  502 -0.52836251846E+02 -0.97610891375E+03  0.40044410286E+03  0.10563786066E+04  0.25500000920E-02 0. -1.
</event>
<event>
 5   0  0.1388724E-05  0.2948478E+04  0.7818609E-02  0.8258598E-01
        2   -1    0    0  501    0  0.00000000000E+00  0.00000000000E+00  0.10004111567E+04  0.10004111567E+04  0.25500000920E-02 0. -1.
       -2   -1    0    0    0  501  0.00000000000E+00  0.00000000000E+00 -0.21724880774E+04  0.21724880774E+04  0.25500000920E-02 0.  1.
    10030    2    1    2    0    0  0.00000000000E+00  0.00000000000E+00 -0.11720769207E+04  0.31728992341E+04  0.29484784621E+04 0.  0.
        4    1    3    3  502    0  0.34044261758E+03  0.31413562147E+03  0.92005898602E+03  0.10300934497E+04  0.12699999809E+01 0. -1.
       -4    1    3    3    0  502 -0.34044261758E+03 -0.31413562147E+03 -0.20921359067E+04  0.21428057843E+04  0.12699999809E+01 0.  1.
</event>
<event>
 5   0  0.1423692E-05  0.2902180E+04  0.7818609E-02  0.8272229E-01
       -2   -1    0    0    0  501  0.00000000000E+00  0.00000000000E+00  0.96102992591E+03  0.96102992592E+03  0.25500000920E-02 0. -1.
        2   -1    0    0  501    0  0.00000000000E+00  0.00000000000E+00 -0.21910467842E+04  0.21910467842E+04  0.25500000920E-02 0.  1.
    10030    2    1    2    0    0  0.00000000000E+00  0.00000000000E+00 -0.12300168583E+04  0.31520767101E+04  0.29021795456E+04 0.  0.
        3    1    3    3  502    0 -0.79604263365E+03  0.11728773137E+03 -0.19265564907E+04  0.20878362504E+04  0.10100000352E+00 0.  1.
       -3    1    3    3    0  502  0.79604263365E+03 -0.11728773137E+03  0.69653963236E+03  0.10642404597E+04  0.10100000352E+00 0. -1.
</event>
<event>
 5   0  0.5730920E-06  0.2094909E+04  0.7818609E-02  0.8563489E-01
        1   -1    0    0  501    0  0.00000000000E+00  0.00000000000E+00  0.18670138565E+04  0.18670138566E+04  0.50400001928E-02 0. -1.
       -1   -1    0    0    0  501  0.00000000000E+00  0.00000000000E+00 -0.58765529096E+03  0.58765529098E+03  0.50400001928E-02 0.  1.
    10030    2    1    2    0    0  0.00000000000E+00  0.00000000000E+00  0.12793585656E+04  0.24546691475E+04  0.20949086578E+04 0.  0.
        1    1    3    3  502    0  0.93709799377E+03 -0.26850993844E+03  0.19056791735E+03  0.99326047345E+03  0.50400001928E-02 0.  1.
       -1    1    3    3    0  502 -0.93709799377E+03  0.26850993844E+03  0.10887906482E+04  0.14614086741E+04  0.50400001928E-02 0. -1.
</event>
<event>
 5   0  0.1388724E-05  0.2281024E+04  0.7818609E-02  0.8485441E-01
       -2   -1    0    0    0  501  0.00000000000E+00  0.00000000000E+00  0.76808414538E+03  0.76808414538E+03  0.25500000920E-02 0.  1.
        2   -1    0    0  501    0  0.00000000000E+00  0.00000000000E+00 -0.16935227865E+04  0.16935227865E+04  0.25500000920E-02 0. -1.
    10030    2    1    2    0    0  0.00000000000E+00  0.00000000000E+00 -0.92543864110E+03  0.24616069319E+04  0.22810243332E+04 0.  0.
        4    1    3    3  502    0  0.24569168646E+03 -0.36606804884E+03  0.67240680543E+03  0.80405394475E+03  0.12699999809E+01 0.  1.
       -4    1    3    3    0  502 -0.24569168646E+03  0.36606804884E+03 -0.15978454465E+04  0.16575529871E+04  0.12699999809E+01 0. -1.
</event>
<event>
 5   0  0.1345931E-05  0.3037533E+04  0.7818609E-02  0.8233094E-01
       -2   -1    0    0    0  501  0.00000000000E+00  0.00000000000E+00  0.19121907209E+04  0.19121907209E+04  0.25500000920E-02 0. -1.
        2   -1    0    0  501    0  0.00000000000E+00  0.00000000000E+00 -0.12062872131E+04  0.12062872131E+04  0.25500000920E-02 0.  1.
    10030    2    1    2    0    0  0.00000000000E+00  0.00000000000E+00  0.70590350780E+03  0.31184779340E+04  0.30375326932E+04 0.  0.
        2    1    3    3  502    0  0.97222069551E+03 -0.20003898770E+03 -0.82721280764E+03  0.12920950842E+04  0.25500000920E-02 0.  1.
       -2    1    3    3    0  502 -0.97222069551E+03  0.20003898770E+03  0.15331163154E+04  0.18263828498E+04  0.25500000920E-02 0. -1.
</event>
<event>
 5   0  0.5392262E-06  0.2892333E+04  0.7818609E-02  0.8275162E-01
        1   -1    0    0  501    0  0.00000000000E+00  0.00000000000E+00  0.16989797706E+04  0.16989797706E+04  0.50400001928E-02 0.  1.
       -1   -1    0    0    0  501  0.00000000000E+00  0.00000000000E+00 -0.12309726429E+04  0.12309726429E+04  0.50400001928E-02 0. -1.
    10030    2    1    2    0    0  0.00000000000E+00  0.00000000000E+00  0.46800712774E+03  0.29299524135E+04  0.28923330503E+04 0.  0.
        2    1    3    3  502    0 -0.77700925295E+03 -0.97257698924E+03 -0.51160522885E+03  0.13458786310E+04  0.25500000920E-02 0. -1.
       -2    1    3    3    0  502  0.77700925295E+03  0.97257698924E+03  0.97961235659E+03  0.15840737825E+04  0.25500000920E-02 0.  1.
</event>
<event>
 5   0  0.5392262E-06  0.3062173E+04  0.7818609E-02  0.8226197E-01
       -1   -1    0    0    0  501  0.00000000000E+00  0.00000000000E+00  0.11067812730E+04  0.11067812730E+04  0.50400001928E-02 0. -1.
        1   -1    0    0  501    0  0.00000000000E+00  0.00000000000E+00 -0.21180565799E+04  0.21180565799E+04  0.50400001928E-02 0.  1.
    10030    2    1    2    0    0  0.00000000000E+00  0.00000000000E+00 -0.10112753069E+04  0.32248378529E+04  0.30621726651E+04 0.  0.
        2    1    3    3  502    0  0.59842304975E+03  0.40657383401E+03 -0.19266926034E+04  0.20580468452E+04  0.25500000920E-02 0.  1.
       -2    1    3    3    0  502 -0.59842304975E+03 -0.40657383401E+03  0.91541729648E+03  0.11667910077E+04  0.25500000920E-02 0. -1.
</event>
<event>
 5   0  0.1480547E-05  0.3063694E+04  0.7818609E-02  0.8225773E-01
       -2   -1    0    0    0  501  0.00000000000E+00  0.00000000000E+00  0.16193890185E+04  0.16193890185E+04  0.25500000920E-02 0. -1.
        2   -1    0    0  501    0  0.00000000000E+00  0.00000000000E+00 -0.14490372621E+04  0.14490372621E+04  0.25500000920E-02 0.  1.
    10030    2    1    2    0    0  0.00000000000E+00  0.00000000000E+00  0.17035175639E+03  0.30684262805E+04  0.30636938682E+04 0.  0.
        1    1    3    3  502    0 -0.30165824320E+03  0.79190463687E+03 -0.11929004502E+04  0.14632573709E+04  0.50400001928E-02 0.  1.
       -1    1    3    3    0  502  0.30165824320E+03 -0.79190463687E+03  0.13632522066E+04  0.16051689096E+04  0.50400001928E-02 0. -1.
</event>
<event>
 5   0  0.5329891E-06  0.2952320E+04  0.7818609E-02  0.8257479E-01
        1   -1    0    0  501    0  0.00000000000E+00  0.00000000000E+00  0.15677816126E+04  0.15677816127E+04  0.50400001928E-02 0.  1.
       -1   -1    0    0    0  501  0.00000000000E+00  0.00000000000E+00 -0.13898923821E+04  0.13898923821E+04  0.50400001928E-02 0. -1.
    10030    2    1    2    0    0  0.00000000000E+00  0.00000000000E+00  0.17788923058E+03  0.29576739947E+04  0.29523195763E+04 0.  0.
        4    1    3    3  502    0 -0.10156151191E+04  0.86541236501E+02 -0.98073841255E+03  0.14145009376E+04  0.12699999809E+01 0. -1.
       -4    1    3    3    0  502  0.10156151191E+04 -0.86541236501E+02  0.11586276431E+04  0.15431730571E+04  0.12699999809E+01 0.  1.
</event>
<event>
 5   0  0.7032692E-06  0.3033950E+04  0.7818609E-02  0.8234102E-01
       -1   -1    0    0    0  501  0.00000000000E+00  0.00000000000E+00  0.87508080886E+03  0.87508080887E+03  0.50400001928E-02 0. -1.
        1   -1    0    0  501    0  0.00000000000E+00  0.00000000000E+00 -0.26297154694E+04  0.26297154694E+04  0.50400001928E-02 0.  1.
    10030    2    1    2    0    0  0.00000000000E+00  0.00000000000E+00 -0.17546346605E+04  0.35047962782E+04  0.30339502567E+04 0.  0.
        5    1    3    3  502    0  0.13162976942E+04 -0.75157301029E+03 -0.94748840413E+03  0.17875284544E+04  0.46999998093E+01 0. -1.
       -5    1    3    3    0  502 -0.13162976942E+04  0.75157301029E+03 -0.80714625637E+03  0.17172678238E+04  0.46999998093E+01 0.  1.
</event>
<event>
 5   0  0.5730920E-06  0.2693161E+04  0.7818609E-02  0.8337227E-01
       -1   -1    0    0    0  501  0.00000000000E+00  0.00000000000E+00  0.19575983787E+04  0.19575983787E+04  0.50400001928E-02 0. -1.
        1   -1    0    0  501    0  0.00000000000E+00  0.00000000000E+00 -0.92627717538E+03  0.92627717540E+03  0.50400001928E-02 0.  1.
    10030    2    1    2    0    0  0.00000000000E+00  0.00000000000E+00  0.10313212033E+04  0.28838755541E+04  0.26931607429E+04 0.  0.
        1    1    3    3  502    0  0.52170202732E+02  0.11475884834E+04  0.12679774315E+04  0.17109786159E+04  0.50400001928E-02 0. -1.
       -1    1    3    3    0  502 -0.52170202732E+02 -0.11475884834E+04 -0.23665622815E+03  0.11728969382E+04  0.50400001928E-02 0.  1.
</event>
<event>
 5   0  0.5522695E-06  0.2985576E+04  0.7818609E-02  0.8247862E-01
        1   -1    0    0  501    0  0.00000000000E+00  0.00000000000E+00  0.12865672233E+04  0.12865672233E+04  0.50400001928E-02 0. -1.
       -1   -1    0    0    0  501  0.00000000000E+00  0.00000000000E+00 -0.17320637433E+04  0.17320637433E+04  0.50400001928E-02 0.  1.
    10030    2    1    2    0    0  0.00000000000E+00  0.00000000000E+00 -0.44549652004E+03  0.30186309666E+04  0.29855762866E+04 0.  0.
        3    1    3    3  502    0 -0.97644400423E+03  0.86178214743E+03 -0.96041830920E+03  0.16181825305E+04  0.10100000352E+00 0.  1.
       -3    1    3    3    0  502  0.97644400423E+03 -0.86178214743E+03  0.51492178916E+03  0.14004484361E+04  0.10100000352E+00 0. -1.
</event>
<event>
 5   0  0.1480547E-05  0.3022580E+04  0.7818609E-02  0.8237312E-01
        2   -1    0    0  501    0  0.00000000000E+00  0.00000000000E+00  0.18323772962E+04  0.18323772962E+04  0.25500000920E-02 0. -1.
       -2   -1    0    0    0  501  0.00000000000E+00  0.00000000000E+00 -0.12464664963E+04  0.12464664963E+04  0.25500000920E-02 0.  1.
    10030    2    1    2    0    0  0.00000000000E+00  0.00000000000E+00  0.58591079985E+03  0.30788437925E+04  0.30225796323E+04 0.  0.
        1    1    3    3  502    0 -0.12487322797E+04 -0.77574934244E+03  0.65001950417E+03  0.16073719870E+04  0.50400001928E-02 0. -1.
       -1    1    3    3    0  502  0.12487322797E+04  0.77574934244E+03 -0.64108704319E+02  0.14714718056E+04  0.50400001928E-02 0.  1.
</event>
<event>
 5   0  0.1480547E-05  0.2966424E+04  0.7818609E-02  0.8253384E-01
        2   -1    0    0  501    0  0.00000000000E+00  0.00000000000E+00  0.12601869780E+04  0.12601869780E+04  0.25500000920E-02 0.  1.
       -2   -1    0    0    0  501  0.00000000000E+00  0.00000000000E+00 -0.17457071079E+04  0.17457071079E+04  0.25500000920E-02 0. -1.
    10030    2    1    2    0    0  0.00000000000E+00  0.00000000000E+00 -0.48552012994E+03  0.30058940859E+04  0.29664236816E+04 0.  0.
        1    1    3    3  502    0  0.10906317900E+04 -0.56945881108E+03  0.59660720442E+03  0.13673701749E+04  0.50400001928E-02 0.  1.
       -1    1    3    3    0  502 -0.10906317900E+04  0.56945881108E+03 -0.10821273344E+04  0.16385239109E+04  0.50400001928E-02 0. -1.
</event>
<event>
 5   0  0.1388724E-05  0.2005818E+04  0.7818609E-02  0.8603905E-01
        2   -1    0    0  501    0  0.00000000000E+00  0.00000000000E+00  0.95137929633E+03  0.95137929634E+03  0.25500000920E-02 0.  1.
       -2   -1    0    0    0  501  0.00000000000E+00  0.00000000000E+00 -0.10572297053E+04  0.10572297053E+04  0.25500000920E-02 0. -1.
    10030    2    1    2    0    0  0.00000000000E+00  0.00000000000E+00 -0.10585040896E+03  0.20086090016E+04  0.20058179908E+04 0.  0.
        4    1    3    3  502    0 -0.48393865252E+03 -0.65145881774E+03 -0.64300707381E+03  0.10354008502E+04  0.12699999809E+01 0. -1.
       -4    1    3    3    0  502  0.48393865252E+03  0.65145881774E+03  0.53715666485E+03  0.97320815148E+03  0.12699999809E+01 0.  1.
</event>
<event>
 5   0  0.5392262E-06  0.3118709E+04  0.7818609E-02  0.8210622E-01
       -1   -1    0    0    0  501  0.00000000000E+00  0.00000000000E+00  0.20825942009E+04  0.20825942009E+04  0.50400001928E-02 0.  1.
        1   -1    0    0  501    0  0.00000000000E+00  0.00000000000E+00 -0.11675756984E+04  0.11675756984E+04  0.50400001928E-02 0. -1.
    10030    2    1    2    0    0  0.00000000000E+00  0.00000000000E+00  0.91501850259E+03  0.32501698993E+04  0.31187089499E+04 0.  0.
        2    1    3    3  502    0 -0.11151484732E+04 -0.96402874498E+03  0.98755294246E+03  0.17743078517E+04  0.25500000920E-02 0.  1.
       -2    1    3    3    0  502  0.11151484732E+04  0.96402874498E+03 -0.72534439870E+02  0.14758620476E+04  0.25500000920E-02 0. -1.
</event>
<event>
 5   0  0.1523029E-05  0.3065639E+04  0.7818609E-02  0.8225232E-01
       -2   -1    0    0    0  501  0.00000000000E+00  0.00000000000E+00  0.10621789532E+04  0.10621789532E+04  0.25500000920E-02 0. -1.
        2   -1    0    0  501    0  0.00000000000E+00  0.00000000000E+00 -0.22119956819E+04  0.22119956819E+04  0.25500000920E-02 0.  1.
    10030    2    1    2    0    0  0.00000000000E+00  0.00000000000E+00 -0.11498167287E+04  0.32741746351E+04  0.30656387640E+04 0.  0.
        5    1    3    3  502    0  0.97103602474E+03  0.79861072131E+03  0.36156208774E+03  0.13082198893E+04  0.46999998093E+01 0. -1.
       -5    1    3    3    0  502 -0.97103602474E+03 -0.79861072131E+03 -0.15113788165E+04  0.19659547458E+04  0.46999998093E+01 0.  1.
</event>
<event>
 5   0  0.1523029E-05  0.3010876E+04  0.7818609E-02  0.8240632E-01
       -2   -1    0    0    0  501  0.00000000000E+00  0.00000000000E+00  0.15950064671E+04  0.15950064671E+04  0.25500000920E-02 0.  1.
        2   -1    0    0  501    0  0.00000000000E+00  0.00000000000E+00 -0.14208994782E+04  0.14208994782E+04  0.25500000920E-02 0. -1.
    10030    2    1    2    0    0  0.00000000000E+00  0.00000000000E+00  0.17410698889E+03  0.30159059453E+04  0.30108761893E+04 0.  0.
        5    1    3    3  502    0  0.38515554349E+03  0.83890120337E+03  0.12782506606E+04  0.15767202869E+04  0.46999998093E+01 0.  1.
       -5    1    3    3    0  502 -0.38515554349E+03 -0.83890120337E+03 -0.11041436717E+04  0.14391856585E+04  0.46999998093E+01 0. -1.
</event>
<event>
 5   0  0.1423692E-05  0.2837029E+04  0.7818609E-02  0.8291864E-01
       -2   -1    0    0    0  501  0.00000000000E+00  0.00000000000E+00  0.11014639838E+04  0.11014639838E+04  0.25500000920E-02 0. -1.
        2   -1    0    0  501    0  0.00000000000E+00  0.00000000000E+00 -0.18268257183E+04  0.18268257183E+04  0.25500000920E-02 0.  1.
    10030    2    1    2    0    0  0.00000000000E+00  0.00000000000E+00 -0.72536173446E+03  0.29282897021E+04  0.28370285394E+04 0.  0.
        3    1    3    3  502    0  0.10170674518E+04  0.68976354979E+02 -0.13808184861E+04  0.17163460143E+04  0.10100000352E+00 0.  1.
       -3    1    3    3    0  502 -0.10170674518E+04 -0.68976354979E+02  0.65545675164E+03  0.12119436878E+04  0.10100000352E+00 0. -1.
</event>
<event>
 5   0  0.1523029E-05  0.2960340E+04  0.7818609E-02  0.8255148E-01
       -2   -1    0    0    0  501  0.00000000000E+00  0.00000000000E+00  0.12281589580E+04  0.12281589580E+04  0.25500000920E-02 0. -1.
        2   -1    0    0  501    0  0.00000000000E+00  0.00000000000E+00 -0.17838923203E+04  0.17838923203E+04  0.25500000920E-02 0.  1.
    10030    2    1    2    0    0  0.00000000000E+00  0.00000000000E+00 -0.55573336228E+03  0.30120512782E+04  0.29603400705E+04 0.  0.
        5    1    3    3  502    0  0.10294911673E+04  0.99762635811E+03  0.97040701667E+02  0.14368539946E+04  0.46999998093E+01 0. -1.
       -5    1    3    3    0  502 -0.10294911673E+04 -0.99762635811E+03 -0.65277406394E+03  0.15751972837E+04  0.46999998093E+01 0.  1.
</event>
<event>
 5   0  0.1345931E-05  0.2921934E+04  0.7818609E-02  0.8266381E-01
       -2   -1    0    0    0  501  0.00000000000E+00  0.00000000000E+00  0.19042551794E+04  0.19042551794E+04  0.25500000920E-02 0.  1.
        2   -1    0    0  501    0  0.00000000000E+00  0.00000000000E+00 -0.11208711971E+04  0.11208711971E+04  0.25500000920E-02 0. -1.
    10030    2    1    2    0    0  0.00000000000E+00  0.00000000000E+00  0.78338398229E+03  0.30251263766E+04  0.29219341421E+04 0.  0.
        2    1    3    3  502    0 -0.46277338359E+03 -0.42316968149E+03  0.17578362310E+04  0.18663386614E+04  0.25500000920E-02 0.  1.
       -2    1    3    3    0  502  0.46277338359E+03  0.42316968149E+03 -0.97445224872E+03  0.11587877152E+04  0.25500000920E-02 0. -1.
</event>
<event>
 5   0  0.1523029E-05  0.3052584E+04  0.7818609E-02  0.8228873E-01
        2   -1    0    0  501    0  0.00000000000E+00  0.00000000000E+00  0.15731636106E+04  0.15731636106E+04  0.25500000920E-02 0.  1.
       -2   -1    0    0    0  501  0.00000000000E+00  0.00000000000E+00 -0.14808166279E+04  0.14808166279E+04  0.25500000920E-02 0. -1.
    10030    2    1    2    0    0  0.00000000000E+00  0.00000000000E+00  0.92346982704E+02  0.30539802385E+04  0.30525837142E+04 0.  0.
        5    1    3    3  502    0  0.13672100014E+03  0.40362550294E+03 -0.14200817156E+04  0.14826531447E+04  0.46999998093E+01 0. -1.
       -5    1    3    3    0  502 -0.13672100014E+03 -0.40362550294E+03  0.15124286983E+04  0.15713270938E+04  0.46999998093E+01 0.  1.
</event>
<event>
 5   0  0.1345931E-05  0.3013671E+04  0.7818609E-02  0.8239838E-01
        2   -1    0    0  501    0  0.00000000000E+00  0.00000000000E+00  0.26954195956E+04  0.26954195956E+04  0.25500000920E-02 0.  1.
       -2   -1    0    0    0  501  0.00000000000E+00  0.00000000000E+00 -0.84237456854E+03  0.84237456855E+03  0.25500000920E-02 0. -1.
    10030    2    1    2    0    0  0.00000000000E+00  0.00000000000E+00  0.18530450271E+04  0.35377941641E+04  0.30136707975E+04 0.  0.
        2    1    3    3  502    0  0.82585270807E+03 -0.50358814184E+03  0.22828489984E+04  0.24793211291E+04  0.25500000920E-02 0.  1.
       -2    1    3    3    0  502 -0.82585270807E+03  0.50358814184E+03 -0.42980397133E+03  0.10584730350E+04  0.25500000920E-02 0. -1.
</event>
<event>
 5   0  0.1388724E-05  0.2001324E+04  0.7818609E-02  0.8606002E-01
       -2   -1    0    0    0  501  0.00000000000E+00  0.00000000000E+00  0.35348680891E+03  0.35348680892E+03  0.25500000920E-02 0. -1.
        2   -1    0    0  501    0  0.00000000000E+00  0.00000000000E+00 -0.28327070924E+04  0.28327070924E+04  0.25500000920E-02 0.  1.
    10030    2    1    2    0    0  0.00000000000E+00  0.00000000000E+00 -0.24792202835E+04  0.31861939014E+04  0.20013241524E+04 0.  0.
        4    1    3    3  502    0  0.36457712376E+02  0.42133114155E+03 -0.26834393504E+04  0.27165598568E+04  0.12699999809E+01 0.  1.
       -4    1    3    3    0  502 -0.36457712376E+02 -0.42133114155E+03  0.20421906684E+03  0.46963404455E+03  0.12699999809E+01 0. -1.
</event>
<event>
 5   0  0.1480547E-05  0.3088628E+04  0.7818609E-02  0.8218866E-01
        2   -1    0    0  501    0  0.00000000000E+00  0.00000000000E+00  0.10300220233E+04  0.10300220233E+04  0.25500000920E-02 0. -1.
       -2   -1    0    0    0  501  0.00000000000E+00  0.00000000000E+00 -0.23153934642E+04  0.23153934642E+04  0.25500000920E-02 0.  1.
    10030    2    1    2    0    0  0.00000000000E+00  0.00000000000E+00 -0.12853714410E+04  0.33454154875E+04  0.30886283433E+04 0.  0.
        1    1    3    3  502    0 -0.87338250034E+03 -0.81592342400E+03 -0.17019376228E+04  0.20796922122E+04  0.50400001928E-02 0.  1.
       -1    1    3    3    0  502  0.87338250034E+03  0.81592342400E+03  0.41656618182E+03  0.12657232753E+04  0.50400001928E-02 0. -1.
</event>
<event>
 5   0  0.5730920E-06  0.3015109E+04  0.7818609E-02  0.8239430E-01
        1   -1    0    0  501    0  0.00000000000E+00  0.00000000000E+00  0.20085597426E+04  0.20085597426E+04  0.50400001928E-02 0. -1.
       -1   -1    0    0    0  501  0.00000000000E+00  0.00000000000E+00 -0.11315173314E+04  0.11315173314E+04  0.50400001928E-02 0.  1.
    10030    2    1    2    0    0  0.00000000000E+00  0.00000000000E+00  0.87704241119E+03  0.31400770740E+04  0.30151087277E+04 0.  0.
        1    1    3    3  502    0 -0.13653926294E+04  0.62493851090E+03  0.29928243680E+03  0.15311483115E+04  0.50400001928E-02 0.  1.
       -1    1    3    3    0  502  0.13653926294E+04 -0.62493851090E+03  0.57775997439E+03  0.16089287625E+04  0.50400001928E-02 0. -1.
</event>
<event>
 5   0  0.7032692E-06  0.2880952E+04  0.7818609E-02  0.8278568E-01
       -1   -1    0    0    0  501  0.00000000000E+00  0.00000000000E+00  0.86707477077E+03  0.86707477079E+03  0.50400001928E-02 0. -1.
        1   -1    0    0  501    0  0.00000000000E+00  0.00000000000E+00 -0.23930697896E+04  0.23930697896E+04  0.50400001928E-02 0.  1.
    10030    2    1    2    0    0  0.00000000000E+00  0.00000000000E+00 -0.15259950188E+04  0.32601445604E+04  0.28809515368E+04 0.  0.
        5    1    3    3  502    0  0.31125493139E+03  0.11490121808E+04  0.15482975233E+03  0.12004594813E+04  0.46999998093E+01 0. -1.
       -5    1    3    3    0  502 -0.31125493139E+03 -0.11490121808E+04 -0.16808247712E+04  0.20596850792E+04  0.46999998093E+01 0.  1.
</event>
<event>
 5   0  0.5392262E-06  0.2044191E+04  0.7818609E-02  0.8586234E-01
       -1   -1    0    0    0  501  0.00000000000E+00  0.00000000000E+00  0.75756624463E+03  0.75756624464E+03  0.50400001928E-02 0.  1.
        1   -1    0    0  501    0  0.00000000000E+00  0.00000000000E+00 -0.13789935065E+04  0.13789935065E+04  0.50400001928E-02 0. -1.
    10030    2    1    2    0    0  0.00000000000E+00  0.00000000000E+00 -0.62142726191E+03  0.21365597512E+04  0.20441907271E+04 0.  0.
        2    1    3    3  502    0  0.52692992292E+03 -0.65939682372E+03 -0.91314318000E+03  0.12434990076E+04  0.25500000920E-02 0.  1.
       -2    1    3    3    0  502 -0.52692992292E+03  0.65939682372E+03  0.29171591809E+03  0.89306074355E+03  0.25500000920E-02 0. -1.
</event>
<event>
 5   0  0.4806125E-06  0.1513007E+04  0.7818609E-02  0.8875850E-01
        3   -1    0    0  501    0  0.00000000000E+00  0.00000000000E+00  0.10050821866E+04  0.10050821916E+04  0.10100000352E+00 0. -1.
       -3   -1    0    0    0  501  0.00000000000E+00  0.00000000000E+00 -0.56940334921E+03  0.56940335816E+03  0.10100000352E+00 0.  1.
    10030    2    1    2    0    0  0.00000000000E+00  0.00000000000E+00  0.43567883735E+03  0.15744855498E+04  0.15130065093E+04 0.  0.
        2    1    3    3  502    0 -0.26851944331E+03 -0.26385653474E+02  0.95330928125E+03  0.99075601430E+03  0.25500000920E-02 0. -1.
       -2    1    3    3    0  502  0.26851944331E+03  0.26385653474E+02 -0.51763044390E+03  0.58372953549E+03  0.25500000920E-02 0.  1.
</event>
<event>
 5   0  0.1480547E-05  0.3001373E+04  0.7818609E-02  0.8243339E-01
       -2   -1    0    0    0  501  0.00000000000E+00  0.00000000000E+00  0.18094043080E+04  0.18094043080E+04  0.25500000920E-02 0.  1.
        2   -1    0    0  501    0  0.00000000000E+00  0.00000000000E+00 -0.12446418822E+04  0.12446418822E+04  0.25500000920E-02 0. -1.
    10030    2    1    2    0    0  0.00000000000E+00  0.00000000000E+00  0.56476242574E+03  0.30540461902E+04  0.30013732748E+04 0.  0.
        1    1    3    3  502    0  0.82976096991E+03 -0.12489953387E+04  0.22160223060E+03  0.15157836824E+04  0.50400001928E-02 0. -1.
       -1    1    3    3    0  502 -0.82976096991E+03  0.12489953387E+04  0.34316019513E+03  0.15382625078E+04  0.50400001928E-02 0.  1.
</event>
<event>
 5   0  0.1345931E-05  0.2933790E+04  0.7818609E-02  0.8262894E-01
       -2   -1    0    0    0  501  0.00000000000E+00  0.00000000000E+00  0.11411253531E+04  0.11411253531E+04  0.25500000920E-02 0. -1.
        2   -1    0    0  501    0  0.00000000000E+00  0.00000000000E+00 -0.18856652427E+04  0.18856652427E+04  0.25500000920E-02 0.  1.
    10030    2    1    2    0    0  0.00000000000E+00  0.00000000000E+00 -0.74453988963E+03  0.30267905958E+04  0.29337896420E+04 0.  0.
        2    1    3    3  502    0  0.25374026505E+03 -0.64002740983E+03  0.96407470560E+03  0.11846768527E+04  0.25500000920E-02 0. -1.
       -2    1    3    3    0  502 -0.25374026505E+03  0.64002740983E+03 -0.17086145952E+04  0.18421137431E+04  0.25500000920E-02 0.  1.
</event>
<event>
 5   0  0.5329891E-06  0.2953558E+04  0.7818609E-02  0.8257118E-01
        1   -1    0    0  501    0  0.00000000000E+00  0.00000000000E+00  0.12547821097E+04  0.12547821097E+04  0.50400001928E-02 0. -1.
       -1   -1    0    0    0  501  0.00000000000E+00  0.00000000000E+00 -0.17380517095E+04  0.17380517095E+04  0.50400001928E-02 0.  1.
    10030    2    1    2    0    0  0.00000000000E+00  0.00000000000E+00 -0.48326959981E+03  0.29928338191E+04  0.29535579837E+04 0.  0.
        4    1    3    3  502    0  0.75775220473E+03 -0.95951897146E+03  0.59763611342E+03  0.13608951456E+04  0.12699999809E+01 0. -1.
       -4    1    3    3    0  502 -0.75775220473E+03  0.95951897146E+03 -0.10809057132E+04  0.16319386735E+04  0.12699999809E+01 0.  1.
</event>
<event>
 5   0  0.5392262E-06  0.3004083E+04  0.7818609E-02  0.8242566E-01
       -1   -1    0    0    0  501  0.00000000000E+00  0.00000000000E+00  0.21264345374E+04  0.21264345374E+04  0.50400001928E-02 0.  1.
        1   -1    0    0  501    0  0.00000000000E+00  0.00000000000E+00 -0.10609916840E+04  0.10609916840E+04  0.50400001928E-02 0. -1.
    10030    2    1    2    0    0  0.00000000000E+00  0.00000000000E+00  0.10654428533E+04  0.31874262214E+04  0.30040834614E+04 0.  0.
        2    1    3    3  502    0 -0.58086975156E+03  0.80927275204E+03 -0.66007645510E+03  0.11950033398E+04  0.25500000920E-02 0. -1.
       -2    1    3    3    0  502  0.58086975156E+03 -0.80927275204E+03  0.17255193084E+04  0.19924228816E+04  0.25500000920E-02 0.  1.
</event>
<event>
 5   0  0.5392262E-06  0.2987152E+04  0.7818609E-02  0.8247409E-01
       -1   -1    0    0    0  501  0.00000000000E+00  0.00000000000E+00  0.10925758859E+04  0.10925758859E+04  0.50400001928E-02 0.  1.
        1   -1    0    0  501    0  0.00000000000E+00  0.00000000000E+00 -0.20417521841E+04  0.20417521841E+04  0.50400001928E-02 0. -1.
    10030    2    1    2    0    0  0.00000000000E+00  0.00000000000E+00 -0.94917629823E+03  0.31343280700E+04  0.29871519555E+04 0.  0.
        2    1    3    3  502    0 -0.25618882306E+03  0.77634871608E+03  0.83696506010E+03  0.11699831425E+04  0.25500000920E-02 0.  1.
       -2    1    3    3    0  502  0.25618882306E+03 -0.77634871608E+03 -0.17861413583E+04  0.19643449274E+04  0.25500000920E-02 0. -1.
</event>
<event>
 5   0  0.1345931E-05  0.2969971E+04  0.7818609E-02  0.8252358E-01
        2   -1    0    0  501    0  0.00000000000E+00  0.00000000000E+00  0.18659981917E+04  0.18659981917E+04  0.25500000920E-02 0. -1.
       -2   -1    0    0    0  501  0.00000000000E+00  0.00000000000E+00 -0.11817703661E+04  0.11817703661E+04  0.25500000920E-02 0.  1.
    10030    2    1    2    0    0  0.00000000000E+00  0.00000000000E+00  0.68422782562E+03  0.30477685578E+04  0.29699706168E+04 0.  0.
        2    1    3    3  502    0  0.36741536331E+03 -0.63993560665E+03  0.16645401810E+04  0.18207706182E+04  0.25500000920E-02 0. -1.
       -2    1    3    3    0  502 -0.36741536331E+03  0.63993560665E+03 -0.98031235536E+03  0.12269979397E+04  0.25500000920E-02 0.  1.
</event>
<event>
 5   0  0.5730920E-06  0.2960860E+04  0.7818609E-02  0.8254997E-01
       -1   -1    0    0    0  501  0.00000000000E+00  0.00000000000E+00  0.20158817815E+04  0.20158817815E+04  0.50400001928E-02 0. -1.
        1   -1    0    0  501    0  0.00000000000E+00  0.00000000000E+00 -0.10872032644E+04  0.10872032644E+04  0.50400001928E-02 0.  1.
    10030    2    1    2    0    0  0.00000000000E+00  0.00000000000E+00  0.92867851709E+03  0.31030850458E+04  0.29608601814E+04 0.  0.
        1    1    3    3  502    0  0.41736832389E+03  0.14200829221E+04  0.43393847643E+03  0.15424443020E+04  0.50400001928E-02 0. -1.
       -1    1    3    3    0  502 -0.41736832389E+03 -0.14200829221E+04  0.49474004065E+03  0.15606407438E+04  0.50400001928E-02 0.  1.
</event>
<event>
 5   0  0.5392262E-06  0.2489566E+04  0.7818609E-02  0.8406712E-01
        1   -1    0    0  501    0  0.00000000000E+00  0.00000000000E+00  0.90794202151E+03  0.90794202153E+03  0.50400001928E-02 0. -1.
       -1   -1    0    0    0  501  0.00000000000E+00  0.00000000000E+00 -0.17065896832E+04  0.17065896832E+04  0.50400001928E-02 0.  1.
    10030    2    1    2    0    0  0.00000000000E+00  0.00000000000E+00 -0.79864766167E+03  0.26145317047E+04  0.24895658150E+04 0.  0.
        2    1    3    3  502    0 -0.23596617515E+03  0.62623476329E+03  0.70294888946E+03  0.97056022779E+03  0.25500000920E-02 0. -1.
       -2    1    3    3    0  502  0.23596617515E+03 -0.62623476329E+03 -0.15015965511E+04  0.16439714769E+04  0.25500000920E-02 0.  1.
</event>
<event>
 5   0  0.5522695E-06  0.2846250E+04  0.7818609E-02  0.8289052E-01
       -1   -1    0    0    0  501  0.00000000000E+00  0.00000000000E+00  0.12673366094E+04  0.12673366094E+04  0.50400001928E-02 0. -1.
        1   -1    0    0  501    0  0.00000000000E+00  0.00000000000E+00 -0.15980633139E+04  0.15980633139E+04  0.50400001928E-02 0.  1.
    10030    2    1    2    0    0  0.00000000000E+00  0.00000000000E+00 -0.33072670453E+03  0.28653999233E+04  0.28462495617E+04 0.  0.
        3    1    3    3  502    0 -0.91217916289E+03 -0.72057922228E+03 -0.99184918878E+03  0.15280936046E+04  0.10100000352E+00 0.  1.
       -3    1    3    3    0  502  0.91217916289E+03  0.72057922228E+03  0.66112248425E+03  0.13373063188E+04  0.10100000352E+00 0. -1.
</event>
<event>
 5   0  0.5329891E-06  0.1596138E+04  0.7818609E-02  0.8822924E-01
        1   -1    0    0  501    0  0.00000000000E+00  0.00000000000E+00  0.89303094758E+03  0.89303094760E+03  0.50400001928E-02 0. -1.
       -1   -1    0    0    0  501  0.00000000000E+00  0.00000000000E+00 -0.71320457847E+03  0.71320457849E+03  0.50400001928E-02 0.  1.
    10030    2    1    2    0    0  0.00000000000E+00  0.00000000000E+00  0.17982636911E+03  0.16062355261E+04  0.15961375386E+04 0.  0.
        4    1    3    3  502    0  0.13542760072E+03 -0.19317690215E+03 -0.67731043865E+03  0.71722311296E+03  0.12699999809E+01 0.  1.
       -4    1    3    3    0  502 -0.13542760072E+03  0.19317690215E+03  0.85713680777E+03  0.88901241312E+03  0.12699999809E+01 0. -1.
</event>
<event>
 5   0  0.1388724E-05  0.2977266E+04  0.7818609E-02  0.8250253E-01
        2   -1    0    0  501    0  0.00000000000E+00  0.00000000000E+00  0.15050266564E+04  0.15050266564E+04  0.25500000920E-02 0.  1.
       -2   -1    0    0    0  501  0.00000000000E+00  0.00000000000E+00 -0.14724183333E+04  0.14724183333E+04  0.25500000920E-02 0. -1.
    10030    2    1    2    0    0  0.00000000000E+00  0.00000000000E+00  0.32608323021E+02  0.29774449897E+04  0.29772664248E+04 0.  0.
        4    1    3    3  502    0 -0.52793726842E+03  0.58730358145E+03  0.12782768188E+04  0.15025433420E+04  0.12699999809E+01 0.  1.
       -4    1    3    3    0  502  0.52793726842E+03 -0.58730358145E+03 -0.12456684958E+04  0.14749016477E+04  0.12699999809E+01 0. -1.
</event>
<event>
 5   0  0.1345931E-05  0.2443369E+04  0.7818609E-02  0.8423443E-01
        2   -1    0    0  501    0  0.00000000000E+00  0.00000000000E+00  0.21380352232E+04  0.21380352232E+04  0.25500000920E-02 0. -1.
       -2   -1    0    0    0  501  0.00000000000E+00  0.00000000000E+00 -0.69807712191E+03  0.69807712192E+03  0.25500000920E-02 0.  1.
    10030    2    1    2    0    0  0.00000000000E+00  0.00000000000E+00  0.14399581013E+04  0.28361123452E+04  0.24433693746E+04 0.  0.
        2    1    3    3  502    0 -0.72720596543E+03 -0.38778456377E+03  0.17667745594E+04  0.19495378241E+04  0.25500000920E-02 0. -1.
       -2    1    3    3    0  502  0.72720596543E+03  0.38778456377E+03 -0.32681645806E+03  0.88657452102E+03  0.25500000920E-02 0.  1.
</event>
<event>
 5   0  0.1523029E-05  0.3070187E+04  0.7818609E-02  0.8223968E-01
        2   -1    0    0  501    0  0.00000000000E+00  0.00000000000E+00  0.17164438724E+04  0.17164438724E+04  0.25500000920E-02 0. -1.
       -2   -1    0    0    0  501  0.00000000000E+00  0.00000000000E+00 -0.13729033605E+04  0.13729033605E+04  0.25500000920E-02 0.  1.
    10030    2    1    2    0    0  0.00000000000E+00  0.00000000000E+00  0.34354051188E+03  0.30893472329E+04  0.30701866787E+04 0.  0.
        5    1    3    3  502    0 -0.10235860099E+04  0.43138367167E+03  0.12379436990E+04  0.16632338632E+04  0.46999998093E+01 0. -1.
       -5    1    3    3    0  502  0.10235860099E+04 -0.43138367167E+03 -0.89440318714E+03  0.14261133696E+04  0.46999998093E+01 0.  1.
</event>
<event>
 5   0  0.1423692E-05  0.1550919E+04  0.7818609E-02  0.8851281E-01
        2   -1    0    0  501    0  0.00000000000E+00  0.00000000000E+00  0.98401477572E+03  0.98401477573E+03  0.25500000920E-02 0. -1.
       -2   -1    0    0    0  501  0.00000000000E+00  0.00000000000E+00 -0.61110629990E+03  0.61110629990E+03  0.25500000920E-02 0.  1.
    10030    2    1    2    0    0  0.00000000000E+00  0.00000000000E+00  0.37290847583E+03  0.15951210756E+04  0.15509192482E+04 0.  0.
        3    1    3    3  502    0 -0.54756082731E+03 -0.42450072547E+03  0.54468240989E+03  0.88130736033E+03  0.10100000352E+00 0. -1.
       -3    1    3    3    0  502  0.54756082731E+03  0.42450072547E+03 -0.17177393407E+03  0.71381371530E+03  0.10100000352E+00 0.  1.
</event>
<event>
 5   0  0.1480547E-05  0.3008178E+04  0.7818609E-02  0.8241399E-01
       -2   -1    0    0    0  501  0.00000000000E+00  0.00000000000E+00  0.11507350897E+04  0.11507350897E+04  0.25500000920E-02 0. -1.
        2   -1    0    0  501    0  0.00000000000E+00  0.00000000000E+00 -0.19659470430E+04  0.19659470430E+04  0.25500000920E-02 0.  1.
    10030    2    1    2    0    0  0.00000000000E+00  0.00000000000E+00 -0.81521195329E+03  0.31166821327E+04  0.30081783503E+04 0.  0.
        1    1    3    3  502    0 -0.97806676732E+03 -0.11357241793E+04 -0.53783887028E+03  0.15924053074E+04  0.50400001928E-02 0. -1.
       -1    1    3    3    0  502  0.97806676732E+03  0.11357241793E+04 -0.27737308301E+03  0.15242768252E+04  0.50400001928E-02 0.  1.
</event>
<event>
 5   0  0.5522695E-06  0.2623987E+04  0.7818609E-02  0.8360099E-01
       -1   -1    0    0    0  501  0.00000000000E+00  0.00000000000E+00  0.10624331080E+04  0.10624331080E+04  0.50400001928E-02 0. -1.
        1   -1    0    0  501    0  0.00000000000E+00  0.00000000000E+00 -0.16201738462E+04  0.16201738462E+04  0.50400001928E-02 0.  1.
    10030    2    1    2    0    0  0.00000000000E+00  0.00000000000E+00 -0.55774073824E+03  0.26826069542E+04  0.26239865358E+04 0.  0.
        3    1    3    3  502    0  0.15760418628E+03 -0.12770962722E+04 -0.17198488535E+02  0.12868992836E+04  0.10100000352E+00 0. -1.
       -3    1    3    3    0  502 -0.15760418628E+03  0.12770962722E+04 -0.54054224970E+03  0.13957076706E+04  0.10100000352E+00 0.  1.
</event>
<event>
 5   0  0.5522695E-06  0.2857011E+04  0.7818609E-02  0.8285784E-01
        1   -1    0    0  501    0  0.00000000000E+00  0.00000000000E+00  0.15843695040E+04  0.15843695040E+04  0.50400001928E-02 0. -1.
       -1   -1    0    0    0  501  0.00000000000E+00  0.00000000000E+00 -0.12879745711E+04  0.12879745711E+04  0.50400001928E-02 0.  1.
    10030    2    1    2    0    0  0.00000000000E+00  0.00000000000E+00  0.29639493293E+03  0.28723440751E+04  0.28570107682E+04 0.  0.
        3    1    3    3  502    0  0.11667492512E+04  0.58245164286E+03  0.73448577001E+03  0.14966706679E+04  0.10100000352E+00 0. -1.
       -3    1    3    3    0  502 -0.11667492512E+04 -0.58245164286E+03 -0.43809083708E+03  0.13756734072E+04  0.10100000352E+00 0.  1.
</event>
<event>
 5   0  0.1423692E-05  0.2944984E+04  0.7818609E-02  0.8259618E-01
        2   -1    0    0  501    0  0.00000000000E+00  0.00000000000E+00  0.11498444737E+04  0.11498444737E+04  0.25500000920E-02 0. -1.
       -2   -1    0    0    0  501  0.00000000000E+00  0.00000000000E+00 -0.18856747800E+04  0.18856747800E+04  0.25500000920E-02 0.  1.
    10030    2    1    2    0    0  0.00000000000E+00  0.00000000000E+00 -0.73583030627E+03  0.30355192538E+04  0.29449840238E+04 0.  0.
        3    1    3    3  502    0  0.25530857655E+03 -0.11636869448E+04 -0.12598990569E+04  0.17339825312E+04  0.10100000352E+00 0.  1.
       -3    1    3    3    0  502 -0.25530857655E+03  0.11636869448E+04  0.52406875060E+03  0.13015367226E+04  0.10100000352E+00 0. -1.
</event>
<event>
 5   0  0.5329891E-06  0.2973846E+04  0.7818609E-02  0.8251239E-01
        1   -1    0    0  501    0  0.00000000000E+00  0.00000000000E+00  0.13620145241E+04  0.13620145241E+04  0.50400001928E-02 0. -1.
       -1   -1    0    0    0  501  0.00000000000E+00  0.00000000000E+00 -0.16232861323E+04  0.16232861323E+04  0.50400001928E-02 0.  1.
    10030    2    1    2    0    0  0.00000000000E+00  0.00000000000E+00 -0.26127160817E+03  0.29853006565E+04  0.29738455165E+04 0.  0.
        4    1    3    3  502    0 -0.26428168418E+03 -0.90372299612E+02 -0.15967153586E+04  0.16209606752E+04  0.12699999809E+01 0.  1.
       -4    1    3    3    0  502  0.26428168418E+03  0.90372299612E+02  0.13354437504E+04  0.13643399813E+04  0.12699999809E+01 0. -1.
</event>
<event>
 5   0  0.1480547E-05  0.2992208E+04  0.7818609E-02  0.8245960E-01
       -2   -1    0    0    0  501  0.00000000000E+00  0.00000000000E+00  0.15142267861E+04  0.15142267862E+04  0.25500000920E-02 0.  1.
        2   -1    0    0  501    0  0.00000000000E+00  0.00000000000E+00 -0.14781977371E+04  0.14781977371E+04  0.25500000920E-02 0. -1.
    10030    2    1    2    0    0  0.00000000000E+00  0.00000000000E+00  0.36029049065E+02  0.29924245232E+04  0.29922076190E+04 0.  0.
        1    1    3    3  502    0  0.14519278209E+04  0.11854151000E+03 -0.32286223650E+03  0.14921080760E+04  0.50400001928E-02 0.  1.
       -1    1    3    3    0  502 -0.14519278209E+04 -0.11854151000E+03  0.35889128556E+03  0.15003164472E+04  0.50400001928E-02 0. -1.
</event>
<event>
 5   0  0.1423692E-05  0.2906879E+04  0.7818609E-02  0.8270834E-01
        2   -1    0    0  501    0  0.00000000000E+00  0.00000000000E+00  0.22906343457E+04  0.22906343457E+04  0.25500000920E-02 0. -1.
       -2   -1    0    0    0  501  0.00000000000E+00  0.00000000000E+00 -0.92222784326E+03  0.92222784326E+03  0.25500000920E-02 0.  1.
    10030    2    1    2    0    0  0.00000000000E+00  0.00000000000E+00  0.13684065024E+04  0.32128621889E+04  0.29068792698E+04 0.  0.
        3    1    3    3  502    0  0.81959064223E+03 -0.89689543554E+03 -0.19747174917E+03  0.12309124035E+04  0.10100000352E+00 0.  1.
       -3    1    3    3    0  502 -0.81959064223E+03  0.89689543554E+03  0.15658782516E+04  0.19819497855E+04  0.10100000352E+00 0. -1.
</event>
<event>
 5   0  0.5730920E-06  0.2572712E+04  0.7818609E-02  0.8377530E-01
        1   -1    0    0  501    0  0.00000000000E+00  0.00000000000E+00  0.10906640493E+04  0.10906640493E+04  0.50400001928E-02 0. -1.
       -1   -1    0    0    0  501  0.00000000000E+00  0.00000000000E+00 -0.15171599614E+04  0.15171599614E+04  0.50400001928E-02 0.  1.
    10030    2    1    2    0    0  0.00000000000E+00  0.00000000000E+00 -0.42649591203E+03  0.26078240107E+04  0.25727120530E+04 0.  0.
        1    1    3    3  502    0 -0.45298152874E+02 -0.73520152181E+03  0.85572461302E+03  0.11290871595E+04  0.50400001928E-02 0. -1.
       -1    1    3    3    0  502  0.45298152874E+02  0.73520152181E+03 -0.12822205250E+04  0.14787368512E+04  0.50400001928E-02 0.  1.
</event>
<event>
 5   0  0.1423692E-05  0.2955380E+04  0.7818609E-02  0.8256588E-01
       -2   -1    0    0    0  501  0.00000000000E+00  0.00000000000E+00  0.11868016183E+04  0.11868016183E+04  0.25500000920E-02 0. -1.
        2   -1    0    0  501    0  0.00000000000E+00  0.00000000000E+00 -0.18398755369E+04  0.18398755370E+04  0.25500000920E-02 0.  1.
    10030    2    1    2    0    0  0.00000000000E+00  0.00000000000E+00 -0.65307391864E+03  0.30266771553E+04  0.29553796810E+04 0.  0.
        3    1    3    3  502    0 -0.13856792719E+04 -0.29652199168E+03  0.10253938974E+03  0.14207556696E+04  0.10100000352E+00 0. -1.
       -3    1    3    3    0  502  0.13856792719E+04  0.29652199168E+03 -0.75561330838E+03  0.16059214857E+04  0.10100000352E+00 0.  1.
</event>
<event>
 5   0  0.1480547E-05  0.3025666E+04  0.7818609E-02  0.8236439E-01
        2   -1    0    0  501    0  0.00000000000E+00  0.00000000000E+00  0.17461827882E+04  0.17461827882E+04  0.25500000920E-02 0. -1.
       -2   -1    0    0    0  501  0.00000000000E+00  0.00000000000E+00 -0.13106671274E+04  0.13106671274E+04  0.25500000920E-02 0.  1.
    10030    2    1    2    0    0  0.00000000000E+00  0.00000000000E+00  0.43551566075E+03  0.30568499156E+04  0.30256664581E+04 0.  0.
        1    1    3    3  502    0 -0.25556247999E+03  0.32258078210E+03  0.16885410055E+04  0.17379704455E+04  0.50400001928E-02 0. -1.
       -1    1    3    3    0  502  0.25556247999E+03 -0.32258078210E+03 -0.12530253447E+04  0.13188794701E+04  0.50400001928E-02 0.  1.
</event>
<event>
 5   0  0.5392262E-06  0.2946564E+04  0.7818609E-02  0.8259157E-01
        1   -1    0    0  501    0  0.00000000000E+00  0.00000000000E+00  0.20820905600E+04  0.20820905600E+04  0.50400001928E-02 0.  1.
       -1   -1    0    0    0  501  0.00000000000E+00  0.00000000000E+00 -0.10424907145E+04  0.10424907145E+04  0.50400001928E-02 0. -1.
    10030    2    1    2    0    0  0.00000000000E+00  0.00000000000E+00  0.10395998454E+04  0.31245812745E+04  0.29465641521E+04 0.  0.
        2    1    3    3  502    0  0.61885502594E+03 -0.10480899330E+04 -0.36046347920E+03  0.12694124510E+04  0.25500000920E-02 0. -1.
       -2    1    3    3    0  502 -0.61885502594E+03  0.10480899330E+04  0.14000633246E+04  0.18551688235E+04  0.25500000920E-02 0.  1.
</event>
<event>
 5   0  0.1388724E-05  0.2976527E+04  0.7818609E-02  0.8250466E-01
       -2   -1    0    0    0  501  0.00000000000E+00  0.00000000000E+00  0.95358744442E+03  0.95358744442E+03  0.25500000920E-02 0. -1.
        2   -1    0    0  501    0  0.00000000000E+00  0.00000000000E+00 -0.23227320219E+04  0.23227320219E+04  0.25500000920E-02 0.  1.
    10030    2    1    2    0    0  0.00000000000E+00  0.00000000000E+00 -0.13691445775E+04  0.32763194663E+04  0.29765268975E+04 0.  0.
        4    1    3    3  502    0 -0.68059353362E+03  0.12940705741E+04 -0.37893637565E+03  0.15104372209E+04  0.12699999809E+01 0. -1.
       -4    1    3    3    0  502  0.68059353362E+03 -0.12940705741E+04 -0.99020820184E+03  0.17658822454E+04  0.12699999809E+01 0.  1.
</event>
<event>
 5   0  0.1345931E-05  0.2944028E+04  0.7818609E-02  0.8259897E-01
        2   -1    0    0  501    0  0.00000000000E+00  0.00000000000E+00  0.13221972440E+04  0.13221972440E+04  0.25500000920E-02 0. -1.
       -2   -1    0    0    0  501  0.00000000000E+00  0.00000000000E+00 -0.16388068766E+04  0.16388068766E+04  0.25500000920E-02 0.  1.
    10030    2    1    2    0    0  0.00000000000E+00  0.00000000000E+00 -0.31660963256E+03  0.29610041206E+04  0.29440284888E+04 0.  0.
        2    1    3    3  502    0 -0.11087660849E+04  0.73190377299E+03  0.47921174272E+03  0.14123346835E+04  0.25500000920E-02 0. -1.
       -2    1    3    3    0  502  0.11087660849E+04 -0.73190377299E+03 -0.79582137528E+03  0.15486694371E+04  0.25500000920E-02 0.  1.
</event>
<event>
 5   0  0.5522695E-06  0.3019702E+04  0.7818609E-02  0.8238127E-01
       -1   -1    0    0    0  501  0.00000000000E+00  0.00000000000E+00  0.14631169624E+04  0.14631169625E+04  0.50400001928E-02 0.  1.
        1   -1    0    0  501    0  0.00000000000E+00  0.00000000000E+00 -0.15580774055E+04  0.15580774055E+04  0.50400001928E-02 0. -1.
    10030    2    1    2    0    0  0.00000000000E+00  0.00000000000E+00 -0.94960443027E+02  0.30211943679E+04  0.30197016282E+04 0.  0.
        3    1    3    3  502    0 -0.41384528380E+03 -0.45010122597E+02 -0.14995265843E+04  0.15562370698E+04  0.10100000352E+00 0. -1.
       -3    1    3    3    0  502  0.41384528380E+03  0.45010122597E+02  0.14045661413E+04  0.14649572982E+04  0.10100000352E+00 0.  1.
</event>
<event>
 5   0  0.5329891E-06  0.2727628E+04  0.7818609E-02  0.8326096E-01
       -1   -1    0    0    0  501  0.00000000000E+00  0.00000000000E+00  0.21643642781E+04  0.21643642781E+04  0.50400001928E-02 0.  1.
        1   -1    0    0  501    0  0.00000000000E+00  0.00000000000E+00 -0.85936937381E+03  0.85936937383E+03  0.50400001928E-02 0. -1.
    10030    2    1    2    0    0  0.00000000000E+00  0.00000000000E+00  0.13049949043E+04  0.30237336520E+04  0.27276278151E+04 0.  0.
        4    1    3    3  502    0  0.23032329050E+03  0.11200462533E+04  0.14764434600E+04  0.18674686962E+04  0.12699999809E+01 0.  1.
       -4    1    3    3    0  502 -0.23032329050E+03 -0.11200462533E+04 -0.17144855572E+03  0.11562649558E+04  0.12699999809E+01 0. -1.
</event>
<event>
 5   0  0.7032692E-06  0.3063486E+04  0.7818609E-02  0.8225831E-01
       -1   -1    0    0    0  501  0.00000000000E+00  0.00000000000E+00  0.99485015575E+03  0.99485015576E+03  0.50400001928E-02 0. -1.
        1   -1    0    0  501    0  0.00000000000E+00  0.00000000000E+00 -0.23583818852E+04  0.23583818852E+04  0.50400001928E-02 0.  1.
    10030    2    1    2    0    0  0.00000000000E+00  0.00000000000E+00 -0.13635317294E+04  0.33532320409E+04  0.30634859789E+04 0.  0.
        5    1    3    3  502    0 -0.93802175790E+03 -0.68009572387E+03  0.41489209296E+03  0.12306797109E+04  0.46999998093E+01 0. -1.
       -5    1    3    3    0  502  0.93802175790E+03  0.68009572387E+03 -0.17784238224E+04  0.21225523301E+04  0.46999998093E+01 0.  1.
</event>
<event>
 5   0  0.5329891E-06  0.2975928E+04  0.7818609E-02  0.8250638E-01
        1   -1    0    0  501    0  0.00000000000E+00  0.00000000000E+00  0.13482549027E+04  0.13482549027E+04  0.50400001928E-02 0.  1.
       -1   -1    0    0    0  501  0.00000000000E+00  0.00000000000E+00 -0.16421498886E+04  0.16421498886E+04  0.50400001928E-02 0. -1.
    10030    2    1    2    0    0  0.00000000000E+00  0.00000000000E+00 -0.29389498581E+03  0.29904047913E+04  0.29759278474E+04 0.  0.
        4    1    3    3  502    0  0.12078325592E+04 -0.86778096323E+03 -0.19334280608E+03  0.14997620960E+04  0.12699999809E+01 0.  1.
       -4    1    3    3    0  502 -0.12078325592E+04  0.86778096323E+03 -0.10055217973E+03  0.14906426953E+04  0.12699999809E+01 0. -1.
</event>
<event>
 5   0  0.5730920E-06  0.2575072E+04  0.7818609E-02  0.8376718E-01
        1   -1    0    0  501    0  0.00000000000E+00  0.00000000000E+00  0.17787983984E+04  0.17787983984E+04  0.50400001928E-02 0.  1.
       -1   -1    0    0    0  501  0.00000000000E+00  0.00000000000E+00 -0.93194855903E+03  0.93194855904E+03  0.50400001928E-02 0. -1.
    10030    2    1    2    0    0  0.00000000000E+00  0.00000000000E+00  0.84684983936E+03  0.27107469574E+04  0.25750717304E+04 0.  0.
        1    1    3    3  502    0 -0.10433325305E+04 -0.78633161212E+02  0.12133075893E+04  0.16021364641E+04  0.50400001928E-02 0.  1.
       -1    1    3    3    0  502  0.10433325305E+04  0.78633161212E+02 -0.36645774997E+03  0.11086104933E+04  0.50400001928E-02 0. -1.
</event>
<event>
 5   0  0.1523029E-05  0.2895303E+04  0.7818609E-02  0.8274276E-01
       -2   -1    0    0    0  501  0.00000000000E+00  0.00000000000E+00  0.82358443740E+03  0.82358443741E+03  0.25500000920E-02 0. -1.
        2   -1    0    0  501    0  0.00000000000E+00  0.00000000000E+00 -0.25446016403E+04  0.25446016404E+04  0.25500000920E-02 0.  1.
    10030    2    1    2    0    0  0.00000000000E+00  0.00000000000E+00 -0.17210172029E+04  0.33681860778E+04  0.28953026166E+04 0.  0.
        5    1    3    3  502    0  0.73073481485E+03  0.91052721249E+03 -0.18562513307E+04  0.21928803585E+04  0.46999998093E+01 0.  1.
       -5    1    3    3    0  502 -0.73073481485E+03 -0.91052721249E+03  0.13523412772E+03  0.11753057192E+04  0.46999998093E+01 0. -1.
</event>
<event>
 5   0  0.5329891E-06  0.3018996E+04  0.7818609E-02  0.8238327E-01
       -1   -1    0    0    0  501  0.00000000000E+00  0.00000000000E+00  0.17577296296E+04  0.17577296296E+04  0.50400001928E-02 0.  1.
        1   -1    0    0  501    0  0.00000000000E+00  0.00000000000E+00 -0.12963226947E+04  0.12963226947E+04  0.50400001928E-02 0. -1.
    10030    2    1    2    0    0  0.00000000000E+00  0.00000000000E+00  0.46140693493E+03  0.30540523243E+04  0.30189963961E+04 0.  0.
        4    1    3    3  502    0 -0.57982522790E+03 -0.46752502063E+03  0.15588870425E+04  0.17276884453E+04  0.12699999809E+01 0.  1.
       -4    1    3    3    0  502  0.57982522790E+03  0.46752502063E+03 -0.10974801076E+04  0.13263638789E+04  0.12699999809E+01 0. -1.
</event>
<event>
 5   0  0.4806125E-06  0.2186436E+04  0.7818609E-02  0.8524095E-01
        4   -1    0    0  501    0  0.00000000000E+00  0.00000000000E+00  0.15405174438E+04  0.15405179673E+04  0.12699999809E+01 0.  1.
       -4   -1    0    0    0  501  0.00000000000E+00  0.00000000000E+00 -0.77579393601E+03  0.77579497552E+03  0.12699999809E+01 0. -1.
    10030    2    1    2    0    0  0.00000000000E+00  0.00000000000E+00  0.76472350779E+03  0.23163129428E+04  0.21864362798E+04 0.  0.
        2    1    3    3  502    0 -0.26854982551E+03  0.54102672406E+03 -0.58297121102E+03  0.83945479796E+03  0.25500000920E-02 0. -1.
       -2    1    3    3    0  502  0.26854982551E+03 -0.54102672406E+03  0.13476947188E+04  0.14768581449E+04  0.25500000920E-02 0.  1.
</event>
<event>
 5   0  0.1423692E-05  0.3010625E+04  0.7818609E-02  0.8240703E-01
       -2   -1    0    0    0  501  0.00000000000E+00  0.00000000000E+00  0.97775620095E+03  0.97775620095E+03  0.25500000920E-02 0.  1.
        2   -1    0    0  501    0  0.00000000000E+00  0.00000000000E+00 -0.23175153987E+04  0.23175153987E+04  0.25500000920E-02 0. -1.
    10030    2    1    2    0    0  0.00000000000E+00  0.00000000000E+00 -0.13397591977E+04  0.32952715996E+04  0.30106245544E+04 0.  0.
        3    1    3    3  502    0  0.30716257455E+03 -0.28909722583E+03 -0.22515060440E+04  0.22906779629E+04  0.10100000352E+00 0. -1.
       -3    1    3    3    0  502 -0.30716257455E+03  0.28909722583E+03  0.91174684626E+03  0.10045936368E+04  0.10100000352E+00 0.  1.
</event>
<event>
 5   0  0.1423692E-05  0.2995758E+04  0.7818609E-02  0.8244943E-01
        2   -1    0    0  501    0  0.00000000000E+00  0.00000000000E+00  0.23177094488E+04  0.23177094488E+04  0.25500000920E-02 0. -1.
       -2   -1    0    0    0  501  0.00000000000E+00  0.00000000000E+00 -0.96804281322E+03  0.96804281323E+03  0.25500000920E-02 0.  1.
    10030    2    1    2    0    0  0.00000000000E+00  0.00000000000E+00  0.13496666356E+04  0.32857522621E+04  0.29957583181E+04 0.  0.
        3    1    3    3  502    0  0.54218136090E+03 -0.11549520818E+04 -0.18583587116E+03  0.12893447641E+04  0.10100000352E+00 0.  1.
       -3    1    3    3    0  502 -0.54218136090E+03  0.11549520818E+04  0.15355025068E+04  0.19964074980E+04  0.10100000352E+00 0. -1.
</event>
<event>
 5   0  0.7032692E-06  0.2849098E+04  0.7818609E-02  0.8288186E-01
        1   -1    0    0  501    0  0.00000000000E+00  0.00000000000E+00  0.21092848259E+04  0.21092848259E+04  0.50400001928E-02 0. -1.
       -1   -1    0    0    0  501  0.00000000000E+00  0.00000000000E+00 -0.96209836632E+03  0.96209836633E+03  0.50400001928E-02 0.  1.
    10030    2    1    2    0    0  0.00000000000E+00  0.00000000000E+00  0.11471864596E+04  0.30713831923E+04  0.28490977415E+04 0.  0.
        5    1    3    3  502    0 -0.88520577767E+02 -0.39207189996E+03 -0.89969364940E+03  0.98540703275E+03  0.46999998093E+01 0.  1.
       -5    1    3    3    0  502  0.88520577767E+02  0.39207189996E+03  0.20468801090E+04  0.20859761595E+04  0.46999998093E+01 0. -1.
</event>
<event>
 5   0  0.1523029E-05  0.3005180E+04  0.7818609E-02  0.8242253E-01
       -2   -1    0    0    0  501  0.00000000000E+00  0.00000000000E+00  0.15291048197E+04  0.15291048197E+04  0.25500000920E-02 0.  1.
        2   -1    0    0  501    0  0.00000000000E+00  0.00000000000E+00 -0.14765352731E+04  0.14765352731E+04  0.25500000920E-02 0. -1.
    10030    2    1    2    0    0  0.00000000000E+00  0.00000000000E+00  0.52569546629E+02  0.30056400928E+04  0.30051803291E+04 0.  0.
        5    1    3    3  502    0 -0.59004397084E+03 -0.13655530249E+04 -0.18556869273E+03  0.14991146657E+04  0.46999998093E+01 0. -1.
       -5    1    3    3    0  502  0.59004397084E+03  0.13655530249E+04  0.23813823936E+03  0.15065254271E+04  0.46999998093E+01 0.  1.
</event>
<event>
 5   0  0.1423692E-05  0.2879357E+04  0.7818609E-02  0.8279046E-01
        2   -1    0    0  501    0  0.00000000000E+00  0.00000000000E+00  0.17039628097E+04  0.17039628097E+04  0.25500000920E-02 0.  1.
       -2   -1    0    0    0  501  0.00000000000E+00  0.00000000000E+00 -0.12163844101E+04  0.12163844101E+04  0.25500000920E-02 0. -1.
    10030    2    1    2    0    0  0.00000000000E+00  0.00000000000E+00  0.48757839957E+03  0.29203472198E+04  0.28793567317E+04 0.  0.
        3    1    3    3  502    0  0.18626288873E+03  0.13556997481E+04  0.69743521876E+03  0.15359139186E+04  0.10100000352E+00 0. -1.
       -3    1    3    3    0  502 -0.18626288873E+03 -0.13556997481E+04 -0.20985681919E+03  0.13844333012E+04  0.10100000352E+00 0.  1.
</event>
<event>
 5   0  0.5522695E-06  0.3054700E+04  0.7818609E-02  0.8228281E-01
       -1   -1    0    0    0  501  0.00000000000E+00  0.00000000000E+00  0.13804623649E+04  0.13804623649E+04  0.50400001928E-02 0.  1.
        1   -1    0    0  501    0  0.00000000000E+00  0.00000000000E+00 -0.16898675840E+04  0.16898675840E+04  0.50400001928E-02 0. -1.
    10030    2    1    2    0    0  0.00000000000E+00  0.00000000000E+00 -0.30940521904E+03  0.30703299489E+04  0.30547003790E+04 0.  0.
        3    1    3    3  502    0  0.34813358022E+03  0.11758488725E+04  0.76043989384E+03  0.14429436590E+04  0.10100000352E+00 0.  1.
       -3    1    3    3    0  502 -0.34813358022E+03 -0.11758488725E+04 -0.10698451129E+04  0.16273862899E+04  0.10100000352E+00 0. -1.
</event>
<event>
 5   0  0.5522695E-06  0.2769487E+04  0.7818609E-02  0.8312804E-01
       -1   -1    0    0    0  501  0.00000000000E+00  0.00000000000E+00  0.11907443532E+04  0.11907443532E+04  0.50400001928E-02 0. -1.
        1   -1    0    0  501    0  0.00000000000E+00  0.00000000000E+00 -0.16103496853E+04  0.16103496853E+04  0.50400001928E-02 0.  1.
    10030    2    1    2    0    0  0.00000000000E+00  0.00000000000E+00 -0.41960533207E+03  0.28010940385E+04  0.27694871687E+04 0.  0.
        3    1    3    3  502    0 -0.71256380885E+03 -0.90737129811E+03  0.56473394305E+03  0.12845210356E+04  0.10100000352E+00 0. -1.
       -3    1    3    3    0  502  0.71256380885E+03  0.90737129811E+03 -0.98433927511E+03  0.15165730029E+04  0.10100000352E+00 0.  1.
</event>
<event>
 5   0  0.5329891E-06  0.1880918E+04  0.7818609E-02  0.8664413E-01
        1   -1    0    0  501    0  0.00000000000E+00  0.00000000000E+00  0.11839001176E+04  0.11839001176E+04  0.50400001928E-02 0.  1.
       -1   -1    0    0    0  501  0.00000000000E+00  0.00000000000E+00 -0.74707616171E+03  0.74707616172E+03  0.50400001928E-02 0. -1.
    10030    2    1    2    0    0  0.00000000000E+00  0.00000000000E+00  0.43682395593E+03  0.19309762794E+04  0.18809184520E+04 0.  0.
        4    1    3    3  502    0  0.40699819960E+03  0.36679649233E+03 -0.56630947904E+03  0.78796906044E+03  0.12699999809E+01 0. -1.
       -4    1    3    3    0  502 -0.40699819960E+03 -0.36679649233E+03  0.10031334350E+04  0.11430072189E+04  0.12699999809E+01 0.  1.
</event>
<event>
 5   0  0.1480547E-05  0.2964346E+04  0.7818609E-02  0.8253986E-01
        2   -1    0    0  501    0  0.00000000000E+00  0.00000000000E+00  0.27395191327E+04  0.27395191327E+04  0.25500000920E-02 0. -1.
       -2   -1    0    0    0  501  0.00000000000E+00  0.00000000000E+00 -0.80190575584E+03  0.80190575585E+03  0.25500000920E-02 0.  1.
    10030    2    1    2    0    0  0.00000000000E+00  0.00000000000E+00  0.19376133769E+04  0.35414248886E+04  0.29643455674E+04 0.  0.
        1    1    3    3  502    0 -0.33154202525E+03 -0.26926654383E+03 -0.72679292638E+03  0.84300210201E+03  0.50400001928E-02 0.  1.
       -1    1    3    3    0  502  0.33154202525E+03  0.26926654383E+03  0.26644063032E+04  0.26984227865E+04  0.50400001928E-02 0. -1.
</event>
<event>
 5   0  0.1523029E-05  0.1971427E+04  0.7818609E-02  0.8620097E-01
       -2   -1    0    0    0  501  0.00000000000E+00  0.00000000000E+00  0.92711840030E+03  0.92711840030E+03  0.25500000920E-02 0.  1.
        2   -1    0    0  501    0  0.00000000000E+00  0.00000000000E+00 -0.10480119121E+04  0.10480119121E+04  0.25500000920E-02 0. -1.
    10030    2    1    2    0    0  0.00000000000E+00  0.00000000000E+00 -0.12089351176E+03  0.19751303124E+04  0.19714270237E+04 0.  0.
        5    1    3    3  502    0 -0.45837062610E+03 -0.47589124089E+03  0.67238673135E+03  0.94270998220E+03  0.46999998093E+01 0.  1.
       -5    1    3    3    0  502  0.45837062610E+03  0.47589124089E+03 -0.79328024311E+03  0.10324203302E+04  0.46999998093E+01 0. -1.
</event>
<event>
 5   0  0.1345931E-05  0.2910891E+04  0.7818609E-02  0.8269644E-01
        2   -1    0    0  501    0  0.00000000000E+00  0.00000000000E+00  0.14452226753E+04  0.14452226753E+04  0.25500000920E-02 0. -1.
       -2   -1    0    0    0  501  0.00000000000E+00  0.00000000000E+00 -0.14657406916E+04  0.14657406916E+04  0.25500000920E-02 0.  1.
    10030    2    1    2    0    0  0.00000000000E+00  0.00000000000E+00 -0.20518016352E+02  0.29109633669E+04  0.29108910551E+04 0.  0.
        2    1    3    3  502    0  0.54969542674E+03 -0.57710666878E+03  0.12075990300E+04  0.14468975730E+04  0.25500000920E-02 0. -1.
       -2    1    3    3    0  502 -0.54969542674E+03  0.57710666878E+03 -0.12281170464E+04  0.14640657939E+04  0.25500000920E-02 0.  1.
</event>
<event>
 5   0  0.1423692E-05  0.2692260E+04  0.7818609E-02  0.8337521E-01
        2   -1    0    0  501    0  0.00000000000E+00  0.00000000000E+00  0.93942136842E+03  0.93942136842E+03  0.25500000920E-02 0.  1.
       -2   -1    0    0    0  501  0.00000000000E+00  0.00000000000E+00 -0.19289174366E+04  0.19289174366E+04  0.25500000920E-02 0. -1.
    10030    2    1    2    0    0  0.00000000000E+00  0.00000000000E+00 -0.98949606822E+03  0.28683388051E+04  0.26922602087E+04 0.  0.
        3    1    3    3  502    0  0.81888629222E+02 -0.48003225421E+03 -0.18317867397E+04  0.18954100830E+04  0.10100000352E+00 0. -1.
       -3    1    3    3    0  502 -0.81888629222E+02  0.48003225421E+03  0.84229067152E+03  0.97292872206E+03  0.10100000352E+00 0.  1.
</event>
<event>
 5   0  0.5392262E-06  0.2990932E+04  0.7818609E-02  0.8246325E-01
        1   -1    0    0  501    0  0.00000000000E+00  0.00000000000E+00  0.20226929611E+04  0.20226929611E+04  0.50400001928E-02 0. -1.
       -1   -1    0    0    0  501  0.00000000000E+00  0.00000000000E+00 -0.11056638711E+04  0.11056638711E+04  0.50400001928E-02 0.  1.
    10030    2    1    2    0    0  0.00000000000E+00  0.00000000000E+00  0.91702909005E+03  0.31283568322E+04  0.29909319815E+04 0.  0.
        2    1    3    3  502    0  0.23943009135E+03  0.10777611834E+04  0.15135857691E+04  0.18734561157E+04  0.25500000920E-02 0. -1.
       -2    1    3    3    0  502 -0.23943009135E+03 -0.10777611834E+04 -0.59655667900E+03  0.12549007165E+04  0.25500000920E-02 0.  1.
</event>
<event>
 5   0  0.5730920E-06  0.1487798E+04  0.7818609E-02  0.8892608E-01
       -1   -1    0    0    0  501  0.00000000000E+00  0.00000000000E+00  0.70689555200E+03  0.70689555202E+03  0.50400001928E-02 0. -1.
        1   -1    0    0  501    0  0.00000000000E+00  0.00000000000E+00 -0.78283935842E+03  0.78283935844E+03  0.50400001928E-02 0.  1.
    10030    2    1    2    0    0  0.00000000000E+00  0.00000000000E+00 -0.75943806425E+02  0.14897349105E+04  0.14877979170E+04 0.  0.
        1    1    3    3  502    0  0.26092197034E+03  0.20832208513E+03  0.62765464324E+03  0.71093510039E+03  0.50400001928E-02 0. -1.
       -1    1    3    3    0  502 -0.26092197034E+03 -0.20832208513E+03 -0.70359844967E+03  0.77879981006E+03  0.50400001928E-02 0.  1.
</event>
<event>
 5   0  0.1423692E-05  0.3050992E+04  0.7818609E-02  0.8229318E-01
       -2   -1    0    0    0  501  0.00000000000E+00  0.00000000000E+00  0.22762684537E+04  0.22762684537E+04  0.25500000920E-02 0.  1.
        2   -1    0    0  501    0  0.00000000000E+00  0.00000000000E+00 -0.10223478971E+04  0.10223478971E+04  0.25500000920E-02 0. -1.
    10030    2    1    2    0    0  0.00000000000E+00  0.00000000000E+00  0.12539205566E+04  0.32986163508E+04  0.30509921448E+04 0.  0.
        3    1    3    3  502    0 -0.11714839539E+04  0.88442503023E+03  0.17784719112E+03  0.14785844318E+04  0.10100000352E+00 0. -1.
       -3    1    3    3    0  502  0.11714839539E+04 -0.88442503023E+03  0.10760733655E+04  0.18200319191E+04  0.10100000352E+00 0.  1.
</event>
<event>
 5   0  0.1523029E-05  0.1676530E+04  0.7818609E-02  0.8774864E-01
        2   -1    0    0  501    0  0.00000000000E+00  0.00000000000E+00  0.11310149998E+04  0.11310149998E+04  0.25500000920E-02 0. -1.
       -2   -1    0    0    0  501  0.00000000000E+00  0.00000000000E+00 -0.62128996066E+03  0.62128996067E+03  0.25500000920E-02 0.  1.
    10030    2    1    2    0    0  0.00000000000E+00  0.00000000000E+00  0.50972503916E+03  0.17523049605E+04  0.16765300650E+04 0.  0.
        5    1    3    3  502    0 -0.74037108471E+03  0.10773039338E+03  0.64998447676E+03  0.99108884100E+03  0.46999998093E+01 0. -1.
       -5    1    3    3    0  502  0.74037108471E+03 -0.10773039338E+03 -0.14025943760E+03  0.76121611949E+03  0.46999998093E+01 0.  1.
</event>
<event>
 5   0  0.5522695E-06  0.2991901E+04  0.7818609E-02  0.8246048E-01
        1   -1    0    0  501    0  0.00000000000E+00  0.00000000000E+00  0.84437192821E+03  0.84437192823E+03  0.50400001928E-02 0. -1.
       -1   -1    0    0    0  501  0.00000000000E+00  0.00000000000E+00 -0.26503335152E+04  0.26503335152E+04  0.50400001928E-02 0.  1.
    10030    2    1    2    0    0  0.00000000000E+00  0.00000000000E+00 -0.18059615869E+04  0.34947054434E+04  0.29919005469E+04 0.  0.
        3    1    3    3  502    0  0.56461891028E+03  0.89045581989E+03 -0.21425297665E+04  0.23879153862E+04  0.10100000352E+00 0.  1.
       -3    1    3    3    0  502 -0.56461891028E+03 -0.89045581989E+03  0.33656817957E+03  0.11067900572E+04  0.10100000352E+00 0. -1.
</event>
<event>
 5   0  0.5392262E-06  0.1680252E+04  0.7818609E-02  0.8772708E-01
        1   -1    0    0  501    0  0.00000000000E+00  0.00000000000E+00  0.24858499416E+04  0.24858499416E+04  0.50400001928E-02 0. -1.
       -1   -1    0    0    0  501  0.00000000000E+00  0.00000000000E+00 -0.28393174368E+03  0.28393174372E+03  0.50400001928E-02 0.  1.
    10030    2    1    2    0    0  0.00000000000E+00  0.00000000000E+00  0.22019181979E+04  0.27697816853E+04  0.16802520150E+04 0.  0.
        2    1    3    3  502    0 -0.54041590659E+03 -0.43791236843E+03  0.32427784644E+03  0.76744557867E+03  0.25500000920E-02 0.  1.
       -2    1    3    3    0  502  0.54041590659E+03  0.43791236843E+03  0.18776403515E+04  0.20023361067E+04  0.25500000920E-02 0. -1.
</event>
<event>
 5   0  0.5392262E-06  0.2945851E+04  0.7818609E-02  0.8259365E-01
        1   -1    0    0  501    0  0.00000000000E+00  0.00000000000E+00  0.26082277168E+04  0.26082277168E+04  0.50400001928E-02 0. -1.
       -1   -1    0    0    0  501  0.00000000000E+00  0.00000000000E+00 -0.83179467190E+03  0.83179467191E+03  0.50400001928E-02 0.  1.
    10030    2    1    2    0    0  0.00000000000E+00  0.00000000000E+00  0.17764330449E+04  0.34400223887E+04  0.29458512644E+04 0.  0.
        2    1    3    3  502    0 -0.10002100165E+04  0.56135150334E+03  0.19673442752E+04  0.22772744860E+04  0.25500000920E-02 0. -1.
       -2    1    3    3    0  502  0.10002100165E+04 -0.56135150334E+03 -0.19091123030E+03  0.11627479027E+04  0.25500000920E-02 0.  1.
</event>
<event>
 5   0  0.1388724E-05  0.2909617E+04  0.7818609E-02  0.8270022E-01
       -2   -1    0    0    0  501  0.00000000000E+00  0.00000000000E+00  0.18549787176E+04  0.18549787176E+04  0.25500000920E-02 0. -1.
        2   -1    0    0  501    0  0.00000000000E+00  0.00000000000E+00 -0.11409662927E+04  0.11409662927E+04  0.25500000920E-02 0.  1.
    10030    2    1    2    0    0  0.00000000000E+00  0.00000000000E+00  0.71401242484E+03  0.29959450103E+04  0.29096172879E+04 0.  0.
        4    1    3    3  502    0 -0.11943205069E+04  0.81550670844E+03  0.51985659620E+03  0.15367840311E+04  0.12699999809E+01 0. -1.
       -4    1    3    3    0  502  0.11943205069E+04 -0.81550670844E+03  0.19415582864E+03  0.14591609792E+04  0.12699999809E+01 0.  1.
</event>
<event>
 5   0  0.7212855E-06  0.1625593E+04  0.7818609E-02  0.8804978E-01
       -1   -1    0    0    0  501  0.00000000000E+00  0.00000000000E+00  0.72880367919E+03  0.72880367921E+03  0.50400001928E-02 0.  1.
        1   -1    0    0  501    0  0.00000000000E+00  0.00000000000E+00 -0.90646938954E+03  0.90646938956E+03  0.50400001928E-02 0. -1.
    10030    2    1    2    0    0  0.00000000000E+00  0.00000000000E+00 -0.17766571035E+03  0.16352730688E+04  0.16255930932E+04 0.  0.
        5    1    3    3  502    0  0.44840374923E+03  0.55113478546E+03  0.30823349929E+03  0.77449690390E+03  0.46999998093E+01 0.  1.
       -5    1    3    3    0  502 -0.44840374923E+03 -0.55113478546E+03 -0.48589920965E+03  0.86077616486E+03  0.46999998093E+01 0. -1.
</event>
<event>
 5   0  0.1523029E-05  0.2955655E+04  0.7818609E-02  0.8256508E-01
       -2   -1    0    0    0  501  0.00000000000E+00  0.00000000000E+00  0.11017607599E+04  0.11017607599E+04  0.25500000920E-02 0.  1.
        2   -1    0    0  501    0  0.00000000000E+00  0.00000000000E+00 -0.19822585718E+04  0.19822585718E+04  0.25500000920E-02 0. -1.
    10030    2    1    2    0    0  0.00000000000E+00  0.00000000000E+00 -0.88049781195E+03  0.30840193317E+04  0.29556553997E+04 0.  0.
        5    1    3    3  502    0  0.13892456231E+04 -0.45714230089E+03 -0.21897744998E+03  0.14788359267E+04  0.46999998093E+01 0. -1.
       -5    1    3    3    0  502 -0.13892456231E+04  0.45714230089E+03 -0.66152036197E+03  0.16051834050E+04  0.46999998093E+01 0.  1.
</event>
<event>
 5   0  0.5392262E-06  0.2703379E+04  0.7818609E-02  0.8333909E-01
        1   -1    0    0  501    0  0.00000000000E+00  0.00000000000E+00  0.16655723551E+04  0.16655723551E+04  0.50400001928E-02 0. -1.
       -1   -1    0    0    0  501  0.00000000000E+00  0.00000000000E+00 -0.10969593557E+04  0.10969593557E+04  0.50400001928E-02 0.  1.
    10030    2    1    2    0    0  0.00000000000E+00  0.00000000000E+00  0.56861299934E+03  0.27625317108E+04  0.27033794980E+04 0.  0.
        2    1    3    3  502    0  0.54875239021E+03  0.72572805794E+03  0.13058065040E+04  0.15915216070E+04  0.25500000920E-02 0. -1.
       -2    1    3    3    0  502 -0.54875239021E+03 -0.72572805794E+03 -0.73719350464E+03  0.11710101038E+04  0.25500000920E-02 0.  1.
</event>
<event>
 5   0  0.1480547E-05  0.2185699E+04  0.7818609E-02  0.8524404E-01
       -2   -1    0    0    0  501  0.00000000000E+00  0.00000000000E+00  0.86405255647E+03  0.86405255648E+03  0.25500000920E-02 0.  1.
        2   -1    0    0  501    0  0.00000000000E+00  0.00000000000E+00 -0.13822312120E+04  0.13822312120E+04  0.25500000920E-02 0. -1.
    10030    2    1    2    0    0  0.00000000000E+00  0.00000000000E+00 -0.51817865554E+03  0.22462837685E+04  0.21856993502E+04 0.  0.
        1    1    3    3  502    0  0.19106181352E+03  0.58868487503E+03 -0.11847585207E+04  0.13366776915E+04  0.50400001928E-02 0.  1.
       -1    1    3    3    0  502 -0.19106181352E+03 -0.58868487503E+03  0.66657986512E+03  0.90960607698E+03  0.50400001928E-02 0. -1.
</event>
<event>
 5   0  0.7032692E-06  0.3031632E+04  0.7818609E-02  0.8234755E-01
       -1   -1    0    0    0  501  0.00000000000E+00  0.00000000000E+00  0.91145224934E+03  0.91145224935E+03  0.50400001928E-02 0.  1.
        1   -1    0    0  501    0  0.00000000000E+00  0.00000000000E+00 -0.25209204109E+04  0.25209204109E+04  0.50400001928E-02 0. -1.
    10030    2    1    2    0    0  0.00000000000E+00  0.00000000000E+00 -0.16094681616E+04  0.34323726603E+04  0.30316322857E+04 0.  0.
        5    1    3    3  502    0  0.11702657985E+04 -0.94812952125E+03 -0.99821826928E+03  0.18069126795E+04  0.46999998093E+01 0. -1.
       -5    1    3    3    0  502 -0.11702657985E+04  0.94812952125E+03 -0.61124989232E+03  0.16254599808E+04  0.46999998093E+01 0.  1.
</event>
<event>
 5   0  0.5392262E-06  0.3009489E+04  0.7818609E-02  0.8241026E-01
       -1   -1    0    0    0  501  0.00000000000E+00  0.00000000000E+00  0.11418122172E+04  0.11418122172E+04  0.50400001928E-02 0. -1.
        1   -1    0    0  501    0  0.00000000000E+00  0.00000000000E+00 -0.19830370674E+04  0.19830370674E+04  0.50400001928E-02 0.  1.
    10030    2    1    2    0    0  0.00000000000E+00  0.00000000000E+00 -0.84122485012E+03  0.31248492846E+04  0.30094889604E+04 0.  0.
        2    1    3    3  502    0 -0.13807452028E+04 -0.48420792746E+03 -0.78527451345E+03  0.16605934763E+04  0.25500000920E-02 0.  1.
       -2    1    3    3    0  502  0.13807452028E+04  0.48420792746E+03 -0.55950336665E+02  0.14642558083E+04  0.25500000920E-02 0. -1.
</event>
<event>
 5   0  0.1345931E-05  0.3063781E+04  0.7818609E-02  0.8225749E-01
       -2   -1    0    0    0  501  0.00000000000E+00  0.00000000000E+00  0.12382509178E+04  0.12382509178E+04  0.25500000920E-02 0. -1.
        2   -1    0    0  501    0  0.00000000000E+00  0.00000000000E+00 -0.18951641835E+04  0.18951641835E+04  0.25500000920E-02 0.  1.
    10030    2    1    2    0    0  0.00000000000E+00  0.00000000000E+00 -0.65691326574E+03  0.31334151013E+04  0.30637811864E+04 0.  0.
        2    1    3    3  502    0  0.32003776189E+03  0.99081489735E+03 -0.14776273724E+04  0.18076285519E+04  0.25500000920E-02 0.  1.
       -2    1    3    3    0  502 -0.32003776189E+03 -0.99081489735E+03  0.82071410664E+03  0.13257865494E+04  0.25500000920E-02 0. -1.
</event>
<event>
 5   0  0.1345931E-05  0.2024284E+04  0.7818609E-02  0.8595350E-01
        2   -1    0    0  501    0  0.00000000000E+00  0.00000000000E+00  0.10958558282E+04  0.10958558282E+04  0.25500000920E-02 0.  1.
       -2   -1    0    0    0  501  0.00000000000E+00  0.00000000000E+00 -0.93482337582E+03  0.93482337583E+03  0.25500000920E-02 0. -1.
    10030    2    1    2    0    0  0.00000000000E+00  0.00000000000E+00  0.16103245241E+03  0.20306792041E+04  0.20242842140E+04 0.  0.
        2    1    3    3  502    0  0.73099955734E+03 -0.30272655013E+03 -0.55268933325E+03  0.96512652854E+03  0.25500000920E-02 0.  1.
       -2    1    3    3    0  502 -0.73099955734E+03  0.30272655013E+03  0.71372178566E+03  0.10655526755E+04  0.25500000920E-02 0. -1.
</event>
<event>
 5   0  0.1388724E-05  0.3172317E+04  0.7818609E-02  0.8196167E-01
       -2   -1    0    0    0  501  0.00000000000E+00  0.00000000000E+00  0.11101055002E+04  0.11101055002E+04  0.25500000920E-02 0.  1.
        2   -1    0    0  501    0  0.00000000000E+00  0.00000000000E+00 -0.22663596633E+04  0.22663596633E+04  0.25500000920E-02 0. -1.
    10030    2    1    2    0    0  0.00000000000E+00  0.00000000000E+00 -0.11562541631E+04  0.33764651635E+04  0.31723167103E+04 0.  0.
        4    1    3    3  502    0 -0.41905405465E+02  0.22022731560E+03  0.10931583176E+04  0.11159089809E+04  0.12699999809E+01 0.  1.
       -4    1    3    3    0  502  0.41905405465E+02 -0.22022731560E+03 -0.22494124807E+04  0.22605561826E+04  0.12699999809E+01 0. -1.
</event>
<event>
 5   0  0.1345931E-05  0.1542109E+04  0.7818609E-02  0.8856924E-01
       -2   -1    0    0    0  501  0.00000000000E+00  0.00000000000E+00  0.17042119490E+04  0.17042119490E+04  0.25500000920E-02 0.  1.
        2   -1    0    0  501    0  0.00000000000E+00  0.00000000000E+00 -0.34885607366E+03  0.34885607367E+03  0.25500000920E-02 0. -1.
    10030    2    1    2    0    0  0.00000000000E+00  0.00000000000E+00  0.13553558754E+04  0.20530680227E+04  0.15421085425E+04 0.  0.
        2    1    3    3  502    0  0.37467828300E+03 -0.23386699534E+03  0.15191080171E+04  0.15820135129E+04  0.25500000920E-02 0.  1.
       -2    1    3    3    0  502 -0.37467828300E+03  0.23386699534E+03 -0.16375214176E+03  0.47105450980E+03  0.25500000920E-02 0. -1.
</event>
<event>
 5   0  0.1345931E-05  0.2983886E+04  0.7818609E-02  0.8248347E-01
        2   -1    0    0  501    0  0.00000000000E+00  0.00000000000E+00  0.24673179719E+04  0.24673179719E+04  0.25500000920E-02 0.  1.
       -2   -1    0    0    0  501  0.00000000000E+00  0.00000000000E+00 -0.90215134046E+03  0.90215134046E+03  0.25500000920E-02 0. -1.
    10030    2    1    2    0    0  0.00000000000E+00  0.00000000000E+00  0.15651666314E+04  0.33694693123E+04  0.29838862014E+04 0.  0.
        2    1    3    3  502    0 -0.53962942353E+02  0.12927487628E+04 -0.56226201442E+02  0.12950956523E+04  0.25500000920E-02 0. -1.
       -2    1    3    3    0  502  0.53962942353E+02 -0.12927487628E+04  0.16213928329E+04  0.20743736600E+04  0.25500000920E-02 0.  1.
</event>
<event>
 5   0  0.1423692E-05  0.3164261E+04  0.7818609E-02  0.8198320E-01
       -2   -1    0    0    0  501  0.00000000000E+00  0.00000000000E+00  0.94261998463E+03  0.94261998464E+03  0.25500000920E-02 0.  1.
        2   -1    0    0  501    0  0.00000000000E+00  0.00000000000E+00 -0.26555100460E+04  0.26555100460E+04  0.25500000920E-02 0. -1.
    10030    2    1    2    0    0  0.00000000000E+00  0.00000000000E+00 -0.17128900613E+04  0.35981300306E+04  0.31642609492E+04 0.  0.
        3    1    3    3  502    0  0.79949130495E+03  0.11625290759E+04 -0.42412810573E+02  0.14115449180E+04  0.10100000352E+00 0.  1.
       -3    1    3    3    0  502 -0.79949130495E+03 -0.11625290759E+04 -0.16704772508E+04  0.21865851126E+04  0.10100000352E+00 0. -1.
</event>
<event>
 5   0  0.5329891E-06  0.2486370E+04  0.7818609E-02  0.8407858E-01
        1   -1    0    0  501    0  0.00000000000E+00  0.00000000000E+00  0.12510930381E+04  0.12510930381E+04  0.50400001928E-02 0.  1.
       -1   -1    0    0    0  501  0.00000000000E+00  0.00000000000E+00 -0.12353266339E+04  0.12353266339E+04  0.50400001928E-02 0. -1.
    10030    2    1    2    0    0  0.00000000000E+00  0.00000000000E+00  0.15766404223E+02  0.24864196720E+04  0.24863696841E+04 0.  0.
        4    1    3    3  502    0 -0.42385671239E+03  0.62255251938E+03  0.99698386595E+03  0.12494817301E+04  0.12699999809E+01 0.  1.
       -4    1    3    3    0  502  0.42385671239E+03 -0.62255251938E+03 -0.98121746173E+03  0.12369379419E+04  0.12699999809E+01 0. -1.
</event>
<event>
 5   0  0.5730920E-06  0.2923574E+04  0.7818609E-02  0.8265898E-01
       -1   -1    0    0    0  501  0.00000000000E+00  0.00000000000E+00  0.15990567757E+04  0.15990567757E+04  0.50400001928E-02 0. -1.
        1   -1    0    0  501    0  0.00000000000E+00  0.00000000000E+00 -0.13363010968E+04  0.13363010968E+04  0.50400001928E-02 0.  1.
    10030    2    1    2    0    0  0.00000000000E+00  0.00000000000E+00  0.26275567890E+03  0.29353578724E+04  0.29235740614E+04 0.  0.
        1    1    3    3  502    0 -0.45871446559E+03  0.13845361545E+04  0.33712963006E+02  0.14589365607E+04  0.50400001928E-02 0. -1.
       -1    1    3    3    0  502  0.45871446559E+03 -0.13845361545E+04  0.22904271589E+03  0.14764213118E+04  0.50400001928E-02 0.  1.
</event>
<event>
 5   0  0.5522695E-06  0.2862188E+04  0.7818609E-02  0.8284217E-01
       -1   -1    0    0    0  501  0.00000000000E+00  0.00000000000E+00  0.96675812513E+03  0.96675812514E+03  0.50400001928E-02 0.  1.
        1   -1    0    0  501    0  0.00000000000E+00  0.00000000000E+00 -0.21184518637E+04  0.21184518637E+04  0.50400001928E-02 0. -1.
    10030    2    1    2    0    0  0.00000000000E+00  0.00000000000E+00 -0.11516937386E+04  0.30852099889E+04  0.28621883600E+04 0.  0.
        3    1    3    3  502    0  0.30908174196E+03 -0.13809562255E+03  0.92297695889E+03  0.98310141950E+03  0.10100000352E+00 0.  1.
       -3    1    3    3    0  502 -0.30908174196E+03  0.13809562255E+03 -0.20746706975E+04  0.21021085694E+04  0.10100000352E+00 0. -1.
</event>
<event>
 5   0  0.5392262E-06  0.3027741E+04  0.7818609E-02  0.8235853E-01
       -1   -1    0    0    0  501  0.00000000000E+00  0.00000000000E+00  0.14122088759E+04  0.14122088759E+04  0.50400001928E-02 0. -1.
        1   -1    0    0  501    0  0.00000000000E+00  0.00000000000E+00 -0.16228500159E+04  0.16228500160E+04  0.50400001928E-02 0.  1.
    10030    2    1    2    0    0  0.00000000000E+00  0.00000000000E+00 -0.21064114009E+03  0.30350588918E+04  0.30277405415E+04 0.  0.
        2    1    3    3  502    0  0.73760371668E+03 -0.24903081156E+03 -0.14068145578E+04  0.16078565819E+04  0.25500000920E-02 0.  1.
       -2    1    3    3    0  502 -0.73760371668E+03  0.24903081156E+03  0.11961734177E+04  0.14272023099E+04  0.25500000920E-02 0. -1.
</event>
<event>
 5   0  0.5730920E-06  0.2943631E+04  0.7818609E-02  0.8260013E-01
       -1   -1    0    0    0  501  0.00000000000E+00  0.00000000000E+00  0.15577070442E+04  0.15577070442E+04  0.50400001928E-02 0.  1.
        1   -1    0    0  501    0  0.00000000000E+00  0.00000000000E+00 -0.13906601052E+04  0.13906601052E+04  0.50400001928E-02 0. -1.
    10030    2    1    2    0    0  0.00000000000E+00  0.00000000000E+00  0.16704693894E+03  0.29483671494E+04  0.29436311195E+04 0.  0.
        1    1    3    3  502    0 -0.91078679493E+03 -0.27073316161E+03 -0.10423009874E+04  0.14103972415E+04  0.50400001928E-02 0. -1.
       -1    1    3    3    0  502  0.91078679493E+03  0.27073316161E+03  0.12093479263E+04  0.15379699079E+04  0.50400001928E-02 0.  1.
</event>
<event>
 5   0  0.1388724E-05  0.2937473E+04  0.7818609E-02  0.8261815E-01
        2   -1    0    0  501    0  0.00000000000E+00  0.00000000000E+00  0.14081421523E+04  0.14081421523E+04  0.25500000920E-02 0.  1.
       -2   -1    0    0    0  501  0.00000000000E+00  0.00000000000E+00 -0.15319387755E+04  0.15319387755E+04  0.25500000920E-02 0. -1.
    10030    2    1    2    0    0  0.00000000000E+00  0.00000000000E+00 -0.12379662314E+03  0.29400809278E+04  0.29374734481E+04 0.  0.
        4    1    3    3  502    0 -0.28912055303E+03  0.51937201383E+03  0.12823679567E+04  0.14134380680E+04  0.12699999809E+01 0.  1.
       -4    1    3    3    0  502  0.28912055303E+03 -0.51937201383E+03 -0.14061645798E+04  0.15266428598E+04  0.12699999809E+01 0. -1.
</event>
<event>
 5   0  0.1388724E-05  0.2906041E+04  0.7818609E-02  0.8271082E-01
       -2   -1    0    0    0  501  0.00000000000E+00  0.00000000000E+00  0.31475158950E+04  0.31475158950E+04  0.25500000920E-02 0. -1.
        2   -1    0    0  501    0  0.00000000000E+00  0.00000000000E+00 -0.67077283962E+03  0.67077283963E+03  0.25500000920E-02 0.  1.
    10030    2    1    2    0    0  0.00000000000E+00  0.00000000000E+00  0.24767430553E+04  0.38182887346E+04  0.29060407255E+04 0.  0.
        4    1    3    3  502    0  0.29792106249E+03  0.52972496841E+02  0.31056576982E+04  0.31203644652E+04  0.12699999809E+01 0. -1.
       -4    1    3    3    0  502 -0.29792106249E+03 -0.52972496841E+02 -0.62891464282E+03  0.69792426935E+03  0.12699999809E+01 0.  1.
</event>
<event>
 5   0  0.1345931E-05  0.2986079E+04  0.7818609E-02  0.8247717E-01
       -2   -1    0    0    0  501  0.00000000000E+00  0.00000000000E+00  0.12463517786E+04  0.12463517786E+04  0.25500000920E-02 0. -1.
        2   -1    0    0  501    0  0.00000000000E+00  0.00000000000E+00 -0.17885533791E+04  0.17885533791E+04  0.25500000920E-02 0.  1.
    10030    2    1    2    0    0  0.00000000000E+00  0.00000000000E+00 -0.54220160057E+03  0.30349051577E+04  0.29860788236E+04 0.  0.
        2    1    3    3  502    0  0.12402782947E+04 -0.79473883317E+03 -0.23672740361E+02  0.14732482683E+04  0.25500000920E-02 0.  1.
       -2    1    3    3    0  502 -0.12402782947E+04  0.79473883317E+03 -0.51852886021E+03  0.15616568894E+04  0.25500000920E-02 0. -1.
</event>
<event>
 5   0  0.4806125E-06  0.2764698E+04  0.7818609E-02  0.8314313E-01
        3   -1    0    0  501    0  0.00000000000E+00  0.00000000000E+00  0.10011010120E+04  0.10011010171E+04  0.10100000352E+00 0.  1.
       -3   -1    0    0    0  501  0.00000000000E+00  0.00000000000E+00 -0.19087873387E+04  0.19087873413E+04  0.10100000352E+00 0. -1.
    10030    2    1    2    0    0  0.00000000000E+00  0.00000000000E+00 -0.90768632669E+03  0.29098883584E+04  0.27646981374E+04 0.  0.
        5    1    3    3  502    0  0.94336249717E+03 -0.97791054887E+03 -0.18627838967E+03  0.13714822533E+04  0.46999998093E+01 0.  1.
       -5    1    3    3    0  502 -0.94336249717E+03  0.97791054887E+03 -0.72140793702E+03  0.15384061051E+04  0.46999998093E+01 0. -1.
</event>
<event>
 5   0  0.5329891E-06  0.2559352E+04  0.7818609E-02  0.8382141E-01
       -1   -1    0    0    0  501  0.00000000000E+00  0.00000000000E+00  0.13140274235E+04  0.13140274235E+04  0.50400001928E-02 0. -1.
        1   -1    0    0  501    0  0.00000000000E+00  0.00000000000E+00 -0.12462223499E+04  0.12462223500E+04  0.50400001928E-02 0.  1.
    10030    2    1    2    0    0  0.00000000000E+00  0.00000000000E+00  0.67805073558E+02  0.25602497735E+04  0.25593517489E+04 0.  0.
        4    1    3    3  502    0  0.12193545060E+04 -0.28541267293E+03 -0.22940631982E+03  0.12731514748E+04  0.12699999809E+01 0.  1.
       -4    1    3    3    0  502 -0.12193545060E+04  0.28541267293E+03  0.29721139338E+03  0.12870982987E+04  0.12699999809E+01 0. -1.
</event>
<event>
 5   0  0.5522695E-06  0.2937897E+04  0.7818609E-02  0.8261691E-01
       -1   -1    0    0    0  501  0.00000000000E+00  0.00000000000E+00  0.18292901922E+04  0.18292901922E+04  0.50400001928E-02 0.  1.
        1   -1    0    0  501    0  0.00000000000E+00  0.00000000000E+00 -0.11795882150E+04  0.11795882150E+04  0.50400001928E-02 0. -1.
    10030    2    1    2    0    0  0.00000000000E+00  0.00000000000E+00  0.64970197717E+03  0.30088784072E+04  0.29378966302E+04 0.  0.
        3    1    3    3  502    0  0.93437278637E+03  0.11266366855E+04  0.45213738936E+03  0.15319239388E+04  0.10100000352E+00 0. -1.
       -3    1    3    3    0  502 -0.93437278637E+03 -0.11266366855E+04  0.19756458781E+03  0.14769544684E+04  0.10100000352E+00 0.  1.
</event>
<event>
 5   0  0.5329891E-06  0.1546555E+04  0.7818609E-02  0.8854071E-01
       -1   -1    0    0    0  501  0.00000000000E+00  0.00000000000E+00  0.98550714877E+03  0.98550714878E+03  0.50400001928E-02 0. -1.
        1   -1    0    0  501    0  0.00000000000E+00  0.00000000000E+00 -0.60675150232E+03  0.60675150234E+03  0.50400001928E-02 0.  1.
    10030    2    1    2    0    0  0.00000000000E+00  0.00000000000E+00  0.37875564645E+03  0.15922586511E+04  0.15465548074E+04 0.  0.
        4    1    3    3  502    0 -0.57644089032E+03 -0.31895754231E+03  0.60623620394E+03  0.89528875883E+03  0.12699999809E+01 0.  1.
       -4    1    3    3    0  502  0.57644089032E+03  0.31895754231E+03 -0.22748055749E+03  0.69696989229E+03  0.12699999809E+01 0. -1.
</event>
<event>
 5   0  0.5329891E-06  0.3005814E+04  0.7818609E-02  0.8242073E-01
        1   -1    0    0  501    0  0.00000000000E+00  0.00000000000E+00  0.19713919087E+04  0.19713919087E+04  0.50400001928E-02 0.  1.
       -1   -1    0    0    0  501  0.00000000000E+00  0.00000000000E+00 -0.11457539044E+04  0.11457539044E+04  0.50400001928E-02 0. -1.
    10030    2    1    2    0    0  0.00000000000E+00  0.00000000000E+00  0.82563800430E+03  0.31171458131E+04  0.30058143499E+04 0.  0.
        4    1    3    3  502    0 -0.30885408777E+03 -0.39036585311E+03 -0.10577852543E+04  0.11690541493E+04  0.12699999809E+01 0. -1.
       -4    1    3    3    0  502  0.30885408777E+03  0.39036585311E+03  0.18834232586E+04  0.19480916638E+04  0.12699999809E+01 0.  1.
</event>
<event>
 5   0  0.1480547E-05  0.3138463E+04  0.7818609E-02  0.8205261E-01
        2   -1    0    0  501    0  0.00000000000E+00  0.00000000000E+00  0.23708016083E+04  0.23708016083E+04  0.25500000920E-02 0. -1.
       -2   -1    0    0    0  501  0.00000000000E+00  0.00000000000E+00 -0.10386728069E+04  0.10386728069E+04  0.25500000920E-02 0.  1.
    10030    2    1    2    0    0  0.00000000000E+00  0.00000000000E+00  0.13321288014E+04  0.34094744153E+04  0.31384627837E+04 0.  0.
        1    1    3    3  502    0  0.12614750648E+04  0.70885415920E+03  0.13256987368E+04  0.19624654644E+04  0.50400001928E-02 0. -1.
       -1    1    3    3    0  502 -0.12614750648E+04 -0.70885415920E+03  0.64300645373E+01  0.14470089509E+04  0.50400001928E-02 0.  1.
</event>
<event>
 5   0  0.1345931E-05  0.3041064E+04  0.7818609E-02  0.8232101E-01
        2   -1    0    0  501    0  0.00000000000E+00  0.00000000000E+00  0.20084389040E+04  0.20084389040E+04  0.25500000920E-02 0. -1.
       -2   -1    0    0    0  501  0.00000000000E+00  0.00000000000E+00 -0.11511518830E+04  0.11511518830E+04  0.25500000920E-02 0.  1.
    10030    2    1    2    0    0  0.00000000000E+00  0.00000000000E+00  0.85728702094E+03  0.31595907870E+04  0.30410644362E+04 0.  0.
        2    1    3    3  502    0 -0.13254893634E+04 -0.24385542438E+03 -0.30280594118E+03  0.13813323128E+04  0.25500000920E-02 0.  1.
       -2    1    3    3    0  502  0.13254893634E+04  0.24385542438E+03  0.11600929621E+04  0.17782584742E+04  0.25500000920E-02 0. -1.
</event>
<event>
 5   0  0.1423692E-05  0.2940210E+04  0.7818609E-02  0.8261013E-01
       -2   -1    0    0    0  501  0.00000000000E+00  0.00000000000E+00  0.78639863524E+03  0.78639863524E+03  0.25500000920E-02 0.  1.
        2   -1    0    0  501    0  0.00000000000E+00  0.00000000000E+00 -0.27482358575E+04  0.27482358575E+04  0.25500000920E-02 0. -1.
    10030    2    1    2    0    0  0.00000000000E+00  0.00000000000E+00 -0.19618372222E+04  0.35346344927E+04  0.29402101474E+04 0.  0.
        3    1    3    3  502    0  0.96970912701E+03 -0.61270851479E+03  0.12446502712E+03  0.11537933386E+04  0.10100000352E+00 0.  1.
       -3    1    3    3    0  502 -0.96970912701E+03  0.61270851479E+03 -0.20863022494E+04  0.23808411541E+04  0.10100000352E+00 0. -1.
</event>
<event>
 5   0  0.1523029E-05  0.2834898E+04  0.7818609E-02  0.8292515E-01
       -2   -1    0    0    0  501  0.00000000000E+00  0.00000000000E+00  0.15763449180E+04  0.15763449180E+04  0.25500000920E-02 0.  1.
        2   -1    0    0  501    0  0.00000000000E+00  0.00000000000E+00 -0.12745695914E+04  0.12745695914E+04  0.25500000920E-02 0. -1.
    10030    2    1    2    0    0  0.00000000000E+00  0.00000000000E+00  0.30177532657E+03  0.28509145093E+04  0.28348977392E+04 0.  0.
        5    1    3    3  502    0 -0.87627986394E+02 -0.94111890621E+03  0.12131489719E+04  0.15378998594E+04  0.46999998093E+01 0.  1.
       -5    1    3    3    0  502  0.87627986394E+02  0.94111890621E+03 -0.91137364529E+03  0.13130146499E+04  0.46999998093E+01 0. -1.
</event>
<event>
 5   0  0.7032692E-06  0.3034873E+04  0.7818609E-02  0.8233842E-01
        1   -1    0    0  501    0  0.00000000000E+00  0.00000000000E+00  0.15278613146E+04  0.15278613146E+04  0.50400001928E-02 0. -1.
       -1   -1    0    0    0  501  0.00000000000E+00  0.00000000000E+00 -0.15070825775E+04  0.15070825775E+04  0.50400001928E-02 0.  1.
    10030    2    1    2    0    0  0.00000000000E+00  0.00000000000E+00  0.20778737085E+02  0.30349438921E+04  0.30348727605E+04 0.  0.
        5    1    3    3  502    0 -0.43339977300E+03 -0.14173531805E+04 -0.31498831828E+03  0.15152442484E+04  0.46999998093E+01 0.  1.
       -5    1    3    3    0  502  0.43339977300E+03  0.14173531805E+04  0.33576705536E+03  0.15196996437E+04  0.46999998093E+01 0. -1.
</event>
<event>
 5   0  0.5392262E-06  0.1966907E+04  0.7818609E-02  0.8622251E-01
       -1   -1    0    0    0  501  0.00000000000E+00  0.00000000000E+00  0.83760020668E+03  0.83760020670E+03  0.50400001928E-02 0. -1.
        1   -1    0    0  501    0  0.00000000000E+00  0.00000000000E+00 -0.11547041472E+04  0.11547041472E+04  0.50400001928E-02 0.  1.
    10030    2    1    2    0    0  0.00000000000E+00  0.00000000000E+00 -0.31710394052E+03  0.19923043539E+04  0.19669066398E+04 0.  0.
        2    1    3    3  502    0  0.21454964819E+03 -0.32962971079E+03 -0.10715751167E+04  0.11414729644E+04  0.25500000920E-02 0.  1.
       -2    1    3    3    0  502 -0.21454964819E+03  0.32962971079E+03  0.75447117614E+03  0.85083138953E+03  0.25500000920E-02 0. -1.
</event>
<event>
 5   0  0.7032692E-06  0.3025170E+04  0.7818609E-02  0.8236580E-01
        1   -1    0    0  501    0  0.00000000000E+00  0.00000000000E+00  0.19702981069E+04  0.19702981069E+04  0.50400001928E-02 0. -1.
       -1   -1    0    0    0  501  0.00000000000E+00  0.00000000000E+00 -0.11612019686E+04  0.11612019686E+04  0.50400001928E-02 0.  1.
    10030    2    1    2    0    0  0.00000000000E+00  0.00000000000E+00  0.80909613827E+03  0.31315000756E+04  0.30251704352E+04 0.  0.
        5    1    3    3  502    0  0.73184014133E+03 -0.17510508836E+03  0.17627794874E+04  0.19166808278E+04  0.46999998093E+01 0. -1.
       -5    1    3    3    0  502 -0.73184014133E+03  0.17510508836E+03 -0.95368334911E+03  0.12148192478E+04  0.46999998093E+01 0.  1.
</event>
<event>
 5   0  0.1345931E-05  0.2947129E+04  0.7818609E-02  0.8258992E-01
        2   -1    0    0  501    0  0.00000000000E+00  0.00000000000E+00  0.20631307994E+04  0.20631307994E+04  0.25500000920E-02 0. -1.
       -2   -1    0    0    0  501  0.00000000000E+00  0.00000000000E+00 -0.10524745368E+04  0.10524745368E+04  0.25500000920E-02 0.  1.
    10030    2    1    2    0    0  0.00000000000E+00  0.00000000000E+00  0.10106562626E+04  0.31156053361E+04  0.29471292013E+04 0.  0.
        2    1    3    3  502    0  0.23257070924E+03  0.11785736367E+04  0.14074989633E+04  0.18504535346E+04  0.25500000920E-02 0. -1.
       -2    1    3    3    0  502 -0.23257070924E+03 -0.11785736367E+04 -0.39684270070E+03  0.12651518016E+04  0.25500000920E-02 0.  1.
</event>
<event>
 5   0  0.1480547E-05  0.3025807E+04  0.7818609E-02  0.8236400E-01
       -2   -1    0    0    0  501  0.00000000000E+00  0.00000000000E+00  0.17050744677E+04  0.17050744677E+04  0.25500000920E-02 0.  1.
        2   -1    0    0  501    0  0.00000000000E+00  0.00000000000E+00 -0.13423911605E+04  0.13423911605E+04  0.25500000920E-02 0. -1.
    10030    2    1    2    0    0  0.00000000000E+00  0.00000000000E+00  0.36268330720E+03  0.30474656281E+04  0.30258069293E+04 0.  0.
        1    1    3    3  502    0 -0.20239166112E+03 -0.32394615726E+03 -0.12930266735E+04  0.13482660997E+04  0.50400001928E-02 0. -1.
       -1    1    3    3    0  502  0.20239166112E+03  0.32394615726E+03  0.16557099807E+04  0.16991995284E+04  0.50400001928E-02 0.  1.
</event>
<event>
 5   0  0.1480547E-05  0.2927293E+04  0.7818609E-02  0.8264803E-01
        2   -1    0    0  501    0  0.00000000000E+00  0.00000000000E+00  0.16727098887E+04  0.16727098887E+04  0.25500000920E-02 0.  1.
       -2   -1    0    0    0  501  0.00000000000E+00  0.00000000000E+00 -0.12807126341E+04  0.12807126341E+04  0.25500000920E-02 0. -1.
    10030    2    1    2    0    0  0.00000000000E+00  0.00000000000E+00  0.39199725458E+03  0.29534225227E+04  0.29272927339E+04 0.  0.
        1    1    3    3  502    0 -0.11598631410E+03  0.12257888055E+04  0.99442188926E+03  0.15826831378E+04  0.50400001928E-02 0.  1.
       -1    1    3    3    0  502  0.11598631410E+03 -0.12257888055E+04 -0.60242463468E+03  0.13707393849E+04  0.50400001928E-02 0. -1.
</event>
<event>
 5   0  0.1423692E-05  0.2989599E+04  0.7818609E-02  0.8246707E-01
        2   -1    0    0  501    0  0.00000000000E+00  0.00000000000E+00  0.14027679971E+04  0.14027679971E+04  0.25500000920E-02 0.  1.
       -2   -1    0    0    0  501  0.00000000000E+00  0.00000000000E+00 -0.15928685000E+04  0.15928685000E+04  0.25500000920E-02 0. -1.
    10030    2    1    2    0    0  0.00000000000E+00  0.00000000000E+00 -0.19010050285E+03  0.29956364971E+04  0.29895986054E+04 0.  0.
        3    1    3    3  502    0 -0.47153867053E+03  0.95718948984E+03 -0.11439999480E+04  0.15643836896E+04  0.10100000352E+00 0. -1.
       -3    1    3    3    0  502  0.47153867053E+03 -0.95718948984E+03  0.95389944512E+03  0.14312528075E+04  0.10100000352E+00 0.  1.
</event>
<event>
 5   0  0.5329891E-06  0.2394242E+04  0.7818609E-02  0.8441662E-01
        1   -1    0    0  501    0  0.00000000000E+00  0.00000000000E+00  0.72737973683E+03  0.72737973685E+03  0.50400001928E-02 0.  1.
       -1   -1    0    0    0  501  0.00000000000E+00  0.00000000000E+00 -0.19702206688E+04  0.19702206688E+04  0.50400001928E-02 0. -1.
    10030    2    1    2    0    0  0.00000000000E+00  0.00000000000E+00 -0.12428409320E+04  0.26976004056E+04  0.23942419189E+04 0.  0.
        4    1    3    3  502    0 -0.43160617708E+03 -0.69982293360E+03 -0.16017565992E+04  0.18004615649E+04  0.12699999809E+01 0. -1.
       -4    1    3    3    0  502  0.43160617708E+03  0.69982293360E+03  0.35891566728E+03  0.89713884077E+03  0.12699999809E+01 0.  1.
</event>
<event>
 5   0  0.1480547E-05  0.2994682E+04  0.7818609E-02  0.8245251E-01
       -2   -1    0    0    0  501  0.00000000000E+00  0.00000000000E+00  0.97422656432E+03  0.97422656432E+03  0.25500000920E-02 0. -1.
        2   -1    0    0  501    0  0.00000000000E+00  0.00000000000E+00 -0.23013433771E+04  0.23013433771E+04  0.25500000920E-02 0.  1.
    10030    2    1    2    0    0  0.00000000000E+00  0.00000000000E+00 -0.13271168127E+04  0.32755699414E+04  0.29946818539E+04 0.  0.
        1    1    3    3  502    0 -0.75129343945E+03 -0.11842476066E+04 -0.12373015286E+04  0.18702404387E+04  0.50400001928E-02 0.  1.
       -1    1    3    3    0  502  0.75129343945E+03  0.11842476066E+04 -0.89815284192E+02  0.14053295027E+04  0.50400001928E-02 0. -1.
</event>
<event>
 5   0  0.5392262E-06  0.3022824E+04  0.7818609E-02  0.8237243E-01
       -1   -1    0    0    0  501  0.00000000000E+00  0.00000000000E+00  0.10792381198E+04  0.10792381198E+04  0.50400001928E-02 0. -1.
        1   -1    0    0  501    0  0.00000000000E+00  0.00000000000E+00 -0.21166470944E+04  0.21166470944E+04  0.50400001928E-02 0.  1.
    10030    2    1    2    0    0  0.00000000000E+00  0.00000000000E+00 -0.10374089745E+04  0.31958852142E+04  0.30228239978E+04 0.  0.
        2    1    3    3  502    0 -0.32854407543E+03 -0.12653012843E+04  0.28330122136E+03  0.13376053722E+04  0.25500000920E-02 0.  1.
       -2    1    3    3    0  502  0.32854407543E+03  0.12653012843E+04 -0.13207101959E+04  0.18582798420E+04  0.25500000920E-02 0. -1.
</event>
<event>
 5   0  0.1523029E-05  0.3374809E+04  0.7818609E-02  0.8144117E-01
        2   -1    0    0  501    0  0.00000000000E+00  0.00000000000E+00  0.15435145947E+04  0.15435145947E+04  0.25500000920E-02 0. -1.
       -2   -1    0    0    0  501  0.00000000000E+00  0.00000000000E+00 -0.18447076304E+04  0.18447076304E+04  0.25500000920E-02 0.  1.
    10030    2    1    2    0    0  0.00000000000E+00  0.00000000000E+00 -0.30119303570E+03  0.33882222251E+04  0.33748085281E+04 0.  0.
        5    1    3    3  502    0 -0.34644788725E+02 -0.93764092728E+03  0.12574543260E+04  0.15689436708E+04  0.46999998093E+01 0. -1.
       -5    1    3    3    0  502  0.34644788725E+02  0.93764092728E+03 -0.15586473617E+04  0.18192785543E+04  0.46999998093E+01 0.  1.
</event>
<event>
 5   0  0.1423692E-05  0.3075990E+04  0.7818609E-02  0.8222358E-01
        2   -1    0    0  501    0  0.00000000000E+00  0.00000000000E+00  0.26370025645E+04  0.26370025645E+04  0.25500000920E-02 0. -1.
       -2   -1    0    0    0  501  0.00000000000E+00  0.00000000000E+00 -0.89701408978E+03  0.89701408979E+03  0.25500000920E-02 0.  1.
    10030    2    1    2    0    0  0.00000000000E+00  0.00000000000E+00  0.17399884747E+04  0.35340166543E+04  0.30759898928E+04 0.  0.
        3    1    3    3  502    0 -0.10885573627E+04  0.14644142549E+03 -0.36689359854E+03  0.11580212200E+04  0.10100000352E+00 0.  1.
       -3    1    3    3    0  502  0.10885573627E+04 -0.14644142549E+03  0.21068820732E+04  0.23759954343E+04  0.10100000352E+00 0. -1.
</event>
<event>
 5   0  0.5392262E-06  0.2937913E+04  0.7818609E-02  0.8261686E-01
       -1   -1    0    0    0  501  0.00000000000E+00  0.00000000000E+00  0.19606986322E+04  0.19606986322E+04  0.50400001928E-02 0.  1.
        1   -1    0    0  501    0  0.00000000000E+00  0.00000000000E+00 -0.11005430115E+04  0.11005430116E+04  0.50400001928E-02 0. -1.
    10030    2    1    2    0    0  0.00000000000E+00  0.00000000000E+00  0.86015562067E+03  0.30612416438E+04  0.29379129854E+04 0.  0.
        2    1    3    3  502    0 -0.11170048691E+04  0.66905231452E+03  0.11387014436E+04  0.17297317292E+04  0.25500000920E-02 0.  1.
       -2    1    3    3    0  502  0.11170048691E+04 -0.66905231452E+03 -0.27854582293E+03  0.13315099146E+04  0.25500000920E-02 0. -1.
</event>
<event>
 5   0  0.5392262E-06  0.3034090E+04  0.7818609E-02  0.8234063E-01
        1   -1    0    0  501    0  0.00000000000E+00  0.00000000000E+00  0.22256626825E+04  0.22256626825E+04  0.50400001928E-02 0.  1.
       -1   -1    0    0    0  501  0.00000000000E+00  0.00000000000E+00 -0.10340406851E+04  0.10340406851E+04  0.50400001928E-02 0. -1.
    10030    2    1    2    0    0  0.00000000000E+00  0.00000000000E+00  0.11916219974E+04  0.32597033676E+04  0.30340901536E+04 0.  0.
        2    1    3    3  502    0 -0.33604807456E+03 -0.16511634863E+03  0.21752414265E+04  0.22072306134E+04  0.25500000920E-02 0.  1.
       -2    1    3    3    0  502  0.33604807456E+03  0.16511634863E+03 -0.98361942913E+03  0.10524727542E+04  0.25500000920E-02 0. -1.
</event>
<event>
 5   0  0.4806125E-06  0.2975021E+04  0.7818609E-02  0.8250900E-01
        3   -1    0    0  501    0  0.00000000000E+00  0.00000000000E+00  0.15509298437E+04  0.15509298470E+04  0.10100000352E+00 0.  1.
       -3   -1    0    0    0  501  0.00000000000E+00  0.00000000000E+00 -0.14266842673E+04  0.14266842709E+04  0.10100000352E+00 0. -1.
    10030    2    1    2    0    0  0.00000000000E+00  0.00000000000E+00  0.12424557645E+03  0.29776141179E+04  0.29750208187E+04 0.  0.
        4    1    3    3  502    0 -0.58697620572E+03 -0.13383569922E+04  0.33975438515E+03  0.15003916688E+04  0.12699999809E+01 0.  1.
       -4    1    3    3    0  502  0.58697620572E+03  0.13383569922E+04 -0.21550880869E+03  0.14772224491E+04  0.12699999809E+01 0. -1.
</event>
<event>
 5   0  0.1345931E-05  0.1952756E+04  0.7818609E-02  0.8629033E-01
       -2   -1    0    0    0  501  0.00000000000E+00  0.00000000000E+00  0.61414071669E+03  0.61414071670E+03  0.25500000920E-02 0.  1.
        2   -1    0    0  501    0  0.00000000000E+00  0.00000000000E+00 -0.15522725974E+04  0.15522725974E+04  0.25500000920E-02 0. -1.
    10030    2    1    2    0    0  0.00000000000E+00  0.00000000000E+00 -0.93813188075E+03  0.21664133141E+04  0.19527558019E+04 0.  0.
        2    1    3    3  502    0 -0.63265339159E+03 -0.31432798280E+02  0.35524792501E+03  0.72625024814E+03  0.25500000920E-02 0.  1.
       -2    1    3    3    0  502  0.63265339159E+03  0.31432798280E+02 -0.12933798058E+04  0.14401630660E+04  0.25500000920E-02 0. -1.
</event>
<event>
 5   0  0.1345931E-05  0.3085275E+04  0.7818609E-02  0.8219791E-01
       -2   -1    0    0    0  501  0.00000000000E+00  0.00000000000E+00  0.11003558221E+04  0.11003558221E+04  0.25500000920E-02 0. -1.
        2   -1    0    0  501    0  0.00000000000E+00  0.00000000000E+00 -0.21626917120E+04  0.21626917120E+04  0.25500000920E-02 0.  1.
    10030    2    1    2    0    0  0.00000000000E+00  0.00000000000E+00 -0.10623358899E+04  0.32630475341E+04  0.30852749743E+04 0.  0.
        2    1    3    3  502    0  0.88770190875E+03 -0.12585668494E+04 -0.62412557669E+03  0.16617875703E+04  0.25500000920E-02 0.  1.
       -2    1    3    3    0  502 -0.88770190875E+03  0.12585668494E+04 -0.43821031320E+03  0.16012599639E+04  0.25500000920E-02 0. -1.
</event>
<event>
 5   0  0.5522695E-06  0.3068376E+04  0.7818609E-02  0.8224471E-01
       -1   -1    0    0    0  501  0.00000000000E+00  0.00000000000E+00  0.80826511393E+03  0.80826511395E+03  0.50400001928E-02 0. -1.
        1   -1    0    0  501    0  0.00000000000E+00  0.00000000000E+00 -0.29120799699E+04  0.29120799699E+04  0.50400001928E-02 0.  1.
    10030    2    1    2    0    0  0.00000000000E+00  0.00000000000E+00 -0.21038148559E+04  0.37203450838E+04  0.30683758887E+04 0.  0.
        3    1    3    3  502    0  0.16860781291E+03 -0.14793101069E+04 -0.15005999039E+04  0.21139032780E+04  0.10100000352E+00 0. -1.
       -3    1    3    3    0  502 -0.16860781291E+03  0.14793101069E+04 -0.60321495202E+03  0.16064418058E+04  0.10100000352E+00 0.  1.
</event>
<event>
 5   0  0.1388724E-05  0.3012417E+04  0.7818609E-02  0.8240194E-01
        2   -1    0    0  501    0  0.00000000000E+00  0.00000000000E+00  0.16782619865E+04  0.16782619865E+04  0.25500000920E-02 0.  1.
       -2   -1    0    0    0  501  0.00000000000E+00  0.00000000000E+00 -0.13517936616E+04  0.13517936616E+04  0.25500000920E-02 0. -1.
    10030    2    1    2    0    0  0.00000000000E+00  0.00000000000E+00  0.32646832490E+03  0.30300556480E+04  0.30124169139E+04 0.  0.
        4    1    3    3  502    0  0.43899496263E+03  0.14279939302E+04  0.35613576924E+03  0.15358116880E+04  0.12699999809E+01 0.  1.
       -4    1    3    3    0  502 -0.43899496263E+03 -0.14279939302E+04 -0.29667444332E+02  0.14942439600E+04  0.12699999809E+01 0. -1.
</event>
<event>
 5   0  0.5730920E-06  0.2482258E+04  0.7818609E-02  0.8409334E-01
       -1   -1    0    0    0  501  0.00000000000E+00  0.00000000000E+00  0.10234661935E+04  0.10234661935E+04  0.50400001928E-02 0. -1.
        1   -1    0    0  501    0  0.00000000000E+00  0.00000000000E+00 -0.15050820388E+04  0.15050820388E+04  0.50400001928E-02 0.  1.
    10030    2    1    2    0    0  0.00000000000E+00  0.00000000000E+00 -0.48161584532E+03  0.25285482323E+04  0.24822575089E+04 0.  0.
        1    1    3    3  502    0 -0.67279148609E+03 -0.23198374764E+03 -0.12765966578E+04  0.14615621334E+04  0.50400001928E-02 0.  1.
       -1    1    3    3    0  502  0.67279148609E+03  0.23198374764E+03  0.79498081252E+03  0.10669860989E+04  0.50400001928E-02 0. -1.
</event>
<event>
 5   0  0.1345931E-05  0.2995240E+04  0.7818609E-02  0.8245092E-01
       -2   -1    0    0    0  501  0.00000000000E+00  0.00000000000E+00  0.10424545249E+04  0.10424545249E+04  0.25500000920E-02 0. -1.
        2   -1    0    0  501    0  0.00000000000E+00  0.00000000000E+00 -0.21515233050E+04  0.21515233050E+04  0.25500000920E-02 0.  1.
    10030    2    1    2    0    0  0.00000000000E+00  0.00000000000E+00 -0.11090687801E+04  0.31939778299E+04  0.29952396931E+04 0.  0.
        2    1    3    3  502    0 -0.41467528944E+03  0.15830495321E+03  0.97070186157E+03  0.10673697382E+04  0.25500000920E-02 0. -1.
       -2    1    3    3    0  502  0.41467528944E+03 -0.15830495321E+03 -0.20797706417E+04  0.21266080918E+04  0.25500000920E-02 0.  1.
</event>
<event>
 5   0  0.5522695E-06  0.2935419E+04  0.7818609E-02  0.8262417E-01
        1   -1    0    0  501    0  0.00000000000E+00  0.00000000000E+00  0.29740058009E+04  0.29740058009E+04  0.50400001928E-02 0. -1.
       -1   -1    0    0    0  501  0.00000000000E+00  0.00000000000E+00 -0.72433308188E+03  0.72433308189E+03  0.50400001928E-02 0.  1.
    10030    2    1    2    0    0  0.00000000000E+00  0.00000000000E+00  0.22496727190E+04  0.36983388828E+04  0.29354187349E+04 0.  0.
        3    1    3    3  502    0 -0.14365566122E+04 -0.30064422945E+03  0.11129555144E+04  0.18419424095E+04  0.10100000352E+00 0. -1.
       -3    1    3    3    0  502  0.14365566122E+04  0.30064422945E+03  0.11367172046E+04  0.18563964733E+04  0.10100000352E+00 0.  1.
</event>
<event>
 5   0  0.1480547E-05  0.3013536E+04  0.7818609E-02  0.8239876E-01
        2   -1    0    0  501    0  0.00000000000E+00  0.00000000000E+00  0.15268600252E+04  0.15268600252E+04  0.25500000920E-02 0. -1.
       -2   -1    0    0    0  501  0.00000000000E+00  0.00000000000E+00 -0.14869404263E+04  0.14869404263E+04  0.25500000920E-02 0.  1.
    10030    2    1    2    0    0  0.00000000000E+00  0.00000000000E+00  0.39919598893E+02  0.30138004515E+04  0.30135360603E+04 0.  0.
        1    1    3    3  502    0 -0.43813737982E+03 -0.14162522653E+04 -0.24953564847E+03  0.15033305965E+04  0.50400001928E-02 0.  1.
       -1    1    3    3    0  502  0.43813737982E+03  0.14162522653E+04  0.28945524736E+03  0.15104698550E+04  0.50400001928E-02 0. -1.
</event>
<event>
 5   0  0.1523029E-05  0.3391671E+04  0.7818609E-02  0.8139954E-01
        2   -1    0    0  501    0  0.00000000000E+00  0.00000000000E+00  0.23103719516E+04  0.23103719516E+04  0.25500000920E-02 0.  1.
       -2   -1    0    0    0  501  0.00000000000E+00  0.00000000000E+00 -0.12447594119E+04  0.12447594119E+04  0.25500000920E-02 0. -1.
    10030    2    1    2    0    0  0.00000000000E+00  0.00000000000E+00  0.10656125397E+04  0.35551313634E+04  0.33916705215E+04 0.  0.
        5    1    3    3  502    0 -0.12210999182E+04  0.10408211583E+04  0.11083038205E+04  0.19500649071E+04  0.46999998093E+01 0.  1.
       -5    1    3    3    0  502  0.12210999182E+04 -0.10408211583E+04 -0.42691280766E+02  0.16050664563E+04  0.46999998093E+01 0. -1.
</event>
<event>
 5   0  0.5730920E-06  0.2997600E+04  0.7818609E-02  0.8244417E-01
       -1   -1    0    0    0  501  0.00000000000E+00  0.00000000000E+00  0.20374602098E+04  0.20374602098E+04  0.50400001928E-02 0. -1.
        1   -1    0    0  501    0  0.00000000000E+00  0.00000000000E+00 -0.11025499204E+04  0.11025499204E+04  0.50400001928E-02 0.  1.
    10030    2    1    2    0    0  0.00000000000E+00  0.00000000000E+00  0.93491028941E+03  0.31400101302E+04  0.29976001015E+04 0.  0.
        1    1    3    3  502    0 -0.55628737479E+03  0.82383997004E+02  0.19227596636E+04  0.20033091350E+04  0.50400001928E-02 0. -1.
       -1    1    3    3    0  502  0.55628737479E+03 -0.82383997004E+02 -0.98784937420E+03  0.11367009952E+04  0.50400001928E-02 0.  1.
</event>
<event>
 5   0  0.5329891E-06  0.2965404E+04  0.7818609E-02  0.8253680E-01
       -1   -1    0    0    0  501  0.00000000000E+00  0.00000000000E+00  0.75081159118E+03  0.75081159120E+03  0.50400001928E-02 0.  1.
        1   -1    0    0  501    0  0.00000000000E+00  0.00000000000E+00 -0.29280382548E+04  0.29280382548E+04  0.50400001928E-02 0. -1.
    10030    2    1    2    0    0  0.00000000000E+00  0.00000000000E+00 -0.21772266636E+04  0.36788498460E+04  0.29654038923E+04 0.  0.
        4    1    3    3  502    0 -0.13989349574E+04 -0.18759350196E+03 -0.52528021265E+03  0.15060316238E+04  0.12699999809E+01 0.  1.
       -4    1    3    3    0  502  0.13989349574E+04  0.18759350196E+03 -0.16519464510E+04  0.21728182222E+04  0.12699999809E+01 0. -1.
</event>
<event>
 5   0  0.5329891E-06  0.1878610E+04  0.7818609E-02  0.8665577E-01
        1   -1    0    0  501    0  0.00000000000E+00  0.00000000000E+00  0.15972239862E+04  0.15972239862E+04  0.50400001928E-02 0.  1.
       -1   -1    0    0    0  501  0.00000000000E+00  0.00000000000E+00 -0.55239210840E+03  0.55239210842E+03  0.50400001928E-02 0. -1.
    10030    2    1    2    0    0  0.00000000000E+00  0.00000000000E+00  0.10448318778E+04  0.21496160946E+04  0.18786100450E+04 0.  0.
        4    1    3    3  502    0  0.26363763538E+03 -0.23105565620E+03 -0.47473244140E+03  0.59013898606E+03  0.12699999809E+01 0. -1.
       -4    1    3    3    0  502 -0.26363763538E+03  0.23105565620E+03  0.15195643192E+04  0.15594771085E+04  0.12699999809E+01 0.  1.
</event>
<event>
 5   0  0.1345931E-05  0.2130578E+04  0.7818609E-02  0.8547892E-01
        2   -1    0    0  501    0  0.00000000000E+00  0.00000000000E+00  0.14681317122E+04  0.14681317122E+04  0.25500000920E-02 0. -1.
       -2   -1    0    0    0  501  0.00000000000E+00  0.00000000000E+00 -0.77298256996E+03  0.77298256996E+03  0.25500000920E-02 0.  1.
    10030    2    1    2    0    0  0.00000000000E+00  0.00000000000E+00  0.69514914227E+03  0.22411142822E+04  0.21305775968E+04 0.  0.
        2    1    3    3  502    0 -0.29312079759E+03 -0.99251355394E+03  0.61334324591E+03  0.12029933059E+04  0.25500000920E-02 0. -1.
       -2    1    3    3    0  502  0.29312079759E+03  0.99251355394E+03  0.81805896367E+02  0.10381209763E+04  0.25500000920E-02 0.  1.
</event>
<event>
 5   0  0.1345931E-05  0.2624397E+04  0.7818609E-02  0.8359961E-01
        2   -1    0    0  501    0  0.00000000000E+00  0.00000000000E+00  0.20610089736E+04  0.20610089736E+04  0.25500000920E-02 0.  1.
       -2   -1    0    0    0  501  0.00000000000E+00  0.00000000000E+00 -0.83544724276E+03  0.83544724277E+03  0.25500000920E-02 0. -1.
    10030    2    1    2    0    0  0.00000000000E+00  0.00000000000E+00  0.12255617308E+04  0.28964562163E+04  0.26243965129E+04 0.  0.
        2    1    3    3  502    0  0.12566831480E+04 -0.17904215812E+03  0.24581306544E+03  0.12929550232E+04  0.25500000920E-02 0. -1.
       -2    1    3    3    0  502 -0.12566831480E+04  0.17904215812E+03  0.97974866536E+03  0.16035011931E+04  0.25500000920E-02 0.  1.
</event>
<event>
 5   0  0.1388724E-05  0.2997790E+04  0.7818609E-02  0.8244362E-01
       -2   -1    0    0    0  501  0.00000000000E+00  0.00000000000E+00  0.24436103021E+04  0.24436103021E+04  0.25500000920E-02 0.  1.
        2   -1    0    0  501    0  0.00000000000E+00  0.00000000000E+00 -0.91941246418E+03  0.91941246418E+03  0.25500000920E-02 0. -1.
    10030    2    1    2    0    0  0.00000000000E+00  0.00000000000E+00  0.15241978380E+04  0.33630227663E+04  0.29977896987E+04 0.  0.
        4    1    3    3  502    0 -0.37763763771E+03 -0.14069683066E+04  0.11579556259E+04  0.18609225792E+04  0.12699999809E+01 0. -1.
       -4    1    3    3    0  502  0.37763763771E+03  0.14069683066E+04  0.36624221202E+03  0.15021001871E+04  0.12699999809E+01 0.  1.
</event>
<event>
 5   0  0.1523029E-05  0.3020897E+04  0.7818609E-02  0.8237789E-01
       -2   -1    0    0    0  501  0.00000000000E+00  0.00000000000E+00  0.12403629033E+04  0.12403629033E+04  0.25500000920E-02 0. -1.
        2   -1    0    0  501    0  0.00000000000E+00  0.00000000000E+00 -0.18393442150E+04  0.18393442150E+04  0.25500000920E-02 0.  1.
    10030    2    1    2    0    0  0.00000000000E+00  0.00000000000E+00 -0.59898131166E+03  0.30797071183E+04  0.30208967746E+04 0.  0.
        5    1    3    3  502    0  0.13004738770E+03  0.57988054460E+02 -0.18324792354E+04  0.18380090249E+04  0.46999998093E+01 0.  1.
       -5    1    3    3    0  502 -0.13004738770E+03 -0.57988054460E+02  0.12334979237E+04  0.12416980935E+04  0.46999998093E+01 0. -1.
</event>
<event>
 5   0  0.1345931E-05  0.3049354E+04  0.7818609E-02  0.8229776E-01
       -2   -1    0    0    0  501  0.00000000000E+00  0.00000000000E+00  0.12740515028E+04  0.12740515028E+04  0.25500000920E-02 0.  1.
        2   -1    0    0  501    0  0.00000000000E+00  0.00000000000E+00 -0.18246037918E+04  0.18246037918E+04  0.25500000920E-02 0. -1.
    10030    2    1    2    0    0  0.00000000000E+00  0.00000000000E+00 -0.55055228902E+03  0.30986552945E+04  0.30493535071E+04 0.  0.
        2    1    3    3  502    0  0.60797619789E+03 -0.13923137108E+04 -0.14487888378E+03  0.15261593683E+04  0.25500000920E-02 0.  1.
       -2    1    3    3    0  502 -0.60797619789E+03  0.13923137108E+04 -0.40567340524E+03  0.15724959263E+04  0.25500000920E-02 0. -1.
</event>
<event>
 5   0  0.1388724E-05  0.2964983E+04  0.7818609E-02  0.8253802E-01
       -2   -1    0    0    0  501  0.00000000000E+00  0.00000000000E+00  0.13596782625E+04  0.13596782625E+04  0.25500000920E-02 0. -1.
        2   -1    0    0  501    0  0.00000000000E+00  0.00000000000E+00 -0.16163974841E+04  0.16163974841E+04  0.25500000920E-02 0.  1.
    10030    2    1    2    0    0  0.00000000000E+00  0.00000000000E+00 -0.25671922161E+03  0.29760757466E+04  0.29649826460E+04 0.  0.
        4    1    3    3  502    0  0.10334414138E+04 -0.23966445501E+03  0.91105260184E+03  0.13983771533E+04  0.12699999809E+01 0. -1.
       -4    1    3    3    0  502 -0.10334414138E+04  0.23966445501E+03 -0.11677718234E+04  0.15776985933E+04  0.12699999809E+01 0.  1.
</event>
<event>
 5   0  0.1388724E-05  0.2706528E+04  0.7818609E-02  0.8332890E-01
       -2   -1    0    0    0  501  0.00000000000E+00  0.00000000000E+00  0.80561566072E+03  0.80561566072E+03  0.25500000920E-02 0. -1.
        2   -1    0    0  501    0  0.00000000000E+00  0.00000000000E+00 -0.22731967127E+04  0.22731967127E+04  0.25500000920E-02 0.  1.
    10030    2    1    2    0    0  0.00000000000E+00  0.00000000000E+00 -0.14675810520E+04  0.30788123734E+04  0.27065275699E+04 0.  0.
        4    1    3    3  502    0  0.43750772702E+03  0.79085464623E+02 -0.21877448827E+04  0.22324642902E+04  0.12699999809E+01 0.  1.
       -4    1    3    3    0  502 -0.43750772702E+03 -0.79085464623E+02  0.72016383079E+03  0.84634808324E+03  0.12699999809E+01 0. -1.
</event>
<event>
 5   0  0.1388724E-05  0.1747355E+04  0.7818609E-02  0.8734808E-01
       -2   -1    0    0    0  501  0.00000000000E+00  0.00000000000E+00  0.74615811282E+03  0.74615811283E+03  0.25500000920E-02 0.  1.
        2   -1    0    0  501    0  0.00000000000E+00  0.00000000000E+00 -0.10229897311E+04  0.10229897311E+04  0.25500000920E-02 0. -1.
    10030    2    1    2    0    0  0.00000000000E+00  0.00000000000E+00 -0.27683161832E+03  0.17691478440E+04  0.17473546718E+04 0.  0.
        4    1    3    3  502    0 -0.67275910677E+03  0.16255814671E+03 -0.67824529598E+03  0.96904502538E+03  0.12699999809E+01 0. -1.
       -4    1    3    3    0  502  0.67275910677E+03 -0.16255814671E+03  0.40141367766E+03  0.80010281859E+03  0.12699999809E+01 0.  1.
</event>
<event>
 5   0  0.1523029E-05  0.2906712E+04  0.7818609E-02  0.8270883E-01
        2   -1    0    0  501    0  0.00000000000E+00  0.00000000000E+00  0.13437847821E+04  0.13437847821E+04  0.25500000920E-02 0. -1.
       -2   -1    0    0    0  501  0.00000000000E+00  0.00000000000E+00 -0.15718612032E+04  0.15718612032E+04  0.25500000920E-02 0.  1.
    10030    2    1    2    0    0  0.00000000000E+00  0.00000000000E+00 -0.22807642113E+03  0.29156459853E+04  0.29067116571E+04 0.  0.
        5    1    3    3  502    0 -0.19620769443E+03  0.88570429174E+03  0.10249039389E+04  0.13687292375E+04  0.46999998093E+01 0. -1.
       -5    1    3    3    0  502  0.19620769443E+03 -0.88570429174E+03 -0.12529803600E+04  0.15469167477E+04  0.46999998093E+01 0.  1.
</event>
<event>
 5   0  0.5329891E-06  0.1877189E+04  0.7818609E-02  0.8666295E-01
        1   -1    0    0  501    0  0.00000000000E+00  0.00000000000E+00  0.14996338949E+04  0.14996338949E+04  0.50400001928E-02 0.  1.
       -1   -1    0    0    0  501  0.00000000000E+00  0.00000000000E+00 -0.58744965281E+03  0.58744965283E+03  0.50400001928E-02 0. -1.
    10030    2    1    2    0    0  0.00000000000E+00  0.00000000000E+00  0.91218424205E+03  0.20870835477E+04  0.18771887608E+04 0.  0.
        4    1    3    3  502    0  0.22475139648E+03  0.64668748070E+03 -0.25775778494E+03  0.73154533455E+03  0.12699999809E+01 0. -1.
       -4    1    3    3    0  502 -0.22475139648E+03 -0.64668748070E+03  0.11699420270E+04  0.13555382132E+04  0.12699999809E+01 0.  1.
</event>
<event>
 5   0  0.1523029E-05  0.1597026E+04  0.7818609E-02  0.8822377E-01
        2   -1    0    0  501    0  0.00000000000E+00  0.00000000000E+00  0.17309524649E+04  0.17309524649E+04  0.25500000920E-02 0.  1.
       -2   -1    0    0    0  501  0.00000000000E+00  0.00000000000E+00 -0.36836533149E+03  0.36836533150E+03  0.25500000920E-02 0. -1.
    10030    2    1    2    0    0  0.00000000000E+00  0.00000000000E+00  0.13625871334E+04  0.20993177964E+04  0.15970258339E+04 0.  0.
        5    1    3    3  502    0  0.48290009180E+03  0.25685877286E+03 -0.83425408831E+02  0.55330897037E+03  0.46999998093E+01 0. -1.
       -5    1    3    3    0  502 -0.48290009180E+03 -0.25685877286E+03  0.14460125422E+04  0.15460088260E+04  0.46999998093E+01 0.  1.
</event>
<event>
 5   0  0.1423692E-05  0.3020256E+04  0.7818609E-02  0.8237970E-01
        2   -1    0    0  501    0  0.00000000000E+00  0.00000000000E+00  0.17869333054E+04  0.17869333054E+04  0.25500000920E-02 0.  1.
       -2   -1    0    0    0  501  0.00000000000E+00  0.00000000000E+00 -0.12762015656E+04  0.12762015656E+04  0.25500000920E-02 0. -1.
    10030    2    1    2    0    0  0.00000000000E+00  0.00000000000E+00  0.51073173978E+03  0.30631348710E+04  0.30202563348E+04 0.  0.
        3    1    3    3  502    0  0.10871572776E+04 -0.43023783257E+03 -0.71396004643E+03  0.13699468956E+04  0.10100000352E+00 0. -1.
       -3    1    3    3    0  502 -0.10871572776E+04  0.43023783257E+03  0.12246917862E+04  0.16931879754E+04  0.10100000352E+00 0.  1.
</event>
<event>
 5   0  0.4806125E-06  0.1916523E+04  0.7818609E-02  0.8646675E-01
        4   -1    0    0  501    0  0.00000000000E+00  0.00000000000E+00  0.86541370378E+03  0.86541463565E+03  0.12699999809E+01 0.  1.
       -4   -1    0    0    0  501  0.00000000000E+00  0.00000000000E+00 -0.10610688223E+04  0.10610695823E+04  0.12699999809E+01 0. -1.
    10030    2    1    2    0    0  0.00000000000E+00  0.00000000000E+00 -0.19565511850E+03  0.19264842180E+04  0.19165230280E+04 0.  0.
        4    1    3    3  502    0 -0.11912226490E+03 -0.47558868232E+02 -0.10524009232E+04  0.10601892643E+04  0.12699999809E+01 0. -1.
       -4    1    3    3    0  502  0.11912226490E+03  0.47558868232E+02  0.85674580474E+03  0.86629495369E+03  0.12699999809E+01 0.  1.
</event>
<event>
 5   0  0.5730920E-06  0.3276087E+04  0.7818609E-02  0.8169007E-01
        1   -1    0    0  501    0  0.00000000000E+00  0.00000000000E+00  0.14225499925E+04  0.14225499925E+04  0.50400001928E-02 0.  1.
       -1   -1    0    0    0  501  0.00000000000E+00  0.00000000000E+00 -0.18861811071E+04  0.18861811071E+04  0.50400001928E-02 0. -1.
    10030    2    1    2    0    0  0.00000000000E+00  0.00000000000E+00 -0.46363111469E+03  0.33087310996E+04  0.32760872514E+04 0.  0.
        1    1    3    3  502    0 -0.90162594337E+03  0.11779648002E+04 -0.93347293618E+03  0.17526842656E+04  0.50400001928E-02 0. -1.
       -1    1    3    3    0  502  0.90162594337E+03 -0.11779648002E+04  0.46984182149E+03  0.15560468340E+04  0.50400001928E-02 0.  1.
</event>
<event>
 5   0  0.7032692E-06  0.2928683E+04  0.7818609E-02  0.8264394E-01
       -1   -1    0    0    0  501  0.00000000000E+00  0.00000000000E+00  0.12027422088E+04  0.12027422088E+04  0.50400001928E-02 0. -1.
        1   -1    0    0  501    0  0.00000000000E+00  0.00000000000E+00 -0.17828386942E+04  0.17828386942E+04  0.50400001928E-02 0.  1.
    10030    2    1    2    0    0  0.00000000000E+00  0.00000000000E+00 -0.58009648541E+03  0.29855809030E+04  0.29286825359E+04 0.  0.
        5    1    3    3  502    0  0.91428813936E+03  0.96002376887E+03  0.34388910661E+03  0.13696168246E+04  0.46999998093E+01 0. -1.
       -5    1    3    3    0  502 -0.91428813936E+03 -0.96002376887E+03 -0.92398559202E+03  0.16159640784E+04  0.46999998093E+01 0.  1.
</event>
<event>
 5   0  0.7032692E-06  0.1604114E+04  0.7818609E-02  0.8818025E-01
        1   -1    0    0  501    0  0.00000000000E+00  0.00000000000E+00  0.15319183198E+04  0.15319183198E+04  0.50400001928E-02 0.  1.
       -1   -1    0    0    0  501  0.00000000000E+00  0.00000000000E+00 -0.41992779868E+03  0.41992779871E+03  0.50400001928E-02 0. -1.
    10030    2    1    2    0    0  0.00000000000E+00  0.00000000000E+00  0.11119905211E+04  0.19518461185E+04  0.16041135718E+04 0.  0.
        5    1    3    3  502    0  0.48820152917E+03  0.38791017124E+03  0.11697833913E+04  0.13256056376E+04  0.46999998093E+01 0.  1.
       -5    1    3    3    0  502 -0.48820152917E+03 -0.38791017124E+03 -0.57792870173E+02  0.62624048087E+03  0.46999998093E+01 0. -1.
</event>
<event>
 5   0  0.1480547E-05  0.2923662E+04  0.7818609E-02  0.8265872E-01
        2   -1    0    0  501    0  0.00000000000E+00  0.00000000000E+00  0.12148042099E+04  0.12148042099E+04  0.25500000920E-02 0. -1.
       -2   -1    0    0    0  501  0.00000000000E+00  0.00000000000E+00 -0.17590899664E+04  0.17590899664E+04  0.25500000920E-02 0.  1.
    10030    2    1    2    0    0  0.00000000000E+00  0.00000000000E+00 -0.54428575650E+03  0.29738941763E+04  0.29236620165E+04 0.  0.
        1    1    3    3  502    0 -0.80924576783E+03  0.50447777241E+01  0.96616645919E+03  0.12603101957E+04  0.50400001928E-02 0. -1.
       -1    1    3    3    0  502  0.80924576783E+03 -0.50447777241E+01 -0.15104522157E+04  0.17135839806E+04  0.50400001928E-02 0.  1.
</event>
<event>
 5   0  0.1480547E-05  0.2915918E+04  0.7818609E-02  0.8268157E-01
        2   -1    0    0  501    0  0.00000000000E+00  0.00000000000E+00  0.24183963170E+04  0.24183963170E+04  0.25500000920E-02 0. -1.
       -2   -1    0    0    0  501  0.00000000000E+00  0.00000000000E+00 -0.87894790276E+03  0.87894790276E+03  0.25500000920E-02 0.  1.
    10030    2    1    2    0    0  0.00000000000E+00  0.00000000000E+00  0.15394484142E+04  0.32973442198E+04  0.29159179487E+04 0.  0.
        1    1    3    3  502    0 -0.50741741584E+03  0.75968422911E+03 -0.51515062683E+03  0.10487958477E+04  0.50400001928E-02 0.  1.
       -1    1    3    3    0  502  0.50741741584E+03 -0.75968422911E+03  0.20545990411E+04  0.22485483720E+04  0.50400001928E-02 0. -1.
</event>
<event>
 5   0  0.5329891E-06  0.3053164E+04  0.7818609E-02  0.8228710E-01
        1   -1    0    0  501    0  0.00000000000E+00  0.00000000000E+00  0.10774283679E+04  0.10774283679E+04  0.50400001928E-02 0.  1.
       -1   -1    0    0    0  501  0.00000000000E+00  0.00000000000E+00 -0.21629767797E+04  0.21629767797E+04  0.50400001928E-02 0. -1.
    10030    2    1    2    0    0  0.00000000000E+00  0.00000000000E+00 -0.10855484118E+04  0.32404051477E+04  0.30531639600E+04 0.  0.
        4    1    3    3  502    0 -0.88015665080E+03  0.82596306559E+03 -0.15347375156E+04  0.19525141665E+04  0.12699999809E+01 0. -1.
       -4    1    3    3    0  502  0.88015665080E+03 -0.82596306559E+03  0.44918910376E+03  0.12878909812E+04  0.12699999809E+01 0.  1.
</event>
<event>
 5   0  0.1345931E-05  0.1688301E+04  0.7818609E-02  0.8768065E-01
       -2   -1    0    0    0  501  0.00000000000E+00  0.00000000000E+00  0.45513740312E+03  0.45513740312E+03  0.25500000920E-02 0.  1.
        2   -1    0    0  501    0  0.00000000000E+00  0.00000000000E+00 -0.15656598751E+04  0.15656598751E+04  0.25500000920E-02 0. -1.
    10030    2    1    2    0    0  0.00000000000E+00  0.00000000000E+00 -0.11105224720E+04  0.20207972782E+04  0.16883013590E+04 0.  0.
        2    1    3    3  502    0  0.25441328643E+03 -0.60041388538E+02  0.40547267449E+03  0.48243049076E+03  0.25500000920E-02 0.  1.
       -2    1    3    3    0  502 -0.25441328643E+03  0.60041388538E+02 -0.15159951465E+04  0.15383667875E+04  0.25500000920E-02 0. -1.
</event>
<event>
 5   0  0.1523029E-05  0.3006756E+04  0.7818609E-02  0.8241804E-01
       -2   -1    0    0    0  501  0.00000000000E+00  0.00000000000E+00  0.11323693650E+04  0.11323693651E+04  0.25500000920E-02 0.  1.
        2   -1    0    0  501    0  0.00000000000E+00  0.00000000000E+00 -0.19959429780E+04  0.19959429780E+04  0.25500000920E-02 0. -1.
    10030    2    1    2    0    0  0.00000000000E+00  0.00000000000E+00 -0.86357361290E+03  0.31283123430E+04  0.30067555156E+04 0.  0.
        5    1    3    3  502    0  0.14902657167E+04 -0.96045924304E+02 -0.25156178741E+03  0.15144048827E+04  0.46999998093E+01 0.  1.
       -5    1    3    3    0  502 -0.14902657167E+04  0.96045924304E+02 -0.61201182549E+03  0.16139074603E+04  0.46999998093E+01 0. -1.
</event>
<event>
 5   0  0.1523029E-05  0.2993392E+04  0.7818609E-02  0.8245620E-01
        2   -1    0    0  501    0  0.00000000000E+00  0.00000000000E+00  0.11819750549E+04  0.11819750549E+04  0.25500000920E-02 0. -1.
       -2   -1    0    0    0  501  0.00000000000E+00  0.00000000000E+00 -0.18952162059E+04  0.18952162059E+04  0.25500000920E-02 0.  1.
    10030    2    1    2    0    0  0.00000000000E+00  0.00000000000E+00 -0.71324115097E+03  0.30771912609E+04  0.29933915742E+04 0.  0.
        5    1    3    3  502    0  0.21999141407E+03  0.47288681148E+03 -0.17987688294E+04  0.18728613271E+04  0.46999998093E+01 0.  1.
       -5    1    3    3    0  502 -0.21999141407E+03 -0.47288681148E+03  0.10855276785E+04  0.12043299338E+04  0.46999998093E+01 0. -1.
</event>
<event>
 5   0  0.5730920E-06  0.2930229E+04  0.7818609E-02  0.8263940E-01
       -1   -1    0    0    0  501  0.00000000000E+00  0.00000000000E+00  0.12625971267E+04  0.12625971267E+04  0.50400001928E-02 0. -1.
        1   -1    0    0  501    0  0.00000000000E+00  0.00000000000E+00 -0.17001147699E+04  0.17001147699E+04  0.50400001928E-02 0.  1.
    10030    2    1    2    0    0  0.00000000000E+00  0.00000000000E+00 -0.43751764321E+03  0.29627118966E+04  0.29302286761E+04 0.  0.
        1    1    3    3  502    0  0.12521346518E+04 -0.25104203810E+03 -0.94483986278E+03  0.15885797611E+04  0.50400001928E-02 0. -1.
       -1    1    3    3    0  502 -0.12521346518E+04  0.25104203810E+03  0.50732221958E+03  0.13741321354E+04  0.50400001928E-02 0.  1.
</event>
<event>
 5   0  0.5329891E-06  0.3027518E+04  0.7818609E-02  0.8235916E-01
        1   -1    0    0  501    0  0.00000000000E+00  0.00000000000E+00  0.11787345274E+04  0.11787345274E+04  0.50400001928E-02 0.  1.
       -1   -1    0    0    0  501  0.00000000000E+00  0.00000000000E+00 -0.19440047944E+04  0.19440047944E+04  0.50400001928E-02 0. -1.
    10030    2    1    2    0    0  0.00000000000E+00  0.00000000000E+00 -0.76527026697E+03  0.31227393218E+04  0.30275175128E+04 0.  0.
        4    1    3    3  502    0  0.23040560502E+03 -0.80499816911E+03 -0.16833920077E+04  0.18801380427E+04  0.12699999809E+01 0. -1.
       -4    1    3    3    0  502 -0.23040560502E+03  0.80499816911E+03  0.91812174076E+03  0.12426012791E+04  0.12699999809E+01 0.  1.
</event>
<event>
 5   0  0.1423692E-05  0.3030604E+04  0.7818609E-02  0.8235045E-01
        2   -1    0    0  501    0  0.00000000000E+00  0.00000000000E+00  0.19686251538E+04  0.19686251538E+04  0.25500000920E-02 0.  1.
       -2   -1    0    0    0  501  0.00000000000E+00  0.00000000000E+00 -0.11663671999E+04  0.11663672000E+04  0.25500000920E-02 0. -1.
    10030    2    1    2    0    0  0.00000000000E+00  0.00000000000E+00  0.80225795387E+03  0.31349923538E+04  0.30306037738E+04 0.  0.
        3    1    3    3  502    0  0.22538820212E+03  0.47547106154E+03 -0.10688266481E+04  0.11913282444E+04  0.10100000352E+00 0. -1.
       -3    1    3    3    0  502 -0.22538820212E+03 -0.47547106154E+03  0.18710846020E+04  0.19436641094E+04  0.10100000352E+00 0.  1.
</event>
<event>
 5   0  0.1480547E-05  0.2713842E+04  0.7818609E-02  0.8330528E-01
        2   -1    0    0  501    0  0.00000000000E+00  0.00000000000E+00  0.15934138663E+04  0.15934138663E+04  0.25500000920E-02 0.  1.
       -2   -1    0    0    0  501  0.00000000000E+00  0.00000000000E+00 -0.11555285608E+04  0.11555285608E+04  0.25500000920E-02 0. -1.
    10030    2    1    2    0    0  0.00000000000E+00  0.00000000000E+00  0.43788530557E+03  0.27489424271E+04  0.27138424653E+04 0.  0.
        1    1    3    3  502    0  0.64160045434E+03 -0.91650198957E+03 -0.55884808075E+03  0.12505751546E+04  0.50400001928E-02 0. -1.
       -1    1    3    3    0  502 -0.64160045434E+03  0.91650198957E+03  0.99673338632E+03  0.14983672725E+04  0.50400001928E-02 0.  1.
</event>
<event>
 5   0  0.1523029E-05  0.2963230E+04  0.7818609E-02  0.8254309E-01
       -2   -1    0    0    0  501  0.00000000000E+00  0.00000000000E+00  0.17627119448E+04  0.17627119448E+04  0.25500000920E-02 0. -1.
        2   -1    0    0  501    0  0.00000000000E+00  0.00000000000E+00 -0.12453440089E+04  0.12453440089E+04  0.25500000920E-02 0.  1.
    10030    2    1    2    0    0  0.00000000000E+00  0.00000000000E+00  0.51736793589E+03  0.30080559538E+04  0.29632298325E+04 0.  0.
        5    1    3    3  502    0  0.14390460416E+03  0.86302271140E+03 -0.95508076960E+03  0.12952675793E+04  0.46999998093E+01 0.  1.
       -5    1    3    3    0  502 -0.14390460416E+03 -0.86302271140E+03  0.14724487055E+04  0.17127883745E+04  0.46999998093E+01 0. -1.
</event>
<event>
 5   0  0.4806125E-06  0.2998225E+04  0.7818609E-02  0.8244238E-01
        4   -1    0    0  501    0  0.00000000000E+00  0.00000000000E+00  0.21802275784E+04  0.21802279483E+04  0.12699999809E+01 0.  1.
       -4   -1    0    0    0  501  0.00000000000E+00  0.00000000000E+00 -0.10307809891E+04  0.10307817715E+04  0.12699999809E+01 0. -1.
    10030    2    1    2    0    0  0.00000000000E+00  0.00000000000E+00  0.11494465893E+04  0.32110097197E+04  0.29982254683E+04 0.  0.
        3    1    3    3  502    0  0.23125618627E+03  0.72109494786E+03 -0.81088253892E+03  0.11094989183E+04  0.10100000352E+00 0. -1.
       -3    1    3    3    0  502 -0.23125618627E+03 -0.72109494786E+03  0.19603291282E+04  0.21015108014E+04  0.10100000352E+00 0.  1.
</event>
<event>
 5   0  0.1423692E-05  0.2085147E+04  0.7818609E-02  0.8567815E-01
       -2   -1    0    0    0  501  0.00000000000E+00  0.00000000000E+00  0.62479504785E+03  0.62479504786E+03  0.25500000920E-02 0. -1.
        2   -1    0    0  501    0  0.00000000000E+00  0.00000000000E+00 -0.17397058338E+04  0.17397058338E+04  0.25500000920E-02 0.  1.
    10030    2    1    2    0    0  0.00000000000E+00  0.00000000000E+00 -0.11149107860E+04  0.23645008817E+04  0.20851470833E+04 0.  0.
        3    1    3    3  502    0  0.58770578728E+03 -0.15878659722E+03  0.40230959693E+03  0.72970151285E+03  0.10100000352E+00 0. -1.
       -3    1    3    3    0  502 -0.58770578728E+03  0.15878659722E+03 -0.15172203829E+04  0.16347993689E+04  0.10100000352E+00 0.  1.
</event>
<event>
 5   0  0.1388724E-05  0.2383270E+04  0.7818609E-02  0.8445794E-01
        2   -1    0    0  501    0  0.00000000000E+00  0.00000000000E+00  0.15742793171E+04  0.15742793171E+04  0.25500000920E-02 0.  1.
       -2   -1    0    0    0  501  0.00000000000E+00  0.00000000000E+00 -0.90199594362E+03  0.90199594362E+03  0.25500000920E-02 0. -1.
    10030    2    1    2    0    0  0.00000000000E+00  0.00000000000E+00  0.67228337351E+03  0.24762752607E+04  0.23832696517E+04 0.  0.
        4    1    3    3  502    0  0.94621836844E+03 -0.59436590292E+03  0.76629265563E+03  0.13549192132E+04  0.12699999809E+01 0.  1.
       -4    1    3    3    0  502 -0.94621836844E+03  0.59436590292E+03 -0.94009282122E+02  0.11213560475E+04  0.12699999809E+01 0. -1.
</event>
<event>
 5   0  0.4806125E-06  0.3024757E+04  0.7818609E-02  0.8236697E-01
       -3   -1    0    0    0  501  0.00000000000E+00  0.00000000000E+00  0.96602198368E+03  0.96602198896E+03  0.10100000352E+00 0. -1.
        3   -1    0    0  501    0  0.00000000000E+00  0.00000000000E+00 -0.23677391807E+04  0.23677391828E+04  0.10100000352E+00 0.  1.
    10030    2    1    2    0    0  0.00000000000E+00  0.00000000000E+00 -0.14017171970E+04  0.33337611718E+04  0.30247565936E+04 0.  0.
        5    1    3    3  502    0 -0.15005025082E+04 -0.17751820441E+03 -0.62904443010E+03  0.16366855150E+04  0.46999998093E+01 0.  1.
       -5    1    3    3    0  502  0.15005025082E+04  0.17751820441E+03 -0.77267276691E+03  0.16970756568E+04  0.46999998093E+01 0. -1.
</event>
<event>
 5   0  0.1423692E-05  0.1533274E+04  0.7818609E-02  0.8862623E-01
        2   -1    0    0  501    0  0.00000000000E+00  0.00000000000E+00  0.16393229318E+04  0.16393229318E+04  0.25500000920E-02 0. -1.
       -2   -1    0    0    0  501  0.00000000000E+00  0.00000000000E+00 -0.35852120075E+03  0.35852120076E+03  0.25500000920E-02 0.  1.
    10030    2    1    2    0    0  0.00000000000E+00  0.00000000000E+00  0.12808017310E+04  0.19978441325E+04  0.15332736558E+04 0.  0.
        3    1    3    3  502    0 -0.54013846102E+02  0.30341079380E+03 -0.27425572930E+03  0.41254311365E+03  0.10100000352E+00 0.  1.
       -3    1    3    3    0  502  0.54013846102E+02 -0.30341079380E+03  0.15550574603E+04  0.15853010189E+04  0.10100000352E+00 0. -1.
</event>
<event>
 5   0  0.1388724E-05  0.1705007E+04  0.7818609E-02  0.8758514E-01
       -2   -1    0    0    0  501  0.00000000000E+00  0.00000000000E+00  0.69800659167E+03  0.69800659167E+03  0.25500000920E-02 0. -1.
        2   -1    0    0  501    0  0.00000000000E+00  0.00000000000E+00 -0.10411971900E+04  0.10411971900E+04  0.25500000920E-02 0.  1.
    10030    2    1    2    0    0  0.00000000000E+00  0.00000000000E+00 -0.34319059831E+03  0.17392037817E+04  0.17050073335E+04 0.  0.
        4    1    3    3  502    0  0.48570839144E+02  0.55050924935E+03  0.49053162816E+03  0.73894685273E+03  0.12699999809E+01 0. -1.
       -4    1    3    3    0  502 -0.48570839144E+02 -0.55050924935E+03 -0.83372222647E+03  0.10002569289E+04  0.12699999809E+01 0.  1.
</event>
<event>
 5   0  0.1480547E-05  0.2269362E+04  0.7818609E-02  0.8490100E-01
       -2   -1    0    0    0  501  0.00000000000E+00  0.00000000000E+00  0.70375816295E+03  0.70375816296E+03  0.25500000920E-02 0. -1.
        2   -1    0    0  501    0  0.00000000000E+00  0.00000000000E+00 -0.18294650960E+04  0.18294650960E+04  0.25500000920E-02 0.  1.
    10030    2    1    2    0    0  0.00000000000E+00  0.00000000000E+00 -0.11257069331E+04  0.25332232590E+04  0.22693620206E+04 0.  0.
        1    1    3    3  502    0  0.33270333328E+03 -0.99230787683E+03 -0.73556599524E+02  0.10491792048E+04  0.50400001928E-02 0. -1.
       -1    1    3    3    0  502 -0.33270333328E+03  0.99230787683E+03 -0.10521503336E+04  0.14840440542E+04  0.50400001928E-02 0.  1.
</event>
<event>
 5   0  0.5329891E-06  0.2478065E+04  0.7818609E-02  0.8410842E-01
        1   -1    0    0  501    0  0.00000000000E+00  0.00000000000E+00  0.12970653538E+04  0.12970653539E+04  0.50400001928E-02 0.  1.
       -1   -1    0    0    0  501  0.00000000000E+00  0.00000000000E+00 -0.11835963614E+04  0.11835963614E+04  0.50400001928E-02 0. -1.
    10030    2    1    2    0    0  0.00000000000E+00  0.00000000000E+00  0.11346899249E+03  0.24806617152E+04  0.24780652399E+04 0.  0.
        4    1    3    3  502    0  0.87132609269E+02  0.26429576561E+03 -0.11519061873E+04  0.11850459150E+04  0.12699999809E+01 0. -1.
       -4    1    3    3    0  502 -0.87132609269E+02 -0.26429576561E+03  0.12653751798E+04  0.12956158003E+04  0.12699999809E+01 0.  1.
</event>
<event>
 5   0  0.1423692E-05  0.2164066E+04  0.7818609E-02  0.8533535E-01
        2   -1    0    0  501    0  0.00000000000E+00  0.00000000000E+00  0.16101494084E+04  0.16101494084E+04  0.25500000920E-02 0.  1.
       -2   -1    0    0    0  501  0.00000000000E+00  0.00000000000E+00 -0.72713465705E+03  0.72713465705E+03  0.25500000920E-02 0. -1.
    10030    2    1    2    0    0  0.00000000000E+00  0.00000000000E+00  0.88301475138E+03  0.23372840655E+04  0.21640660229E+04 0.  0.
        3    1    3    3  502    0  0.89473469897E+03  0.46168293475E+03  0.86958344316E+03  0.13303671255E+04  0.10100000352E+00 0.  1.
       -3    1    3    3    0  502 -0.89473469897E+03 -0.46168293475E+03  0.13431308212E+02  0.10069169400E+04  0.10100000352E+00 0. -1.
</event>
<event>
 5   0  0.1523029E-05  0.3000003E+04  0.7818609E-02  0.8243730E-01
       -2   -1    0    0    0  501  0.00000000000E+00  0.00000000000E+00  0.94105644338E+03  0.94105644338E+03  0.25500000920E-02 0. -1.
        2   -1    0    0  501    0  0.00000000000E+00  0.00000000000E+00 -0.23909350299E+04  0.23909350299E+04  0.25500000920E-02 0.  1.
    10030    2    1    2    0    0  0.00000000000E+00  0.00000000000E+00 -0.14498785866E+04  0.33319914733E+04  0.30000032104E+04 0.  0.
        5    1    3    3  502    0  0.77202512119E+03 -0.12341399193E+04 -0.11267146473E+04  0.18408237598E+04  0.46999998093E+01 0.  1.
       -5    1    3    3    0  502 -0.77202512119E+03  0.12341399193E+04 -0.32316393931E+03  0.14911677135E+04  0.46999998093E+01 0. -1.
</event>
<event>
 5   0  0.5522695E-06  0.2993443E+04  0.7818609E-02  0.8245606E-01
        1   -1    0    0  501    0  0.00000000000E+00  0.00000000000E+00  0.14667449265E+04  0.14667449265E+04  0.50400001928E-02 0. -1.
       -1   -1    0    0    0  501  0.00000000000E+00  0.00000000000E+00 -0.15273102866E+04  0.15273102866E+04  0.50400001928E-02 0.  1.
    10030    2    1    2    0    0  0.00000000000E+00  0.00000000000E+00 -0.60565360110E+02  0.29940552131E+04  0.29934425761E+04 0.  0.
        3    1    3    3  502    0  0.98774753900E+02 -0.37307661086E+03  0.14161225410E+04  0.14677689433E+04  0.10100000352E+00 0. -1.
       -3    1    3    3    0  502 -0.98774753900E+02  0.37307661086E+03 -0.14766879012E+04  0.15262862697E+04  0.10100000352E+00 0.  1.
</event>
<event>
 5   0  0.5329891E-06  0.2952246E+04  0.7818609E-02  0.8257500E-01
        1   -1    0    0  501    0  0.00000000000E+00  0.00000000000E+00  0.11356144499E+04  0.11356144499E+04  0.50400001928E-02 0.  1.
       -1   -1    0    0    0  501  0.00000000000E+00  0.00000000000E+00 -0.19187314759E+04  0.19187314759E+04  0.50400001928E-02 0. -1.
    10030    2    1    2    0    0  0.00000000000E+00  0.00000000000E+00 -0.78311702600E+03  0.30543459258E+04  0.29522460531E+04 0.  0.
        4    1    3    3  502    0  0.10756147496E+04 -0.32101489135E+03 -0.13833245514E+04  0.17814561677E+04  0.12699999809E+01 0. -1.
       -4    1    3    3    0  502 -0.10756147496E+04  0.32101489135E+03  0.60020752541E+03  0.12728897582E+04  0.12699999809E+01 0.  1.
</event>
<event>
 5   0  0.1388724E-05  0.3054477E+04  0.7818609E-02  0.8228344E-01
        2   -1    0    0  501    0  0.00000000000E+00  0.00000000000E+00  0.18650393002E+04  0.18650393003E+04  0.25500000920E-02 0.  1.
       -2   -1    0    0    0  501  0.00000000000E+00  0.00000000000E+00 -0.12506206857E+04  0.12506206857E+04  0.25500000920E-02 0. -1.
    10030    2    1    2    0    0  0.00000000000E+00  0.00000000000E+00  0.61441861456E+03  0.31156599859E+04  0.30544765368E+04 0.  0.
        4    1    3    3  502    0  0.14499616920E+04  0.47920583728E+03  0.32831119889E+03  0.15619913569E+04  0.12699999809E+01 0.  1.
       -4    1    3    3    0  502 -0.14499616920E+04 -0.47920583728E+03  0.28610741567E+03  0.15536686291E+04  0.12699999809E+01 0. -1.
</event>
<event>
 5   0  0.5522695E-06  0.3017712E+04  0.7818609E-02  0.8238691E-01
        1   -1    0    0  501    0  0.00000000000E+00  0.00000000000E+00  0.15766758828E+04  0.15766758828E+04  0.50400001928E-02 0.  1.
       -1   -1    0    0    0  501  0.00000000000E+00  0.00000000000E+00 -0.14439535281E+04  0.14439535281E+04  0.50400001928E-02 0. -1.
    10030    2    1    2    0    0  0.00000000000E+00  0.00000000000E+00  0.13272235469E+03  0.30206294109E+04  0.30177121822E+04 0.  0.
        3    1    3    3  502    0  0.94080457525E+03  0.20606214295E+03 -0.10962571606E+04  0.14592308344E+04  0.10100000352E+00 0. -1.
       -3    1    3    3    0  502 -0.94080457525E+03 -0.20606214295E+03  0.12289795153E+04  0.15613985765E+04  0.10100000352E+00 0.  1.
</event>
<event>
 5   0  0.1523029E-05  0.2963328E+04  0.7818609E-02  0.8254281E-01
       -2   -1    0    0    0  501  0.00000000000E+00  0.00000000000E+00  0.12408466223E+04  0.12408466223E+04  0.25500000920E-02 0.  1.
        2   -1    0    0  501    0  0.00000000000E+00  0.00000000000E+00 -0.17692175138E+04  0.17692175138E+04  0.25500000920E-02 0. -1.
    10030    2    1    2    0    0  0.00000000000E+00  0.00000000000E+00 -0.52837089146E+03  0.30100641361E+04  0.29633275730E+04 0.  0.
        5    1    3    3  502    0  0.71826629869E+03 -0.88481168220E+03 -0.12259593778E+04  0.16738568262E+04  0.46999998093E+01 0. -1.
       -5    1    3    3    0  502 -0.71826629869E+03  0.88481168220E+03  0.69758848631E+03  0.13362073099E+04  0.46999998093E+01 0.  1.
</event>
<event>
 5   0  0.1345931E-05  0.2421369E+04  0.7818609E-02  0.8431546E-01
        2   -1    0    0  501    0  0.00000000000E+00  0.00000000000E+00  0.18126507333E+04  0.18126507333E+04  0.25500000920E-02 0.  1.
       -2   -1    0    0    0  501  0.00000000000E+00  0.00000000000E+00 -0.80862621467E+03  0.80862621467E+03  0.25500000920E-02 0. -1.
    10030    2    1    2    0    0  0.00000000000E+00  0.00000000000E+00  0.10040245186E+04  0.26212769480E+04  0.24213689525E+04 0.  0.
        2    1    3    3  502    0  0.97372638715E+03 -0.12763151227E+03 -0.26448604073E+03  0.10170475631E+04  0.25500000920E-02 0.  1.
       -2    1    3    3    0  502 -0.97372638715E+03  0.12763151227E+03  0.12685105594E+04  0.16042293848E+04  0.25500000920E-02 0. -1.
</event>
<event>
 5   0  0.1523029E-05  0.3003702E+04  0.7818609E-02  0.8242675E-01
       -2   -1    0    0    0  501  0.00000000000E+00  0.00000000000E+00  0.14912730714E+04  0.14912730714E+04  0.25500000920E-02 0. -1.
        2   -1    0    0  501    0  0.00000000000E+00  0.00000000000E+00 -0.15125036549E+04  0.15125036549E+04  0.25500000920E-02 0.  1.
    10030    2    1    2    0    0  0.00000000000E+00  0.00000000000E+00 -0.21230583542E+02  0.30037767263E+04  0.30037016969E+04 0.  0.
        5    1    3    3  502    0  0.10218259986E+04 -0.49148159557E+03 -0.99545020345E+03  0.15088491401E+04  0.46999998093E+01 0.  1.
       -5    1    3    3    0  502 -0.10218259986E+04  0.49148159557E+03  0.97421961991E+03  0.14949275862E+04  0.46999998093E+01 0. -1.
</event>
<event>
 5   0  0.7032692E-06  0.2889090E+04  0.7818609E-02  0.8276131E-01
       -1   -1    0    0    0  501  0.00000000000E+00  0.00000000000E+00  0.12784472304E+04  0.12784472304E+04  0.50400001928E-02 0.  1.
        1   -1    0    0  501    0  0.00000000000E+00  0.00000000000E+00 -0.16322221514E+04  0.16322221514E+04  0.50400001928E-02 0. -1.
    10030    2    1    2    0    0  0.00000000000E+00  0.00000000000E+00 -0.35377492097E+03  0.29106693818E+04  0.28890897451E+04 0.  0.
        5    1    3    3  502    0  0.21304064916E+03  0.62936972332E+03 -0.14691196817E+04  0.16123979956E+04  0.46999998093E+01 0. -1.
       -5    1    3    3    0  502 -0.21304064916E+03 -0.62936972332E+03  0.11153447608E+04  0.12982713862E+04  0.46999998093E+01 0.  1.
</event>
<event>
 5   0  0.5329891E-06  0.2262407E+04  0.7818609E-02  0.8492893E-01
       -1   -1    0    0    0  501  0.00000000000E+00  0.00000000000E+00  0.12591170140E+04  0.12591170140E+04  0.50400001928E-02 0.  1.
        1   -1    0    0  501    0  0.00000000000E+00  0.00000000000E+00 -0.10162843743E+04  0.10162843744E+04  0.50400001928E-02 0. -1.
    10030    2    1    2    0    0  0.00000000000E+00  0.00000000000E+00  0.24283263963E+03  0.22754013883E+04  0.22624066361E+04 0.  0.
        4    1    3    3  502    0  0.25331262955E+03  0.48812374890E+03  0.11156220204E+04  0.12438031145E+04  0.12699999809E+01 0.  1.
       -4    1    3    3    0  502 -0.25331262955E+03 -0.48812374890E+03 -0.87278938072E+03  0.10315982738E+04  0.12699999809E+01 0. -1.
</event>
<event>
 5   0  0.1423692E-05  0.2983693E+04  0.7818609E-02  0.8248403E-01
        2   -1    0    0  501    0  0.00000000000E+00  0.00000000000E+00  0.18596983785E+04  0.18596983785E+04  0.25500000920E-02 0. -1.
       -2   -1    0    0    0  501  0.00000000000E+00  0.00000000000E+00 -0.11967567098E+04  0.11967567098E+04  0.25500000920E-02 0.  1.
    10030    2    1    2    0    0  0.00000000000E+00  0.00000000000E+00  0.66294166872E+03  0.30564550883E+04  0.29836933573E+04 0.  0.
        3    1    3    3  502    0 -0.13360114216E+04 -0.65101421516E+03  0.46448525903E+03  0.15570782231E+04  0.10100000352E+00 0.  1.
       -3    1    3    3    0  502  0.13360114216E+04  0.65101421516E+03  0.19845640969E+03  0.14993768651E+04  0.10100000352E+00 0. -1.
</event>
<event>
 5   0  0.5392262E-06  0.2954473E+04  0.7818609E-02  0.8256852E-01
        1   -1    0    0  501    0  0.00000000000E+00  0.00000000000E+00  0.25157235094E+04  0.25157235094E+04  0.50400001928E-02 0. -1.
       -1   -1    0    0    0  501  0.00000000000E+00  0.00000000000E+00 -0.86743559501E+03  0.86743559502E+03  0.50400001928E-02 0.  1.
    10030    2    1    2    0    0  0.00000000000E+00  0.00000000000E+00  0.16482879144E+04  0.33831591044E+04  0.29544732994E+04 0.  0.
        2    1    3    3  502    0 -0.76683845955E+03 -0.35199778762E+03  0.22126348500E+04  0.23680575679E+04  0.25500000920E-02 0. -1.
       -2    1    3    3    0  502  0.76683845955E+03  0.35199778762E+03 -0.56434693566E+03  0.10151015365E+04  0.25500000920E-02 0.  1.
</event>
<event>
 5   0  0.1388724E-05  0.3020321E+04  0.7818609E-02  0.8237952E-01
       -2   -1    0    0    0  501  0.00000000000E+00  0.00000000000E+00  0.13874956100E+04  0.13874956100E+04  0.25500000920E-02 0.  1.
        2   -1    0    0  501    0  0.00000000000E+00  0.00000000000E+00 -0.16436696789E+04  0.16436696789E+04  0.25500000920E-02 0. -1.
    10030    2    1    2    0    0  0.00000000000E+00  0.00000000000E+00 -0.25617406895E+03  0.30311652889E+04  0.30203208199E+04 0.  0.
        4    1    3    3  502    0 -0.55043577369E+02  0.10814603362E+04 -0.11844806209E+04  0.16048620528E+04  0.12699999809E+01 0. -1.
       -4    1    3    3    0  502  0.55043577369E+02 -0.10814603362E+04  0.92830655191E+03  0.14263032362E+04  0.12699999809E+01 0.  1.
</event>
<event>
 5   0  0.5329891E-06  0.2299674E+04  0.7818609E-02  0.8478050E-01
        1   -1    0    0  501    0  0.00000000000E+00  0.00000000000E+00  0.17721530203E+04  0.17721530203E+04  0.50400001928E-02 0.  1.
       -1   -1    0    0    0  501  0.00000000000E+00  0.00000000000E+00 -0.74605581640E+03  0.74605581642E+03  0.50400001928E-02 0. -1.
    10030    2    1    2    0    0  0.00000000000E+00  0.00000000000E+00  0.10260972039E+04  0.25182088367E+04  0.22996739494E+04 0.  0.
        4    1    3    3  502    0  0.82016564406E+03  0.88101554577E+02  0.13902272986E+04  0.16165293447E+04  0.12699999809E+01 0.  1.
       -4    1    3    3    0  502 -0.82016564406E+03 -0.88101554577E+02 -0.36413009468E+03  0.90167949204E+03  0.12699999809E+01 0. -1.
</event>
<event>
 5   0  0.5730920E-06  0.2985914E+04  0.7818609E-02  0.8247765E-01
       -1   -1    0    0    0  501  0.00000000000E+00  0.00000000000E+00  0.11921377835E+04  0.11921377836E+04  0.50400001928E-02 0. -1.
        1   -1    0    0  501    0  0.00000000000E+00  0.00000000000E+00 -0.18696840442E+04  0.18696840443E+04  0.50400001928E-02 0.  1.
    10030    2    1    2    0    0  0.00000000000E+00  0.00000000000E+00 -0.67754626071E+03  0.30618218278E+04  0.29859142603E+04 0.  0.
        1    1    3    3  502    0  0.10851497071E+04 -0.99904668764E+03 -0.57545867553E+03  0.15832867264E+04  0.50400001928E-02 0.  1.
       -1    1    3    3    0  502 -0.10851497071E+04  0.99904668764E+03 -0.10208758518E+03  0.14785351014E+04  0.50400001928E-02 0. -1.
</event>
<event>
 5   0  0.7032692E-06  0.3050785E+04  0.7818609E-02  0.8229376E-01
        1   -1    0    0  501    0  0.00000000000E+00  0.00000000000E+00  0.12412872093E+04  0.12412872093E+04  0.50400001928E-02 0. -1.
       -1   -1    0    0    0  501  0.00000000000E+00  0.00000000000E+00 -0.18745240263E+04  0.18745240263E+04  0.50400001928E-02 0.  1.
    10030    2    1    2    0    0  0.00000000000E+00  0.00000000000E+00 -0.63323681697E+03  0.31158112356E+04  0.30507852743E+04 0.  0.
        5    1    3    3  502    0  0.67993793000E+03 -0.12694393324E+04  0.19710258177E+03  0.14535003699E+04  0.46999998093E+01 0. -1.
       -5    1    3    3    0  502 -0.67993793000E+03  0.12694393324E+04 -0.83033939874E+03  0.16623108658E+04  0.46999998093E+01 0.  1.
</event>
<event>
 5   0  0.5522695E-06  0.3018506E+04  0.7818609E-02  0.8238466E-01
        1   -1    0    0  501    0  0.00000000000E+00  0.00000000000E+00  0.14374348230E+04  0.14374348230E+04  0.50400001928E-02 0. -1.
       -1   -1    0    0    0  501  0.00000000000E+00  0.00000000000E+00 -0.15846595409E+04  0.15846595409E+04  0.50400001928E-02 0.  1.
    10030    2    1    2    0    0  0.00000000000E+00  0.00000000000E+00 -0.14722471788E+03  0.30220943639E+04  0.30185061250E+04 0.  0.
        3    1    3    3  502    0 -0.13655379133E+04 -0.24532875093E+03  0.52120229969E+03  0.14820701185E+04  0.10100000352E+00 0. -1.
       -3    1    3    3    0  502  0.13655379133E+04  0.24532875093E+03 -0.66842701757E+03  0.15400242455E+04  0.10100000352E+00 0.  1.
</event>
<event>
 5   0  0.1345931E-05  0.2615039E+04  0.7818609E-02  0.8363111E-01
        2   -1    0    0  501    0  0.00000000000E+00  0.00000000000E+00  0.15752252769E+04  0.15752252769E+04  0.25500000920E-02 0.  1.
       -2   -1    0    0    0  501  0.00000000000E+00  0.00000000000E+00 -0.10853095893E+04  0.10853095893E+04  0.25500000920E-02 0. -1.
    10030    2    1    2    0    0  0.00000000000E+00  0.00000000000E+00  0.48991568766E+03  0.26605348662E+04  0.26150388894E+04 0.  0.
        2    1    3    3  502    0  0.76932308983E+03  0.90851519061E+03 -0.30514232745E+03  0.12289709956E+04  0.25500000920E-02 0. -1.
       -2    1    3    3    0  502 -0.76932308983E+03 -0.90851519061E+03  0.79505801511E+03  0.14315638706E+04  0.25500000920E-02 0.  1.
</event>
<event>
 5   0  0.5329891E-06  0.1956264E+04  0.7818609E-02  0.8627346E-01
       -1   -1    0    0    0  501  0.00000000000E+00  0.00000000000E+00  0.10162642244E+04  0.10162642244E+04  0.50400001928E-02 0. -1.
        1   -1    0    0  501    0  0.00000000000E+00  0.00000000000E+00 -0.94143037790E+03  0.94143037792E+03  0.50400001928E-02 0.  1.
    10030    2    1    2    0    0  0.00000000000E+00  0.00000000000E+00  0.74833846490E+02  0.19576946023E+04  0.19562637990E+04 0.  0.
        4    1    3    3  502    0 -0.39668637153E+03  0.82232008786E+02  0.92835916533E+03  0.10129040100E+04  0.12699999809E+01 0. -1.
       -4    1    3    3    0  502  0.39668637153E+03 -0.82232008786E+02 -0.85352531884E+03  0.94479059237E+03  0.12699999809E+01 0.  1.
</event>
<event>
 5   0  0.1423692E-05  0.3103453E+04  0.7818609E-02  0.8214791E-01
       -2   -1    0    0    0  501  0.00000000000E+00  0.00000000000E+00  0.11603378919E+04  0.11603378919E+04  0.25500000920E-02 0. -1.
        2   -1    0    0  501    0  0.00000000000E+00  0.00000000000E+00 -0.20751322532E+04  0.20751322532E+04  0.25500000920E-02 0.  1.
    10030    2    1    2    0    0  0.00000000000E+00  0.00000000000E+00 -0.91479436134E+03  0.32354701451E+04  0.31034526477E+04 0.  0.
        3    1    3    3  502    0  0.13768194555E+04 -0.35481088826E+03  0.19059924666E+03  0.14345210569E+04  0.10100000352E+00 0. -1.
       -3    1    3    3    0  502 -0.13768194555E+04  0.35481088826E+03 -0.11053936080E+04  0.18009490882E+04  0.10100000352E+00 0.  1.
</event>
<event>
 5   0  0.1345931E-05  0.2924742E+04  0.7818609E-02  0.8265554E-01
       -2   -1    0    0    0  501  0.00000000000E+00  0.00000000000E+00  0.10656360567E+04  0.10656360567E+04  0.25500000920E-02 0. -1.
        2   -1    0    0  501    0  0.00000000000E+00  0.00000000000E+00 -0.20068092540E+04  0.20068092540E+04  0.25500000920E-02 0.  1.
    10030    2    1    2    0    0  0.00000000000E+00  0.00000000000E+00 -0.94117319734E+03  0.30724453107E+04  0.29247415612E+04 0.  0.
        2    1    3    3  502    0  0.11401006382E+04 -0.66403905431E+03  0.19193842752E+03  0.13332732993E+04  0.25500000920E-02 0. -1.
       -2    1    3    3    0  502 -0.11401006382E+04  0.66403905431E+03 -0.11331116249E+04  0.17391720114E+04  0.25500000920E-02 0.  1.
</event>
<event>
 5   0  0.5730920E-06  0.3012315E+04  0.7818609E-02  0.8240223E-01
       -1   -1    0    0    0  501  0.00000000000E+00  0.00000000000E+00  0.14498486191E+04  0.14498486191E+04  0.50400001928E-02 0.  1.
        1   -1    0    0  501    0  0.00000000000E+00  0.00000000000E+00 -0.15646530329E+04  0.15646530329E+04  0.50400001928E-02 0. -1.
    10030    2    1    2    0    0  0.00000000000E+00  0.00000000000E+00 -0.11480441380E+03  0.30145016520E+04  0.30123147506E+04 0.  0.
        1    1    3    3  502    0  0.28109682334E+03 -0.17507053060E+03  0.14129653149E+04  0.14512532845E+04  0.50400001928E-02 0.  1.
       -1    1    3    3    0  502 -0.28109682334E+03  0.17507053060E+03 -0.15277697287E+04  0.15632483675E+04  0.50400001928E-02 0. -1.
</event>
<event>
 5   0  0.1523029E-05  0.2925739E+04  0.7818609E-02  0.8265260E-01
       -2   -1    0    0    0  501  0.00000000000E+00  0.00000000000E+00  0.99785465963E+03  0.99785465963E+03  0.25500000920E-02 0. -1.
        2   -1    0    0  501    0  0.00000000000E+00  0.00000000000E+00 -0.21445875347E+04  0.21445875347E+04  0.25500000920E-02 0.  1.
    10030    2    1    2    0    0  0.00000000000E+00  0.00000000000E+00 -0.11467328750E+04  0.31424421943E+04  0.29257386517E+04 0.  0.
        5    1    3    3  502    0  0.13735505212E+04  0.26374178995E+03 -0.11293840220E+03  0.14032027433E+04  0.46999998093E+01 0. -1.
       -5    1    3    3    0  502 -0.13735505212E+04 -0.26374178995E+03 -0.10337944728E+04  0.17392394510E+04  0.46999998093E+01 0.  1.
</event>
<event>
 5   0  0.1480547E-05  0.3017995E+04  0.7818609E-02  0.8238611E-01
       -2   -1    0    0    0  501  0.00000000000E+00  0.00000000000E+00  0.17273051712E+04  0.17273051712E+04  0.25500000920E-02 0.  1.
        2   -1    0    0  501    0  0.00000000000E+00  0.00000000000E+00 -0.13182805522E+04  0.13182805522E+04  0.25500000920E-02 0. -1.
    10030    2    1    2    0    0  0.00000000000E+00  0.00000000000E+00  0.40902461895E+03  0.30455857234E+04  0.30179945758E+04 0.  0.
        1    1    3    3  502    0 -0.25573121809E+03 -0.23550924621E+03 -0.12773159617E+04  0.13237821298E+04  0.50400001928E-02 0. -1.
       -1    1    3    3    0  502  0.25573121809E+03  0.23550924621E+03  0.16863405807E+04  0.17218035936E+04  0.50400001928E-02 0.  1.
</event>
<event>
 5   0  0.1423692E-05  0.1741881E+04  0.7818609E-02  0.8737832E-01
       -2   -1    0    0    0  501  0.00000000000E+00  0.00000000000E+00  0.52713430536E+03  0.52713430536E+03  0.25500000920E-02 0.  1.
        2   -1    0    0  501    0  0.00000000000E+00  0.00000000000E+00 -0.14389831447E+04  0.14389831447E+04  0.25500000920E-02 0. -1.
    10030    2    1    2    0    0  0.00000000000E+00  0.00000000000E+00 -0.91184883936E+03  0.19661174501E+04  0.17418810297E+04 0.  0.
        3    1    3    3  502    0 -0.61272203371E+03 -0.32581852284E+02 -0.11535937807E+04  0.13066248462E+04  0.10100000352E+00 0. -1.
       -3    1    3    3    0  502  0.61272203371E+03  0.32581852284E+02  0.24174494133E+03  0.65949260387E+03  0.10100000352E+00 0.  1.
</event>
<event>
 5   0  0.5730920E-06  0.2976878E+04  0.7818609E-02  0.8250364E-01
        1   -1    0    0  501    0  0.00000000000E+00  0.00000000000E+00  0.18324635600E+04  0.18324635600E+04  0.50400001928E-02 0.  1.
       -1   -1    0    0    0  501  0.00000000000E+00  0.00000000000E+00 -0.12090015594E+04  0.12090015594E+04  0.50400001928E-02 0. -1.
    10030    2    1    2    0    0  0.00000000000E+00  0.00000000000E+00  0.62346200065E+03  0.30414651194E+04  0.29768784332E+04 0.  0.
        1    1    3    3  502    0 -0.59845324342E+03  0.10236382700E+04 -0.60749445279E+03  0.13323029320E+04  0.50400001928E-02 0. -1.
       -1    1    3    3    0  502  0.59845324342E+03 -0.10236382700E+04  0.12309564534E+04  0.17091621874E+04  0.50400001928E-02 0.  1.
</event>
<event>
 5   0  0.5392262E-06  0.1872904E+04  0.7818609E-02  0.8668462E-01
        1   -1    0    0  501    0  0.00000000000E+00  0.00000000000E+00  0.13578237902E+04  0.13578237902E+04  0.50400001928E-02 0. -1.
       -1   -1    0    0    0  501  0.00000000000E+00  0.00000000000E+00 -0.64584428974E+03  0.64584428976E+03  0.50400001928E-02 0.  1.
    10030    2    1    2    0    0  0.00000000000E+00  0.00000000000E+00  0.71197950048E+03  0.20036680800E+04  0.18729044198E+04 0.  0.
        2    1    3    3  502    0  0.82074466954E+03  0.44082962454E+03  0.25455327730E+03  0.96578980190E+03  0.25500000920E-02 0.  1.
       -2    1    3    3    0  502 -0.82074466954E+03 -0.44082962454E+03  0.45742622318E+03  0.10378782781E+04  0.25500000920E-02 0. -1.
</event>
<event>
 5   0  0.1480547E-05  0.3045557E+04  0.7818609E-02  0.8230840E-01
       -2   -1    0    0    0  501  0.00000000000E+00  0.00000000000E+00  0.17135593468E+04  0.17135593468E+04  0.25500000920E-02 0.  1.
        2   -1    0    0  501    0  0.00000000000E+00  0.00000000000E+00 -0.13532387971E+04  0.13532387971E+04  0.25500000920E-02 0. -1.
    10030    2    1    2    0    0  0.00000000000E+00  0.00000000000E+00  0.36032054961E+03  0.30667981439E+04  0.30455574132E+04 0.  0.
        1    1    3    3  502    0  0.71424099169E+03  0.74484579407E+03 -0.94743496928E+03  0.14009170112E+04  0.50400001928E-02 0. -1.
       -1    1    3    3    0  502 -0.71424099169E+03 -0.74484579407E+03  0.13077555189E+04  0.16658811327E+04  0.50400001928E-02 0.  1.
</event>
<event>
 5   0  0.1423692E-05  0.1825564E+04  0.7818609E-02  0.8692822E-01
        2   -1    0    0  501    0  0.00000000000E+00  0.00000000000E+00  0.23853664956E+04  0.23853664956E+04  0.25500000920E-02 0. -1.
       -2   -1    0    0    0  501  0.00000000000E+00  0.00000000000E+00 -0.34928440068E+03  0.34928440069E+03  0.25500000920E-02 0.  1.
    10030    2    1    2    0    0  0.00000000000E+00  0.00000000000E+00  0.20360820949E+04  0.27346508963E+04  0.18255643586E+04 0.  0.
        3    1    3    3  502    0 -0.55250156884E+03  0.16897501364E+03 -0.40510349093E+02  0.57918186901E+03  0.10100000352E+00 0.  1.
       -3    1    3    3    0  502  0.55250156884E+03 -0.16897501364E+03  0.20765924440E+04  0.21554690273E+04  0.10100000352E+00 0. -1.
</event>
<event>
 5   0  0.7032692E-06  0.2952946E+04  0.7818609E-02  0.8257296E-01
        1   -1    0    0  501    0  0.00000000000E+00  0.00000000000E+00  0.25893191966E+04  0.25893191966E+04  0.50400001928E-02 0.  1.
       -1   -1    0    0    0  501  0.00000000000E+00  0.00000000000E+00 -0.84190965871E+03  0.84190965872E+03  0.50400001928E-02 0. -1.
    10030    2    1    2    0    0  0.00000000000E+00  0.00000000000E+00  0.17474095379E+04  0.34312288553E+04  0.29529462177E+04 0.  0.
        5    1    3    3  502    0  0.88504369903E+03  0.42497597880E+02  0.22460289367E+04  0.24144930047E+04  0.46999998093E+01 0.  1.
       -5    1    3    3    0  502 -0.88504369903E+03 -0.42497597880E+02 -0.49861939887E+03  0.10167358506E+04  0.46999998093E+01 0. -1.
</event>
<event>
 5   0  0.1423692E-05  0.2920262E+04  0.7818609E-02  0.8266875E-01
       -2   -1    0    0    0  501  0.00000000000E+00  0.00000000000E+00  0.88214791469E+03  0.88214791470E+03  0.25500000920E-02 0. -1.
        2   -1    0    0  501    0  0.00000000000E+00  0.00000000000E+00 -0.24168076478E+04  0.24168076478E+04  0.25500000920E-02 0.  1.
    10030    2    1    2    0    0  0.00000000000E+00  0.00000000000E+00 -0.15346597331E+04  0.32989555624E+04  0.29202615134E+04 0.  0.
        3    1    3    3  502    0 -0.66948462242E+03 -0.85288670361E+03 -0.18720813954E+04  0.21634033720E+04  0.10100000352E+00 0.  1.
       -3    1    3    3    0  502  0.66948462242E+03  0.85288670361E+03  0.33742166231E+03  0.11355521905E+04  0.10100000352E+00 0. -1.
</event>
<event>
 5   0  0.5329891E-06  0.2163944E+04  0.7818609E-02  0.8533587E-01
       -1   -1    0    0    0  501  0.00000000000E+00  0.00000000000E+00  0.63089721659E+03  0.63089721661E+03  0.50400001928E-02 0.  1.
        1   -1    0    0  501    0  0.00000000000E+00  0.00000000000E+00 -0.18555530363E+04  0.18555530363E+04  0.50400001928E-02 0. -1.
    10030    2    1    2    0    0  0.00000000000E+00  0.00000000000E+00 -0.12246558197E+04  0.24864502529E+04  0.21639438494E+04 0.  0.
        4    1    3    3  502    0  0.91707713813E+03 -0.53857575891E+03 -0.38376695760E+03  0.11306515891E+04  0.12699999809E+01 0.  1.
       -4    1    3    3    0  502 -0.91707713813E+03  0.53857575891E+03 -0.84088886209E+03  0.13557986638E+04  0.12699999809E+01 0. -1.
</event>
<event>
 5   0  0.5329891E-06  0.3048656E+04  0.7818609E-02  0.8229972E-01
        1   -1    0    0  501    0  0.00000000000E+00  0.00000000000E+00  0.21793765996E+04  0.21793765996E+04  0.50400001928E-02 0.  1.
       -1   -1    0    0    0  501  0.00000000000E+00  0.00000000000E+00 -0.10661653448E+04  0.10661653448E+04  0.50400001928E-02 0. -1.
    10030    2    1    2    0    0  0.00000000000E+00  0.00000000000E+00  0.11132112548E+04  0.32455419444E+04  0.30486559686E+04 0.  0.
        4    1    3    3  502    0  0.42187417766E+03 -0.13417182257E+04  0.11822575589E+04  0.18373677279E+04  0.12699999809E+01 0.  1.
       -4    1    3    3    0  502 -0.42187417766E+03  0.13417182257E+04 -0.69046304079E+02  0.14081742165E+04  0.12699999809E+01 0. -1.
</event>
<event>
 5   0  0.1423692E-05  0.2975711E+04  0.7818609E-02  0.8250701E-01
        2   -1    0    0  501    0  0.00000000000E+00  0.00000000000E+00  0.16359443510E+04  0.16359443510E+04  0.25500000920E-02 0. -1.
       -2   -1    0    0    0  501  0.00000000000E+00  0.00000000000E+00 -0.13531715954E+04  0.13531715954E+04  0.25500000920E-02 0.  1.
    10030    2    1    2    0    0  0.00000000000E+00  0.00000000000E+00  0.28277275557E+03  0.29891159464E+04  0.29757106226E+04 0.  0.
        3    1    3    3  502    0 -0.55552833850E+03 -0.12199671485E+04 -0.50710836449E+03  0.14332098527E+04  0.10100000352E+00 0.  1.
       -3    1    3    3    0  502  0.55552833850E+03  0.12199671485E+04  0.78988112006E+03  0.15559060937E+04  0.10100000352E+00 0. -1.
</event>
<event>
 5   0  0.5522695E-06  0.2987364E+04  0.7818609E-02  0.8247348E-01
       -1   -1    0    0    0  501  0.00000000000E+00  0.00000000000E+00  0.29421975990E+04  0.29421975990E+04  0.50400001928E-02 0. -1.
        1   -1    0    0  501    0  0.00000000000E+00  0.00000000000E+00 -0.75830584991E+03  0.75830584993E+03  0.50400001928E-02 0.  1.
    10030    2    1    2    0    0  0.00000000000E+00  0.00000000000E+00  0.21838917491E+04  0.37005034490E+04  0.29873638218E+04 0.  0.
        3    1    3    3  502    0  0.10442769414E+04 -0.10574592982E+04  0.12771380212E+04  0.19595448535E+04  0.10100000352E+00 0. -1.
       -3    1    3    3    0  502 -0.10442769414E+04  0.10574592982E+04  0.90675372792E+03  0.17409585954E+04  0.10100000352E+00 0.  1.
</event>
<event>
 5   0  0.5730920E-06  0.2900554E+04  0.7818609E-02  0.8272713E-01
        1   -1    0    0  501    0  0.00000000000E+00  0.00000000000E+00  0.94513815350E+03  0.94513815351E+03  0.50400001928E-02 0. -1.
       -1   -1    0    0    0  501  0.00000000000E+00  0.00000000000E+00 -0.22253927056E+04  0.22253927056E+04  0.50400001928E-02 0.  1.
    10030    2    1    2    0    0  0.00000000000E+00  0.00000000000E+00 -0.12802545521E+04  0.31705308591E+04  0.29005541213E+04 0.  0.
        1    1    3    3  502    0  0.91292863695E+03  0.10214514610E+04 -0.11990755658E+03  0.13752016600E+04  0.50400001928E-02 0.  1.
       -1    1    3    3    0  502 -0.91292863695E+03 -0.10214514610E+04 -0.11603469955E+04  0.17953291992E+04  0.50400001928E-02 0. -1.
</event>
<event>
 5   0  0.5329891E-06  0.1967203E+04  0.7818609E-02  0.8622110E-01
       -1   -1    0    0    0  501  0.00000000000E+00  0.00000000000E+00  0.73437917634E+03  0.73437917636E+03  0.50400001928E-02 0.  1.
        1   -1    0    0  501    0  0.00000000000E+00  0.00000000000E+00 -0.13174012778E+04  0.13174012778E+04  0.50400001928E-02 0. -1.
    10030    2    1    2    0    0  0.00000000000E+00  0.00000000000E+00 -0.58302210149E+03  0.20517804542E+04  0.19672031571E+04 0.  0.
        4    1    3    3  502    0 -0.21503520402E+03  0.88847998767E+02  0.70526374057E+03  0.74265245069E+03  0.12699999809E+01 0.  1.
       -4    1    3    3    0  502  0.21503520402E+03 -0.88847998767E+02 -0.12882858421E+04  0.13091280035E+04  0.12699999809E+01 0. -1.
</event>
<event>
 5   0  0.1345931E-05  0.3121867E+04  0.7818609E-02  0.8209762E-01
       -2   -1    0    0    0  501  0.00000000000E+00  0.00000000000E+00  0.12325778874E+04  0.12325778874E+04  0.25500000920E-02 0.  1.
        2   -1    0    0  501    0  0.00000000000E+00  0.00000000000E+00 -0.19767625903E+04  0.19767625903E+04  0.25500000920E-02 0. -1.
    10030    2    1    2    0    0  0.00000000000E+00  0.00000000000E+00 -0.74418470297E+03  0.32093404777E+04  0.31218672985E+04 0.  0.
        2    1    3    3  502    0  0.40280909047E+03  0.14560256027E+04  0.31656519451E+02  0.15110485943E+04  0.25500000920E-02 0. -1.
       -2    1    3    3    0  502 -0.40280909047E+03 -0.14560256027E+04 -0.77584122242E+03  0.16982918834E+04  0.25500000920E-02 0.  1.
</event>
<event>
 5   0  0.1345931E-05  0.3005789E+04  0.7818609E-02  0.8242080E-01
       -2   -1    0    0    0  501  0.00000000000E+00  0.00000000000E+00  0.94854244632E+03  0.94854244633E+03  0.25500000920E-02 0.  1.
        2   -1    0    0  501    0  0.00000000000E+00  0.00000000000E+00 -0.23812237673E+04  0.23812237673E+04  0.25500000920E-02 0. -1.
    10030    2    1    2    0    0  0.00000000000E+00  0.00000000000E+00 -0.14326813209E+04  0.33297662136E+04  0.30057889596E+04 0.  0.
        2    1    3    3  502    0 -0.19706482904E+03 -0.14476171918E+04 -0.11068432939E+04  0.18329026591E+04  0.25500000920E-02 0. -1.
       -2    1    3    3    0  502  0.19706482904E+03  0.14476171918E+04 -0.32583802708E+03  0.14968635544E+04  0.25500000920E-02 0.  1.
</event>
<event>
 5   0  0.1345931E-05  0.2933260E+04  0.7818609E-02  0.8263050E-01
        2   -1    0    0  501    0  0.00000000000E+00  0.00000000000E+00  0.23563412115E+04  0.23563412115E+04  0.25500000920E-02 0. -1.
       -2   -1    0    0    0  501  0.00000000000E+00  0.00000000000E+00 -0.91285762845E+03  0.91285762846E+03  0.25500000920E-02 0.  1.
    10030    2    1    2    0    0  0.00000000000E+00  0.00000000000E+00  0.14434835831E+04  0.32691988400E+04  0.29332603363E+04 0.  0.
        2    1    3    3  502    0 -0.74447953701E+03 -0.10821207118E+04  0.14489817990E+04  0.19557053126E+04  0.25500000920E-02 0. -1.
       -2    1    3    3    0  502  0.74447953701E+03  0.10821207118E+04 -0.54982159492E+01  0.13134935273E+04  0.25500000920E-02 0.  1.
</event>
<event>
 5   0  0.5392262E-06  0.2942360E+04  0.7818609E-02  0.8260385E-01
       -1   -1    0    0    0  501  0.00000000000E+00  0.00000000000E+00  0.15372793495E+04  0.15372793495E+04  0.50400001928E-02 0. -1.
        1   -1    0    0  501    0  0.00000000000E+00  0.00000000000E+00 -0.14079225927E+04  0.14079225927E+04  0.50400001928E-02 0.  1.
    10030    2    1    2    0    0  0.00000000000E+00  0.00000000000E+00  0.12935675675E+03  0.29452019422E+04  0.29423598199E+04 0.  0.
        2    1    3    3  502    0 -0.11918034074E+04 -0.72097517169E+03  0.53860141284E+03  0.14934162320E+04  0.25500000920E-02 0.  1.
       -2    1    3    3    0  502  0.11918034074E+04  0.72097517169E+03 -0.40924465609E+03  0.14517857103E+04  0.25500000920E-02 0. -1.
</event>
<event>
 5   0  0.5329891E-06  0.2863215E+04  0.7818609E-02  0.8283907E-01
       -1   -1    0    0    0  501  0.00000000000E+00  0.00000000000E+00  0.94000151551E+03  0.94000151552E+03  0.50400001928E-02 0.  1.
        1   -1    0    0  501    0  0.00000000000E+00  0.00000000000E+00 -0.21803153871E+04  0.21803153871E+04  0.50400001928E-02 0. -1.
    10030    2    1    2    0    0  0.00000000000E+00  0.00000000000E+00 -0.12403138716E+04  0.31203169026E+04  0.28632148143E+04 0.  0.
        4    1    3    3  502    0  0.44564395235E+03 -0.81043997844E+03 -0.18110223853E+04  0.20335228506E+04  0.12699999809E+01 0. -1.
       -4    1    3    3    0  502 -0.44564395235E+03  0.81043997844E+03  0.57070851373E+03  0.10867940520E+04  0.12699999809E+01 0.  1.
</event>
<event>
 5   0  0.5522695E-06  0.3021526E+04  0.7818609E-02  0.8237611E-01
       -1   -1    0    0    0  501  0.00000000000E+00  0.00000000000E+00  0.79990822266E+03  0.79990822268E+03  0.50400001928E-02 0. -1.
        1   -1    0    0  501    0  0.00000000000E+00  0.00000000000E+00 -0.28533330547E+04  0.28533330547E+04  0.50400001928E-02 0.  1.
    10030    2    1    2    0    0  0.00000000000E+00  0.00000000000E+00 -0.20534248320E+04  0.36532412774E+04  0.30215258215E+04 0.  0.
        3    1    3    3  502    0 -0.39696827596E+03 -0.29128172845E+03  0.70017706309E+03  0.85596541245E+03  0.10100000352E+00 0. -1.
       -3    1    3    3    0  502  0.39696827596E+03  0.29128172845E+03 -0.27536018951E+04  0.27972758649E+04  0.10100000352E+00 0.  1.
</event>
<event>
 5   0  0.1523029E-05  0.2973857E+04  0.7818609E-02  0.8251236E-01
        2   -1    0    0  501    0  0.00000000000E+00  0.00000000000E+00  0.27431290128E+04  0.27431290128E+04  0.25500000920E-02 0.  1.
       -2   -1    0    0    0  501  0.00000000000E+00  0.00000000000E+00 -0.80599776457E+03  0.80599776457E+03  0.25500000920E-02 0. -1.
    10030    2    1    2    0    0  0.00000000000E+00  0.00000000000E+00  0.19371312483E+04  0.35491267774E+04  0.29738566558E+04 0.  0.
        5    1    3    3  502    0 -0.89864191689E+03  0.11210596669E+04  0.14255180335E+04  0.20239703123E+04  0.46999998093E+01 0.  1.
       -5    1    3    3    0  502  0.89864191689E+03 -0.11210596669E+04  0.51161321481E+03  0.15251564651E+04  0.46999998093E+01 0. -1.
</event>
<event>
 5   0  0.5329891E-06  0.2938146E+04  0.7818609E-02  0.8261618E-01
        1   -1    0    0  501    0  0.00000000000E+00  0.00000000000E+00  0.18830022721E+04  0.18830022721E+04  0.50400001928E-02 0. -1.
       -1   -1    0    0    0  501  0.00000000000E+00  0.00000000000E+00 -0.11461351106E+04  0.11461351106E+04  0.50400001928E-02 0.  1.
    10030    2    1    2    0    0  0.00000000000E+00  0.00000000000E+00  0.73686716149E+03  0.30291373827E+04  0.29381456856E+04 0.  0.
        4    1    3    3  502    0  0.12527298401E+02 -0.33520499615E+03 -0.11061240228E+04  0.11558681973E+04  0.12699999809E+01 0.  1.
       -4    1    3    3    0  502 -0.12527298401E+02  0.33520499615E+03  0.18429911843E+04  0.18732691854E+04  0.12699999809E+01 0. -1.
</event>
<event>
 5   0  0.1423692E-05  0.2939253E+04  0.7818609E-02  0.8261294E-01
        2   -1    0    0  501    0  0.00000000000E+00  0.00000000000E+00  0.32083646531E+04  0.32083646531E+04  0.25500000920E-02 0. -1.
       -2   -1    0    0    0  501  0.00000000000E+00  0.00000000000E+00 -0.67317826105E+03  0.67317826106E+03  0.25500000920E-02 0.  1.
    10030    2    1    2    0    0  0.00000000000E+00  0.00000000000E+00  0.25351863920E+04  0.38815429141E+04  0.29392525158E+04 0.  0.
        3    1    3    3  502    0  0.23784694002E+03 -0.16048842781E+03  0.31710159335E+04  0.31839707541E+04  0.10100000352E+00 0. -1.
       -3    1    3    3    0  502 -0.23784694002E+03  0.16048842781E+03 -0.63582954151E+03  0.69757215999E+03  0.10100000352E+00 0.  1.
</event>
<event>
 5   0  0.5329891E-06  0.2946873E+04  0.7818609E-02  0.8259066E-01
       -1   -1    0    0    0  501  0.00000000000E+00  0.00000000000E+00  0.14086578773E+04  0.14086578773E+04  0.50400001928E-02 0.  1.
        1   -1    0    0  501    0  0.00000000000E+00  0.00000000000E+00 -0.15411941078E+04  0.15411941078E+04  0.50400001928E-02 0. -1.
    10030    2    1    2    0    0  0.00000000000E+00  0.00000000000E+00 -0.13253623044E+03  0.29498519851E+04  0.29468730685E+04 0.  0.
        4    1    3    3  502    0  0.25622040341E+02 -0.14689501291E+04  0.45839010883E+02  0.14698890429E+04  0.12699999809E+01 0. -1.
       -4    1    3    3    0  502 -0.25622040341E+02  0.14689501291E+04 -0.17837524132E+03  0.14799629422E+04  0.12699999809E+01 0.  1.
</event>
<event>
 5   0  0.4806125E-06  0.2986380E+04  0.7818609E-02  0.8247631E-01
       -3   -1    0    0    0  501  0.00000000000E+00  0.00000000000E+00  0.27482788708E+04  0.27482788726E+04  0.10100000352E+00 0. -1.
        3   -1    0    0  501    0  0.00000000000E+00  0.00000000000E+00 -0.81127739686E+03  0.81127740315E+03  0.10100000352E+00 0.  1.
    10030    2    1    2    0    0  0.00000000000E+00  0.00000000000E+00  0.19370014739E+04  0.35595562758E+04  0.29863801115E+04 0.  0.
        1    1    3    3  502    0 -0.42319513385E+03  0.14303218003E+04  0.88676901289E+03  0.17353022376E+04  0.50400001928E-02 0. -1.
       -1    1    3    3    0  502  0.42319513385E+03 -0.14303218003E+04  0.10502324610E+04  0.18242540382E+04  0.50400001928E-02 0.  1.
</event>
<event>
 5   0  0.5522695E-06  0.2354270E+04  0.7818609E-02  0.8456825E-01
       -1   -1    0    0    0  501  0.00000000000E+00  0.00000000000E+00  0.13712938980E+04  0.13712938981E+04  0.50400001928E-02 0.  1.
        1   -1    0    0  501    0  0.00000000000E+00  0.00000000000E+00 -0.10104667290E+04  0.10104667290E+04  0.50400001928E-02 0. -1.
    10030    2    1    2    0    0  0.00000000000E+00  0.00000000000E+00  0.36082716906E+03  0.23817606270E+04  0.23542700437E+04 0.  0.
        3    1    3    3  502    0 -0.37310739492E+01  0.10500950135E+04 -0.35771236801E+03  0.11093563930E+04  0.10100000352E+00 0. -1.
       -3    1    3    3    0  502  0.37310739492E+01 -0.10500950135E+04  0.71853953707E+03  0.12724042340E+04  0.10100000352E+00 0.  1.
</event>
<event>
 5   0  0.5730920E-06  0.1641537E+04  0.7818609E-02  0.8795429E-01
        1   -1    0    0  501    0  0.00000000000E+00  0.00000000000E+00  0.34275531363E+03  0.34275531367E+03  0.50400001928E-02 0. -1.
       -1   -1    0    0    0  501  0.00000000000E+00  0.00000000000E+00 -0.19654285132E+04  0.19654285132E+04  0.50400001928E-02 0.  1.
    10030    2    1    2    0    0  0.00000000000E+00  0.00000000000E+00 -0.16226731995E+04  0.23081838269E+04  0.16415371656E+04 0.  0.
        1    1    3    3  502    0  0.52117545312E+02  0.78551915977E+03 -0.48487500755E+03  0.92458658971E+03  0.50400001928E-02 0. -1.
       -1    1    3    3    0  502 -0.52117545312E+02 -0.78551915977E+03 -0.11377981920E+04  0.13835972371E+04  0.50400001928E-02 0.  1.
</event>
<event>
 5   0  0.1388724E-05  0.1603566E+04  0.7818609E-02  0.8818360E-01
        2   -1    0    0  501    0  0.00000000000E+00  0.00000000000E+00  0.17845238094E+04  0.17845238094E+04  0.25500000920E-02 0.  1.
       -2   -1    0    0    0  501  0.00000000000E+00  0.00000000000E+00 -0.36023969907E+03  0.36023969907E+03  0.25500000920E-02 0. -1.
    10030    2    1    2    0    0  0.00000000000E+00  0.00000000000E+00  0.14242841103E+04  0.21447635084E+04  0.16035664253E+04 0.  0.
        4    1    3    3  502    0  0.45105607388E+03  0.25380871233E+03 -0.10688637675E+03  0.52848534007E+03  0.12699999809E+01 0. -1.
       -4    1    3    3    0  502 -0.45105607388E+03 -0.25380871233E+03  0.15311704870E+04  0.16162781684E+04  0.12699999809E+01 0.  1.
</event>
<event>
 5   0  0.1345931E-05  0.3093941E+04  0.7818609E-02  0.8217403E-01
       -2   -1    0    0    0  501  0.00000000000E+00  0.00000000000E+00  0.97937629766E+03  0.97937629767E+03  0.25500000920E-02 0.  1.
        2   -1    0    0  501    0  0.00000000000E+00  0.00000000000E+00 -0.24435117723E+04  0.24435117723E+04  0.25500000920E-02 0. -1.
    10030    2    1    2    0    0  0.00000000000E+00  0.00000000000E+00 -0.14641354746E+04  0.34228880699E+04  0.30939408610E+04 0.  0.
        2    1    3    3  502    0 -0.21474313196E+03 -0.34568393251E+02 -0.24265105433E+04  0.24362395209E+04  0.25500000920E-02 0. -1.
       -2    1    3    3    0  502  0.21474313196E+03  0.34568393251E+02  0.96237506867E+03  0.98664854905E+03  0.25500000920E-02 0.  1.
</event>
<event>
 5   0  0.5522695E-06  0.2765870E+04  0.7818609E-02  0.8313943E-01
       -1   -1    0    0    0  501  0.00000000000E+00  0.00000000000E+00  0.12017899487E+04  0.12017899487E+04  0.50400001928E-02 0. -1.
        1   -1    0    0  501    0  0.00000000000E+00  0.00000000000E+00 -0.15913842259E+04  0.15913842259E+04  0.50400001928E-02 0.  1.
    10030    2    1    2    0    0  0.00000000000E+00  0.00000000000E+00 -0.38959427721E+03  0.27931741747E+04  0.27658702553E+04 0.  0.
        3    1    3    3  502    0 -0.41213456918E+03  0.12949941780E+03 -0.15214951715E+04  0.15816360420E+04  0.10100000352E+00 0.  1.
       -3    1    3    3    0  502  0.41213456918E+03 -0.12949941780E+03  0.11319008943E+04  0.12115381327E+04  0.10100000352E+00 0. -1.
</event>
<event>
 5   0  0.1423692E-05  0.2554993E+04  0.7818609E-02  0.8383652E-01
       -2   -1    0    0    0  501  0.00000000000E+00  0.00000000000E+00  0.79073254245E+03  0.79073254245E+03  0.25500000920E-02 0.  1.
        2   -1    0    0  501    0  0.00000000000E+00  0.00000000000E+00 -0.20639051435E+04  0.20639051435E+04  0.25500000920E-02 0. -1.
    10030    2    1    2    0    0  0.00000000000E+00  0.00000000000E+00 -0.12731726010E+04  0.28546376859E+04  0.25549927291E+04 0.  0.
        3    1    3    3  502    0  0.82189082791E+03 -0.73405339531E+03  0.85471135271E+02  0.11052801660E+04  0.10100000352E+00 0.  1.
       -3    1    3    3    0  502 -0.82189082791E+03  0.73405339531E+03 -0.13586437363E+04  0.17493575199E+04  0.10100000352E+00 0. -1.
</event>
<event>
 5   0  0.5730920E-06  0.3036541E+04  0.7818609E-02  0.8233373E-01
        1   -1    0    0  501    0  0.00000000000E+00  0.00000000000E+00  0.19237352816E+04  0.19237352816E+04  0.50400001928E-02 0. -1.
       -1   -1    0    0    0  501  0.00000000000E+00  0.00000000000E+00 -0.11982654914E+04  0.11982654914E+04  0.50400001928E-02 0.  1.
    10030    2    1    2    0    0  0.00000000000E+00  0.00000000000E+00  0.72546979020E+03  0.31220007730E+04  0.30365411919E+04 0.  0.
        1    1    3    3  502    0  0.12517194100E+03  0.14236330307E+04 -0.16427936501E+03  0.14385363154E+04  0.50400001928E-02 0.  1.
       -1    1    3    3    0  502 -0.12517194100E+03 -0.14236330307E+04  0.88974915521E+03  0.16834644576E+04  0.50400001928E-02 0. -1.
</event>
<event>
 5   0  0.5329891E-06  0.2748993E+04  0.7818609E-02  0.8319281E-01
        1   -1    0    0  501    0  0.00000000000E+00  0.00000000000E+00  0.21275031462E+04  0.21275031462E+04  0.50400001928E-02 0. -1.
       -1   -1    0    0    0  501  0.00000000000E+00  0.00000000000E+00 -0.88800863033E+03  0.88800863034E+03  0.50400001928E-02 0.  1.
    10030    2    1    2    0    0  0.00000000000E+00  0.00000000000E+00  0.12394945159E+04  0.30155117766E+04  0.27489933830E+04 0.  0.
        4    1    3    3  502    0  0.10507755781E+04  0.23998410754E+03 -0.31589356550E+03  0.11231705325E+04  0.12699999809E+01 0.  1.
       -4    1    3    3    0  502 -0.10507755781E+04 -0.23998410754E+03  0.15553880814E+04  0.18923412441E+04  0.12699999809E+01 0. -1.
</event>
<event>
 5   0  0.7032692E-06  0.1689647E+04  0.7818609E-02  0.8767291E-01
       -1   -1    0    0    0  501  0.00000000000E+00  0.00000000000E+00  0.83441587251E+03  0.83441587253E+03  0.50400001928E-02 0. -1.
        1   -1    0    0  501    0  0.00000000000E+00  0.00000000000E+00 -0.85536125402E+03  0.85536125403E+03  0.50400001928E-02 0.  1.
    10030    2    1    2    0    0  0.00000000000E+00  0.00000000000E+00 -0.20945381504E+02  0.16897771266E+04  0.16896473089E+04 0.  0.
        5    1    3    3  502    0 -0.15357311942E+03  0.69753212612E+03 -0.46169373333E+03  0.85048160672E+03  0.46999998093E+01 0.  1.
       -5    1    3    3    0  502  0.15357311942E+03 -0.69753212612E+03  0.44074835183E+03  0.83929551984E+03  0.46999998093E+01 0. -1.
</event>
<event>
 5   0  0.1423692E-05  0.2615267E+04  0.7818609E-02  0.8363034E-01
       -2   -1    0    0    0  501  0.00000000000E+00  0.00000000000E+00  0.83889811048E+03  0.83889811048E+03  0.25500000920E-02 0. -1.
        2   -1    0    0  501    0  0.00000000000E+00  0.00000000000E+00 -0.20382749670E+04  0.20382749670E+04  0.25500000920E-02 0.  1.
    10030    2    1    2    0    0  0.00000000000E+00  0.00000000000E+00 -0.11993768566E+04  0.28771730775E+04  0.26152667309E+04 0.  0.
        3    1    3    3  502    0 -0.38032479017E+03  0.11831123908E+04 -0.15212652876E+03  0.12520161206E+04  0.10100000352E+00 0. -1.
       -3    1    3    3    0  502  0.38032479017E+03 -0.11831123908E+04 -0.10472503278E+04  0.16251569569E+04  0.10100000352E+00 0.  1.
</event>
<event>
 5   0  0.5730920E-06  0.1703764E+04  0.7818609E-02  0.8759221E-01
       -1   -1    0    0    0  501  0.00000000000E+00  0.00000000000E+00  0.70941579856E+03  0.70941579857E+03  0.50400001928E-02 0. -1.
        1   -1    0    0  501    0  0.00000000000E+00  0.00000000000E+00 -0.10229580748E+04  0.10229580748E+04  0.50400001928E-02 0.  1.
    10030    2    1    2    0    0  0.00000000000E+00  0.00000000000E+00 -0.31354227627E+03  0.17323738734E+04  0.17037636216E+04 0.  0.
        1    1    3    3  502    0 -0.30831175692E+03 -0.30175600918E+03  0.59013176317E+03  0.73100501124E+03  0.50400001928E-02 0. -1.
       -1    1    3    3    0  502  0.30831175692E+03  0.30175600918E+03 -0.90367403944E+03  0.10013688622E+04  0.50400001928E-02 0.  1.
</event>
<event>
 5   0  0.1480547E-05  0.1661624E+04  0.7818609E-02  0.8783559E-01
       -2   -1    0    0    0  501  0.00000000000E+00  0.00000000000E+00  0.68960333027E+03  0.68960333027E+03  0.25500000920E-02 0. -1.
        2   -1    0    0  501    0  0.00000000000E+00  0.00000000000E+00 -0.10009361848E+04  0.10009361848E+04  0.25500000920E-02 0.  1.
    10030    2    1    2    0    0  0.00000000000E+00  0.00000000000E+00 -0.31133285452E+03  0.16905395151E+04  0.16616244178E+04 0.  0.
        1    1    3    3  502    0  0.61302078569E+02 -0.82744309462E+03 -0.11215651177E+03  0.83725689178E+03  0.50400001928E-02 0. -1.
       -1    1    3    3    0  502 -0.61302078569E+02  0.82744309462E+03 -0.19917634275E+03  0.85328262329E+03  0.50400001928E-02 0.  1.
</event>
<event>
 5   0  0.5329891E-06  0.3044960E+04  0.7818609E-02  0.8231007E-01
       -1   -1    0    0    0  501  0.00000000000E+00  0.00000000000E+00  0.66599659005E+03  0.66599659007E+03  0.50400001928E-02 0.  1.
        1   -1    0    0  501    0  0.00000000000E+00  0.00000000000E+00 -0.34804169541E+04  0.34804169541E+04  0.50400001928E-02 0. -1.
    10030    2    1    2    0    0  0.00000000000E+00  0.00000000000E+00 -0.28144203641E+04  0.41464135442E+04  0.30449603107E+04 0.  0.
        4    1    3    3  502    0  0.98889391655E+03 -0.10893249445E+04 -0.87386349716E+03  0.17111922854E+04  0.12699999809E+01 0. -1.
       -4    1    3    3    0  502 -0.98889391655E+03  0.10893249445E+04 -0.19405568669E+04  0.24352212588E+04  0.12699999809E+01 0.  1.
</event>
<event>
 5   0  0.7032692E-06  0.3022936E+04  0.7818609E-02  0.8237212E-01
       -1   -1    0    0    0  501  0.00000000000E+00  0.00000000000E+00  0.11689308712E+04  0.11689308712E+04  0.50400001928E-02 0.  1.
        1   -1    0    0  501    0  0.00000000000E+00  0.00000000000E+00 -0.19543801431E+04  0.19543801431E+04  0.50400001928E-02 0. -1.
    10030    2    1    2    0    0  0.00000000000E+00  0.00000000000E+00 -0.78544927183E+03  0.31233110143E+04  0.30229358467E+04 0.  0.
        5    1    3    3  502    0  0.14558678584E+04 -0.37372559891E+03 -0.55703712796E+03  0.16029767610E+04  0.46999998093E+01 0. -1.
       -5    1    3    3    0  502 -0.14558678584E+04  0.37372559891E+03 -0.22841214387E+03  0.15203342533E+04  0.46999998093E+01 0.  1.
</event>
<event>
 5   0  0.5392262E-06  0.3012068E+04  0.7818609E-02  0.8240293E-01
        1   -1    0    0  501    0  0.00000000000E+00  0.00000000000E+00  0.11810139584E+04  0.11810139584E+04  0.50400001928E-02 0. -1.
       -1   -1    0    0    0  501  0.00000000000E+00  0.00000000000E+00 -0.19205013942E+04  0.19205013942E+04  0.50400001928E-02 0.  1.
    10030    2    1    2    0    0  0.00000000000E+00  0.00000000000E+00 -0.73948743573E+03  0.31015153526E+04  0.30120683616E+04 0.  0.
        2    1    3    3  502    0  0.47792386690E+03 -0.64459985165E+00 -0.18403457674E+04  0.19013900656E+04  0.25500000920E-02 0.  1.
       -2    1    3    3    0  502 -0.47792386690E+03  0.64459985165E+00  0.11008583317E+04  0.12001252870E+04  0.25500000920E-02 0. -1.
</event>
<event>
 5   0  0.5392262E-06  0.2955537E+04  0.7818609E-02  0.8256543E-01
        1   -1    0    0  501    0  0.00000000000E+00  0.00000000000E+00  0.14636725659E+04  0.14636725659E+04  0.50400001928E-02 0.  1.
       -1   -1    0    0    0  501  0.00000000000E+00  0.00000000000E+00 -0.14919997759E+04  0.14919997759E+04  0.50400001928E-02 0. -1.
    10030    2    1    2    0    0  0.00000000000E+00  0.00000000000E+00 -0.28327210011E+02  0.29556723418E+04  0.29555365945E+04 0.  0.
        2    1    3    3  502    0  0.14439264626E+04 -0.31347908017E+03 -0.38789464226E+02  0.14780721855E+04  0.25500000920E-02 0. -1.
       -2    1    3    3    0  502 -0.14439264626E+04  0.31347908017E+03  0.10462254215E+02  0.14776001563E+04  0.25500000920E-02 0.  1.
</event>
<event>
 5   0  0.7032692E-06  0.2839910E+04  0.7818609E-02  0.8290984E-01
       -1   -1    0    0    0  501  0.00000000000E+00  0.00000000000E+00  0.10684866353E+04  0.10684866353E+04  0.50400001928E-02 0.  1.
        1   -1    0    0  501    0  0.00000000000E+00  0.00000000000E+00 -0.18870355590E+04  0.18870355590E+04  0.50400001928E-02 0. -1.
    10030    2    1    2    0    0  0.00000000000E+00  0.00000000000E+00 -0.81854892365E+03  0.29555221943E+04  0.28399100515E+04 0.  0.
        5    1    3    3  502    0  0.18489339150E+02  0.13703104180E+04 -0.22447115632E+02  0.13706270318E+04  0.46999998093E+01 0.  1.
       -5    1    3    3    0  502 -0.18489339150E+02 -0.13703104180E+04 -0.79610180801E+03  0.15848951625E+04  0.46999998093E+01 0. -1.
</event>
<event>
 5   0  0.1345931E-05  0.2011877E+04  0.7818609E-02  0.8601088E-01
       -2   -1    0    0    0  501  0.00000000000E+00  0.00000000000E+00  0.52982957274E+03  0.52982957275E+03  0.25500000920E-02 0.  1.
        2   -1    0    0  501    0  0.00000000000E+00  0.00000000000E+00 -0.19098825302E+04  0.19098825302E+04  0.25500000920E-02 0. -1.
    10030    2    1    2    0    0  0.00000000000E+00  0.00000000000E+00 -0.13800529574E+04  0.24397121029E+04  0.20118769793E+04 0.  0.
        2    1    3    3  502    0 -0.65841957324E+03  0.11125941432E+03  0.22230360146E+03  0.70378539550E+03  0.25500000920E-02 0.  1.
       -2    1    3    3    0  502  0.65841957324E+03 -0.11125941432E+03 -0.16023565589E+04  0.17359267074E+04  0.25500000920E-02 0. -1.
</event>
<event>
 5   0  0.5329891E-06  0.2259529E+04  0.7818609E-02  0.8494052E-01
       -1   -1    0    0    0  501  0.00000000000E+00  0.00000000000E+00  0.13488749013E+04  0.13488749013E+04  0.50400001928E-02 0.  1.
        1   -1    0    0  501    0  0.00000000000E+00  0.00000000000E+00 -0.94624596787E+03  0.94624596788E+03  0.50400001928E-02 0. -1.
    10030    2    1    2    0    0  0.00000000000E+00  0.00000000000E+00  0.40262893346E+03  0.22951208692E+04  0.22595286558E+04 0.  0.
        4    1    3    3  502    0 -0.10629072385E+04 -0.27445557413E+03  0.47248062809E+03  0.11951306275E+04  0.12699999809E+01 0. -1.
       -4    1    3    3    0  502  0.10629072385E+04  0.27445557413E+03 -0.69851694625E+02  0.10999902418E+04  0.12699999809E+01 0.  1.
</event>
<event>
 5   0  0.5730920E-06  0.2966446E+04  0.7818609E-02  0.8253378E-01
       -1   -1    0    0    0  501  0.00000000000E+00  0.00000000000E+00  0.14818975711E+04  0.14818975711E+04  0.50400001928E-02 0.  1.
        1   -1    0    0  501    0  0.00000000000E+00  0.00000000000E+00 -0.14845497707E+04  0.14845497707E+04  0.50400001928E-02 0. -1.
    10030    2    1    2    0    0  0.00000000000E+00  0.00000000000E+00 -0.26521995625E+01  0.29664473418E+04  0.29664461561E+04 0.  0.
        1    1    3    3  502    0  0.14787070777E+04 -0.11065195763E+03  0.32322420390E+02  0.14831935869E+04  0.50400001928E-02 0. -1.
       -1    1    3    3    0  502 -0.14787070777E+04  0.11065195763E+03 -0.34974619953E+02  0.14832537549E+04  0.50400001928E-02 0.  1.
</event>
<event>
 5   0  0.5730920E-06  0.2986914E+04  0.7818609E-02  0.8247478E-01
        1   -1    0    0  501    0  0.00000000000E+00  0.00000000000E+00  0.15902611398E+04  0.15902611398E+04  0.50400001928E-02 0. -1.
       -1   -1    0    0    0  501  0.00000000000E+00  0.00000000000E+00 -0.14025455945E+04  0.14025455945E+04  0.50400001928E-02 0.  1.
    10030    2    1    2    0    0  0.00000000000E+00  0.00000000000E+00  0.18771554535E+03  0.29928067343E+04  0.29869139631E+04 0.  0.
        1    1    3    3  502    0  0.84599188332E+03 -0.58555934891E+03  0.11785051924E+04  0.15644348840E+04  0.50400001928E-02 0. -1.
       -1    1    3    3    0  502 -0.84599188332E+03  0.58555934891E+03 -0.99078964709E+03  0.14283718502E+04  0.50400001928E-02 0.  1.
</event>
<event>
 5   0  0.1388724E-05  0.3014994E+04  0.7818609E-02  0.8239462E-01
        2   -1    0    0  501    0  0.00000000000E+00  0.00000000000E+00  0.14694202557E+04  0.14694202557E+04  0.25500000920E-02 0.  1.
       -2   -1    0    0    0  501  0.00000000000E+00  0.00000000000E+00 -0.15465600652E+04  0.15465600652E+04  0.25500000920E-02 0. -1.
    10030    2    1    2    0    0  0.00000000000E+00  0.00000000000E+00 -0.77139809434E+02  0.30159803209E+04  0.30149936560E+04 0.  0.
        4    1    3    3  502    0  0.54533181956E+03  0.37814262921E+03  0.13154484819E+04  0.14733583959E+04  0.12699999809E+01 0.  1.
       -4    1    3    3    0  502 -0.54533181956E+03 -0.37814262921E+03 -0.13925882913E+04  0.15426219250E+04  0.12699999809E+01 0. -1.
</event>
<event>
 5   0  0.5522695E-06  0.1676411E+04  0.7818609E-02  0.8774934E-01
        1   -1    0    0  501    0  0.00000000000E+00  0.00000000000E+00  0.14511877864E+04  0.14511877864E+04  0.50400001928E-02 0.  1.
       -1   -1    0    0    0  501  0.00000000000E+00  0.00000000000E+00 -0.48414692220E+03  0.48414692223E+03  0.50400001928E-02 0. -1.
    10030    2    1    2    0    0  0.00000000000E+00  0.00000000000E+00  0.96704086415E+03  0.19353347086E+04  0.16764105706E+04 0.  0.
        3    1    3    3  502    0 -0.25898557549E+02 -0.43187947856E+03  0.13123148861E+04  0.13817962910E+04  0.10100000352E+00 0.  1.
       -3    1    3    3    0  502  0.25898557549E+02  0.43187947856E+03 -0.34527402198E+03  0.55353841758E+03  0.10100000352E+00 0. -1.
</event>
<event>
 5   0  0.1388724E-05  0.2941704E+04  0.7818609E-02  0.8260576E-01
       -2   -1    0    0    0  501  0.00000000000E+00  0.00000000000E+00  0.12338727842E+04  0.12338727842E+04  0.25500000920E-02 0. -1.
        2   -1    0    0  501    0  0.00000000000E+00  0.00000000000E+00 -0.17533460327E+04  0.17533460327E+04  0.25500000920E-02 0.  1.
    10030    2    1    2    0    0  0.00000000000E+00  0.00000000000E+00 -0.51947324847E+03  0.29872188170E+04  0.29417042347E+04 0.  0.
        4    1    3    3  502    0 -0.13477825131E+04  0.55701833001E+03 -0.45405357645E+03  0.15274008595E+04  0.12699999809E+01 0. -1.
       -4    1    3    3    0  502  0.13477825131E+04 -0.55701833001E+03 -0.65419672023E+02  0.14598179574E+04  0.12699999809E+01 0.  1.
</event>
<event>
 5   0  0.1423692E-05  0.2828118E+04  0.7818609E-02  0.8294592E-01
        2   -1    0    0  501    0  0.00000000000E+00  0.00000000000E+00  0.11653368027E+04  0.11653368027E+04  0.25500000920E-02 0. -1.
       -2   -1    0    0    0  501  0.00000000000E+00  0.00000000000E+00 -0.17158667370E+04  0.17158667370E+04  0.25500000920E-02 0.  1.
    10030    2    1    2    0    0  0.00000000000E+00  0.00000000000E+00 -0.55052993431E+03  0.28812035398E+04  0.28281178598E+04 0.  0.
        3    1    3    3  502    0  0.14104622748E+04 -0.16948247420E+02 -0.37648574383E+03  0.14599426692E+04  0.10100000352E+00 0. -1.
       -3    1    3    3    0  502 -0.14104622748E+04  0.16948247420E+02 -0.17404419048E+03  0.14212608706E+04  0.10100000352E+00 0.  1.
</event>
<event>
 5   0  0.1480547E-05  0.2935521E+04  0.7818609E-02  0.8262387E-01
        2   -1    0    0  501    0  0.00000000000E+00  0.00000000000E+00  0.16846303966E+04  0.16846303966E+04  0.25500000920E-02 0. -1.
       -2   -1    0    0    0  501  0.00000000000E+00  0.00000000000E+00 -0.12788090569E+04  0.12788090569E+04  0.25500000920E-02 0.  1.
    10030    2    1    2    0    0  0.00000000000E+00  0.00000000000E+00  0.40582133968E+03  0.29634394534E+04  0.29355208114E+04 0.  0.
        1    1    3    3  502    0  0.54932178656E+03 -0.13537609486E+04  0.60510697282E+02  0.14622190929E+04  0.50400001928E-02 0. -1.
       -1    1    3    3    0  502 -0.54932178656E+03  0.13537609486E+04  0.34531064240E+03  0.15012203605E+04  0.50400001928E-02 0.  1.
</event>
<event>
 5   0  0.1388724E-05  0.2938868E+04  0.7818609E-02  0.8261406E-01
       -2   -1    0    0    0  501  0.00000000000E+00  0.00000000000E+00  0.12698771274E+04  0.12698771274E+04  0.25500000920E-02 0.  1.
        2   -1    0    0  501    0  0.00000000000E+00  0.00000000000E+00 -0.17003500639E+04  0.17003500639E+04  0.25500000920E-02 0. -1.
    10030    2    1    2    0    0  0.00000000000E+00  0.00000000000E+00 -0.43047293655E+03  0.29702271914E+04  0.29388675743E+04 0.  0.
        4    1    3    3  502    0  0.64218130890E+03 -0.12893902777E+04 -0.50869652114E+03  0.15276445546E+04  0.12699999809E+01 0.  1.
       -4    1    3    3    0  502 -0.64218130890E+03  0.12893902777E+04  0.78223584598E+02  0.14425826367E+04  0.12699999809E+01 0. -1.
</event>
<event>
 5   0  0.5522695E-06  0.1577833E+04  0.7818609E-02  0.8834283E-01
        1   -1    0    0  501    0  0.00000000000E+00  0.00000000000E+00  0.57644601260E+03  0.57644601262E+03  0.50400001928E-02 0. -1.
       -1   -1    0    0    0  501  0.00000000000E+00  0.00000000000E+00 -0.10797006621E+04  0.10797006622E+04  0.50400001928E-02 0.  1.
    10030    2    1    2    0    0  0.00000000000E+00  0.00000000000E+00 -0.50325464954E+03  0.16561466748E+04  0.15778328701E+04 0.  0.
        3    1    3    3  502    0 -0.17459762696E+03 -0.76927436243E+03 -0.26320927551E+03  0.83159275427E+03  0.10100000352E+00 0. -1.
       -3    1    3    3    0  502  0.17459762696E+03  0.76927436243E+03 -0.24004537403E+03  0.82455392051E+03  0.10100000352E+00 0.  1.
</event>
<event>
 5   0  0.1423692E-05  0.3031265E+04  0.7818609E-02  0.8234859E-01
        2   -1    0    0  501    0  0.00000000000E+00  0.00000000000E+00  0.13658683886E+04  0.13658683886E+04  0.25500000920E-02 0. -1.
       -2   -1    0    0    0  501  0.00000000000E+00  0.00000000000E+00 -0.16818179814E+04  0.16818179814E+04  0.25500000920E-02 0.  1.
    10030    2    1    2    0    0  0.00000000000E+00  0.00000000000E+00 -0.31594959280E+03  0.30476863700E+04  0.30312650931E+04 0.  0.
        3    1    3    3  502    0 -0.11758645532E+04  0.68815278616E+03  0.50964826066E+03  0.14546315906E+04  0.10100000352E+00 0. -1.
       -3    1    3    3    0  502  0.11758645532E+04 -0.68815278616E+03 -0.82559785346E+03  0.15930547795E+04  0.10100000352E+00 0.  1.
</event>
<event>
 5   0  0.5522695E-06  0.3052764E+04  0.7818609E-02  0.8228822E-01
        1   -1    0    0  501    0  0.00000000000E+00  0.00000000000E+00  0.15425065902E+04  0.15425065902E+04  0.50400001928E-02 0.  1.
       -1   -1    0    0    0  501  0.00000000000E+00  0.00000000000E+00 -0.15104256080E+04  0.15104256081E+04  0.50400001928E-02 0. -1.
    10030    2    1    2    0    0  0.00000000000E+00  0.00000000000E+00  0.32080982111E+02  0.30529321982E+04  0.30527636360E+04 0.  0.
        3    1    3    3  502    0 -0.68725091858E+03 -0.13623797162E+04  0.54110007320E+02  0.15268661432E+04  0.10100000352E+00 0.  1.
       -3    1    3    3    0  502  0.68725091858E+03  0.13623797162E+04 -0.22029025209E+02  0.15260660550E+04  0.10100000352E+00 0. -1.
</event>
<event>
 5   0  0.1388724E-05  0.2954851E+04  0.7818609E-02  0.8256742E-01
       -2   -1    0    0    0  501  0.00000000000E+00  0.00000000000E+00  0.13544311377E+04  0.13544311377E+04  0.25500000920E-02 0. -1.
        2   -1    0    0  501    0  0.00000000000E+00  0.00000000000E+00 -0.16115885325E+04  0.16115885325E+04  0.25500000920E-02 0.  1.
    10030    2    1    2    0    0  0.00000000000E+00  0.00000000000E+00 -0.25715739478E+03  0.29660196702E+04  0.29548507167E+04 0.  0.
        4    1    3    3  502    0  0.43458237866E+03 -0.92152253914E+01  0.12887916471E+04  0.13601221588E+04  0.12699999809E+01 0. -1.
       -4    1    3    3    0  502 -0.43458237866E+03  0.92152253914E+01 -0.15459490419E+04  0.16058975114E+04  0.12699999809E+01 0.  1.
</event>
<event>
 5   0  0.1345931E-05  0.3099659E+04  0.7818609E-02  0.8215832E-01
        2   -1    0    0  501    0  0.00000000000E+00  0.00000000000E+00  0.13129112418E+04  0.13129112418E+04  0.25500000920E-02 0. -1.
       -2   -1    0    0    0  501  0.00000000000E+00  0.00000000000E+00 -0.18294998752E+04  0.18294998752E+04  0.25500000920E-02 0.  1.
    10030    2    1    2    0    0  0.00000000000E+00  0.00000000000E+00 -0.51658863337E+03  0.31424111170E+04  0.30996586606E+04 0.  0.
        2    1    3    3  502    0 -0.13386217306E+04 -0.21850531386E+03  0.50192730628E+03  0.14462308704E+04  0.25500000920E-02 0. -1.
       -2    1    3    3    0  502  0.13386217306E+04  0.21850531386E+03 -0.10185159397E+04  0.16961802466E+04  0.25500000920E-02 0.  1.
</event>
<event>
 5   0  0.1480547E-05  0.3002362E+04  0.7818609E-02  0.8243057E-01
        2   -1    0    0  501    0  0.00000000000E+00  0.00000000000E+00  0.25982383895E+04  0.25982383895E+04  0.25500000920E-02 0.  1.
       -2   -1    0    0    0  501  0.00000000000E+00  0.00000000000E+00 -0.86733563530E+03  0.86733563531E+03  0.25500000920E-02 0. -1.
    10030    2    1    2    0    0  0.00000000000E+00  0.00000000000E+00  0.17309027542E+04  0.34655740248E+04  0.30023622328E+04 0.  0.
        1    1    3    3  502    0  0.14979843626E+04 -0.72448281744E+02  0.78941894070E+03  0.16948121336E+04  0.50400001928E-02 0.  1.
       -1    1    3    3    0  502 -0.14979843626E+04  0.72448281744E+02  0.94148381348E+03  0.17707618912E+04  0.50400001928E-02 0. -1.
</event>
<event>
 5   0  0.1480547E-05  0.2971099E+04  0.7818609E-02  0.8252032E-01
       -2   -1    0    0    0  501  0.00000000000E+00  0.00000000000E+00  0.93200527211E+03  0.93200527211E+03  0.25500000920E-02 0.  1.
        2   -1    0    0  501    0  0.00000000000E+00  0.00000000000E+00 -0.23678590255E+04  0.23678590255E+04  0.25500000920E-02 0. -1.
    10030    2    1    2    0    0  0.00000000000E+00  0.00000000000E+00 -0.14358537534E+04  0.32998642976E+04  0.29710988509E+04 0.  0.
        1    1    3    3  502    0  0.99633849924E+03 -0.10927846379E+04 -0.87495168532E+03  0.17182575830E+04  0.50400001928E-02 0.  1.
       -1    1    3    3    0  502 -0.99633849924E+03  0.10927846379E+04 -0.56090206811E+03  0.15816067147E+04  0.50400001928E-02 0. -1.
</event>
<event>
 5   0  0.1345931E-05  0.2918580E+04  0.7818609E-02  0.8267371E-01
        2   -1    0    0  501    0  0.00000000000E+00  0.00000000000E+00  0.91062248689E+03  0.91062248689E+03  0.25500000920E-02 0.  1.
       -2   -1    0    0    0  501  0.00000000000E+00  0.00000000000E+00 -0.23385400936E+04  0.23385400936E+04  0.25500000920E-02 0. -1.
    10030    2    1    2    0    0  0.00000000000E+00  0.00000000000E+00 -0.14279176067E+04  0.32491625805E+04  0.29185799257E+04 0.  0.
        2    1    3    3  502    0  0.91903377060E+03 -0.14335562628E+03 -0.19657562841E+04  0.21747118604E+04  0.25500000920E-02 0. -1.
       -2    1    3    3    0  502 -0.91903377060E+03  0.14335562628E+03  0.53783867739E+03  0.10744507201E+04  0.25500000920E-02 0.  1.
</event>
<event>
 5   0  0.5392262E-06  0.2999156E+04  0.7818609E-02  0.8243972E-01
        1   -1    0    0  501    0  0.00000000000E+00  0.00000000000E+00  0.15218773422E+04  0.15218773422E+04  0.50400001928E-02 0. -1.
       -1   -1    0    0    0  501  0.00000000000E+00  0.00000000000E+00 -0.14776051242E+04  0.14776051242E+04  0.50400001928E-02 0.  1.
    10030    2    1    2    0    0  0.00000000000E+00  0.00000000000E+00  0.44272218011E+02  0.29994824665E+04  0.29991557208E+04 0.  0.
        2    1    3    3  502    0 -0.29338003510E+03  0.78058013211E+03 -0.12243369367E+04  0.14813433506E+04  0.25500000920E-02 0.  1.
       -2    1    3    3    0  502  0.29338003510E+03 -0.78058013211E+03  0.12686091547E+04  0.15181391159E+04  0.25500000920E-02 0. -1.
</event>
<event>
 5   0  0.5392262E-06  0.3027249E+04  0.7818609E-02  0.8235992E-01
       -1   -1    0    0    0  501  0.00000000000E+00  0.00000000000E+00  0.13728112659E+04  0.13728112659E+04  0.50400001928E-02 0.  1.
        1   -1    0    0  501    0  0.00000000000E+00  0.00000000000E+00 -0.16688818978E+04  0.16688818978E+04  0.50400001928E-02 0. -1.
    10030    2    1    2    0    0  0.00000000000E+00  0.00000000000E+00 -0.29607063188E+03  0.30416931637E+04  0.30272494914E+04 0.  0.
        2    1    3    3  502    0  0.10071865415E+04  0.45915660182E+03  0.88927131650E+03  0.14198778077E+04  0.25500000920E-02 0.  1.
       -2    1    3    3    0  502 -0.10071865415E+04 -0.45915660182E+03 -0.11853419484E+04  0.16218153560E+04  0.25500000920E-02 0. -1.
</event>
<event>
 5   0  0.5329891E-06  0.1925995E+04  0.7818609E-02  0.8642024E-01
       -1   -1    0    0    0  501  0.00000000000E+00  0.00000000000E+00  0.48794635966E+03  0.48794635968E+03  0.50400001928E-02 0. -1.
        1   -1    0    0  501    0  0.00000000000E+00  0.00000000000E+00 -0.19005456849E+04  0.19005456849E+04  0.50400001928E-02 0.  1.
    10030    2    1    2    0    0  0.00000000000E+00  0.00000000000E+00 -0.14125993253E+04  0.23884920446E+04  0.19259951696E+04 0.  0.
        4    1    3    3  502    0  0.43245959772E+03 -0.66166880764E+03 -0.13884137316E+04  0.15976611711E+04  0.12699999809E+01 0.  1.
       -4    1    3    3    0  502 -0.43245959772E+03  0.66166880764E+03 -0.24185593681E+02  0.79083087352E+03  0.12699999809E+01 0. -1.
</event>
<event>
 5   0  0.7032692E-06  0.3093188E+04  0.7818609E-02  0.8217610E-01
       -1   -1    0    0    0  501  0.00000000000E+00  0.00000000000E+00  0.16432984967E+04  0.16432984967E+04  0.50400001928E-02 0.  1.
        1   -1    0    0  501    0  0.00000000000E+00  0.00000000000E+00 -0.14555804182E+04  0.14555804183E+04  0.50400001928E-02 0. -1.
    10030    2    1    2    0    0  0.00000000000E+00  0.00000000000E+00  0.18771807846E+03  0.30988789150E+04  0.30931880726E+04 0.  0.
        5    1    3    3  502    0  0.59064966815E+03 -0.11403833752E+04 -0.76946285587E+03  0.14971427619E+04  0.46999998093E+01 0. -1.
       -5    1    3    3    0  502 -0.59064966815E+03  0.11403833752E+04  0.95718093434E+03  0.16017361531E+04  0.46999998093E+01 0.  1.
</event>
<event>
 5   0  0.7032692E-06  0.2649630E+04  0.7818609E-02  0.8351536E-01
        1   -1    0    0  501    0  0.00000000000E+00  0.00000000000E+00  0.16117823248E+04  0.16117823248E+04  0.50400001928E-02 0. -1.
       -1   -1    0    0    0  501  0.00000000000E+00  0.00000000000E+00 -0.10889404793E+04  0.10889404793E+04  0.50400001928E-02 0.  1.
    10030    2    1    2    0    0  0.00000000000E+00  0.00000000000E+00  0.52284184552E+03  0.27007228041E+04  0.26496301759E+04 0.  0.
        5    1    3    3  502    0  0.10526130787E+04  0.78694652508E+03  0.43147263371E+03  0.13832822743E+04  0.46999998093E+01 0. -1.
       -5    1    3    3    0  502 -0.10526130787E+04 -0.78694652508E+03  0.91369211812E+02  0.13174405298E+04  0.46999998093E+01 0.  1.
</event>
<event>
 5   0  0.1423692E-05  0.2801995E+04  0.7818609E-02  0.8302649E-01
        2   -1    0    0  501    0  0.00000000000E+00  0.00000000000E+00  0.12659997252E+04  0.12659997252E+04  0.25500000920E-02 0. -1.
       -2   -1    0    0    0  501  0.00000000000E+00  0.00000000000E+00 -0.15503902441E+04  0.15503902441E+04  0.25500000920E-02 0.  1.
    10030    2    1    2    0    0  0.00000000000E+00  0.00000000000E+00 -0.28439051893E+03  0.28163899694E+04  0.28019947345E+04 0.  0.
        3    1    3    3  502    0 -0.13555503842E+04  0.35359910180E+03 -0.12648023140E+03  0.14066081288E+04  0.10100000352E+00 0.  1.
       -3    1    3    3    0  502  0.13555503842E+04 -0.35359910180E+03 -0.15791028753E+03  0.14097818406E+04  0.10100000352E+00 0. -1.
</event>
<event>
 5   0  0.1423692E-05  0.2989984E+04  0.7818609E-02  0.8246597E-01
        2   -1    0    0  501    0  0.00000000000E+00  0.00000000000E+00  0.16201312423E+04  0.16201312423E+04  0.25500000920E-02 0. -1.
       -2   -1    0    0    0  501  0.00000000000E+00  0.00000000000E+00 -0.13795185694E+04  0.13795185694E+04  0.25500000920E-02 0.  1.
    10030    2    1    2    0    0  0.00000000000E+00  0.00000000000E+00  0.24061267288E+03  0.29996498117E+04  0.29899840358E+04 0.  0.
        3    1    3    3  502    0  0.32376416267E+03 -0.12300142828E+04  0.90849409878E+03  0.15630482739E+04  0.10100000352E+00 0. -1.
       -3    1    3    3    0  502 -0.32376416267E+03  0.12300142828E+04 -0.66788142591E+03  0.14366015377E+04  0.10100000352E+00 0.  1.
</event>
<event>
 5   0  0.4806125E-06  0.3037542E+04  0.7818609E-02  0.8233091E-01
       -3   -1    0    0    0  501  0.00000000000E+00  0.00000000000E+00  0.15145301531E+04  0.15145301565E+04  0.10100000352E+00 0.  1.
        3   -1    0    0  501    0  0.00000000000E+00  0.00000000000E+00 -0.15230232231E+04  0.15230232264E+04  0.10100000352E+00 0. -1.
    10030    2    1    2    0    0  0.00000000000E+00  0.00000000000E+00 -0.84930700053E+01  0.30375533829E+04  0.30375415095E+04 0.  0.
        1    1    3    3  502    0 -0.89866777191E+03 -0.22575571897E+03  0.11991264402E+04  0.15154120326E+04  0.50400001928E-02 0.  1.
       -1    1    3    3    0  502  0.89866777191E+03  0.22575571897E+03 -0.12076195102E+04  0.15221413503E+04  0.50400001928E-02 0. -1.
</event>
<event>
 5   0  0.1480547E-05  0.2998977E+04  0.7818609E-02  0.8244023E-01
       -2   -1    0    0    0  501  0.00000000000E+00  0.00000000000E+00  0.77775289750E+03  0.77775289751E+03  0.25500000920E-02 0. -1.
        2   -1    0    0  501    0  0.00000000000E+00  0.00000000000E+00 -0.28909760717E+04  0.28909760717E+04  0.25500000920E-02 0.  1.
    10030    2    1    2    0    0  0.00000000000E+00  0.00000000000E+00 -0.21132231742E+04  0.36687289692E+04  0.29989765030E+04 0.  0.
        1    1    3    3  502    0 -0.14140289888E+04 -0.46098218047E+03 -0.12902717361E+04  0.19689549779E+04  0.50400001928E-02 0. -1.
       -1    1    3    3    0  502  0.14140289888E+04  0.46098218047E+03 -0.82295143804E+03  0.16997739913E+04  0.50400001928E-02 0.  1.
</event>
<event>
 5   0  0.5392262E-06  0.3093291E+04  0.7818609E-02  0.8217582E-01
        1   -1    0    0  501    0  0.00000000000E+00  0.00000000000E+00  0.18569913592E+04  0.18569913592E+04  0.50400001928E-02 0. -1.
       -1   -1    0    0    0  501  0.00000000000E+00  0.00000000000E+00 -0.12881654743E+04  0.12881654743E+04  0.50400001928E-02 0.  1.
    10030    2    1    2    0    0  0.00000000000E+00  0.00000000000E+00  0.56882588493E+03  0.31451568335E+04  0.30932909046E+04 0.  0.
        2    1    3    3  502    0  0.32622345538E+03  0.41092541474E+03  0.17637413810E+04  0.18401263810E+04  0.25500000920E-02 0. -1.
       -2    1    3    3    0  502 -0.32622345538E+03 -0.41092541474E+03 -0.11949154960E+04  0.13050304525E+04  0.25500000920E-02 0.  1.
</event>
<event>
 5   0  0.1423692E-05  0.3250885E+04  0.7818609E-02  0.8175506E-01
       -2   -1    0    0    0  501  0.00000000000E+00  0.00000000000E+00  0.24371515678E+04  0.24371515678E+04  0.25500000920E-02 0. -1.
        2   -1    0    0  501    0  0.00000000000E+00  0.00000000000E+00 -0.10840781138E+04  0.10840781138E+04  0.25500000920E-02 0.  1.
    10030    2    1    2    0    0  0.00000000000E+00  0.00000000000E+00  0.13530734540E+04  0.35212296816E+04  0.32508846025E+04 0.  0.
        3    1    3    3  502    0  0.37723754193E+03  0.51665097750E+03 -0.94199145938E+03  0.11386765631E+04  0.10100000352E+00 0.  1.
       -3    1    3    3    0  502 -0.37723754193E+03 -0.51665097750E+03  0.22950649134E+04  0.23825531185E+04  0.10100000352E+00 0. -1.
</event>
<event>
 5   0  0.1388724E-05  0.2713795E+04  0.7818609E-02  0.8330543E-01
       -2   -1    0    0    0  501  0.00000000000E+00  0.00000000000E+00  0.18688286096E+04  0.18688286096E+04  0.25500000920E-02 0.  1.
        2   -1    0    0  501    0  0.00000000000E+00  0.00000000000E+00 -0.98520032914E+03  0.98520032914E+03  0.25500000920E-02 0. -1.
    10030    2    1    2    0    0  0.00000000000E+00  0.00000000000E+00  0.88362828045E+03  0.28540289387E+04  0.27137948053E+04 0.  0.
        4    1    3    3  502    0  0.11082031385E+04  0.65349538091E+03  0.89537558743E+03  0.15674404182E+04  0.12699999809E+01 0.  1.
       -4    1    3    3    0  502 -0.11082031385E+04 -0.65349538091E+03 -0.11747306981E+02  0.12865885205E+04  0.12699999809E+01 0. -1.
</event>
<event>
 5   0  0.1523029E-05  0.2342381E+04  0.7818609E-02  0.8461396E-01
       -2   -1    0    0    0  501  0.00000000000E+00  0.00000000000E+00  0.10940805600E+04  0.10940805600E+04  0.25500000920E-02 0. -1.
        2   -1    0    0  501    0  0.00000000000E+00  0.00000000000E+00 -0.12537345731E+04  0.12537345731E+04  0.25500000920E-02 0.  1.
    10030    2    1    2    0    0  0.00000000000E+00  0.00000000000E+00 -0.15965401311E+03  0.23478151331E+04  0.23423805189E+04 0.  0.
        5    1    3    3  502    0  0.93894810004E+03 -0.34170785394E+03  0.53255428654E+03  0.11322649646E+04  0.46999998093E+01 0. -1.
       -5    1    3    3    0  502 -0.93894810004E+03  0.34170785394E+03 -0.69220829965E+03  0.12155501685E+04  0.46999998093E+01 0.  1.
</event>
<event>
 5   0  0.5730920E-06  0.1491369E+04  0.7818609E-02  0.8890213E-01
        1   -1    0    0  501    0  0.00000000000E+00  0.00000000000E+00  0.22448829800E+04  0.22448829800E+04  0.50400001928E-02 0.  1.
       -1   -1    0    0    0  501  0.00000000000E+00  0.00000000000E+00 -0.24769473751E+03  0.24769473756E+03  0.50400001928E-02 0. -1.
    10030    2    1    2    0    0  0.00000000000E+00  0.00000000000E+00  0.19971882425E+04  0.24925777176E+04  0.14913694385E+04 0.  0.
        1    1    3    3  502    0 -0.18284959504E+02  0.25011883722E+03 -0.17509704755E+03  0.30586393799E+03  0.50400001928E-02 0. -1.
       -1    1    3    3    0  502  0.18284959504E+02 -0.25011883722E+03  0.21722852900E+04  0.21867137796E+04  0.50400001928E-02 0.  1.
</event>
<event>
 5   0  0.5522695E-06  0.2005697E+04  0.7818609E-02  0.8603962E-01
        1   -1    0    0  501    0  0.00000000000E+00  0.00000000000E+00  0.12082150100E+04  0.12082150100E+04  0.50400001928E-02 0. -1.
       -1   -1    0    0    0  501  0.00000000000E+00  0.00000000000E+00 -0.83238936593E+03  0.83238936595E+03  0.50400001928E-02 0.  1.
    10030    2    1    2    0    0  0.00000000000E+00  0.00000000000E+00  0.37582564403E+03  0.20406043759E+04  0.20056972115E+04 0.  0.
        3    1    3    3  502    0 -0.23389059556E+03 -0.85476504858E+03 -0.28970089368E+03  0.93233830607E+03  0.10100000352E+00 0.  1.
       -3    1    3    3    0  502  0.23389059556E+03  0.85476504858E+03  0.66552653771E+03  0.11082660698E+04  0.10100000352E+00 0. -1.
</event>
<event>
 5   0  0.5329891E-06  0.3050771E+04  0.7818609E-02  0.8229380E-01
       -1   -1    0    0    0  501  0.00000000000E+00  0.00000000000E+00  0.89024264144E+03  0.89024264146E+03  0.50400001928E-02 0.  1.
        1   -1    0    0  501    0  0.00000000000E+00  0.00000000000E+00 -0.26136705594E+04  0.26136705594E+04  0.50400001928E-02 0. -1.
    10030    2    1    2    0    0  0.00000000000E+00  0.00000000000E+00 -0.17234279180E+04  0.35039132009E+04  0.30507710387E+04 0.  0.
        4    1    3    3  502    0  0.14351326551E+03  0.15014114409E+04 -0.59989111404E+03  0.16231769262E+04  0.12699999809E+01 0.  1.
       -4    1    3    3    0  502 -0.14351326551E+03 -0.15014114409E+04 -0.11235368039E+04  0.18807362747E+04  0.12699999809E+01 0. -1.
</event>
<event>
 5   0  0.7032692E-06  0.2853949E+04  0.7818609E-02  0.8286712E-01
        1   -1    0    0  501    0  0.00000000000E+00  0.00000000000E+00  0.23496078100E+04  0.23496078100E+04  0.50400001928E-02 0.  1.
       -1   -1    0    0    0  501  0.00000000000E+00  0.00000000000E+00 -0.86663662423E+03  0.86663662424E+03  0.50400001928E-02 0. -1.
    10030    2    1    2    0    0  0.00000000000E+00  0.00000000000E+00  0.14829711858E+04  0.32162444342E+04  0.28539489699E+04 0.  0.
        5    1    3    3  502    0  0.69057273036E+03 -0.12218068803E+04  0.45080503409E+03  0.14740929473E+04  0.46999998093E+01 0.  1.
       -5    1    3    3    0  502 -0.69057273036E+03  0.12218068803E+04  0.10321661517E+04  0.17421514869E+04  0.46999998093E+01 0. -1.
</event>
<event>
 5   0  0.1423692E-05  0.3003151E+04  0.7818609E-02  0.8242832E-01
       -2   -1    0    0    0  501  0.00000000000E+00  0.00000000000E+00  0.18191538052E+04  0.18191538052E+04  0.25500000920E-02 0.  1.
        2   -1    0    0  501    0  0.00000000000E+00  0.00000000000E+00 -0.12394380487E+04  0.12394380487E+04  0.25500000920E-02 0. -1.
    10030    2    1    2    0    0  0.00000000000E+00  0.00000000000E+00  0.57971575652E+03  0.30585918538E+04  0.30031506406E+04 0.  0.
        3    1    3    3  502    0 -0.79450109665E+03 -0.99045233705E+03 -0.52650111529E+03  0.13745658439E+04  0.10100000352E+00 0. -1.
       -3    1    3    3    0  502  0.79450109665E+03  0.99045233705E+03  0.11062168718E+04  0.16840260100E+04  0.10100000352E+00 0.  1.
</event>
<event>
 5   0  0.5392262E-06  0.1795242E+04  0.7818609E-02  0.8708834E-01
        1   -1    0    0  501    0  0.00000000000E+00  0.00000000000E+00  0.85300190462E+03  0.85300190463E+03  0.50400001928E-02 0. -1.
       -1   -1    0    0    0  501  0.00000000000E+00  0.00000000000E+00 -0.94457379061E+03  0.94457379063E+03  0.50400001928E-02 0.  1.
    10030    2    1    2    0    0  0.00000000000E+00  0.00000000000E+00 -0.91571886000E+02  0.17975756953E+04  0.17952417581E+04 0.  0.
        2    1    3    3  502    0  0.74743747422E+02 -0.65991717684E+03  0.55885831611E+03  0.86798613212E+03  0.25500000920E-02 0. -1.
       -2    1    3    3    0  502 -0.74743747422E+02  0.65991717684E+03 -0.65043020211E+03  0.92958956313E+03  0.25500000920E-02 0.  1.
</event>
<event>
 5   0  0.5329891E-06  0.2998195E+04  0.7818609E-02  0.8244247E-01
       -1   -1    0    0    0  501  0.00000000000E+00  0.00000000000E+00  0.11134645236E+04  0.11134645236E+04  0.50400001928E-02 0.  1.
        1   -1    0    0  501    0  0.00000000000E+00  0.00000000000E+00 -0.20182888605E+04  0.20182888605E+04  0.50400001928E-02 0. -1.
    10030    2    1    2    0    0  0.00000000000E+00  0.00000000000E+00 -0.90482433692E+03  0.31317533841E+04  0.29981948199E+04 0.  0.
        4    1    3    3  502    0  0.10776318213E+04  0.90561676401E+03 -0.99099646711E+03  0.17214841493E+04  0.12699999809E+01 0. -1.
       -4    1    3    3    0  502 -0.10776318213E+04 -0.90561676401E+03  0.86172130194E+02  0.14102692348E+04  0.12699999809E+01 0.  1.
</event>
<event>
 5   0  0.5522695E-06  0.2936675E+04  0.7818609E-02  0.8262049E-01
       -1   -1    0    0    0  501  0.00000000000E+00  0.00000000000E+00  0.13028434954E+04  0.13028434954E+04  0.50400001928E-02 0. -1.
        1   -1    0    0  501    0  0.00000000000E+00  0.00000000000E+00 -0.16548533603E+04  0.16548533603E+04  0.50400001928E-02 0.  1.
    10030    2    1    2    0    0  0.00000000000E+00  0.00000000000E+00 -0.35200986486E+03  0.29576968557E+04  0.29366749471E+04 0.  0.
        3    1    3    3  502    0 -0.69641323691E+02 -0.73985954106E+03  0.10994620271E+04  0.13270489115E+04  0.10100000352E+00 0. -1.
       -3    1    3    3    0  502  0.69641323691E+02  0.73985954106E+03 -0.14514718919E+04  0.16306479441E+04  0.10100000352E+00 0.  1.
</event>
<event>
 5   0  0.5329891E-06  0.3021199E+04  0.7818609E-02  0.8237703E-01
        1   -1    0    0  501    0  0.00000000000E+00  0.00000000000E+00  0.14088642886E+04  0.14088642886E+04  0.50400001928E-02 0.  1.
       -1   -1    0    0    0  501  0.00000000000E+00  0.00000000000E+00 -0.16196806076E+04  0.16196806076E+04  0.50400001928E-02 0. -1.
    10030    2    1    2    0    0  0.00000000000E+00  0.00000000000E+00 -0.21081631899E+03  0.30285448963E+04  0.30211985483E+04 0.  0.
        4    1    3    3  502    0  0.56813164229E+03  0.51480136154E+02 -0.15075533495E+04  0.16118754548E+04  0.12699999809E+01 0. -1.
       -4    1    3    3    0  502 -0.56813164229E+03 -0.51480136154E+02  0.12967370305E+04  0.14166694415E+04  0.12699999809E+01 0.  1.
</event>
<event>
 5   0  0.1345931E-05  0.2428943E+04  0.7818609E-02  0.8428747E-01
        2   -1    0    0  501    0  0.00000000000E+00  0.00000000000E+00  0.10905822090E+04  0.10905822090E+04  0.25500000920E-02 0.  1.
       -2   -1    0    0    0  501  0.00000000000E+00  0.00000000000E+00 -0.13524342452E+04  0.13524342452E+04  0.25500000920E-02 0. -1.
    10030    2    1    2    0    0  0.00000000000E+00  0.00000000000E+00 -0.26185203621E+03  0.24430164543E+04  0.24289427550E+04 0.  0.
        2    1    3    3  502    0 -0.10715599256E+04  0.15205698915E+03  0.42324623673E+03  0.11621098825E+04  0.25500000920E-02 0.  1.
       -2    1    3    3    0  502  0.10715599256E+04 -0.15205698915E+03 -0.68509827294E+03  0.12809065718E+04  0.25500000920E-02 0. -1.
</event>
<event>
 5   0  0.1523029E-05  0.2770534E+04  0.7818609E-02  0.8312475E-01
        2   -1    0    0  501    0  0.00000000000E+00  0.00000000000E+00  0.20912039900E+04  0.20912039900E+04  0.25500000920E-02 0. -1.
       -2   -1    0    0    0  501  0.00000000000E+00  0.00000000000E+00 -0.91763638493E+03  0.91763638494E+03  0.25500000920E-02 0.  1.
    10030    2    1    2    0    0  0.00000000000E+00  0.00000000000E+00  0.11735676050E+04  0.30088403749E+04  0.27705341503E+04 0.  0.
        5    1    3    3  502    0  0.11685360834E+04  0.73611860091E+03  0.70372899693E+03  0.15500334719E+04  0.46999998093E+01 0.  1.
       -5    1    3    3    0  502 -0.11685360834E+04 -0.73611860091E+03  0.46983860811E+03  0.14588069031E+04  0.46999998093E+01 0. -1.
</event>
<event>
 5   0  0.1423692E-05  0.2878107E+04  0.7818609E-02  0.8279421E-01
       -2   -1    0    0    0  501  0.00000000000E+00  0.00000000000E+00  0.10266978921E+04  0.10266978921E+04  0.25500000920E-02 0.  1.
        2   -1    0    0  501    0  0.00000000000E+00  0.00000000000E+00 -0.20170248798E+04  0.20170248798E+04  0.25500000920E-02 0. -1.
    10030    2    1    2    0    0  0.00000000000E+00  0.00000000000E+00 -0.99032698775E+03  0.30437227719E+04  0.28781071505E+04 0.  0.
        3    1    3    3  502    0  0.10124976400E+04 -0.52629791349E+03  0.43206387319E+03  0.12201721868E+04  0.10100000352E+00 0.  1.
       -3    1    3    3    0  502 -0.10124976400E+04  0.52629791349E+03 -0.14223908609E+04  0.18235505851E+04  0.10100000352E+00 0. -1.
</event>
<event>
 5   0  0.1523029E-05  0.3010478E+04  0.7818609E-02  0.8240745E-01
       -2   -1    0    0    0  501  0.00000000000E+00  0.00000000000E+00  0.10868060645E+04  0.10868060645E+04  0.25500000920E-02 0.  1.
        2   -1    0    0  501    0  0.00000000000E+00  0.00000000000E+00 -0.20847728972E+04  0.20847728972E+04  0.25500000920E-02 0. -1.
    10030    2    1    2    0    0  0.00000000000E+00  0.00000000000E+00 -0.99796683264E+03  0.31715789617E+04  0.30104775886E+04 0.  0.
        5    1    3    3  502    0 -0.14101989450E+04  0.23977100331E+03 -0.99264253587E+03  0.17411239164E+04  0.46999998093E+01 0.  1.
       -5    1    3    3    0  502  0.14101989450E+04 -0.23977100331E+03 -0.53242967711E+01  0.14304550453E+04  0.46999998093E+01 0. -1.
</event>
<event>
 5   0  0.5329891E-06  0.3027321E+04  0.7818609E-02  0.8235972E-01
        1   -1    0    0  501    0  0.00000000000E+00  0.00000000000E+00  0.17410923732E+04  0.17410923733E+04  0.50400001928E-02 0. -1.
       -1   -1    0    0    0  501  0.00000000000E+00  0.00000000000E+00 -0.13159371529E+04  0.13159371529E+04  0.50400001928E-02 0.  1.
    10030    2    1    2    0    0  0.00000000000E+00  0.00000000000E+00  0.42515522031E+03  0.30570295262E+04  0.30273210207E+04 0.  0.
        4    1    3    3  502    0 -0.10982094636E+04  0.24582310099E+03 -0.80961776158E+03  0.13863533300E+04  0.12699999809E+01 0.  1.
       -4    1    3    3    0  502  0.10982094636E+04 -0.24582310099E+03  0.12347729819E+04  0.16706761962E+04  0.12699999809E+01 0. -1.
</event>
<event>
 5   0  0.5522695E-06  0.2960033E+04  0.7818609E-02  0.8255237E-01
       -1   -1    0    0    0  501  0.00000000000E+00  0.00000000000E+00  0.10560267985E+04  0.10560267986E+04  0.50400001928E-02 0.  1.
        1   -1    0    0  501    0  0.00000000000E+00  0.00000000000E+00 -0.20742359110E+04  0.20742359110E+04  0.50400001928E-02 0. -1.
    10030    2    1    2    0    0  0.00000000000E+00  0.00000000000E+00 -0.10182091125E+04  0.31302627096E+04  0.29600329110E+04 0.  0.
        3    1    3    3  502    0 -0.35203447237E+03  0.12235181468E+04  0.28896395659E+03  0.13055363279E+04  0.10100000352E+00 0.  1.
       -3    1    3    3    0  502  0.35203447237E+03 -0.12235181468E+04 -0.13071730691E+04  0.18247263817E+04  0.10100000352E+00 0. -1.
</event>
<event>
 5   0  0.5522695E-06  0.2922646E+04  0.7818609E-02  0.8266171E-01
       -1   -1    0    0    0  501  0.00000000000E+00  0.00000000000E+00  0.10060307180E+04  0.10060307180E+04  0.50400001928E-02 0.  1.
        1   -1    0    0  501    0  0.00000000000E+00  0.00000000000E+00 -0.21226639762E+04  0.21226639762E+04  0.50400001928E-02 0. -1.
    10030    2    1    2    0    0  0.00000000000E+00  0.00000000000E+00 -0.11166332582E+04  0.31286946942E+04  0.29226461737E+04 0.  0.
        3    1    3    3  502    0 -0.22339762014E+03 -0.12206127089E+04  0.26788748996E+03  0.12694745367E+04  0.10100000352E+00 0.  1.
       -3    1    3    3    0  502  0.22339762014E+03  0.12206127089E+04 -0.13845207482E+04  0.18592201575E+04  0.10100000352E+00 0. -1.
</event>
<event>
 5   0  0.7032692E-06  0.2983966E+04  0.7818609E-02  0.8248324E-01
       -1   -1    0    0    0  501  0.00000000000E+00  0.00000000000E+00  0.12661670219E+04  0.12661670219E+04  0.50400001928E-02 0.  1.
        1   -1    0    0  501    0  0.00000000000E+00  0.00000000000E+00 -0.17580723408E+04  0.17580723408E+04  0.50400001928E-02 0. -1.
    10030    2    1    2    0    0  0.00000000000E+00  0.00000000000E+00 -0.49190531890E+03  0.30242393627E+04  0.29839659649E+04 0.  0.
        5    1    3    3  502    0  0.14213395712E+04  0.43320222285E+03 -0.10952236115E+03  0.14899287165E+04  0.46999998093E+01 0.  1.
       -5    1    3    3    0  502 -0.14213395712E+04 -0.43320222285E+03 -0.38238295775E+03  0.15343106462E+04  0.46999998093E+01 0. -1.
</event>
<event>
 5   0  0.1345931E-05  0.3000204E+04  0.7818609E-02  0.8243673E-01
        2   -1    0    0  501    0  0.00000000000E+00  0.00000000000E+00  0.17783177659E+04  0.17783177659E+04  0.25500000920E-02 0.  1.
       -2   -1    0    0    0  501  0.00000000000E+00  0.00000000000E+00 -0.12654126092E+04  0.12654126092E+04  0.25500000920E-02 0. -1.
    10030    2    1    2    0    0  0.00000000000E+00  0.00000000000E+00  0.51290515672E+03  0.30437303752E+04  0.30002038092E+04 0.  0.
        2    1    3    3  502    0  0.20952910705E+03 -0.49766089461E+03 -0.11634007179E+04  0.12826028392E+04  0.25500000920E-02 0. -1.
       -2    1    3    3    0  502 -0.20952910705E+03  0.49766089461E+03  0.16763058746E+04  0.17611275360E+04  0.25500000920E-02 0.  1.
</event>
<event>
 5   0  0.1423692E-05  0.3033406E+04  0.7818609E-02  0.8234255E-01
        2   -1    0    0  501    0  0.00000000000E+00  0.00000000000E+00  0.12160084489E+04  0.12160084489E+04  0.25500000920E-02 0.  1.
       -2   -1    0    0    0  501  0.00000000000E+00  0.00000000000E+00 -0.18917537306E+04  0.18917537306E+04  0.25500000920E-02 0. -1.
    10030    2    1    2    0    0  0.00000000000E+00  0.00000000000E+00 -0.67574528171E+03  0.31077621795E+04  0.30334063491E+04 0.  0.
        3    1    3    3  502    0  0.24997987883E+02 -0.74765738298E+03 -0.16895969930E+04  0.18477971941E+04  0.10100000352E+00 0. -1.
       -3    1    3    3    0  502 -0.24997987883E+02  0.74765738298E+03  0.10138517113E+04  0.12599649854E+04  0.10100000352E+00 0.  1.
</event>
<event>
 5   0  0.1423692E-05  0.1804495E+04  0.7818609E-02  0.8703913E-01
       -2   -1    0    0    0  501  0.00000000000E+00  0.00000000000E+00  0.51062777195E+03  0.51062777195E+03  0.25500000920E-02 0.  1.
        2   -1    0    0  501    0  0.00000000000E+00  0.00000000000E+00 -0.15942159619E+04  0.15942159619E+04  0.25500000920E-02 0. -1.
    10030    2    1    2    0    0  0.00000000000E+00  0.00000000000E+00 -0.10835881900E+04  0.21048437339E+04  0.18044954360E+04 0.  0.
        3    1    3    3  502    0 -0.10516928926E+03  0.74174000863E+03 -0.11282873360E+04  0.13543526655E+04  0.10100000352E+00 0. -1.
       -3    1    3    3    0  502  0.10516928926E+03 -0.74174000863E+03  0.44699146047E+02  0.75049106834E+03  0.10100000352E+00 0.  1.
</event>
<event>
 5   0  0.5392262E-06  0.3002015E+04  0.7818609E-02  0.8243156E-01
       -1   -1    0    0    0  501  0.00000000000E+00  0.00000000000E+00  0.77724278288E+03  0.77724278289E+03  0.50400001928E-02 0. -1.
        1   -1    0    0  501    0  0.00000000000E+00  0.00000000000E+00 -0.28987388673E+04  0.28987388673E+04  0.50400001928E-02 0.  1.
    10030    2    1    2    0    0  0.00000000000E+00  0.00000000000E+00 -0.21214960844E+04  0.36759816502E+04  0.30020152325E+04 0.  0.
        2    1    3    3  502    0 -0.13514618095E+04 -0.45647146925E+03 -0.48874753521E+03  0.15078757834E+04  0.25500000920E-02 0. -1.
       -2    1    3    3    0  502  0.13514618095E+04  0.45647146925E+03 -0.16327485492E+04  0.21681058668E+04  0.25500000920E-02 0.  1.
</event>
<event>
 5   0  0.1388724E-05  0.1699236E+04  0.7818609E-02  0.8761800E-01
       -2   -1    0    0    0  501  0.00000000000E+00  0.00000000000E+00  0.47756362298E+03  0.47756362299E+03  0.25500000920E-02 0.  1.
        2   -1    0    0  501    0  0.00000000000E+00  0.00000000000E+00 -0.15115285278E+04  0.15115285278E+04  0.25500000920E-02 0. -1.
    10030    2    1    2    0    0  0.00000000000E+00  0.00000000000E+00 -0.10339649048E+04  0.19890921508E+04  0.16992363461E+04 0.  0.
        4    1    3    3  502    0  0.34660112572E+03  0.44814533521E+03  0.22417392645E+03  0.60928002102E+03  0.12699999809E+01 0.  1.
       -4    1    3    3    0  502 -0.34660112572E+03 -0.44814533521E+03 -0.12581388312E+04  0.13798121297E+04  0.12699999809E+01 0. -1.
</event>
<event>
 5   0  0.1480547E-05  0.3001977E+04  0.7818609E-02  0.8243167E-01
        2   -1    0    0  501    0  0.00000000000E+00  0.00000000000E+00  0.16228402459E+04  0.16228402459E+04  0.25500000920E-02 0. -1.
       -2   -1    0    0    0  501  0.00000000000E+00  0.00000000000E+00 -0.13882857508E+04  0.13882857508E+04  0.25500000920E-02 0.  1.
    10030    2    1    2    0    0  0.00000000000E+00  0.00000000000E+00  0.23455449506E+03  0.30111259967E+04  0.30019766749E+04 0.  0.
        1    1    3    3  502    0  0.44319545478E+03 -0.14202529265E+04 -0.81886222629E+02  0.14900489723E+04  0.50400001928E-02 0. -1.
       -1    1    3    3    0  502 -0.44319545478E+03  0.14202529265E+04  0.31644071769E+03  0.15210770244E+04  0.50400001928E-02 0.  1.
</event>
<event>
 5   0  0.1423692E-05  0.2608094E+04  0.7818609E-02  0.8365457E-01
        2   -1    0    0  501    0  0.00000000000E+00  0.00000000000E+00  0.15744641365E+04  0.15744641365E+04  0.25500000920E-02 0. -1.
       -2   -1    0    0    0  501  0.00000000000E+00  0.00000000000E+00 -0.10800742149E+04  0.10800742149E+04  0.25500000920E-02 0.  1.
    10030    2    1    2    0    0  0.00000000000E+00  0.00000000000E+00  0.49438992166E+03  0.26545383514E+04  0.26080936457E+04 0.  0.
        3    1    3    3  502    0  0.38780484822E+03  0.78255780174E+03 -0.73842406887E+03  0.11437042577E+04  0.10100000352E+00 0.  1.
       -3    1    3    3    0  502 -0.38780484822E+03 -0.78255780174E+03  0.12328139905E+04  0.15108340937E+04  0.10100000352E+00 0. -1.
</event>
<event>
 5   0  0.1423692E-05  0.2963578E+04  0.7818609E-02  0.8254208E-01
        2   -1    0    0  501    0  0.00000000000E+00  0.00000000000E+00  0.14702378187E+04  0.14702378188E+04  0.25500000920E-02 0.  1.
       -2   -1    0    0    0  501  0.00000000000E+00  0.00000000000E+00 -0.14934313999E+04  0.14934313999E+04  0.25500000920E-02 0. -1.
    10030    2    1    2    0    0  0.00000000000E+00  0.00000000000E+00 -0.23193581114E+02  0.29636692186E+04  0.29635784611E+04 0.  0.
        3    1    3    3  502    0 -0.11109500976E+04  0.50209026979E+02  0.96770244059E+03  0.14741706446E+04  0.10100000352E+00 0.  1.
       -3    1    3    3    0  502  0.11109500976E+04 -0.50209026979E+02 -0.99089602170E+03  0.14894985740E+04  0.10100000352E+00 0. -1.
</event>
<event>
 5   0  0.1523029E-05  0.1831713E+04  0.7818609E-02  0.8689614E-01
       -2   -1    0    0    0  501  0.00000000000E+00  0.00000000000E+00  0.94760239249E+03  0.94760239250E+03  0.25500000920E-02 0.  1.
        2   -1    0    0  501    0  0.00000000000E+00  0.00000000000E+00 -0.88517455241E+03  0.88517455242E+03  0.25500000920E-02 0. -1.
    10030    2    1    2    0    0  0.00000000000E+00  0.00000000000E+00  0.62427840080E+02  0.18327769449E+04  0.18317134314E+04 0.  0.
        5    1    3    3  502    0 -0.46165179044E+02 -0.65820677192E+03  0.66672366286E+03  0.93803513312E+03  0.46999998093E+01 0.  1.
       -5    1    3    3    0  502  0.46165179044E+02  0.65820677192E+03 -0.60429582278E+03  0.89474181180E+03  0.46999998093E+01 0. -1.
</event>
<event>
 5   0  0.5522695E-06  0.3009163E+04  0.7818609E-02  0.8241119E-01
        1   -1    0    0  501    0  0.00000000000E+00  0.00000000000E+00  0.13751500092E+04  0.13751500092E+04  0.50400001928E-02 0. -1.
       -1   -1    0    0    0  501  0.00000000000E+00  0.00000000000E+00 -0.16461950733E+04  0.16461950733E+04  0.50400001928E-02 0.  1.
    10030    2    1    2    0    0  0.00000000000E+00  0.00000000000E+00 -0.27104506414E+03  0.30213450825E+04  0.30091627874E+04 0.  0.
        3    1    3    3  502    0 -0.12179662995E+04 -0.52111760626E+03 -0.85168407647E+03  0.15749194401E+04  0.10100000352E+00 0.  1.
       -3    1    3    3    0  502  0.12179662995E+04  0.52111760626E+03  0.58063901233E+03  0.14464256425E+04  0.10100000352E+00 0. -1.
</event>
<event>
 5   0  0.5392262E-06  0.1508922E+04  0.7818609E-02  0.8878541E-01
        1   -1    0    0  501    0  0.00000000000E+00  0.00000000000E+00  0.56142966150E+03  0.56142966153E+03  0.50400001928E-02 0. -1.
       -1   -1    0    0    0  501  0.00000000000E+00  0.00000000000E+00 -0.10138610320E+04  0.10138610320E+04  0.50400001928E-02 0.  1.
    10030    2    1    2    0    0  0.00000000000E+00  0.00000000000E+00 -0.45243137050E+03  0.15752906935E+04  0.15089223387E+04 0.  0.
        2    1    3    3  502    0 -0.15337922632E+03 -0.63764563573E+03  0.16314205900E+03  0.67581985414E+03  0.25500000920E-02 0. -1.
       -2    1    3    3    0  502  0.15337922632E+03  0.63764563573E+03 -0.61557342950E+03  0.89947083940E+03  0.25500000920E-02 0.  1.
</event>
<event>
 5   0  0.5329891E-06  0.2962152E+04  0.7818609E-02  0.8254622E-01
       -1   -1    0    0    0  501  0.00000000000E+00  0.00000000000E+00  0.10830570737E+04  0.10830570737E+04  0.50400001928E-02 0. -1.
        1   -1    0    0  501    0  0.00000000000E+00  0.00000000000E+00 -0.20253654043E+04  0.20253654043E+04  0.50400001928E-02 0.  1.
    10030    2    1    2    0    0  0.00000000000E+00  0.00000000000E+00 -0.94230833062E+03  0.31084224780E+04  0.29621521419E+04 0.  0.
        4    1    3    3  502    0  0.56862040698E+03 -0.81294459641E+03 -0.16251745121E+04  0.19040488155E+04  0.12699999809E+01 0.  1.
       -4    1    3    3    0  502 -0.56862040698E+03  0.81294459641E+03  0.68286618153E+03  0.12043736625E+04  0.12699999809E+01 0. -1.
</event>
<event>
 5   0  0.1423692E-05  0.1475898E+04  0.7818609E-02  0.8900641E-01
        2   -1    0    0  501    0  0.00000000000E+00  0.00000000000E+00  0.80498074499E+03  0.80498074500E+03  0.25500000920E-02 0. -1.
       -2   -1    0    0    0  501  0.00000000000E+00  0.00000000000E+00 -0.67649869086E+03  0.67649869087E+03  0.25500000920E-02 0.  1.
    10030    2    1    2    0    0  0.00000000000E+00  0.00000000000E+00  0.12848205413E+03  0.14814794359E+04  0.14758975847E+04 0.  0.
        3    1    3    3  502    0  0.14370235454E+03  0.11188590293E+03 -0.65358564685E+03  0.67848583621E+03  0.10100000352E+00 0.  1.
       -3    1    3    3    0  502 -0.14370235454E+03 -0.11188590293E+03  0.78206770098E+03  0.80299359966E+03  0.10100000352E+00 0. -1.
</event>
<event>
 5   0  0.1423692E-05  0.3106353E+04  0.7818609E-02  0.8213996E-01
        2   -1    0    0  501    0  0.00000000000E+00  0.00000000000E+00  0.21627945696E+04  0.21627945696E+04  0.25500000920E-02 0.  1.
       -2   -1    0    0    0  501  0.00000000000E+00  0.00000000000E+00 -0.11153893327E+04  0.11153893327E+04  0.25500000920E-02 0. -1.
    10030    2    1    2    0    0  0.00000000000E+00  0.00000000000E+00  0.10474052368E+04  0.32781839023E+04  0.31063534839E+04 0.  0.
        3    1    3    3  502    0  0.83742589387E+03  0.12351099393E+04  0.69084023390E+02  0.14938377765E+04  0.10100000352E+00 0. -1.
       -3    1    3    3    0  502 -0.83742589387E+03 -0.12351099393E+04  0.97832121344E+03  0.17843461258E+04  0.10100000352E+00 0.  1.
</event>
<event>
 5   0  0.1480547E-05  0.3042885E+04  0.7818609E-02  0.8231590E-01
        2   -1    0    0  501    0  0.00000000000E+00  0.00000000000E+00  0.14899352603E+04  0.14899352603E+04  0.25500000920E-02 0. -1.
       -2   -1    0    0    0  501  0.00000000000E+00  0.00000000000E+00 -0.15536163883E+04  0.15536163883E+04  0.25500000920E-02 0.  1.
    10030    2    1    2    0    0  0.00000000000E+00  0.00000000000E+00 -0.63681127997E+02  0.30435516485E+04  0.30428853661E+04 0.  0.
        1    1    3    3  502    0 -0.32835853533E+03 -0.12189060221E+04 -0.88128303029E+03  0.15395489593E+04  0.50400001928E-02 0.  1.
       -1    1    3    3    0  502  0.32835853533E+03  0.12189060221E+04  0.81760190230E+03  0.15040026892E+04  0.50400001928E-02 0. -1.
</event>
<event>
 5   0  0.5730920E-06  0.3026152E+04  0.7818609E-02  0.8236302E-01
        1   -1    0    0  501    0  0.00000000000E+00  0.00000000000E+00  0.20129480953E+04  0.20129480953E+04  0.50400001928E-02 0.  1.
       -1   -1    0    0    0  501  0.00000000000E+00  0.00000000000E+00 -0.11373366289E+04  0.11373366289E+04  0.50400001928E-02 0. -1.
    10030    2    1    2    0    0  0.00000000000E+00  0.00000000000E+00  0.87561146640E+03  0.31502847242E+04  0.30261524091E+04 0.  0.
        1    1    3    3  502    0  0.24769609324E+03  0.10001648448E+04 -0.71566893621E+03  0.12545378024E+04  0.50400001928E-02 0. -1.
       -1    1    3    3    0  502 -0.24769609324E+03 -0.10001648448E+04  0.15912804026E+04  0.18957469217E+04  0.50400001928E-02 0.  1.
</event>
<event>
 5   0  0.1345931E-05  0.2991932E+04  0.7818609E-02  0.8246039E-01
       -2   -1    0    0    0  501  0.00000000000E+00  0.00000000000E+00  0.16878341834E+04  0.16878341834E+04  0.25500000920E-02 0. -1.
        2   -1    0    0  501    0  0.00000000000E+00  0.00000000000E+00 -0.13259087186E+04  0.13259087186E+04  0.25500000920E-02 0.  1.
    10030    2    1    2    0    0  0.00000000000E+00  0.00000000000E+00  0.36192546481E+03  0.30137429020E+04  0.29919318570E+04 0.  0.
        2    1    3    3  502    0  0.62912787072E+03 -0.10933600836E+04 -0.62906118739E+03  0.14095943132E+04  0.25500000920E-02 0.  1.
       -2    1    3    3    0  502 -0.62912787072E+03  0.10933600836E+04  0.99098665220E+03  0.16041485888E+04  0.25500000920E-02 0. -1.
</event>
<event>
 5   0  0.1423692E-05  0.3047759E+04  0.7818609E-02  0.8230223E-01
       -2   -1    0    0    0  501  0.00000000000E+00  0.00000000000E+00  0.15625333363E+04  0.15625333363E+04  0.25500000920E-02 0. -1.
        2   -1    0    0  501    0  0.00000000000E+00  0.00000000000E+00 -0.14861823091E+04  0.14861823091E+04  0.25500000920E-02 0.  1.
    10030    2    1    2    0    0  0.00000000000E+00  0.00000000000E+00  0.76351027157E+02  0.30487156454E+04  0.30477594405E+04 0.  0.
        3    1    3    3  502    0  0.11833645477E+04  0.61149777677E+03  0.77862947971E+03  0.15429015071E+04  0.10100000352E+00 0. -1.
       -3    1    3    3    0  502 -0.11833645477E+04 -0.61149777677E+03 -0.70227845255E+03  0.15058141382E+04  0.10100000352E+00 0.  1.
</event>
<event>
 5   0  0.5730920E-06  0.2668931E+04  0.7818609E-02  0.8345157E-01
        1   -1    0    0  501    0  0.00000000000E+00  0.00000000000E+00  0.19517600012E+04  0.19517600012E+04  0.50400001928E-02 0.  1.
       -1   -1    0    0    0  501  0.00000000000E+00  0.00000000000E+00 -0.91240640336E+03  0.91240640338E+03  0.50400001928E-02 0. -1.
    10030    2    1    2    0    0  0.00000000000E+00  0.00000000000E+00  0.10393535978E+04  0.28641664045E+04  0.26689311141E+04 0.  0.
        1    1    3    3  502    0  0.81825015324E+03 -0.10357356343E+04  0.30906366633E+03  0.13556555489E+04  0.50400001928E-02 0. -1.
       -1    1    3    3    0  502 -0.81825015324E+03  0.10357356343E+04  0.73028993146E+03  0.15085108556E+04  0.50400001928E-02 0.  1.
</event>
<event>
 5   0  0.1388724E-05  0.3036015E+04  0.7818609E-02  0.8233521E-01
       -2   -1    0    0    0  501  0.00000000000E+00  0.00000000000E+00  0.17439796608E+04  0.17439796608E+04  0.25500000920E-02 0.  1.
        2   -1    0    0  501    0  0.00000000000E+00  0.00000000000E+00 -0.13213151932E+04  0.13213151932E+04  0.25500000920E-02 0. -1.
    10030    2    1    2    0    0  0.00000000000E+00  0.00000000000E+00  0.42266446757E+03  0.30652948540E+04  0.30360150345E+04 0.  0.
        4    1    3    3  502    0 -0.63459650073E+03 -0.87634957687E+03 -0.86366331969E+03  0.13844194604E+04  0.12699999809E+01 0. -1.
       -4    1    3    3    0  502  0.63459650073E+03  0.87634957687E+03  0.12863277873E+04  0.16808753936E+04  0.12699999809E+01 0.  1.
</event>
<event>
 5   0  0.4806125E-06  0.2969411E+04  0.7818609E-02  0.8252520E-01
        3   -1    0    0  501    0  0.00000000000E+00  0.00000000000E+00  0.22510431291E+04  0.22510431313E+04  0.10100000352E+00 0. -1.
       -3   -1    0    0    0  501  0.00000000000E+00  0.00000000000E+00 -0.97925742291E+03  0.97925742812E+03  0.10100000352E+00 0.  1.
    10030    2    1    2    0    0  0.00000000000E+00  0.00000000000E+00  0.12717857062E+04  0.32303005595E+04  0.29694111911E+04 0.  0.
        3    1    3    3  502    0  0.99721196289E+03  0.98011550995E+03  0.11790522168E+04  0.18289948747E+04  0.10100000352E+00 0. -1.
       -3    1    3    3    0  502 -0.99721196289E+03 -0.98011550995E+03  0.92733489400E+02  0.14013056847E+04  0.10100000352E+00 0.  1.
</event>
<event>
 5   0  0.1523029E-05  0.3112709E+04  0.7818609E-02  0.8212259E-01
       -2   -1    0    0    0  501  0.00000000000E+00  0.00000000000E+00  0.96100687268E+03  0.96100687269E+03  0.25500000920E-02 0.  1.
        2   -1    0    0  501    0  0.00000000000E+00  0.00000000000E+00 -0.25205218416E+04  0.25205218416E+04  0.25500000920E-02 0. -1.
    10030    2    1    2    0    0  0.00000000000E+00  0.00000000000E+00 -0.15595149689E+04  0.34815287143E+04  0.31127086677E+04 0.  0.
        5    1    3    3  502    0 -0.71655967890E+03 -0.36380724746E+03  0.71098381798E+03  0.10730021278E+04  0.46999998093E+01 0.  1.
       -5    1    3    3    0  502  0.71655967890E+03  0.36380724746E+03 -0.22704987869E+04  0.24085265865E+04  0.46999998093E+01 0. -1.
</event>
<event>
 5   0  0.1345931E-05  0.3078177E+04  0.7818609E-02  0.8221753E-01
        2   -1    0    0  501    0  0.00000000000E+00  0.00000000000E+00  0.22949196563E+04  0.22949196563E+04  0.25500000920E-02 0. -1.
       -2   -1    0    0    0  501  0.00000000000E+00  0.00000000000E+00 -0.10321903042E+04  0.10321903042E+04  0.25500000920E-02 0.  1.
    10030    2    1    2    0    0  0.00000000000E+00  0.00000000000E+00  0.12627293521E+04  0.33271099605E+04  0.30781772646E+04 0.  0.
        2    1    3    3  502    0  0.19300157093E+03  0.11315674719E+04  0.17395066243E+04  0.20841251991E+04  0.25500000920E-02 0. -1.
       -2    1    3    3    0  502 -0.19300157093E+03 -0.11315674719E+04 -0.47677727215E+03  0.12429847614E+04  0.25500000920E-02 0.  1.
</event>
<event>
 5   0  0.1423692E-05  0.2989468E+04  0.7818609E-02  0.8246745E-01
        2   -1    0    0  501    0  0.00000000000E+00  0.00000000000E+00  0.15557168029E+04  0.15557168029E+04  0.25500000920E-02 0. -1.
       -2   -1    0    0    0  501  0.00000000000E+00  0.00000000000E+00 -0.14361415852E+04  0.14361415852E+04  0.25500000920E-02 0.  1.
    10030    2    1    2    0    0  0.00000000000E+00  0.00000000000E+00  0.11957521770E+03  0.29918583882E+04  0.29894679096E+04 0.  0.
        3    1    3    3  502    0 -0.11689703215E+04  0.49471636268E+03  0.84971825444E+03  0.15275002502E+04  0.10100000352E+00 0. -1.
       -3    1    3    3    0  502  0.11689703215E+04 -0.49471636268E+03 -0.73014303674E+03  0.14643581380E+04  0.10100000352E+00 0.  1.
</event>
<event>
 5   0  0.1423692E-05  0.2978661E+04  0.7818609E-02  0.8249851E-01
        2   -1    0    0  501    0  0.00000000000E+00  0.00000000000E+00  0.23364545791E+04  0.23364545791E+04  0.25500000920E-02 0. -1.
       -2   -1    0    0    0  501  0.00000000000E+00  0.00000000000E+00 -0.94934667104E+03  0.94934667104E+03  0.25500000920E-02 0.  1.
    10030    2    1    2    0    0  0.00000000000E+00  0.00000000000E+00  0.13871079081E+04  0.32858012502E+04  0.29786610258E+04 0.  0.
        3    1    3    3  502    0 -0.10442446039E+04 -0.94895524797E+03  0.12192920147E+04  0.18648420531E+04  0.10100000352E+00 0. -1.
       -3    1    3    3    0  502  0.10442446039E+04  0.94895524797E+03  0.16781589334E+03  0.14209591971E+04  0.10100000352E+00 0.  1.
</event>
<event>
 5   0  0.1345931E-05  0.1776962E+04  0.7818609E-02  0.8718648E-01
       -2   -1    0    0    0  501  0.00000000000E+00  0.00000000000E+00  0.85277268636E+03  0.85277268637E+03  0.25500000920E-02 0.  1.
        2   -1    0    0  501    0  0.00000000000E+00  0.00000000000E+00 -0.92568404625E+03  0.92568404626E+03  0.25500000920E-02 0. -1.
    10030    2    1    2    0    0  0.00000000000E+00  0.00000000000E+00 -0.72911359890E+02  0.17784567326E+04  0.17769615312E+04 0.  0.
        2    1    3    3  502    0  0.16898552174E+03 -0.19947267691E+03  0.81340699535E+03  0.85438656092E+03  0.25500000920E-02 0.  1.
       -2    1    3    3    0  502 -0.16898552174E+03  0.19947267691E+03 -0.88631835524E+03  0.92407017170E+03  0.25500000920E-02 0. -1.
</event>
<event>
 5   0  0.1423692E-05  0.2936892E+04  0.7818609E-02  0.8261985E-01
        2   -1    0    0  501    0  0.00000000000E+00  0.00000000000E+00  0.22397631915E+04  0.22397631915E+04  0.25500000920E-02 0.  1.
       -2   -1    0    0    0  501  0.00000000000E+00  0.00000000000E+00 -0.96275097064E+03  0.96275097064E+03  0.25500000920E-02 0. -1.
    10030    2    1    2    0    0  0.00000000000E+00  0.00000000000E+00  0.12770122209E+04  0.32025141621E+04  0.29368923621E+04 0.  0.
        3    1    3    3  502    0  0.77098671094E+02 -0.55901388605E+03  0.21168082101E+04  0.21907345203E+04  0.10100000352E+00 0.  1.
       -3    1    3    3    0  502 -0.77098671094E+02  0.55901388605E+03 -0.83979598924E+03  0.10117796418E+04  0.10100000352E+00 0. -1.
</event>
<event>
 5   0  0.7032692E-06  0.2281685E+04  0.7818609E-02  0.8485178E-01
       -1   -1    0    0    0  501  0.00000000000E+00  0.00000000000E+00  0.59193120482E+03  0.59193120484E+03  0.50400001928E-02 0.  1.
        1   -1    0    0  501    0  0.00000000000E+00  0.00000000000E+00 -0.21987710091E+04  0.21987710091E+04  0.50400001928E-02 0. -1.
    10030    2    1    2    0    0  0.00000000000E+00  0.00000000000E+00 -0.16068398043E+04  0.27907022140E+04  0.22816846168E+04 0.  0.
        5    1    3    3  502    0 -0.85284859393E+02 -0.70862466120E+03 -0.18919526323E+04  0.20221101034E+04  0.46999998093E+01 0. -1.
       -5    1    3    3    0  502  0.85284859393E+02  0.70862466120E+03  0.28511282796E+03  0.76859211053E+03  0.46999998093E+01 0.  1.
</event>
<event>
 5   0  0.1480547E-05  0.3010240E+04  0.7818609E-02  0.8240813E-01
       -2   -1    0    0    0  501  0.00000000000E+00  0.00000000000E+00  0.14946097834E+04  0.14946097834E+04  0.25500000920E-02 0. -1.
        2   -1    0    0  501    0  0.00000000000E+00  0.00000000000E+00 -0.15157045429E+04  0.15157045429E+04  0.25500000920E-02 0.  1.
    10030    2    1    2    0    0  0.00000000000E+00  0.00000000000E+00 -0.21094759485E+02  0.30103143264E+04  0.30102404148E+04 0.  0.
        1    1    3    3  502    0 -0.58624535144E+03  0.99351612420E+03  0.95623844696E+03  0.14983824173E+04  0.50400001928E-02 0. -1.
       -1    1    3    3    0  502  0.58624535144E+03 -0.99351612420E+03 -0.97733320644E+03  0.15119319090E+04  0.50400001928E-02 0.  1.
</event>
<event>
 5   0  0.5522695E-06  0.2386646E+04  0.7818609E-02  0.8444520E-01
        1   -1    0    0  501    0  0.00000000000E+00  0.00000000000E+00  0.10883648874E+04  0.10883648874E+04  0.50400001928E-02 0. -1.
       -1   -1    0    0    0  501  0.00000000000E+00  0.00000000000E+00 -0.13084025931E+04  0.13084025931E+04  0.50400001928E-02 0.  1.
    10030    2    1    2    0    0  0.00000000000E+00  0.00000000000E+00 -0.22003770572E+03  0.23967674805E+04  0.23866457139E+04 0.  0.
        3    1    3    3  502    0 -0.10040562666E+04 -0.62096887055E+03 -0.28479171855E+03  0.12144289431E+04  0.10100000352E+00 0.  1.
       -3    1    3    3    0  502  0.10040562666E+04  0.62096887055E+03  0.64754012835E+02  0.11823385374E+04  0.10100000352E+00 0. -1.
</event>
<event>
 5   0  0.1388724E-05  0.3099214E+04  0.7818609E-02  0.8215954E-01
       -2   -1    0    0    0  501  0.00000000000E+00  0.00000000000E+00  0.11632887185E+04  0.11632887185E+04  0.25500000920E-02 0.  1.
        2   -1    0    0  501    0  0.00000000000E+00  0.00000000000E+00 -0.20642177468E+04  0.20642177468E+04  0.25500000920E-02 0. -1.
    10030    2    1    2    0    0  0.00000000000E+00  0.00000000000E+00 -0.90092902830E+03  0.32275064652E+04  0.30992135888E+04 0.  0.
        4    1    3    3  502    0 -0.15087838622E+04 -0.27883225388E+03 -0.67648193036E+03  0.16768439354E+04  0.12699999809E+01 0. -1.
       -4    1    3    3    0  502  0.15087838622E+04  0.27883225388E+03 -0.22444709794E+03  0.15506625298E+04  0.12699999809E+01 0.  1.
</event>
<event>
 5   0  0.1388724E-05  0.3002644E+04  0.7818609E-02  0.8242976E-01
        2   -1    0    0  501    0  0.00000000000E+00  0.00000000000E+00  0.24148106725E+04  0.24148106725E+04  0.25500000920E-02 0. -1.
       -2   -1    0    0    0  501  0.00000000000E+00  0.00000000000E+00 -0.93339314923E+03  0.93339314923E+03  0.25500000920E-02 0.  1.
    10030    2    1    2    0    0  0.00000000000E+00  0.00000000000E+00  0.14814175232E+04  0.33482038217E+04  0.30026439938E+04 0.  0.
        4    1    3    3  502    0  0.11530529506E+04  0.94591777465E+03  0.54862071051E+03  0.15891122806E+04  0.12699999809E+01 0.  1.
       -4    1    3    3    0  502 -0.11530529506E+04 -0.94591777465E+03  0.93279681272E+03  0.17590915411E+04  0.12699999809E+01 0. -1.
</event>
<event>
 5   0  0.1388724E-05  0.2937157E+04  0.7818609E-02  0.8261907E-01
        2   -1    0    0  501    0  0.00000000000E+00  0.00000000000E+00  0.24350354518E+04  0.24350354518E+04  0.25500000920E-02 0. -1.
       -2   -1    0    0    0  501  0.00000000000E+00  0.00000000000E+00 -0.88570507736E+03  0.88570507736E+03  0.25500000920E-02 0.  1.
    10030    2    1    2    0    0  0.00000000000E+00  0.00000000000E+00  0.15493303744E+04  0.33207405292E+04  0.29371573081E+04 0.  0.
        4    1    3    3  502    0  0.84481459022E+03 -0.11618059150E+04  0.42947754717E+03  0.14993189295E+04  0.12699999809E+01 0.  1.
       -4    1    3    3    0  502 -0.84481459022E+03  0.11618059150E+04  0.11198528273E+04  0.18214215996E+04  0.12699999809E+01 0. -1.
</event>
<event>
 5   0  0.1480547E-05  0.3020073E+04  0.7818609E-02  0.8238022E-01
       -2   -1    0    0    0  501  0.00000000000E+00  0.00000000000E+00  0.12373324927E+04  0.12373324927E+04  0.25500000920E-02 0. -1.
        2   -1    0    0  501    0  0.00000000000E+00  0.00000000000E+00 -0.18428432079E+04  0.18428432079E+04  0.25500000920E-02 0.  1.
    10030    2    1    2    0    0  0.00000000000E+00  0.00000000000E+00 -0.60551071522E+03  0.30801757006E+04  0.30200727012E+04 0.  0.
        1    1    3    3  502    0  0.12312785562E+04  0.22890204870E+03  0.55769722133E+03  0.13709373514E+04  0.50400001928E-02 0. -1.
       -1    1    3    3    0  502 -0.12312785562E+04 -0.22890204870E+03 -0.11632079366E+04  0.17092383492E+04  0.50400001928E-02 0.  1.
</event>
<event>
 5   0  0.5329891E-06  0.2913018E+04  0.7818609E-02  0.8269015E-01
       -1   -1    0    0    0  501  0.00000000000E+00  0.00000000000E+00  0.10833387691E+04  0.10833387691E+04  0.50400001928E-02 0.  1.
        1   -1    0    0  501    0  0.00000000000E+00  0.00000000000E+00 -0.19582221429E+04  0.19582221429E+04  0.50400001928E-02 0. -1.
    10030    2    1    2    0    0  0.00000000000E+00  0.00000000000E+00 -0.87488337382E+03  0.30415609120E+04  0.29130176559E+04 0.  0.
        4    1    3    3  502    0  0.10696955665E+04  0.20951045945E+03 -0.14461318350E+04  0.18109230063E+04  0.12699999809E+01 0. -1.
       -4    1    3    3    0  502 -0.10696955665E+04 -0.20951045945E+03  0.57124846122E+03  0.12306379057E+04  0.12699999809E+01 0.  1.
</event>
<event>
 5   0  0.7032692E-06  0.2893100E+04  0.7818609E-02  0.8274933E-01
       -1   -1    0    0    0  501  0.00000000000E+00  0.00000000000E+00  0.18611741266E+04  0.18611741266E+04  0.50400001928E-02 0. -1.
        1   -1    0    0  501    0  0.00000000000E+00  0.00000000000E+00 -0.11242940939E+04  0.11242940939E+04  0.50400001928E-02 0.  1.
    10030    2    1    2    0    0  0.00000000000E+00  0.00000000000E+00  0.73688003274E+03  0.29854682205E+04  0.28931001215E+04 0.  0.
        5    1    3    3  502    0 -0.27238491573E+03  0.11302427795E+04  0.12566425211E+04  0.17119622656E+04  0.46999998093E+01 0. -1.
       -5    1    3    3    0  502  0.27238491573E+03 -0.11302427795E+04 -0.51976248840E+03  0.12735059549E+04  0.46999998093E+01 0.  1.
</event>
<event>
 5   0  0.1388724E-05  0.2922908E+04  0.7818609E-02  0.8266094E-01
        2   -1    0    0  501    0  0.00000000000E+00  0.00000000000E+00  0.14234784365E+04  0.14234784365E+04  0.25500000920E-02 0. -1.
       -2   -1    0    0    0  501  0.00000000000E+00  0.00000000000E+00 -0.15004431624E+04  0.15004431624E+04  0.25500000920E-02 0.  1.
    10030    2    1    2    0    0  0.00000000000E+00  0.00000000000E+00 -0.76964725881E+02  0.29239215989E+04  0.29229084740E+04 0.  0.
        4    1    3    3  502    0  0.66235409954E+02  0.12811968217E+04 -0.73872102690E+03  0.14803927837E+04  0.12699999809E+01 0.  1.
       -4    1    3    3    0  502 -0.66235409954E+02 -0.12811968217E+04  0.66175630102E+03  0.14435288152E+04  0.12699999809E+01 0. -1.
</event>
<event>
 5   0  0.1480547E-05  0.2354780E+04  0.7818609E-02  0.8456630E-01
       -2   -1    0    0    0  501  0.00000000000E+00  0.00000000000E+00  0.11878962395E+04  0.11878962395E+04  0.25500000920E-02 0. -1.
        2   -1    0    0  501    0  0.00000000000E+00  0.00000000000E+00 -0.11669764674E+04  0.11669764674E+04  0.25500000920E-02 0.  1.
    10030    2    1    2    0    0  0.00000000000E+00  0.00000000000E+00  0.20919772093E+02  0.23548727069E+04  0.23547797836E+04 0.  0.
        1    1    3    3  502    0 -0.21773315656E+03  0.71035758933E+03 -0.90293880378E+03  0.11693220752E+04  0.50400001928E-02 0.  1.
       -1    1    3    3    0  502  0.21773315656E+03 -0.71035758933E+03  0.92385857587E+03  0.11855506317E+04  0.50400001928E-02 0. -1.
</event>
<event>
 5   0  0.1345931E-05  0.2948545E+04  0.7818609E-02  0.8258579E-01
       -2   -1    0    0    0  501  0.00000000000E+00  0.00000000000E+00  0.16623436708E+04  0.16623436708E+04  0.25500000920E-02 0.  1.
        2   -1    0    0  501    0  0.00000000000E+00  0.00000000000E+00 -0.13074793866E+04  0.13074793866E+04  0.25500000920E-02 0. -1.
    10030    2    1    2    0    0  0.00000000000E+00  0.00000000000E+00  0.35486428422E+03  0.29698230575E+04  0.29485454605E+04 0.  0.
        2    1    3    3  502    0  0.54868718691E+03  0.13668669490E+04  0.24190341065E+03  0.14926152034E+04  0.25500000920E-02 0. -1.
       -2    1    3    3    0  502 -0.54868718691E+03 -0.13668669490E+04  0.11296087357E+03  0.14772078541E+04  0.25500000920E-02 0.  1.
</event>
<event>
 5   0  0.1523029E-05  0.2966153E+04  0.7818609E-02  0.8253463E-01
       -2   -1    0    0    0  501  0.00000000000E+00  0.00000000000E+00  0.17089486577E+04  0.17089486577E+04  0.25500000920E-02 0. -1.
        2   -1    0    0  501    0  0.00000000000E+00  0.00000000000E+00 -0.12870582180E+04  0.12870582180E+04  0.25500000920E-02 0.  1.
    10030    2    1    2    0    0  0.00000000000E+00  0.00000000000E+00  0.42189043967E+03  0.29960068757E+04  0.29661533433E+04 0.  0.
        5    1    3    3  502    0 -0.11206283252E+03 -0.21361432843E+02 -0.12826123059E+04  0.12876842806E+04  0.46999998093E+01 0.  1.
       -5    1    3    3    0  502  0.11206283252E+03  0.21361432843E+02  0.17045027456E+04  0.17083225951E+04  0.46999998093E+01 0. -1.
</event>
<event>
 5   0  0.1345931E-05  0.2934746E+04  0.7818609E-02  0.8262614E-01
       -2   -1    0    0    0  501  0.00000000000E+00  0.00000000000E+00  0.10841482834E+04  0.10841482834E+04  0.25500000920E-02 0. -1.
        2   -1    0    0  501    0  0.00000000000E+00  0.00000000000E+00 -0.19860605895E+04  0.19860605895E+04  0.25500000920E-02 0.  1.
    10030    2    1    2    0    0  0.00000000000E+00  0.00000000000E+00 -0.90191230618E+03  0.30702088729E+04  0.29347464482E+04 0.  0.
        2    1    3    3  502    0 -0.45696719860E+03 -0.79566845632E+03 -0.16489222747E+04  0.18870219874E+04  0.25500000920E-02 0.  1.
       -2    1    3    3    0  502  0.45696719860E+03  0.79566845632E+03  0.74700996849E+03  0.11831868855E+04  0.25500000920E-02 0. -1.
</event>
<event>
 5   0  0.5522695E-06  0.2980178E+04  0.7818609E-02  0.8249414E-01
        1   -1    0    0  501    0  0.00000000000E+00  0.00000000000E+00  0.19446539995E+04  0.19446539995E+04  0.50400001928E-02 0. -1.
       -1   -1    0    0    0  501  0.00000000000E+00  0.00000000000E+00 -0.11417790321E+04  0.11417790321E+04  0.50400001928E-02 0.  1.
    10030    2    1    2    0    0  0.00000000000E+00  0.00000000000E+00  0.80287496737E+03  0.30864330317E+04  0.29801779554E+04 0.  0.
        3    1    3    3  502    0  0.30321417434E+02 -0.11500368616E+04  0.13822301844E+04  0.17983504842E+04  0.10100000352E+00 0. -1.
       -3    1    3    3    0  502 -0.30321417434E+02  0.11500368616E+04 -0.57935521701E+03  0.12880825474E+04  0.10100000352E+00 0.  1.
</event>
<event>
 5   0  0.1480547E-05  0.3071804E+04  0.7818609E-02  0.8223519E-01
        2   -1    0    0  501    0  0.00000000000E+00  0.00000000000E+00  0.27704300839E+04  0.27704300839E+04  0.25500000920E-02 0.  1.
       -2   -1    0    0    0  501  0.00000000000E+00  0.00000000000E+00 -0.85149072812E+03  0.85149072812E+03  0.25500000920E-02 0. -1.
    10030    2    1    2    0    0  0.00000000000E+00  0.00000000000E+00  0.19189393558E+04  0.36219208120E+04  0.30718043749E+04 0.  0.
        1    1    3    3  502    0 -0.64698154315E+03 -0.89959518304E+03 -0.29454716307E+03  0.11465664577E+04  0.50400001928E-02 0. -1.
       -1    1    3    3    0  502  0.64698154315E+03  0.89959518304E+03  0.22134865188E+04  0.24753543544E+04  0.50400001928E-02 0.  1.
</event>
<event>
 5   0  0.5392262E-06  0.3337485E+04  0.7818609E-02  0.8153422E-01
       -1   -1    0    0    0  501  0.00000000000E+00  0.00000000000E+00  0.17068261478E+04  0.17068261478E+04  0.50400001928E-02 0.  1.
        1   -1    0    0  501    0  0.00000000000E+00  0.00000000000E+00 -0.16315081881E+04  0.16315081881E+04  0.50400001928E-02 0. -1.
    10030    2    1    2    0    0  0.00000000000E+00  0.00000000000E+00  0.75317959754E+02  0.33383343359E+04  0.33374845832E+04 0.  0.
        2    1    3    3  502    0 -0.13758645328E+04 -0.26367930158E+02  0.98182852354E+03  0.16904690858E+04  0.25500000920E-02 0.  1.
       -2    1    3    3    0  502  0.13758645328E+04  0.26367930158E+02 -0.90651056378E+03  0.16478652501E+04  0.25500000920E-02 0. -1.
</event>
<event>
 5   0  0.5329891E-06  0.2994967E+04  0.7818609E-02  0.8245169E-01
        1   -1    0    0  501    0  0.00000000000E+00  0.00000000000E+00  0.11922071441E+04  0.11922071441E+04  0.50400001928E-02 0. -1.
       -1   -1    0    0    0  501  0.00000000000E+00  0.00000000000E+00 -0.18809292498E+04  0.18809292498E+04  0.50400001928E-02 0.  1.
    10030    2    1    2    0    0  0.00000000000E+00  0.00000000000E+00 -0.68872210569E+03  0.30731363939E+04  0.29949673048E+04 0.  0.
        4    1    3    3  502    0 -0.16846673910E+03 -0.11182466634E+03 -0.18668564468E+04  0.18777753870E+04  0.12699999809E+01 0.  1.
       -4    1    3    3    0  502  0.16846673910E+03  0.11182466634E+03  0.11781343411E+04  0.11953610069E+04  0.12699999809E+01 0. -1.
</event>
<event>
 5   0  0.1423692E-05  0.2979149E+04  0.7818609E-02  0.8249710E-01
        2   -1    0    0  501    0  0.00000000000E+00  0.00000000000E+00  0.23364388690E+04  0.23364388690E+04  0.25500000920E-02 0.  1.
       -2   -1    0    0    0  501  0.00000000000E+00  0.00000000000E+00 -0.94966441224E+03  0.94966441224E+03  0.25500000920E-02 0. -1.
    10030    2    1    2    0    0  0.00000000000E+00  0.00000000000E+00  0.13867744568E+04  0.32861032813E+04  0.29791494392E+04 0.  0.
        3    1    3    3  502    0  0.34440659171E+03 -0.13804348844E+04  0.20677982751E+03  0.14376975613E+04  0.10100000352E+00 0. -1.
       -3    1    3    3    0  502 -0.34440659171E+03  0.13804348844E+04  0.11799946293E+04  0.18484057200E+04  0.10100000352E+00 0.  1.
</event>
<event>
 5   0  0.1523029E-05  0.3266525E+04  0.7818609E-02  0.8171466E-01
        2   -1    0    0  501    0  0.00000000000E+00  0.00000000000E+00  0.98644647857E+03  0.98644647857E+03  0.25500000920E-02 0. -1.
       -2   -1    0    0    0  501  0.00000000000E+00  0.00000000000E+00 -0.27041978299E+04  0.27041978299E+04  0.25500000920E-02 0.  1.
    10030    2    1    2    0    0  0.00000000000E+00  0.00000000000E+00 -0.17177513513E+04  0.36906443085E+04  0.32665250201E+04 0.  0.
        5    1    3    3  502    0  0.14939554059E+04 -0.58155432280E+03 -0.12115157678E+04  0.20094528437E+04  0.46999998093E+01 0.  1.
       -5    1    3    3    0  502 -0.14939554059E+04  0.58155432280E+03 -0.50623558354E+03  0.16811914648E+04  0.46999998093E+01 0. -1.
</event>
<event>
 5   0  0.1523029E-05  0.3002389E+04  0.7818609E-02  0.8243049E-01
       -2   -1    0    0    0  501  0.00000000000E+00  0.00000000000E+00  0.20233896690E+04  0.20233896690E+04  0.25500000920E-02 0. -1.
        2   -1    0    0  501    0  0.00000000000E+00  0.00000000000E+00 -0.11137669543E+04  0.11137669544E+04  0.25500000920E-02 0.  1.
    10030    2    1    2    0    0  0.00000000000E+00  0.00000000000E+00  0.90962271464E+03  0.31371566233E+04  0.30023887484E+04 0.  0.
        5    1    3    3  502    0  0.43654548731E+03  0.11167606410E+04 -0.48896861006E+03  0.12949280611E+04  0.46999998093E+01 0.  1.
       -5    1    3    3    0  502 -0.43654548731E+03 -0.11167606410E+04  0.13985913247E+04  0.18422285622E+04  0.46999998093E+01 0. -1.
</event>
<event>
 5   0  0.1480547E-05  0.1573841E+04  0.7818609E-02  0.8836782E-01
        2   -1    0    0  501    0  0.00000000000E+00  0.00000000000E+00  0.24777726137E+04  0.24777726137E+04  0.25500000920E-02 0.  1.
       -2   -1    0    0    0  501  0.00000000000E+00  0.00000000000E+00 -0.24991946057E+03  0.24991946059E+03  0.25500000920E-02 0. -1.
    10030    2    1    2    0    0  0.00000000000E+00  0.00000000000E+00  0.22278531531E+04  0.27276920743E+04  0.15738406464E+04 0.  0.
        1    1    3    3  502    0  0.23508978298E+03 -0.18021358252E+03 -0.14960469735E+03  0.33185193518E+03  0.50400001928E-02 0. -1.
       -1    1    3    3    0  502 -0.23508978298E+03  0.18021358252E+03  0.23774578505E+04  0.23958401391E+04  0.50400001928E-02 0.  1.
</event>
<event>
 5   0  0.5329891E-06  0.2365399E+04  0.7818609E-02  0.8452572E-01
        1   -1    0    0  501    0  0.00000000000E+00  0.00000000000E+00  0.90118962872E+03  0.90118962873E+03  0.50400001928E-02 0.  1.
       -1   -1    0    0    0  501  0.00000000000E+00  0.00000000000E+00 -0.15521467389E+04  0.15521467389E+04  0.50400001928E-02 0. -1.
    10030    2    1    2    0    0  0.00000000000E+00  0.00000000000E+00 -0.65095711017E+03  0.24533363676E+04  0.23653993687E+04 0.  0.
        4    1    3    3  502    0  0.65190634626E+03  0.26949683289E+03 -0.13100679200E+04  0.14879146464E+04  0.12699999809E+01 0. -1.
       -4    1    3    3    0  502 -0.65190634626E+03 -0.26949683289E+03  0.65911080981E+03  0.96542172119E+03  0.12699999809E+01 0.  1.
</event>
<event>
 5   0  0.4806125E-06  0.1773343E+04  0.7818609E-02  0.8720605E-01
        3   -1    0    0  501    0  0.00000000000E+00  0.00000000000E+00  0.72380664763E+03  0.72380665468E+03  0.10100000352E+00 0. -1.
       -3   -1    0    0    0  501  0.00000000000E+00  0.00000000000E+00 -0.10861830086E+04  0.10861830133E+04  0.10100000352E+00 0.  1.
    10030    2    1    2    0    0  0.00000000000E+00  0.00000000000E+00 -0.36237636099E+03  0.18099896680E+04  0.17733431623E+04 0.  0.
        3    1    3    3  502    0  0.13005832876E+03 -0.66642093136E+03  0.40081876322E+03  0.78847176093E+03  0.10100000352E+00 0. -1.
       -3    1    3    3    0  502 -0.13005832876E+03  0.66642093136E+03 -0.76319512421E+03  0.10215179071E+04  0.10100000352E+00 0.  1.
</event>
<event>
 5   0  0.1523029E-05  0.2961206E+04  0.7818609E-02  0.8254896E-01
        2   -1    0    0  501    0  0.00000000000E+00  0.00000000000E+00  0.12497314302E+04  0.12497314302E+04  0.25500000920E-02 0. -1.
       -2   -1    0    0    0  501  0.00000000000E+00  0.00000000000E+00 -0.17541249975E+04  0.17541249975E+04  0.25500000920E-02 0.  1.
    10030    2    1    2    0    0  0.00000000000E+00  0.00000000000E+00 -0.50439356724E+03  0.30038564277E+04  0.29612059313E+04 0.  0.
        5    1    3    3  502    0  0.49983246265E+03 -0.12519173867E+04 -0.87341694872E+03  0.16062406078E+04  0.46999998093E+01 0. -1.
       -5    1    3    3    0  502 -0.49983246265E+03  0.12519173867E+04  0.36902338148E+03  0.13976158199E+04  0.46999998093E+01 0.  1.
</event>
<event>
 5   0  0.1345931E-05  0.1789162E+04  0.7818609E-02  0.8712085E-01
        2   -1    0    0  501    0  0.00000000000E+00  0.00000000000E+00  0.11913854887E+04  0.11913854887E+04  0.25500000920E-02 0.  1.
       -2   -1    0    0    0  501  0.00000000000E+00  0.00000000000E+00 -0.67171771017E+03  0.67171771017E+03  0.25500000920E-02 0. -1.
    10030    2    1    2    0    0  0.00000000000E+00  0.00000000000E+00  0.51966777850E+03  0.18631031988E+04  0.17891615158E+04 0.  0.
        2    1    3    3  502    0 -0.92674523662E+02 -0.50857313665E+02  0.11848585312E+04  0.11895649510E+04  0.25500000920E-02 0.  1.
       -2    1    3    3    0  502  0.92674523662E+02  0.50857313665E+02 -0.66519075275E+03  0.67353824779E+03  0.25500000920E-02 0. -1.
</event>
<event>
 5   0  0.1423692E-05  0.2998438E+04  0.7818609E-02  0.8244177E-01
        2   -1    0    0  501    0  0.00000000000E+00  0.00000000000E+00  0.19763821039E+04  0.19763821039E+04  0.25500000920E-02 0.  1.
       -2   -1    0    0    0  501  0.00000000000E+00  0.00000000000E+00 -0.11372589129E+04  0.11372589129E+04  0.25500000920E-02 0. -1.
    10030    2    1    2    0    0  0.00000000000E+00  0.00000000000E+00  0.83912319106E+03  0.31136410168E+04  0.29984383689E+04 0.  0.
        3    1    3    3  502    0 -0.10764047675E+04 -0.10090456062E+04  0.69594135416E+03  0.16313045815E+04  0.10100000352E+00 0. -1.
       -3    1    3    3    0  502  0.10764047675E+04  0.10090456062E+04  0.14318183690E+03  0.14823364353E+04  0.10100000352E+00 0.  1.
</event>
<event>
 5   0  0.5730920E-06  0.2980035E+04  0.7818609E-02  0.8249455E-01
       -1   -1    0    0    0  501  0.00000000000E+00  0.00000000000E+00  0.29662437930E+04  0.29662437930E+04  0.50400001928E-02 0.  1.
        1   -1    0    0  501    0  0.00000000000E+00  0.00000000000E+00 -0.74847238678E+03  0.74847238680E+03  0.50400001928E-02 0. -1.
    10030    2    1    2    0    0  0.00000000000E+00  0.00000000000E+00  0.22177714062E+04  0.37147161798E+04  0.29800346116E+04 0.  0.
        1    1    3    3  502    0  0.42495966438E+03  0.75892540546E+03  0.26169314061E+04  0.27576962254E+04  0.50400001928E-02 0.  1.
       -1    1    3    3    0  502 -0.42495966438E+03 -0.75892540546E+03 -0.39915999994E+03  0.95701995433E+03  0.50400001928E-02 0. -1.
</event>
<event>
 5   0  0.1423692E-05  0.3180776E+04  0.7818609E-02  0.8193913E-01
       -2   -1    0    0    0  501  0.00000000000E+00  0.00000000000E+00  0.15113891648E+04  0.15113891648E+04  0.25500000920E-02 0.  1.
        2   -1    0    0  501    0  0.00000000000E+00  0.00000000000E+00 -0.16735164590E+04  0.16735164590E+04  0.25500000920E-02 0. -1.
    10030    2    1    2    0    0  0.00000000000E+00  0.00000000000E+00 -0.16212729425E+03  0.31849056238E+04  0.31807764105E+04 0.  0.
        3    1    3    3  502    0 -0.25409912322E+03 -0.19707787833E+03  0.14784975861E+04  0.15130635072E+04  0.10100000352E+00 0.  1.
       -3    1    3    3    0  502  0.25409912322E+03  0.19707787833E+03 -0.16406248804E+04  0.16718421166E+04  0.10100000352E+00 0. -1.
</event>
<event>
 5   0  0.1523029E-05  0.2901272E+04  0.7818609E-02  0.8272499E-01
        2   -1    0    0  501    0  0.00000000000E+00  0.00000000000E+00  0.25167713613E+04  0.25167713613E+04  0.25500000920E-02 0. -1.
       -2   -1    0    0    0  501  0.00000000000E+00  0.00000000000E+00 -0.83612895392E+03  0.83612895392E+03  0.25500000920E-02 0.  1.
    10030    2    1    2    0    0  0.00000000000E+00  0.00000000000E+00  0.16806424074E+04  0.33529003152E+04  0.29012724144E+04 0.  0.
        5    1    3    3  502    0  0.40415369129E+03 -0.11656520013E+04  0.17221465966E+04  0.21184654315E+04  0.46999998093E+01 0. -1.
       -5    1    3    3    0  502 -0.40415369129E+03  0.11656520013E+04 -0.41504189179E+02  0.12344348837E+04  0.46999998093E+01 0.  1.
</event>
<event>
 5   0  0.5730920E-06  0.1745395E+04  0.7818609E-02  0.8735889E-01
        1   -1    0    0  501    0  0.00000000000E+00  0.00000000000E+00  0.97795921623E+03  0.97795921625E+03  0.50400001928E-02 0. -1.
       -1   -1    0    0    0  501  0.00000000000E+00  0.00000000000E+00 -0.77876521869E+03  0.77876521870E+03  0.50400001928E-02 0.  1.
    10030    2    1    2    0    0  0.00000000000E+00  0.00000000000E+00  0.19919399755E+03  0.17567244349E+04  0.17453946521E+04 0.  0.
        1    1    3    3  502    0  0.30133488874E+03  0.16671972622E+03 -0.70748249296E+03  0.78684792696E+03  0.50400001928E-02 0.  1.
       -1    1    3    3    0  502 -0.30133488874E+03 -0.16671972622E+03  0.90667649051E+03  0.96987650799E+03  0.50400001928E-02 0. -1.
</event>
<event>
 5   0  0.5392262E-06  0.2734067E+04  0.7818609E-02  0.8324035E-01
       -1   -1    0    0    0  501  0.00000000000E+00  0.00000000000E+00  0.15105793036E+04  0.15105793037E+04  0.50400001928E-02 0. -1.
        1   -1    0    0  501    0  0.00000000000E+00  0.00000000000E+00 -0.12371281588E+04  0.12371281588E+04  0.50400001928E-02 0.  1.
    10030    2    1    2    0    0  0.00000000000E+00  0.00000000000E+00  0.27345114482E+03  0.27477074625E+04  0.27340667093E+04 0.  0.
        2    1    3    3  502    0 -0.29385976950E+03 -0.56761969068E+03 -0.10777049985E+04  0.12529939110E+04  0.25500000920E-02 0.  1.
       -2    1    3    3    0  502  0.29385976950E+03  0.56761969068E+03  0.13511561433E+04  0.14947135515E+04  0.25500000920E-02 0. -1.
</event>
<event>
 5   0  0.1388724E-05  0.3180805E+04  0.7818609E-02  0.8193905E-01
       -2   -1    0    0    0  501  0.00000000000E+00  0.00000000000E+00  0.13124317447E+04  0.13124317447E+04  0.25500000920E-02 0.  1.
        2   -1    0    0  501    0  0.00000000000E+00  0.00000000000E+00 -0.19272469109E+04  0.19272469109E+04  0.25500000920E-02 0. -1.
    10030    2    1    2    0    0  0.00000000000E+00  0.00000000000E+00 -0.61481516613E+03  0.32396786556E+04  0.31808049458E+04 0.  0.
        4    1    3    3  502    0 -0.24657757375E+03  0.84653513030E+03 -0.16555212671E+04  0.18756797449E+04  0.12699999809E+01 0. -1.
       -4    1    3    3    0  502  0.24657757375E+03 -0.84653513030E+03  0.10407061010E+04  0.13639989107E+04  0.12699999809E+01 0.  1.
</event>
<event>
 5   0  0.1388724E-05  0.2880452E+04  0.7818609E-02  0.8278718E-01
       -2   -1    0    0    0  501  0.00000000000E+00  0.00000000000E+00  0.90232671106E+03  0.90232671106E+03  0.25500000920E-02 0.  1.
        2   -1    0    0  501    0  0.00000000000E+00  0.00000000000E+00 -0.22987799221E+04  0.22987799221E+04  0.25500000920E-02 0. -1.
    10030    2    1    2    0    0  0.00000000000E+00  0.00000000000E+00 -0.13964532110E+04  0.32011066331E+04  0.28804517191E+04 0.  0.
        4    1    3    3  502    0  0.63579139231E+03 -0.10393511251E+04  0.15522705187E+03  0.12282420390E+04  0.12699999809E+01 0.  1.
       -4    1    3    3    0  502 -0.63579139231E+03  0.10393511251E+04 -0.15516802629E+04  0.19728645942E+04  0.12699999809E+01 0. -1.
</event>
<event>
 5   0  0.1345931E-05  0.2606106E+04  0.7818609E-02  0.8366130E-01
        2   -1    0    0  501    0  0.00000000000E+00  0.00000000000E+00  0.26156803318E+04  0.26156803318E+04  0.25500000920E-02 0.  1.
       -2   -1    0    0    0  501  0.00000000000E+00  0.00000000000E+00 -0.64914164244E+03  0.64914164244E+03  0.25500000920E-02 0. -1.
    10030    2    1    2    0    0  0.00000000000E+00  0.00000000000E+00  0.19665386893E+04  0.32648219742E+04  0.26061059278E+04 0.  0.
        2    1    3    3  502    0 -0.12522557641E+03  0.67957784890E+03  0.23672358312E+04  0.24660318283E+04  0.25500000920E-02 0.  1.
       -2    1    3    3    0  502  0.12522557641E+03 -0.67957784890E+03 -0.40069714186E+03  0.79879014591E+03  0.25500000920E-02 0. -1.
</event>
<event>
 5   0  0.1480547E-05  0.2988509E+04  0.7818609E-02  0.8247020E-01
       -2   -1    0    0    0  501  0.00000000000E+00  0.00000000000E+00  0.23003262476E+04  0.23003262476E+04  0.25500000920E-02 0. -1.
        2   -1    0    0  501    0  0.00000000000E+00  0.00000000000E+00 -0.97064316951E+03  0.97064316952E+03  0.25500000920E-02 0.  1.
    10030    2    1    2    0    0  0.00000000000E+00  0.00000000000E+00  0.13296830781E+04  0.32709694171E+04  0.29885086313E+04 0.  0.
        1    1    3    3  502    0 -0.12671280428E+04 -0.38699223058E+03 -0.91420052361E+02  0.13280565084E+04  0.50400001928E-02 0.  1.
       -1    1    3    3    0  502  0.12671280428E+04  0.38699223058E+03  0.14211031304E+04  0.19429129087E+04  0.50400001928E-02 0. -1.
</event>
<event>
 5   0  0.1388724E-05  0.2954797E+04  0.7818609E-02  0.8256758E-01
        2   -1    0    0  501    0  0.00000000000E+00  0.00000000000E+00  0.22596098276E+04  0.22596098276E+04  0.25500000920E-02 0. -1.
       -2   -1    0    0    0  501  0.00000000000E+00  0.00000000000E+00 -0.96596575238E+03  0.96596575238E+03  0.25500000920E-02 0.  1.
    10030    2    1    2    0    0  0.00000000000E+00  0.00000000000E+00  0.12936440752E+04  0.32255755800E+04  0.29547965799E+04 0.  0.
        4    1    3    3  502    0  0.74907494007E+03  0.21468214783E+03  0.20170384649E+04  0.21623245530E+04  0.12699999809E+01 0. -1.
       -4    1    3    3    0  502 -0.74907494007E+03 -0.21468214783E+03 -0.72339438973E+03  0.10632510270E+04  0.12699999809E+01 0.  1.
</event>
<event>
 5   0  0.1423692E-05  0.2996879E+04  0.7818609E-02  0.8244623E-01
        2   -1    0    0  501    0  0.00000000000E+00  0.00000000000E+00  0.16193339846E+04  0.16193339846E+04  0.25500000920E-02 0. -1.
       -2   -1    0    0    0  501  0.00000000000E+00  0.00000000000E+00 -0.13865710383E+04  0.13865710383E+04  0.25500000920E-02 0.  1.
    10030    2    1    2    0    0  0.00000000000E+00  0.00000000000E+00  0.23276294624E+03  0.30059050229E+04  0.29968794466E+04 0.  0.
        3    1    3    3  502    0  0.11771550282E+04  0.52847345742E+03 -0.64771557197E+03  0.14437844812E+04  0.10100000352E+00 0.  1.
       -3    1    3    3    0  502 -0.11771550282E+04 -0.52847345742E+03  0.88047851821E+03  0.15621205417E+04  0.10100000352E+00 0. -1.
</event>
<event>
 5   0  0.5522695E-06  0.2513196E+04  0.7818609E-02  0.8398299E-01
        1   -1    0    0  501    0  0.00000000000E+00  0.00000000000E+00  0.24387753688E+04  0.24387753688E+04  0.50400001928E-02 0. -1.
       -1   -1    0    0    0  501  0.00000000000E+00  0.00000000000E+00 -0.64747210053E+03  0.64747210055E+03  0.50400001928E-02 0.  1.
    10030    2    1    2    0    0  0.00000000000E+00  0.00000000000E+00  0.17913032683E+04  0.30862474694E+04  0.25131963798E+04 0.  0.
        3    1    3    3  502    0  0.39618487794E+03  0.84660604394E+03  0.19269918709E+04  0.21417287251E+04  0.10100000352E+00 0. -1.
       -3    1    3    3    0  502 -0.39618487794E+03 -0.84660604394E+03 -0.13568860265E+03  0.94451874425E+03  0.10100000352E+00 0.  1.
</event>
<event>
 5   0  0.5522695E-06  0.2876853E+04  0.7818609E-02  0.8279798E-01
        1   -1    0    0  501    0  0.00000000000E+00  0.00000000000E+00  0.12792183967E+04  0.12792183967E+04  0.50400001928E-02 0. -1.
       -1   -1    0    0    0  501  0.00000000000E+00  0.00000000000E+00 -0.16174490528E+04  0.16174490528E+04  0.50400001928E-02 0.  1.
    10030    2    1    2    0    0  0.00000000000E+00  0.00000000000E+00 -0.33823065612E+03  0.28966674494E+04  0.28768528527E+04 0.  0.
        3    1    3    3  502    0  0.88288432970E+03 -0.11304724968E+04 -0.27764346339E+03  0.14610060605E+04  0.10100000352E+00 0.  1.
       -3    1    3    3    0  502 -0.88288432970E+03  0.11304724968E+04 -0.60587192726E+02  0.14356613890E+04  0.10100000352E+00 0. -1.
</event>
<event>
 5   0  0.5329891E-06  0.1575020E+04  0.7818609E-02  0.8836043E-01
        1   -1    0    0  501    0  0.00000000000E+00  0.00000000000E+00  0.64691576804E+03  0.64691576806E+03  0.50400001928E-02 0. -1.
       -1   -1    0    0    0  501  0.00000000000E+00  0.00000000000E+00 -0.95865990585E+03  0.95865990587E+03  0.50400001928E-02 0.  1.
    10030    2    1    2    0    0  0.00000000000E+00  0.00000000000E+00 -0.31174413781E+03  0.16055756739E+04  0.15750202657E+04 0.  0.
        4    1    3    3  502    0  0.11299256381E+03 -0.43435224191E+03 -0.81552817566E+03  0.93086895304E+03  0.12699999809E+01 0.  1.
       -4    1    3    3    0  502 -0.11299256381E+03  0.43435224191E+03  0.50378403785E+03  0.67470672089E+03  0.12699999809E+01 0. -1.
</event>
<event>
 5   0  0.5730920E-06  0.3000939E+04  0.7818609E-02  0.8243463E-01
       -1   -1    0    0    0  501  0.00000000000E+00  0.00000000000E+00  0.19497292080E+04  0.19497292080E+04  0.50400001928E-02 0. -1.
        1   -1    0    0  501    0  0.00000000000E+00  0.00000000000E+00 -0.11547287967E+04  0.11547287967E+04  0.50400001928E-02 0.  1.
    10030    2    1    2    0    0  0.00000000000E+00  0.00000000000E+00  0.79500041138E+03  0.31044580047E+04  0.30009388279E+04 0.  0.
        1    1    3    3  502    0 -0.75581187912E+03  0.94171344961E+03 -0.52391698220E+03  0.13162692817E+04  0.50400001928E-02 0.  1.
       -1    1    3    3    0  502  0.75581187912E+03 -0.94171344961E+03  0.13189173936E+04  0.17881887230E+04  0.50400001928E-02 0. -1.
</event>
<event>
 5   0  0.1480547E-05  0.2942085E+04  0.7818609E-02  0.8260465E-01
        2   -1    0    0  501    0  0.00000000000E+00  0.00000000000E+00  0.22319527835E+04  0.22319527835E+04  0.25500000920E-02 0.  1.
       -2   -1    0    0    0  501  0.00000000000E+00  0.00000000000E+00 -0.96953901795E+03  0.96953901795E+03  0.25500000920E-02 0. -1.
    10030    2    1    2    0    0  0.00000000000E+00  0.00000000000E+00  0.12624137655E+04  0.32014918014E+04  0.29420845058E+04 0.  0.
        1    1    3    3  502    0 -0.63019051917E+03 -0.13292141480E+04  0.63541688072E+03  0.16024059891E+04  0.50400001928E-02 0. -1.
       -1    1    3    3    0  502  0.63019051917E+03  0.13292141480E+04  0.62699688480E+03  0.15990858123E+04  0.50400001928E-02 0.  1.
</event>
<event>
 5   0  0.1388724E-05  0.2969074E+04  0.7818609E-02  0.8252617E-01
       -2   -1    0    0    0  501  0.00000000000E+00  0.00000000000E+00  0.14164100586E+04  0.14164100586E+04  0.25500000920E-02 0. -1.
        2   -1    0    0  501    0  0.00000000000E+00  0.00000000000E+00 -0.15559411377E+04  0.15559411377E+04  0.25500000920E-02 0.  1.
    10030    2    1    2    0    0  0.00000000000E+00  0.00000000000E+00 -0.13953107909E+03  0.29723511964E+04  0.29690743865E+04 0.  0.
        4    1    3    3  502    0 -0.45212265392E+03  0.26964959089E+02 -0.14850821933E+04  0.15526148064E+04  0.12699999809E+01 0.  1.
       -4    1    3    3    0  502  0.45212265392E+03 -0.26964959089E+02  0.13455511142E+04  0.14197363900E+04  0.12699999809E+01 0. -1.
</event>
<event>
 5   0  0.1345931E-05  0.1613377E+04  0.7818609E-02  0.8812372E-01
        2   -1    0    0  501    0  0.00000000000E+00  0.00000000000E+00  0.67573217541E+03  0.67573217542E+03  0.25500000920E-02 0. -1.
       -2   -1    0    0    0  501  0.00000000000E+00  0.00000000000E+00 -0.96302454367E+03  0.96302454368E+03  0.25500000920E-02 0.  1.
    10030    2    1    2    0    0  0.00000000000E+00  0.00000000000E+00 -0.28729236826E+03  0.16387567191E+04  0.16133774138E+04 0.  0.
        2    1    3    3  502    0 -0.69818392675E+03 -0.21108114795E+03  0.20634724136E+03  0.75802060039E+03  0.25500000920E-02 0. -1.
       -2    1    3    3    0  502  0.69818392675E+03  0.21108114795E+03 -0.49363960963E+03  0.88073611870E+03  0.25500000920E-02 0.  1.
</event>
<event>
 5   0  0.4806125E-06  0.3029139E+04  0.7818609E-02  0.8235459E-01
        3   -1    0    0  501    0  0.00000000000E+00  0.00000000000E+00  0.24083122215E+04  0.24083122236E+04  0.10100000352E+00 0. -1.
       -3   -1    0    0    0  501  0.00000000000E+00  0.00000000000E+00 -0.95250126064E+03  0.95250126600E+03  0.10100000352E+00 0.  1.
    10030    2    1    2    0    0  0.00000000000E+00  0.00000000000E+00  0.14558109608E+04  0.33608134896E+04  0.30291387816E+04 0.  0.
        4    1    3    3  502    0 -0.35059346588E+03  0.13615777390E+04  0.13526890486E+04  0.19510456153E+04  0.12699999809E+01 0. -1.
       -4    1    3    3    0  502  0.35059346588E+03 -0.13615777390E+04  0.10312191225E+03  0.14097678743E+04  0.12699999809E+01 0.  1.
</event>
<event>
 5   0  0.5522695E-06  0.2994678E+04  0.7818609E-02  0.8245252E-01
       -1   -1    0    0    0  501  0.00000000000E+00  0.00000000000E+00  0.13809483221E+04  0.13809483221E+04  0.50400001928E-02 0.  1.
        1   -1    0    0  501    0  0.00000000000E+00  0.00000000000E+00 -0.16235393357E+04  0.16235393357E+04  0.50400001928E-02 0. -1.
    10030    2    1    2    0    0  0.00000000000E+00  0.00000000000E+00 -0.24259101355E+03  0.30044876578E+04  0.29946778935E+04 0.  0.
        3    1    3    3  502    0 -0.47563367086E+03 -0.99737690017E+03  0.89247768214E+03  0.14203888528E+04  0.10100000352E+00 0.  1.
       -3    1    3    3    0  502  0.47563367086E+03  0.99737690017E+03 -0.11350686957E+04  0.15840988050E+04  0.10100000352E+00 0. -1.
</event>
<event>
 5   0  0.1480547E-05  0.2897695E+04  0.7818609E-02  0.8273564E-01
        2   -1    0    0  501    0  0.00000000000E+00  0.00000000000E+00  0.19812199088E+04  0.19812199088E+04  0.25500000920E-02 0. -1.
       -2   -1    0    0    0  501  0.00000000000E+00  0.00000000000E+00 -0.10595284005E+04  0.10595284005E+04  0.25500000920E-02 0.  1.
    10030    2    1    2    0    0  0.00000000000E+00  0.00000000000E+00  0.92169150830E+03  0.30407483094E+04  0.28976947811E+04 0.  0.
        1    1    3    3  502    0 -0.61775159794E+02  0.16197388225E+03  0.19702977842E+04  0.19779092667E+04  0.50400001928E-02 0. -1.
       -1    1    3    3    0  502  0.61775159794E+02 -0.16197388225E+03 -0.10486062759E+04  0.10628390427E+04  0.50400001928E-02 0.  1.
</event>
<event>
 5   0  0.5329891E-06  0.3066829E+04  0.7818609E-02  0.8224901E-01
        1   -1    0    0  501    0  0.00000000000E+00  0.00000000000E+00  0.16509791587E+04  0.16509791587E+04  0.50400001928E-02 0.  1.
       -1   -1    0    0    0  501  0.00000000000E+00  0.00000000000E+00 -0.14242212722E+04  0.14242212722E+04  0.50400001928E-02 0. -1.
    10030    2    1    2    0    0  0.00000000000E+00  0.00000000000E+00  0.22675788649E+03  0.30752004308E+04  0.30668287449E+04 0.  0.
        4    1    3    3  502    0 -0.11019330514E+04 -0.33412237338E+03 -0.90203721890E+03  0.14627258688E+04  0.12699999809E+01 0. -1.
       -4    1    3    3    0  502  0.11019330514E+04  0.33412237338E+03  0.11287951054E+04  0.16124745620E+04  0.12699999809E+01 0.  1.
</event>
<event>
 5   0  0.5522695E-06  0.2040743E+04  0.7818609E-02  0.8587805E-01
        1   -1    0    0  501    0  0.00000000000E+00  0.00000000000E+00  0.21434965594E+04  0.21434965594E+04  0.50400001928E-02 0.  1.
       -1   -1    0    0    0  501  0.00000000000E+00  0.00000000000E+00 -0.48572887103E+03  0.48572887105E+03  0.50400001928E-02 0. -1.
    10030    2    1    2    0    0  0.00000000000E+00  0.00000000000E+00  0.16577676884E+04  0.26292254305E+04  0.20407431626E+04 0.  0.
        3    1    3    3  502    0 -0.59993759427E+02 -0.93293582895E+03  0.13556818928E+04  0.16467671106E+04  0.10100000352E+00 0.  1.
       -3    1    3    3    0  502  0.59993759427E+02  0.93293582895E+03  0.30208579563E+03  0.98245831985E+03  0.10100000352E+00 0. -1.
</event>
<event>
 5   0  0.5730920E-06  0.3005411E+04  0.7818609E-02  0.8242188E-01
        1   -1    0    0  501    0  0.00000000000E+00  0.00000000000E+00  0.16469540585E+04  0.16469540585E+04  0.50400001928E-02 0.  1.
       -1   -1    0    0    0  501  0.00000000000E+00  0.00000000000E+00 -0.13710905806E+04  0.13710905806E+04  0.50400001928E-02 0. -1.
    10030    2    1    2    0    0  0.00000000000E+00  0.00000000000E+00  0.27586347787E+03  0.30180446391E+04  0.30054105851E+04 0.  0.
        1    1    3    3  502    0 -0.10615299298E+04  0.48621596803E+03  0.10878848523E+04  0.15958525030E+04  0.50400001928E-02 0.  1.
       -1    1    3    3    0  502  0.10615299298E+04 -0.48621596803E+03 -0.81202137438E+03  0.14221921361E+04  0.50400001928E-02 0. -1.
</event>
<event>
 5   0  0.4806125E-06  0.3058518E+04  0.7818609E-02  0.8227215E-01
        3   -1    0    0  501    0  0.00000000000E+00  0.00000000000E+00  0.12849547404E+04  0.12849547443E+04  0.10100000352E+00 0.  1.
       -3   -1    0    0    0  501  0.00000000000E+00  0.00000000000E+00 -0.18200126170E+04  0.18200126198E+04  0.10100000352E+00 0. -1.
    10030    2    1    2    0    0  0.00000000000E+00  0.00000000000E+00 -0.53505787669E+03  0.31049673642E+04  0.30585184978E+04 0.  0.
        2    1    3    3  502    0  0.38215374873E+03 -0.85877026356E+03 -0.14921260862E+04  0.17635101674E+04  0.25500000920E-02 0. -1.
       -2    1    3    3    0  502 -0.38215374873E+03  0.85877026356E+03  0.95706820950E+03  0.13414571968E+04  0.25500000920E-02 0.  1.
</event>
<event>
 5   0  0.5522695E-06  0.3067170E+04  0.7818609E-02  0.8224806E-01
        1   -1    0    0  501    0  0.00000000000E+00  0.00000000000E+00  0.83552753579E+03  0.83552753580E+03  0.50400001928E-02 0. -1.
       -1   -1    0    0    0  501  0.00000000000E+00  0.00000000000E+00 -0.28148484908E+04  0.28148484908E+04  0.50400001928E-02 0.  1.
    10030    2    1    2    0    0  0.00000000000E+00  0.00000000000E+00 -0.19793209550E+04  0.36503760266E+04  0.30671703071E+04 0.  0.
        3    1    3    3  502    0 -0.52889554043E+03  0.11602929090E+04  0.24321227155E+02  0.12753829463E+04  0.10100000352E+00 0. -1.
       -3    1    3    3    0  502  0.52889554043E+03 -0.11602929090E+04 -0.20036421822E+04  0.23749930804E+04  0.10100000352E+00 0.  1.
</event>
<event>
 5   0  0.1388724E-05  0.3005931E+04  0.7818609E-02  0.8242039E-01
        2   -1    0    0  501    0  0.00000000000E+00  0.00000000000E+00  0.10129316367E+04  0.10129316367E+04  0.25500000920E-02 0.  1.
       -2   -1    0    0    0  501  0.00000000000E+00  0.00000000000E+00 -0.22300671133E+04  0.22300671133E+04  0.25500000920E-02 0. -1.
    10030    2    1    2    0    0  0.00000000000E+00  0.00000000000E+00 -0.12171354766E+04  0.32429987500E+04  0.30059311576E+04 0.  0.
        4    1    3    3  502    0 -0.95548956300E+03 -0.10643123715E+04 -0.11043645019E+03  0.14345448587E+04  0.12699999809E+01 0.  1.
       -4    1    3    3    0  502  0.95548956300E+03  0.10643123715E+04 -0.11066990264E+04  0.18084538913E+04  0.12699999809E+01 0. -1.
</event>
<event>
 5   0  0.1480547E-05  0.2993327E+04  0.7818609E-02  0.8245639E-01
       -2   -1    0    0    0  501  0.00000000000E+00  0.00000000000E+00  0.96089487495E+03  0.96089487495E+03  0.25500000920E-02 0.  1.
        2   -1    0    0  501    0  0.00000000000E+00  0.00000000000E+00 -0.23311620337E+04  0.23311620337E+04  0.25500000920E-02 0. -1.
    10030    2    1    2    0    0  0.00000000000E+00  0.00000000000E+00 -0.13702671587E+04  0.32920569086E+04  0.29933270124E+04 0.  0.
        1    1    3    3  502    0  0.90191588041E+03 -0.73745735669E+03  0.34815402385E+03  0.12159386632E+04  0.50400001928E-02 0.  1.
       -1    1    3    3    0  502 -0.90191588041E+03  0.73745735669E+03 -0.17184211826E+04  0.20761182454E+04  0.50400001928E-02 0. -1.
</event>
<event>
 5   0  0.5329891E-06  0.2910067E+04  0.7818609E-02  0.8269889E-01
       -1   -1    0    0    0  501  0.00000000000E+00  0.00000000000E+00  0.14612303803E+04  0.14612303803E+04  0.50400001928E-02 0. -1.
        1   -1    0    0  501    0  0.00000000000E+00  0.00000000000E+00 -0.14488629492E+04  0.14488629492E+04  0.50400001928E-02 0.  1.
    10030    2    1    2    0    0  0.00000000000E+00  0.00000000000E+00  0.12367431183E+02  0.29100933295E+04  0.29100670496E+04 0.  0.
        4    1    3    3  502    0 -0.13708565722E+04  0.43536225027E+03  0.22603318163E+03  0.14559809898E+04  0.12699999809E+01 0. -1.
       -4    1    3    3    0  502  0.13708565722E+04 -0.43536225027E+03 -0.21366575045E+03  0.14541123397E+04  0.12699999809E+01 0.  1.
</event>
<event>
 5   0  0.1523029E-05  0.2939126E+04  0.7818609E-02  0.8261331E-01
        2   -1    0    0  501    0  0.00000000000E+00  0.00000000000E+00  0.23005460665E+04  0.23005460665E+04  0.25500000920E-02 0. -1.
       -2   -1    0    0    0  501  0.00000000000E+00  0.00000000000E+00 -0.93874056531E+03  0.93874056531E+03  0.25500000920E-02 0.  1.
    10030    2    1    2    0    0  0.00000000000E+00  0.00000000000E+00  0.13618055012E+04  0.32392866318E+04  0.29391263430E+04 0.  0.
        5    1    3    3  502    0  0.10910727672E+04 -0.58110659853E+03 -0.19490179909E+03  0.12514525414E+04  0.46999998093E+01 0. -1.
       -5    1    3    3    0  502 -0.10910727672E+04  0.58110659853E+03  0.15567073003E+04  0.19878340904E+04  0.46999998093E+01 0.  1.
</event>
<event>
 5   0  0.5329891E-06  0.2997075E+04  0.7818609E-02  0.8244567E-01
        1   -1    0    0  501    0  0.00000000000E+00  0.00000000000E+00  0.20343017681E+04  0.20343017681E+04  0.50400001928E-02 0. -1.
       -1   -1    0    0    0  501  0.00000000000E+00  0.00000000000E+00 -0.11038746966E+04  0.11038746966E+04  0.50400001928E-02 0.  1.
    10030    2    1    2    0    0  0.00000000000E+00  0.00000000000E+00  0.93042707157E+03  0.31381764647E+04  0.29970747385E+04 0.  0.
        4    1    3    3  502    0 -0.77070950704E+03  0.96021444515E+02 -0.87668343662E+03  0.11712338464E+04  0.12699999809E+01 0.  1.
       -4    1    3    3    0  502  0.77070950704E+03 -0.96021444515E+02  0.18071105082E+04  0.19669426183E+04  0.12699999809E+01 0. -1.
</event>
<event>
 5   0  0.5730920E-06  0.3009546E+04  0.7818609E-02  0.8241010E-01
       -1   -1    0    0    0  501  0.00000000000E+00  0.00000000000E+00  0.12190688214E+04  0.12190688214E+04  0.50400001928E-02 0.  1.
        1   -1    0    0  501    0  0.00000000000E+00  0.00000000000E+00 -0.18574352791E+04  0.18574352791E+04  0.50400001928E-02 0. -1.
    10030    2    1    2    0    0  0.00000000000E+00  0.00000000000E+00 -0.63836645770E+03  0.30765041006E+04  0.30095457708E+04 0.  0.
        1    1    3    3  502    0 -0.14702636437E+04 -0.30423205823E+03 -0.21640219245E+03  0.15169252573E+04  0.50400001928E-02 0.  1.
       -1    1    3    3    0  502  0.14702636437E+04  0.30423205823E+03 -0.42196426525E+03  0.15595788433E+04  0.50400001928E-02 0. -1.
</event>
<event>
 5   0  0.5730920E-06  0.2061541E+04  0.7818609E-02  0.8578377E-01
        1   -1    0    0  501    0  0.00000000000E+00  0.00000000000E+00  0.82924673190E+03  0.82924673191E+03  0.50400001928E-02 0.  1.
       -1   -1    0    0    0  501  0.00000000000E+00  0.00000000000E+00 -0.12812687330E+04  0.12812687330E+04  0.50400001928E-02 0. -1.
    10030    2    1    2    0    0  0.00000000000E+00  0.00000000000E+00 -0.45202200110E+03  0.21105154649E+04  0.20615410833E+04 0.  0.
        1    1    3    3  502    0 -0.21915715199E+03 -0.39425295031E+01 -0.12571335025E+04  0.12760995431E+04  0.50400001928E-02 0. -1.
       -1    1    3    3    0  502  0.21915715199E+03  0.39425295031E+01  0.80511150141E+03  0.83441592179E+03  0.50400001928E-02 0.  1.
</event>
<event>
 5   0  0.5522695E-06  0.2980541E+04  0.7818609E-02  0.8249309E-01
        1   -1    0    0  501    0  0.00000000000E+00  0.00000000000E+00  0.18038364536E+04  0.18038364537E+04  0.50400001928E-02 0. -1.
       -1   -1    0    0    0  501  0.00000000000E+00  0.00000000000E+00 -0.12312128993E+04  0.12312128993E+04  0.50400001928E-02 0.  1.
    10030    2    1    2    0    0  0.00000000000E+00  0.00000000000E+00  0.57262355434E+03  0.30350493530E+04  0.29805413669E+04 0.  0.
        3    1    3    3  502    0  0.11167520789E+04  0.89928124311E+03  0.70002343560E+03  0.15955797632E+04  0.10100000352E+00 0. -1.
       -3    1    3    3    0  502 -0.11167520789E+04 -0.89928124311E+03 -0.12739988126E+03  0.14394695898E+04  0.10100000352E+00 0.  1.
</event>
<event>
 5   0  0.1523029E-05  0.2669886E+04  0.7818609E-02  0.8344843E-01
        2   -1    0    0  501    0  0.00000000000E+00  0.00000000000E+00  0.11181102777E+04  0.11181102777E+04  0.25500000920E-02 0.  1.
       -2   -1    0    0    0  501  0.00000000000E+00  0.00000000000E+00 -0.15938252407E+04  0.15938252407E+04  0.25500000920E-02 0. -1.
    10030    2    1    2    0    0  0.00000000000E+00  0.00000000000E+00 -0.47571496306E+03  0.27119355184E+04  0.26698856773E+04 0.  0.
        5    1    3    3  502    0 -0.11827255698E+03  0.13122129826E+04 -0.19627302547E+02  0.13176868484E+04  0.46999998093E+01 0.  1.
       -5    1    3    3    0  502  0.11827255698E+03 -0.13122129826E+04 -0.45608766051E+03  0.13942486699E+04  0.46999998093E+01 0. -1.
</event>
<event>
 5   0  0.1480547E-05  0.1478729E+04  0.7818609E-02  0.8898723E-01
        2   -1    0    0  501    0  0.00000000000E+00  0.00000000000E+00  0.15808739315E+04  0.15808739315E+04  0.25500000920E-02 0. -1.
       -2   -1    0    0    0  501  0.00000000000E+00  0.00000000000E+00 -0.34579579906E+03  0.34579579907E+03  0.25500000920E-02 0.  1.
    10030    2    1    2    0    0  0.00000000000E+00  0.00000000000E+00  0.12350781324E+04  0.19266697306E+04  0.14787285949E+04 0.  0.
        1    1    3    3  502    0  0.37890524047E+03  0.60387893900E+03  0.87292732772E+03  0.11270497211E+04  0.50400001928E-02 0. -1.
       -1    1    3    3    0  502 -0.37890524047E+03 -0.60387893900E+03  0.36215080470E+03  0.79962000951E+03  0.50400001928E-02 0.  1.
</event>
<event>
 5   0  0.5329891E-06  0.2952414E+04  0.7818609E-02  0.8257451E-01
       -1   -1    0    0    0  501  0.00000000000E+00  0.00000000000E+00  0.18716190034E+04  0.18716190034E+04  0.50400001928E-02 0.  1.
        1   -1    0    0  501    0  0.00000000000E+00  0.00000000000E+00 -0.11643324017E+04  0.11643324017E+04  0.50400001928E-02 0. -1.
    10030    2    1    2    0    0  0.00000000000E+00  0.00000000000E+00  0.70728660173E+03  0.30359514052E+04  0.29524136901E+04 0.  0.
        4    1    3    3  502    0 -0.86379236218E+03  0.19959810094E+02  0.15844435233E+04  0.18047156370E+04  0.12699999809E+01 0.  1.
       -4    1    3    3    0  502  0.86379236218E+03 -0.19959810094E+02 -0.87715692155E+03  0.12312357682E+04  0.12699999809E+01 0. -1.
</event>
<event>
 5   0  0.5522695E-06  0.2979821E+04  0.7818609E-02  0.8249517E-01
        1   -1    0    0  501    0  0.00000000000E+00  0.00000000000E+00  0.80648506324E+03  0.80648506326E+03  0.50400001928E-02 0.  1.
       -1   -1    0    0    0  501  0.00000000000E+00  0.00000000000E+00 -0.27524785420E+04  0.27524785420E+04  0.50400001928E-02 0. -1.
    10030    2    1    2    0    0  0.00000000000E+00  0.00000000000E+00 -0.19459934788E+04  0.35589636053E+04  0.29798206866E+04 0.  0.
        3    1    3    3  502    0 -0.71248009570E+03  0.53813911631E+03 -0.23975429168E+04  0.25584045113E+04  0.10100000352E+00 0. -1.
       -3    1    3    3    0  502  0.71248009570E+03 -0.53813911631E+03  0.45154943806E+03  0.10005590940E+04  0.10100000352E+00 0.  1.
</event>
<event>
 5   0  0.1523029E-05  0.2589546E+04  0.7818609E-02  0.8371761E-01
       -2   -1    0    0    0  501  0.00000000000E+00  0.00000000000E+00  0.10345027694E+04  0.10345027694E+04  0.25500000920E-02 0. -1.
        2   -1    0    0  501    0  0.00000000000E+00  0.00000000000E+00 -0.16205251307E+04  0.16205251307E+04  0.25500000920E-02 0.  1.
    10030    2    1    2    0    0  0.00000000000E+00  0.00000000000E+00 -0.58602236130E+03  0.26550279000E+04  0.25895464742E+04 0.  0.
        5    1    3    3  502    0 -0.59991957772E+03 -0.10059949717E+03 -0.14648884134E+04  0.15861727246E+04  0.46999998093E+01 0.  1.
       -5    1    3    3    0  502  0.59991957772E+03  0.10059949717E+03  0.87886605208E+03  0.10688551754E+04  0.46999998093E+01 0. -1.
</event>
<event>
 5   0  0.5522695E-06  0.2845078E+04  0.7818609E-02  0.8289409E-01
       -1   -1    0    0    0  501  0.00000000000E+00  0.00000000000E+00  0.13009230737E+04  0.13009230737E+04  0.50400001928E-02 0.  1.
        1   -1    0    0  501    0  0.00000000000E+00  0.00000000000E+00 -0.15555235987E+04  0.15555235987E+04  0.50400001928E-02 0. -1.
    10030    2    1    2    0    0  0.00000000000E+00  0.00000000000E+00 -0.25460052506E+03  0.28564466724E+04  0.28450775324E+04 0.  0.
        3    1    3    3  502    0 -0.18326861166E+03 -0.10127086725E+04 -0.11132889652E+04  0.15161063847E+04  0.10100000352E+00 0. -1.
       -3    1    3    3    0  502  0.18326861166E+03  0.10127086725E+04  0.85868844016E+03  0.13403402877E+04  0.10100000352E+00 0.  1.
</event>
<event>
 5   0  0.5522695E-06  0.2997476E+04  0.7818609E-02  0.8244452E-01
       -1   -1    0    0    0  501  0.00000000000E+00  0.00000000000E+00  0.13328618289E+04  0.13328618289E+04  0.50400001928E-02 0. -1.
        1   -1    0    0  501    0  0.00000000000E+00  0.00000000000E+00 -0.16852572547E+04  0.16852572547E+04  0.50400001928E-02 0.  1.
    10030    2    1    2    0    0  0.00000000000E+00  0.00000000000E+00 -0.35239542581E+03  0.30181190836E+04  0.29974756490E+04 0.  0.
        3    1    3    3  502    0  0.94325436483E+03 -0.11193426748E+03  0.99107784367E+03  0.13727685090E+04  0.10100000352E+00 0. -1.
       -3    1    3    3    0  502 -0.94325436483E+03  0.11193426748E+03 -0.13434732695E+04  0.16453505745E+04  0.10100000352E+00 0.  1.
</event>
<event>
 5   0  0.1388724E-05  0.2376334E+04  0.7818609E-02  0.8448417E-01
        2   -1    0    0  501    0  0.00000000000E+00  0.00000000000E+00  0.20558772535E+04  0.20558772535E+04  0.25500000920E-02 0. -1.
       -2   -1    0    0    0  501  0.00000000000E+00  0.00000000000E+00 -0.68668518437E+03  0.68668518438E+03  0.25500000920E-02 0.  1.
    10030    2    1    2    0    0  0.00000000000E+00  0.00000000000E+00  0.13691920691E+04  0.27425624379E+04  0.23763336894E+04 0.  0.
        4    1    3    3  502    0  0.64686514536E+03  0.54776337235E+03 -0.27634568248E+03  0.89154235878E+03  0.12699999809E+01 0.  1.
       -4    1    3    3    0  502 -0.64686514536E+03 -0.54776337235E+03  0.16455377516E+04  0.18510200791E+04  0.12699999809E+01 0. -1.
</event>
<event>
 5   0  0.1345931E-05  0.2840863E+04  0.7818609E-02  0.8290693E-01
        2   -1    0    0  501    0  0.00000000000E+00  0.00000000000E+00  0.16612444737E+04  0.16612444737E+04  0.25500000920E-02 0. -1.
       -2   -1    0    0    0  501  0.00000000000E+00  0.00000000000E+00 -0.12145268523E+04  0.12145268524E+04  0.25500000920E-02 0.  1.
    10030    2    1    2    0    0  0.00000000000E+00  0.00000000000E+00  0.44671762132E+03  0.28757713260E+04  0.28408632643E+04 0.  0.
        2    1    3    3  502    0  0.86627966865E+03 -0.22108145800E+03  0.13406919082E+04  0.16114503616E+04  0.25500000920E-02 0. -1.
       -2    1    3    3    0  502 -0.86627966865E+03  0.22108145800E+03 -0.89397428686E+03  0.12643209644E+04  0.25500000920E-02 0.  1.
</event>
<event>
 5   0  0.5392262E-06  0.1895757E+04  0.7818609E-02  0.8656971E-01
       -1   -1    0    0    0  501  0.00000000000E+00  0.00000000000E+00  0.63542631861E+03  0.63542631863E+03  0.50400001928E-02 0. -1.
        1   -1    0    0  501    0  0.00000000000E+00  0.00000000000E+00 -0.14139702945E+04  0.14139702945E+04  0.50400001928E-02 0.  1.
    10030    2    1    2    0    0  0.00000000000E+00  0.00000000000E+00 -0.77854397584E+03  0.20493966131E+04  0.18957573039E+04 0.  0.
        2    1    3    3  502    0 -0.85794576081E+03 -0.87609114081E+02 -0.81450526750E+03  0.11862399067E+04  0.25500000920E-02 0.  1.
       -2    1    3    3    0  502  0.85794576081E+03  0.87609114081E+02  0.35961291663E+02  0.86315670643E+03  0.25500000920E-02 0. -1.
</event>
<event>
 5   0  0.1345931E-05  0.3020733E+04  0.7818609E-02  0.8237835E-01
       -2   -1    0    0    0  501  0.00000000000E+00  0.00000000000E+00  0.12079748052E+04  0.12079748052E+04  0.25500000920E-02 0.  1.
        2   -1    0    0  501    0  0.00000000000E+00  0.00000000000E+00 -0.18884562661E+04  0.18884562661E+04  0.25500000920E-02 0. -1.
    10030    2    1    2    0    0  0.00000000000E+00  0.00000000000E+00 -0.68048146089E+03  0.30964310714E+04  0.30207334144E+04 0.  0.
        2    1    3    3  502    0 -0.64931501813E+02  0.37493715141E+03 -0.18385162597E+04  0.18774812928E+04  0.25500000920E-02 0. -1.
       -2    1    3    3    0  502  0.64931501813E+02 -0.37493715141E+03  0.11580347988E+04  0.12189497786E+04  0.25500000920E-02 0.  1.
</event>
<event>
 5   0  0.5392262E-06  0.3060288E+04  0.7818609E-02  0.8226722E-01
       -1   -1    0    0    0  501  0.00000000000E+00  0.00000000000E+00  0.88494130998E+03  0.88494130999E+03  0.50400001928E-02 0.  1.
        1   -1    0    0  501    0  0.00000000000E+00  0.00000000000E+00 -0.26457578994E+04  0.26457578994E+04  0.50400001928E-02 0. -1.
    10030    2    1    2    0    0  0.00000000000E+00  0.00000000000E+00 -0.17608165894E+04  0.35306992094E+04  0.30602878697E+04 0.  0.
        2    1    3    3  502    0  0.12421691238E+04  0.44898227657E+03 -0.17716641247E+04  0.22098332488E+04  0.25500000920E-02 0. -1.
       -2    1    3    3    0  502 -0.12421691238E+04 -0.44898227657E+03  0.10847535225E+02  0.13208659606E+04  0.25500000920E-02 0.  1.
</event>
<event>
 5   0  0.5730920E-06  0.3039157E+04  0.7818609E-02  0.8232637E-01
        1   -1    0    0  501    0  0.00000000000E+00  0.00000000000E+00  0.13228662711E+04  0.13228662711E+04  0.50400001928E-02 0.  1.
       -1   -1    0    0    0  501  0.00000000000E+00  0.00000000000E+00 -0.17455420134E+04  0.17455420134E+04  0.50400001928E-02 0. -1.
    10030    2    1    2    0    0  0.00000000000E+00  0.00000000000E+00 -0.42267574232E+03  0.30684082845E+04  0.30391568925E+04 0.  0.
        1    1    3    3  502    0  0.82608332380E+03 -0.12699114745E+04 -0.33092555028E+03  0.15506774425E+04  0.50400001928E-02 0. -1.
       -1    1    3    3    0  502 -0.82608332380E+03  0.12699114745E+04 -0.91750192036E+02  0.15177308420E+04  0.50400001928E-02 0.  1.
</event>
<event>
 5   0  0.1345931E-05  0.2952707E+04  0.7818609E-02  0.8257366E-01
        2   -1    0    0  501    0  0.00000000000E+00  0.00000000000E+00  0.27073762401E+04  0.27073762401E+04  0.25500000920E-02 0.  1.
       -2   -1    0    0    0  501  0.00000000000E+00  0.00000000000E+00 -0.80506722941E+03  0.80506722941E+03  0.25500000920E-02 0. -1.
    10030    2    1    2    0    0  0.00000000000E+00  0.00000000000E+00  0.19023090106E+04  0.35124434695E+04  0.29527071569E+04 0.  0.
        2    1    3    3  502    0  0.11532036911E+04  0.42966758025E+03 -0.19000714528E+02  0.12307940567E+04  0.25500000920E-02 0. -1.
       -2    1    3    3    0  502 -0.11532036911E+04 -0.42966758025E+03  0.19213097252E+04  0.22816494128E+04  0.25500000920E-02 0.  1.
</event>
<event>
 5   0  0.1388724E-05  0.3018165E+04  0.7818609E-02  0.8238563E-01
       -2   -1    0    0    0  501  0.00000000000E+00  0.00000000000E+00  0.11988167519E+04  0.11988167519E+04  0.25500000920E-02 0. -1.
        2   -1    0    0  501    0  0.00000000000E+00  0.00000000000E+00 -0.18996475756E+04  0.18996475756E+04  0.25500000920E-02 0.  1.
    10030    2    1    2    0    0  0.00000000000E+00  0.00000000000E+00 -0.70083082371E+03  0.30984643275E+04  0.30181645657E+04 0.  0.
        4    1    3    3  502    0  0.59396135812E+03  0.21867378913E+03 -0.17567972731E+04  0.18673367647E+04  0.12699999809E+01 0.  1.
       -4    1    3    3    0  502 -0.59396135812E+03 -0.21867378913E+03  0.10559664494E+04  0.12311275629E+04  0.12699999809E+01 0. -1.
</event>
<event>
 5   0  0.1480547E-05  0.3004287E+04  0.7818609E-02  0.8242508E-01
       -2   -1    0    0    0  501  0.00000000000E+00  0.00000000000E+00  0.14700076346E+04  0.14700076346E+04  0.25500000920E-02 0.  1.
        2   -1    0    0  501    0  0.00000000000E+00  0.00000000000E+00 -0.15349814238E+04  0.15349814238E+04  0.25500000920E-02 0. -1.
    10030    2    1    2    0    0  0.00000000000E+00  0.00000000000E+00 -0.64973789210E+02  0.30049890584E+04  0.30042865456E+04 0.  0.
        1    1    3    3  502    0  0.75523320829E+03  0.11019078629E+04  0.65459168560E+03  0.14876385354E+04  0.50400001928E-02 0. -1.
       -1    1    3    3    0  502 -0.75523320829E+03 -0.11019078629E+04 -0.71956547481E+03  0.15173505230E+04  0.50400001928E-02 0.  1.
</event>
<event>
 5   0  0.1480547E-05  0.2990170E+04  0.7818609E-02  0.8246543E-01
        2   -1    0    0  501    0  0.00000000000E+00  0.00000000000E+00  0.97436450025E+03  0.97436450025E+03  0.25500000920E-02 0.  1.
       -2   -1    0    0    0  501  0.00000000000E+00  0.00000000000E+00 -0.22940891705E+04  0.22940891705E+04  0.25500000920E-02 0. -1.
    10030    2    1    2    0    0  0.00000000000E+00  0.00000000000E+00 -0.13197246703E+04  0.32684536708E+04  0.29901699271E+04 0.  0.
        1    1    3    3  502    0 -0.10826460219E+04 -0.78720826155E+03  0.68040797919E+02  0.13403166812E+04  0.50400001928E-02 0.  1.
       -1    1    3    3    0  502  0.10826460219E+04  0.78720826155E+03 -0.13877654682E+04  0.19281369896E+04  0.50400001928E-02 0. -1.
</event>
<event>
 5   0  0.5392262E-06  0.2956986E+04  0.7818609E-02  0.8256121E-01
       -1   -1    0    0    0  501  0.00000000000E+00  0.00000000000E+00  0.10134195510E+04  0.10134195510E+04  0.50400001928E-02 0. -1.
        1   -1    0    0  501    0  0.00000000000E+00  0.00000000000E+00 -0.21569961920E+04  0.21569961920E+04  0.50400001928E-02 0.  1.
    10030    2    1    2    0    0  0.00000000000E+00  0.00000000000E+00 -0.11435766410E+04  0.31704157430E+04  0.29569863797E+04 0.  0.
        2    1    3    3  502    0  0.13980271314E+03  0.71986070507E+03 -0.19482735871E+04  0.20817094426E+04  0.25500000920E-02 0.  1.
       -2    1    3    3    0  502 -0.13980271314E+03 -0.71986070507E+03  0.80469694614E+03  0.10887063004E+04  0.25500000920E-02 0. -1.
</event>
<event>
 5   0  0.4806125E-06  0.1896350E+04  0.7818609E-02  0.8656675E-01
        4   -1    0    0  501    0  0.00000000000E+00  0.00000000000E+00  0.69475034124E+03  0.69475150202E+03  0.12699999809E+01 0.  1.
       -4   -1    0    0    0  501  0.00000000000E+00  0.00000000000E+00 -0.12940392555E+04  0.12940398788E+04  0.12699999809E+01 0. -1.
    10030    2    1    2    0    0  0.00000000000E+00  0.00000000000E+00 -0.59928891431E+03  0.19887913808E+04  0.18963501663E+04 0.  0.
        3    1    3    3  502    0  0.67365334138E+03  0.16119505254E+03 -0.97869760219E+03  0.11990169624E+04  0.10100000352E+00 0. -1.
       -3    1    3    3    0  502 -0.67365334138E+03 -0.16119505254E+03  0.37940868788E+03  0.78977441840E+03  0.10100000352E+00 0.  1.
</event>
<event>
 5   0  0.1480547E-05  0.3014863E+04  0.7818609E-02  0.8239499E-01
       -2   -1    0    0    0  501  0.00000000000E+00  0.00000000000E+00  0.80864320238E+03  0.80864320238E+03  0.25500000920E-02 0.  1.
        2   -1    0    0  501    0  0.00000000000E+00  0.00000000000E+00 -0.28100766904E+04  0.28100766904E+04  0.25500000920E-02 0. -1.
    10030    2    1    2    0    0  0.00000000000E+00  0.00000000000E+00 -0.20014334880E+04  0.36187198928E+04  0.30148627921E+04 0.  0.
        1    1    3    3  502    0 -0.41577387027E+03  0.16658770506E+03 -0.27283597145E+04  0.27648808485E+04  0.50400001928E-02 0. -1.
       -1    1    3    3    0  502  0.41577387027E+03 -0.16658770506E+03  0.72692622651E+03  0.85383904425E+03  0.50400001928E-02 0.  1.
</event>
<event>
 5   0  0.1523029E-05  0.1499523E+04  0.7818609E-02  0.8884770E-01
       -2   -1    0    0    0  501  0.00000000000E+00  0.00000000000E+00  0.53765001684E+03  0.53765001685E+03  0.25500000920E-02 0. -1.
        2   -1    0    0  501    0  0.00000000000E+00  0.00000000000E+00 -0.10455541899E+04  0.10455541899E+04  0.25500000920E-02 0.  1.
    10030    2    1    2    0    0  0.00000000000E+00  0.00000000000E+00 -0.50790417303E+03  0.15832042067E+04  0.14995228945E+04 0.  0.
        5    1    3    3  502    0 -0.69757117181E+03 -0.23489936487E+03 -0.10338638007E+03  0.74329945845E+03  0.46999998093E+01 0. -1.
       -5    1    3    3    0  502  0.69757117181E+03  0.23489936487E+03 -0.40451779296E+03  0.83990474827E+03  0.46999998093E+01 0.  1.
</event>
<event>
 5   0  0.1388724E-05  0.3011910E+04  0.7818609E-02  0.8240338E-01
        2   -1    0    0  501    0  0.00000000000E+00  0.00000000000E+00  0.20569659762E+04  0.20569659762E+04  0.25500000920E-02 0. -1.
       -2   -1    0    0    0  501  0.00000000000E+00  0.00000000000E+00 -0.11025466711E+04  0.11025466711E+04  0.25500000920E-02 0.  1.
    10030    2    1    2    0    0  0.00000000000E+00  0.00000000000E+00  0.95441930514E+03  0.31595126473E+04  0.30119103504E+04 0.  0.
        4    1    3    3  502    0  0.75835568788E+03 -0.27622549899E+03 -0.85651232397E+03  0.11768682380E+04  0.12699999809E+01 0.  1.
       -4    1    3    3    0  502 -0.75835568788E+03  0.27622549899E+03  0.18109316291E+04  0.19826444093E+04  0.12699999809E+01 0. -1.
</event>
<event>
 5   0  0.5730920E-06  0.2226332E+04  0.7818609E-02  0.8507548E-01
       -1   -1    0    0    0  501  0.00000000000E+00  0.00000000000E+00  0.63847957266E+03  0.63847957268E+03  0.50400001928E-02 0.  1.
        1   -1    0    0  501    0  0.00000000000E+00  0.00000000000E+00 -0.19407641333E+04  0.19407641333E+04  0.50400001928E-02 0. -1.
    10030    2    1    2    0    0  0.00000000000E+00  0.00000000000E+00 -0.13022845607E+04  0.25792437060E+04  0.22263317403E+04 0.  0.
        1    1    3    3  502    0  0.61496343856E+03  0.12187141784E+03  0.41450819095E+03  0.75156484327E+03  0.50400001928E-02 0.  1.
       -1    1    3    3    0  502 -0.61496343856E+03 -0.12187141784E+03 -0.17167927516E+04  0.18276788627E+04  0.50400001928E-02 0. -1.
</event>
<event>
 5   0  0.1423692E-05  0.3002971E+04  0.7818609E-02  0.8242883E-01
        2   -1    0    0  501    0  0.00000000000E+00  0.00000000000E+00  0.12132202963E+04  0.12132202963E+04  0.25500000920E-02 0. -1.
       -2   -1    0    0    0  501  0.00000000000E+00  0.00000000000E+00 -0.18582435316E+04  0.18582435316E+04  0.25500000920E-02 0.  1.
    10030    2    1    2    0    0  0.00000000000E+00  0.00000000000E+00 -0.64502323527E+03  0.30714638278E+04  0.30029710408E+04 0.  0.
        3    1    3    3  502    0 -0.99580328833E+01 -0.78256998984E+02  0.12110991725E+04  0.12136657432E+04  0.10100000352E+00 0. -1.
       -3    1    3    3    0  502  0.99580328833E+01  0.78256998984E+02 -0.18561224078E+04  0.18577980846E+04  0.10100000352E+00 0.  1.
</event>
<event>
 5   0  0.1480547E-05  0.3064941E+04  0.7818609E-02  0.8225426E-01
       -2   -1    0    0    0  501  0.00000000000E+00  0.00000000000E+00  0.14224930998E+04  0.14224930998E+04  0.25500000920E-02 0.  1.
        2   -1    0    0  501    0  0.00000000000E+00  0.00000000000E+00 -0.16509505533E+04  0.16509505533E+04  0.25500000920E-02 0. -1.
    10030    2    1    2    0    0  0.00000000000E+00  0.00000000000E+00 -0.22845745350E+03  0.30734436531E+04  0.30649409588E+04 0.  0.
        1    1    3    3  502    0 -0.12716591301E+03  0.64518611100E+03  0.12738184791E+04  0.14335444901E+04  0.50400001928E-02 0.  1.
       -1    1    3    3    0  502  0.12716591301E+03 -0.64518611100E+03 -0.15022759326E+04  0.16398991630E+04  0.50400001928E-02 0. -1.
</event>
<event>
 5   0  0.5329891E-06  0.1554189E+04  0.7818609E-02  0.8849196E-01
        1   -1    0    0  501    0  0.00000000000E+00  0.00000000000E+00  0.59975532871E+03  0.59975532873E+03  0.50400001928E-02 0.  1.
       -1   -1    0    0    0  501  0.00000000000E+00  0.00000000000E+00 -0.10068709626E+04  0.10068709626E+04  0.50400001928E-02 0. -1.
    10030    2    1    2    0    0  0.00000000000E+00  0.00000000000E+00 -0.40711563387E+03  0.16066262913E+04  0.15541894674E+04 0.  0.
        4    1    3    3  502    0  0.12299572962E+02 -0.59635772026E+03 -0.71843955325E+03  0.93378306613E+03  0.12699999809E+01 0. -1.
       -4    1    3    3    0  502 -0.12299572962E+02  0.59635772026E+03  0.31132391938E+03  0.67284322519E+03  0.12699999809E+01 0.  1.
</event>
<event>
 5   0  0.1423692E-05  0.2644967E+04  0.7818609E-02  0.8353085E-01
        2   -1    0    0  501    0  0.00000000000E+00  0.00000000000E+00  0.11933319261E+04  0.11933319261E+04  0.25500000920E-02 0.  1.
       -2   -1    0    0    0  501  0.00000000000E+00  0.00000000000E+00 -0.14656128453E+04  0.14656128453E+04  0.25500000920E-02 0. -1.
    10030    2    1    2    0    0  0.00000000000E+00  0.00000000000E+00 -0.27228091917E+03  0.26589447714E+04  0.26449669938E+04 0.  0.
        3    1    3    3  502    0  0.11984024018E+04 -0.31780461855E+03  0.32650296700E+03  0.12820968332E+04  0.10100000352E+00 0.  1.
       -3    1    3    3    0  502 -0.11984024018E+04  0.31780461855E+03 -0.59878388617E+03  0.13768479381E+04  0.10100000352E+00 0. -1.
</event>
<event>
 5   0  0.1480547E-05  0.2927101E+04  0.7818609E-02  0.8264860E-01
       -2   -1    0    0    0  501  0.00000000000E+00  0.00000000000E+00  0.14550438156E+04  0.14550438156E+04  0.25500000920E-02 0. -1.
        2   -1    0    0  501    0  0.00000000000E+00  0.00000000000E+00 -0.14721064400E+04  0.14721064400E+04  0.25500000920E-02 0.  1.
    10030    2    1    2    0    0  0.00000000000E+00  0.00000000000E+00 -0.17062624323E+02  0.29271502556E+04  0.29271005254E+04 0.  0.
        1    1    3    3  502    0  0.75705290762E+03  0.18478210288E+03  0.12303221858E+04  0.14563537384E+04  0.50400001928E-02 0. -1.
       -1    1    3    3    0  502 -0.75705290762E+03 -0.18478210288E+03 -0.12473848101E+04  0.14707965172E+04  0.50400001928E-02 0.  1.
</event>
<event>
 5   0  0.5392262E-06  0.3059404E+04  0.7818609E-02  0.8226968E-01
        1   -1    0    0  501    0  0.00000000000E+00  0.00000000000E+00  0.16951502492E+04  0.16951502492E+04  0.50400001928E-02 0. -1.
       -1   -1    0    0    0  501  0.00000000000E+00  0.00000000000E+00 -0.13804012944E+04  0.13804012944E+04  0.50400001928E-02 0.  1.
    10030    2    1    2    0    0  0.00000000000E+00  0.00000000000E+00  0.31474895476E+03  0.30755515436E+04  0.30594036009E+04 0.  0.
        2    1    3    3  502    0  0.77343872583E+03 -0.24407577664E+02  0.14838786511E+04  0.16735289193E+04  0.25500000920E-02 0. -1.
       -2    1    3    3    0  502 -0.77343872583E+03  0.24407577664E+02 -0.11691296963E+04  0.14020226244E+04  0.25500000920E-02 0.  1.
</event>
<event>
 5   0  0.1523029E-05  0.2939090E+04  0.7818609E-02  0.8261341E-01
        2   -1    0    0  501    0  0.00000000000E+00  0.00000000000E+00  0.20812933674E+04  0.20812933674E+04  0.25500000920E-02 0.  1.
       -2   -1    0    0    0  501  0.00000000000E+00  0.00000000000E+00 -0.10376061668E+04  0.10376061668E+04  0.25500000920E-02 0. -1.
    10030    2    1    2    0    0  0.00000000000E+00  0.00000000000E+00  0.10436872006E+04  0.31188995342E+04  0.29390902218E+04 0.  0.
        5    1    3    3  502    0  0.61777869239E+03  0.52705977152E+03  0.18215591552E+04  0.19943776877E+04  0.46999998093E+01 0.  1.
       -5    1    3    3    0  502 -0.61777869239E+03 -0.52705977152E+03 -0.77787195461E+03  0.11245218465E+04  0.46999998093E+01 0. -1.
</event>
<event>
 5   0  0.5730920E-06  0.1500871E+04  0.7818609E-02  0.8883874E-01
        1   -1    0    0  501    0  0.00000000000E+00  0.00000000000E+00  0.11436499627E+04  0.11436499628E+04  0.50400001928E-02 0.  1.
       -1   -1    0    0    0  501  0.00000000000E+00  0.00000000000E+00 -0.49241759829E+03  0.49241759832E+03  0.50400001928E-02 0. -1.
    10030    2    1    2    0    0  0.00000000000E+00  0.00000000000E+00  0.65123236445E+03  0.16360675611E+04  0.15008709045E+04 0.  0.
        1    1    3    3  502    0 -0.24178124758E+03  0.47888434492E+03  0.89763754626E+03  0.10457253712E+04  0.50400001928E-02 0.  1.
       -1    1    3    3    0  502  0.24178124758E+03 -0.47888434492E+03 -0.24640518181E+03  0.59034218987E+03  0.50400001928E-02 0. -1.
</event>
<event>
 5   0  0.1480547E-05  0.1805800E+04  0.7818609E-02  0.8703221E-01
        2   -1    0    0  501    0  0.00000000000E+00  0.00000000000E+00  0.18164917768E+04  0.18164917768E+04  0.25500000920E-02 0. -1.
       -2   -1    0    0    0  501  0.00000000000E+00  0.00000000000E+00 -0.44879275039E+03  0.44879275040E+03  0.25500000920E-02 0.  1.
    10030    2    1    2    0    0  0.00000000000E+00  0.00000000000E+00  0.13676990264E+04  0.22652845272E+04  0.18057999231E+04 0.  0.
        1    1    3    3  502    0 -0.62174785596E+03 -0.49863056216E+03  0.12161050027E+04  0.14539993850E+04  0.50400001928E-02 0. -1.
       -1    1    3    3    0  502  0.62174785596E+03  0.49863056216E+03  0.15159402368E+03  0.81128514220E+03  0.50400001928E-02 0.  1.
</event>
<event>
 5   0  0.1345931E-05  0.2954223E+04  0.7818609E-02  0.8256925E-01
        2   -1    0    0  501    0  0.00000000000E+00  0.00000000000E+00  0.21560714136E+04  0.21560714136E+04  0.25500000920E-02 0.  1.
       -2   -1    0    0    0  501  0.00000000000E+00  0.00000000000E+00 -0.10119601798E+04  0.10119601798E+04  0.25500000920E-02 0. -1.
    10030    2    1    2    0    0  0.00000000000E+00  0.00000000000E+00  0.11441112339E+04  0.31680315934E+04  0.29542230216E+04 0.  0.
        2    1    3    3  502    0  0.76983562197E+03  0.92907240211E+03 -0.34168999454E+03  0.12540233114E+04  0.25500000920E-02 0. -1.
       -2    1    3    3    0  502 -0.76983562197E+03 -0.92907240211E+03  0.14858012284E+04  0.19140082820E+04  0.25500000920E-02 0.  1.
</event>
<event>
 5   0  0.4806125E-06  0.2789250E+04  0.7818609E-02  0.8306614E-01
        3   -1    0    0  501    0  0.00000000000E+00  0.00000000000E+00  0.12986289196E+04  0.12986289236E+04  0.10100000352E+00 0.  1.
       -3   -1    0    0    0  501  0.00000000000E+00  0.00000000000E+00 -0.14977170853E+04  0.14977170887E+04  0.10100000352E+00 0. -1.
    10030    2    1    2    0    0  0.00000000000E+00  0.00000000000E+00 -0.19908816565E+03  0.27963460122E+04  0.27892498853E+04 0.  0.
        4    1    3    3  502    0 -0.12605141532E+04 -0.48225672894E+03 -0.45187755490E+03  0.14232576789E+04  0.12699999809E+01 0. -1.
       -4    1    3    3    0  502  0.12605141532E+04  0.48225672894E+03  0.25278938925E+03  0.13730883334E+04  0.12699999809E+01 0.  1.
</event>
<event>
 5   0  0.5522695E-06  0.2902745E+04  0.7818609E-02  0.8272061E-01
        1   -1    0    0  501    0  0.00000000000E+00  0.00000000000E+00  0.19516924776E+04  0.19516924777E+04  0.50400001928E-02 0.  1.
       -1   -1    0    0    0  501  0.00000000000E+00  0.00000000000E+00 -0.10793101806E+04  0.10793101806E+04  0.50400001928E-02 0. -1.
    10030    2    1    2    0    0  0.00000000000E+00  0.00000000000E+00  0.87238229701E+03  0.30310026583E+04  0.29027446051E+04 0.  0.
        3    1    3    3  502    0  0.15427284999E+03  0.14059478910E+04  0.96241994819E+02  0.14176572633E+04  0.10100000352E+00 0.  1.
       -3    1    3    3    0  502 -0.15427284999E+03 -0.14059478910E+04  0.77614030219E+03  0.16133453950E+04  0.10100000352E+00 0. -1.
</event>
<event>
 5   0  0.1480547E-05  0.3019158E+04  0.7818609E-02  0.8238281E-01
       -2   -1    0    0    0  501  0.00000000000E+00  0.00000000000E+00  0.94506174459E+03  0.94506174460E+03  0.25500000920E-02 0. -1.
        2   -1    0    0  501    0  0.00000000000E+00  0.00000000000E+00 -0.24113020216E+04  0.24113020216E+04  0.25500000920E-02 0.  1.
    10030    2    1    2    0    0  0.00000000000E+00  0.00000000000E+00 -0.14662402770E+04  0.33563637662E+04  0.30191583564E+04 0.  0.
        1    1    3    3  502    0  0.12312475041E+04  0.82987640168E+03 -0.43037316361E+03  0.15459257156E+04  0.50400001928E-02 0. -1.
       -1    1    3    3    0  502 -0.12312475041E+04 -0.82987640168E+03 -0.10358671134E+04  0.18104380506E+04  0.50400001928E-02 0.  1.
</event>
<event>
 5   0  0.1523029E-05  0.2997540E+04  0.7818609E-02  0.8244434E-01
       -2   -1    0    0    0  501  0.00000000000E+00  0.00000000000E+00  0.14457135637E+04  0.14457135637E+04  0.25500000920E-02 0.  1.
        2   -1    0    0  501    0  0.00000000000E+00  0.00000000000E+00 -0.15537738018E+04  0.15537738018E+04  0.25500000920E-02 0. -1.
    10030    2    1    2    0    0  0.00000000000E+00  0.00000000000E+00 -0.10806023814E+03  0.29994873655E+04  0.29975402317E+04 0.  0.
        5    1    3    3  502    0  0.99992580196E+02 -0.24132049869E+03  0.14227522686E+04  0.14465407727E+04  0.46999998093E+01 0.  1.
       -5    1    3    3    0  502 -0.99992580196E+02  0.24132049869E+03 -0.15308125068E+04  0.15529465928E+04  0.46999998093E+01 0. -1.
</event>
<event>
 5   0  0.4806125E-06  0.3168041E+04  0.7818609E-02  0.8197309E-01
       -3   -1    0    0    0  501  0.00000000000E+00  0.00000000000E+00  0.10895353938E+04  0.10895353985E+04  0.10100000352E+00 0. -1.
        3   -1    0    0  501    0  0.00000000000E+00  0.00000000000E+00 -0.23029268239E+04  0.23029268261E+04  0.10100000352E+00 0.  1.
    10030    2    1    2    0    0  0.00000000000E+00  0.00000000000E+00 -0.12133914301E+04  0.33924622245E+04  0.31680405904E+04 0.  0.
        4    1    3    3  502    0  0.11668317303E+04  0.22831772699E+03  0.51410698390E+03  0.12953504835E+04  0.12699999809E+01 0. -1.
       -4    1    3    3    0  502 -0.11668317303E+04 -0.22831772699E+03 -0.17274984140E+04  0.20971117410E+04  0.12699999809E+01 0.  1.
</event>
<event>
 5   0  0.1480547E-05  0.2983402E+04  0.7818609E-02  0.8248487E-01
        2   -1    0    0  501    0  0.00000000000E+00  0.00000000000E+00  0.19902552912E+04  0.19902552912E+04  0.25500000920E-02 0.  1.
       -2   -1    0    0    0  501  0.00000000000E+00  0.00000000000E+00 -0.11180332458E+04  0.11180332458E+04  0.25500000920E-02 0. -1.
    10030    2    1    2    0    0  0.00000000000E+00  0.00000000000E+00  0.87222204539E+03  0.31082885369E+04  0.29834018054E+04 0.  0.
        1    1    3    3  502    0 -0.21948965285E+03  0.38236095429E+03  0.19208247560E+04  0.19707722725E+04  0.50400001928E-02 0.  1.
       -1    1    3    3    0  502  0.21948965285E+03 -0.38236095429E+03 -0.10486027106E+04  0.11375162644E+04  0.50400001928E-02 0. -1.
</event>
<event>
 5   0  0.5730920E-06  0.2852995E+04  0.7818609E-02  0.8287002E-01
       -1   -1    0    0    0  501  0.00000000000E+00  0.00000000000E+00  0.10127685469E+04  0.10127685469E+04  0.50400001928E-02 0. -1.
        1   -1    0    0  501    0  0.00000000000E+00  0.00000000000E+00 -0.20092404126E+04  0.20092404127E+04  0.50400001928E-02 0.  1.
    10030    2    1    2    0    0  0.00000000000E+00  0.00000000000E+00 -0.99647186573E+03  0.30220089596E+04  0.28529952633E+04 0.  0.
        1    1    3    3  502    0 -0.12489155837E+04 -0.22962753352E+03 -0.11866418556E+04  0.17379982258E+04  0.50400001928E-02 0.  1.
       -1    1    3    3    0  502  0.12489155837E+04  0.22962753352E+03  0.19016998985E+03  0.12840107338E+04  0.50400001928E-02 0. -1.
</event>
<event>
 5   0  0.1423692E-05  0.2017908E+04  0.7818609E-02  0.8598294E-01
        2   -1    0    0  501    0  0.00000000000E+00  0.00000000000E+00  0.20197244523E+04  0.20197244523E+04  0.25500000920E-02 0.  1.
       -2   -1    0    0    0  501  0.00000000000E+00  0.00000000000E+00 -0.50402309274E+03  0.50402309274E+03  0.25500000920E-02 0. -1.
    10030    2    1    2    0    0  0.00000000000E+00  0.00000000000E+00  0.15157013595E+04  0.25237475450E+04  0.20179075944E+04 0.  0.
        3    1    3    3  502    0 -0.93441703132E+02 -0.24518338684E+03 -0.46060607046E+03  0.53009829976E+03  0.10100000352E+00 0. -1.
       -3    1    3    3    0  502  0.93441703132E+02  0.24518338684E+03  0.19763074300E+04  0.19936492453E+04  0.10100000352E+00 0.  1.
</event>
<event>
 5   0  0.1388724E-05  0.2414599E+04  0.7818609E-02  0.8434058E-01
       -2   -1    0    0    0  501  0.00000000000E+00  0.00000000000E+00  0.91295502870E+03  0.91295502870E+03  0.25500000920E-02 0. -1.
        2   -1    0    0  501    0  0.00000000000E+00  0.00000000000E+00 -0.15965433537E+04  0.15965433537E+04  0.25500000920E-02 0.  1.
    10030    2    1    2    0    0  0.00000000000E+00  0.00000000000E+00 -0.68358832500E+03  0.25094983824E+04  0.24145991662E+04 0.  0.
        4    1    3    3  502    0  0.68709303479E+03  0.49480094308E+03  0.55263751752E+03  0.10111056574E+04  0.12699999809E+01 0. -1.
       -4    1    3    3    0  502 -0.68709303479E+03 -0.49480094308E+03 -0.12362258425E+04  0.14983927250E+04  0.12699999809E+01 0.  1.
</event>
<event>
 5   0  0.1345931E-05  0.3170496E+04  0.7818609E-02  0.8196653E-01
       -2   -1    0    0    0  501  0.00000000000E+00  0.00000000000E+00  0.12425435910E+04  0.12425435910E+04  0.25500000920E-02 0.  1.
        2   -1    0    0  501    0  0.00000000000E+00  0.00000000000E+00 -0.20224729081E+04  0.20224729081E+04  0.25500000920E-02 0. -1.
    10030    2    1    2    0    0  0.00000000000E+00  0.00000000000E+00 -0.77992931708E+03  0.32650164991E+04  0.31704957026E+04 0.  0.
        2    1    3    3  502    0  0.13040003763E+04 -0.83876088239E+03 -0.49855181613E+02  0.15512647544E+04  0.25500000920E-02 0. -1.
       -2    1    3    3    0  502 -0.13040003763E+04  0.83876088239E+03 -0.73007413547E+03  0.17137517447E+04  0.25500000920E-02 0.  1.
</event>
<event>
 5   0  0.1345931E-05  0.2670158E+04  0.7818609E-02  0.8344753E-01
        2   -1    0    0  501    0  0.00000000000E+00  0.00000000000E+00  0.14725124084E+04  0.14725124084E+04  0.25500000920E-02 0. -1.
       -2   -1    0    0    0  501  0.00000000000E+00  0.00000000000E+00 -0.12104723627E+04  0.12104723627E+04  0.25500000920E-02 0.  1.
    10030    2    1    2    0    0  0.00000000000E+00  0.00000000000E+00  0.26204004566E+03  0.26829847711E+04  0.26701577287E+04 0.  0.
        2    1    3    3  502    0  0.11814978265E+04 -0.25356044695E+02  0.75517675078E+03  0.14024521268E+04  0.25500000920E-02 0. -1.
       -2    1    3    3    0  502 -0.11814978265E+04  0.25356044695E+02 -0.49313670512E+03  0.12805326443E+04  0.25500000920E-02 0.  1.
</event>
<event>
 5   0  0.1480547E-05  0.3070048E+04  0.7818609E-02  0.8224006E-01
       -2   -1    0    0    0  501  0.00000000000E+00  0.00000000000E+00  0.99537745150E+03  0.99537745150E+03  0.25500000920E-02 0. -1.
        2   -1    0    0  501    0  0.00000000000E+00  0.00000000000E+00 -0.23672410538E+04  0.23672410538E+04  0.25500000920E-02 0.  1.
    10030    2    1    2    0    0  0.00000000000E+00  0.00000000000E+00 -0.13718636023E+04  0.33626185053E+04  0.30700477958E+04 0.  0.
        1    1    3    3  502    0 -0.86505866576E+03 -0.14636544748E+02 -0.20747415402E+04  0.22479086241E+04  0.50400001928E-02 0.  1.
       -1    1    3    3    0  502  0.86505866576E+03  0.14636544748E+02  0.70287793789E+03  0.11147098812E+04  0.50400001928E-02 0. -1.
</event>
<event>
 5   0  0.4806125E-06  0.3154945E+04  0.7818609E-02  0.8200819E-01
       -3   -1    0    0    0  501  0.00000000000E+00  0.00000000000E+00  0.14573439669E+04  0.14573439704E+04  0.10100000352E+00 0.  1.
        3   -1    0    0  501    0  0.00000000000E+00  0.00000000000E+00 -0.17075028681E+04  0.17075028711E+04  0.10100000352E+00 0. -1.
    10030    2    1    2    0    0  0.00000000000E+00  0.00000000000E+00 -0.25015890123E+03  0.31648468416E+04  0.31549446991E+04 0.  0.
        4    1    3    3  502    0 -0.99337534410E+03 -0.11926386106E+04  0.15729288022E+03  0.15601038725E+04  0.12699999809E+01 0. -1.
       -4    1    3    3    0  502  0.99337534410E+03  0.11926386106E+04 -0.40745178144E+03  0.16047429691E+04  0.12699999809E+01 0.  1.
</event>
<event>
 5   0  0.5730920E-06  0.2980863E+04  0.7818609E-02  0.8249217E-01
        1   -1    0    0  501    0  0.00000000000E+00  0.00000000000E+00  0.15203817797E+04  0.15203817797E+04  0.50400001928E-02 0.  1.
       -1   -1    0    0    0  501  0.00000000000E+00  0.00000000000E+00 -0.14610708802E+04  0.14610708802E+04  0.50400001928E-02 0. -1.
    10030    2    1    2    0    0  0.00000000000E+00  0.00000000000E+00  0.59310899495E+02  0.29814526600E+04  0.29808626572E+04 0.  0.
        1    1    3    3  502    0 -0.66421350029E+03 -0.52529654949E+03  0.12563848600E+04  0.15151300127E+04  0.50400001928E-02 0.  1.
       -1    1    3    3    0  502  0.66421350029E+03  0.52529654949E+03 -0.11970739605E+04  0.14663226473E+04  0.50400001928E-02 0. -1.
</event>
<event>
 5   0  0.1480547E-05  0.1547688E+04  0.7818609E-02  0.8853346E-01
       -2   -1    0    0    0  501  0.00000000000E+00  0.00000000000E+00  0.24170312384E+03  0.24170312385E+03  0.25500000920E-02 0.  1.
        2   -1    0    0  501    0  0.00000000000E+00  0.00000000000E+00 -0.24775625413E+04  0.24775625413E+04  0.25500000920E-02 0. -1.
    10030    2    1    2    0    0  0.00000000000E+00  0.00000000000E+00 -0.22358594175E+04  0.27192656651E+04  0.15476880897E+04 0.  0.
        1    1    3    3  502    0 -0.17572913061E+03 -0.20725913625E+03 -0.23909837158E+04  0.24063749097E+04  0.50400001928E-02 0. -1.
       -1    1    3    3    0  502  0.17572913061E+03  0.20725913625E+03  0.15512429830E+03  0.31289075546E+03  0.50400001928E-02 0.  1.
</event>
<event>
 5   0  0.5392262E-06  0.3012610E+04  0.7818609E-02  0.8240139E-01
       -1   -1    0    0    0  501  0.00000000000E+00  0.00000000000E+00  0.16499127418E+04  0.16499127418E+04  0.50400001928E-02 0. -1.
        1   -1    0    0  501    0  0.00000000000E+00  0.00000000000E+00 -0.13751963950E+04  0.13751963951E+04  0.50400001928E-02 0.  1.
    10030    2    1    2    0    0  0.00000000000E+00  0.00000000000E+00  0.27471634673E+03  0.30251091368E+04  0.30126095364E+04 0.  0.
        2    1    3    3  502    0  0.11620124286E+04 -0.80165304430E+02 -0.82172496172E+03  0.14254582677E+04  0.25500000920E-02 0.  1.
       -2    1    3    3    0  502 -0.11620124286E+04  0.80165304430E+02  0.10964413085E+04  0.15996508691E+04  0.25500000920E-02 0. -1.
</event>
<event>
 5   0  0.5522695E-06  0.3016909E+04  0.7818609E-02  0.8238919E-01
        1   -1    0    0  501    0  0.00000000000E+00  0.00000000000E+00  0.17022649857E+04  0.17022649857E+04  0.50400001928E-02 0. -1.
       -1   -1    0    0    0  501  0.00000000000E+00  0.00000000000E+00 -0.13367098730E+04  0.13367098730E+04  0.50400001928E-02 0.  1.
    10030    2    1    2    0    0  0.00000000000E+00  0.00000000000E+00  0.36555511266E+03  0.30389748587E+04  0.30169086250E+04 0.  0.
        3    1    3    3  502    0 -0.32543792470E+03 -0.88362269667E+03 -0.10042880381E+04  0.13766965485E+04  0.10100000352E+00 0.  1.
       -3    1    3    3    0  502  0.32543792470E+03  0.88362269667E+03  0.13698431507E+04  0.16622783103E+04  0.10100000352E+00 0. -1.
</event>
<event>
 5   0  0.5329891E-06  0.2102872E+04  0.7818609E-02  0.8559979E-01
       -1   -1    0    0    0  501  0.00000000000E+00  0.00000000000E+00  0.83085938106E+03  0.83085938107E+03  0.50400001928E-02 0. -1.
        1   -1    0    0  501    0  0.00000000000E+00  0.00000000000E+00 -0.13305710991E+04  0.13305710991E+04  0.50400001928E-02 0.  1.
    10030    2    1    2    0    0  0.00000000000E+00  0.00000000000E+00 -0.49971171801E+03  0.21614304802E+04  0.21028718267E+04 0.  0.
        4    1    3    3  502    0  0.82827663168E+03 -0.57065990218E+03 -0.56468753070E+03  0.11535027190E+04  0.12699999809E+01 0. -1.
       -4    1    3    3    0  502 -0.82827663168E+03  0.57065990218E+03  0.64975812690E+02  0.10079277611E+04  0.12699999809E+01 0.  1.
</event>
<event>
 5   0  0.1480547E-05  0.3075526E+04  0.7818609E-02  0.8222487E-01
       -2   -1    0    0    0  501  0.00000000000E+00  0.00000000000E+00  0.12907432271E+04  0.12907432271E+04  0.25500000920E-02 0.  1.
        2   -1    0    0  501    0  0.00000000000E+00  0.00000000000E+00 -0.18320572705E+04  0.18320572705E+04  0.25500000920E-02 0. -1.
    10030    2    1    2    0    0  0.00000000000E+00  0.00000000000E+00 -0.54131404344E+03  0.31228004976E+04  0.30755263053E+04 0.  0.
        1    1    3    3  502    0 -0.27841860007E+02 -0.13452677944E+04  0.48522855523E+03  0.14303731536E+04  0.50400001928E-02 0.  1.
       -1    1    3    3    0  502  0.27841860007E+02  0.13452677944E+04 -0.10265425987E+04  0.16924273440E+04  0.50400001928E-02 0. -1.
</event>
<event>
 5   0  0.5392262E-06  0.3004599E+04  0.7818609E-02  0.8242419E-01
        1   -1    0    0  501    0  0.00000000000E+00  0.00000000000E+00  0.23210557919E+04  0.23210557919E+04  0.50400001928E-02 0.  1.
       -1   -1    0    0    0  501  0.00000000000E+00  0.00000000000E+00 -0.97236076077E+03  0.97236076078E+03  0.50400001928E-02 0. -1.
    10030    2    1    2    0    0  0.00000000000E+00  0.00000000000E+00  0.13486950312E+04  0.32934165527E+04  0.30045988588E+04 0.  0.
        2    1    3    3  502    0 -0.78508359544E+03  0.12694291754E+04  0.48737254618E+03  0.15701397014E+04  0.25500000920E-02 0.  1.
       -2    1    3    3    0  502  0.78508359544E+03 -0.12694291754E+04  0.86132248498E+03  0.17232768513E+04  0.25500000920E-02 0. -1.
</event>
<event>
 5   0  0.5522695E-06  0.2845337E+04  0.7818609E-02  0.8289330E-01
       -1   -1    0    0    0  501  0.00000000000E+00  0.00000000000E+00  0.32843196554E+04  0.32843196554E+04  0.50400001928E-02 0.  1.
        1   -1    0    0  501    0  0.00000000000E+00  0.00000000000E+00 -0.61625705929E+03  0.61625705931E+03  0.50400001928E-02 0. -1.
    10030    2    1    2    0    0  0.00000000000E+00  0.00000000000E+00  0.26680625961E+04  0.39005767148E+04  0.28453366568E+04 0.  0.
        3    1    3    3  502    0 -0.36763501161E+03  0.12686082063E+04  0.60933301938E+03  0.14545820780E+04  0.10100000352E+00 0. -1.
       -3    1    3    3    0  502  0.36763501161E+03 -0.12686082063E+04  0.20587295768E+04  0.24459946368E+04  0.10100000352E+00 0.  1.
</event>
<event>
 5   0  0.7032692E-06  0.2942895E+04  0.7818609E-02  0.8260228E-01
        1   -1    0    0  501    0  0.00000000000E+00  0.00000000000E+00  0.22976574216E+04  0.22976574216E+04  0.50400001928E-02 0.  1.
       -1   -1    0    0    0  501  0.00000000000E+00  0.00000000000E+00 -0.94233276413E+03  0.94233276415E+03  0.50400001928E-02 0. -1.
    10030    2    1    2    0    0  0.00000000000E+00  0.00000000000E+00  0.13553246574E+04  0.32399901857E+04  0.29428950842E+04 0.  0.
        5    1    3    3  502    0  0.92889645518E+03 -0.57737442911E+03 -0.40605047107E+03  0.11666657323E+04  0.46999998093E+01 0. -1.
       -5    1    3    3    0  502 -0.92889645518E+03  0.57737442911E+03  0.17613751285E+04  0.20733244534E+04  0.46999998093E+01 0.  1.
</event>
<event>
 5   0  0.1480547E-05  0.2806646E+04  0.7818609E-02  0.8301208E-01
       -2   -1    0    0    0  501  0.00000000000E+00  0.00000000000E+00  0.79151350111E+03  0.79151350111E+03  0.25500000920E-02 0.  1.
        2   -1    0    0  501    0  0.00000000000E+00  0.00000000000E+00 -0.24880378304E+04  0.24880378304E+04  0.25500000920E-02 0. -1.
    10030    2    1    2    0    0  0.00000000000E+00  0.00000000000E+00 -0.16965243293E+04  0.32795513315E+04  0.28066460653E+04 0.  0.
        1    1    3    3  502    0 -0.60405332168E+03  0.55604134977E+03  0.48159228295E+03  0.95183692149E+03  0.50400001928E-02 0.  1.
       -1    1    3    3    0  502  0.60405332168E+03 -0.55604134977E+03 -0.21781166122E+04  0.23277144100E+04  0.50400001928E-02 0. -1.
</event>
<event>
 5   0  0.7032692E-06  0.2953296E+04  0.7818609E-02  0.8257195E-01
       -1   -1    0    0    0  501  0.00000000000E+00  0.00000000000E+00  0.14787375452E+04  0.14787375452E+04  0.50400001928E-02 0. -1.
        1   -1    0    0  501    0  0.00000000000E+00  0.00000000000E+00 -0.14745613797E+04  0.14745613797E+04  0.50400001928E-02 0.  1.
    10030    2    1    2    0    0  0.00000000000E+00  0.00000000000E+00  0.41761655245E+01  0.29532989249E+04  0.29532959722E+04 0.  0.
        5    1    3    3  502    0  0.61949942689E+03 -0.45498031020E+00 -0.13383189564E+04  0.14747540357E+04  0.46999998093E+01 0.  1.
       -5    1    3    3    0  502 -0.61949942689E+03  0.45498031020E+00  0.13424951219E+04  0.14785448891E+04  0.46999998093E+01 0. -1.
</event>
<event>
 5   0  0.1345931E-05  0.2914931E+04  0.7818609E-02  0.8268449E-01
        2   -1    0    0  501    0  0.00000000000E+00  0.00000000000E+00  0.17087524165E+04  0.17087524165E+04  0.25500000920E-02 0.  1.
       -2   -1    0    0    0  501  0.00000000000E+00  0.00000000000E+00 -0.12431323538E+04  0.12431323538E+04  0.25500000920E-02 0. -1.
    10030    2    1    2    0    0  0.00000000000E+00  0.00000000000E+00  0.46562006264E+03  0.29518847703E+04  0.29149308147E+04 0.  0.
        2    1    3    3  502    0  0.11710000767E+04  0.82919980032E+03 -0.26150281158E+02  0.14350948839E+04  0.25500000920E-02 0. -1.
       -2    1    3    3    0  502 -0.11710000767E+04 -0.82919980032E+03  0.49177034380E+03  0.15167898864E+04  0.25500000920E-02 0.  1.
</event>
<event>
 5   0  0.5392262E-06  0.2941932E+04  0.7818609E-02  0.8260510E-01
       -1   -1    0    0    0  501  0.00000000000E+00  0.00000000000E+00  0.11369930835E+04  0.11369930835E+04  0.50400001928E-02 0. -1.
        1   -1    0    0  501    0  0.00000000000E+00  0.00000000000E+00 -0.19030379489E+04  0.19030379489E+04  0.50400001928E-02 0.  1.
    10030    2    1    2    0    0  0.00000000000E+00  0.00000000000E+00 -0.76604486536E+03  0.30400310324E+04  0.29419320085E+04 0.  0.
        2    1    3    3  502    0  0.13579396592E+02 -0.68415984816E+03 -0.17285480256E+04  0.18590689537E+04  0.25500000920E-02 0.  1.
       -2    1    3    3    0  502 -0.13579396592E+02  0.68415984816E+03  0.96250316026E+03  0.11809620787E+04  0.25500000920E-02 0. -1.
</event>
<event>
 5   0  0.1523029E-05  0.2996285E+04  0.7818609E-02  0.8244793E-01
       -2   -1    0    0    0  501  0.00000000000E+00  0.00000000000E+00  0.15953586012E+04  0.15953586012E+04  0.25500000920E-02 0.  1.
        2   -1    0    0  501    0  0.00000000000E+00  0.00000000000E+00 -0.14068503250E+04  0.14068503250E+04  0.25500000920E-02 0. -1.
    10030    2    1    2    0    0  0.00000000000E+00  0.00000000000E+00  0.18850827629E+03  0.30022089262E+04  0.29962848774E+04 0.  0.
        5    1    3    3  502    0  0.13555238241E+04  0.46983981983E+03 -0.33812469008E+03  0.14739554573E+04  0.46999998093E+01 0. -1.
       -5    1    3    3    0  502 -0.13555238241E+04 -0.46983981983E+03  0.52663296637E+03  0.15282534689E+04  0.46999998093E+01 0.  1.
</event>
<event>
 5   0  0.1388724E-05  0.3049418E+04  0.7818609E-02  0.8229758E-01
       -2   -1    0    0    0  501  0.00000000000E+00  0.00000000000E+00  0.10871212103E+04  0.10871212103E+04  0.25500000920E-02 0. -1.
        2   -1    0    0  501    0  0.00000000000E+00  0.00000000000E+00 -0.21384348454E+04  0.21384348454E+04  0.25500000920E-02 0.  1.
    10030    2    1    2    0    0  0.00000000000E+00  0.00000000000E+00 -0.10513136351E+04  0.32255560556E+04  0.30494182246E+04 0.  0.
        4    1    3    3  502    0 -0.41326708657E+03 -0.54062961660E+03  0.91758302227E+03  0.11423792202E+04  0.12699999809E+01 0. -1.
       -4    1    3    3    0  502  0.41326708657E+03  0.54062961660E+03 -0.19688966574E+04  0.20831768354E+04  0.12699999809E+01 0.  1.
</event>
<event>
 5   0  0.1388724E-05  0.2948255E+04  0.7818609E-02  0.8258663E-01
        2   -1    0    0  501    0  0.00000000000E+00  0.00000000000E+00  0.17708005526E+04  0.17708005526E+04  0.25500000920E-02 0.  1.
       -2   -1    0    0    0  501  0.00000000000E+00  0.00000000000E+00 -0.12271579503E+04  0.12271579503E+04  0.25500000920E-02 0. -1.
    10030    2    1    2    0    0  0.00000000000E+00  0.00000000000E+00  0.54364260228E+03  0.29979585029E+04  0.29482550612E+04 0.  0.
        4    1    3    3  502    0  0.84930557261E+03 -0.10179630685E+04  0.92726661318E+03  0.16178361318E+04  0.12699999809E+01 0.  1.
       -4    1    3    3    0  502 -0.84930557261E+03  0.10179630685E+04 -0.38362401090E+03  0.13801223711E+04  0.12699999809E+01 0. -1.
</event>
<event>
 5   0  0.4806125E-06  0.2008181E+04  0.7818609E-02  0.8602806E-01
        3   -1    0    0  501    0  0.00000000000E+00  0.00000000000E+00  0.98944862569E+03  0.98944863084E+03  0.10100000352E+00 0.  1.
       -3   -1    0    0    0  501  0.00000000000E+00  0.00000000000E+00 -0.10189485673E+04  0.10189485723E+04  0.10100000352E+00 0. -1.
    10030    2    1    2    0    0  0.00000000000E+00  0.00000000000E+00 -0.29499941640E+02  0.20083972032E+04  0.20081805395E+04 0.  0.
        4    1    3    3  502    0 -0.23572288179E+03 -0.77113938826E+03 -0.61312416147E+03  0.10129877015E+04  0.12699999809E+01 0. -1.
       -4    1    3    3    0  502  0.23572288179E+03  0.77113938826E+03  0.58362421983E+03  0.99540950167E+03  0.12699999809E+01 0.  1.
</event>
<event>
 5   0  0.4806125E-06  0.2917761E+04  0.7818609E-02  0.8267613E-01
       -3   -1    0    0    0  501  0.00000000000E+00  0.00000000000E+00  0.26396148901E+04  0.26396148920E+04  0.10100000352E+00 0. -1.
        3   -1    0    0  501    0  0.00000000000E+00  0.00000000000E+00 -0.80630382359E+03  0.80630382992E+03  0.10100000352E+00 0.  1.
    10030    2    1    2    0    0  0.00000000000E+00  0.00000000000E+00  0.18333110665E+04  0.34459187219E+04  0.29177605062E+04 0.  0.
        5    1    3    3  502    0  0.95886963592E+02  0.14457407700E+04  0.11175975766E+04  0.18298653276E+04  0.46999998093E+01 0.  1.
       -5    1    3    3    0  502 -0.95886963592E+02 -0.14457407700E+04  0.71571348985E+03  0.16160533943E+04  0.46999998093E+01 0. -1.
</event>
<event>
 5   0  0.7032692E-06  0.3006719E+04  0.7818609E-02  0.8241815E-01
        1   -1    0    0  501    0  0.00000000000E+00  0.00000000000E+00  0.16889605050E+04  0.16889605050E+04  0.50400001928E-02 0.  1.
       -1   -1    0    0    0  501  0.00000000000E+00  0.00000000000E+00 -0.13381539823E+04  0.13381539823E+04  0.50400001928E-02 0. -1.
    10030    2    1    2    0    0  0.00000000000E+00  0.00000000000E+00  0.35080652269E+03  0.30271144873E+04  0.30067186272E+04 0.  0.
        5    1    3    3  502    0  0.64695082979E+03 -0.12362005637E+04  0.73895915551E+03  0.15788666611E+04  0.46999998093E+01 0. -1.
       -5    1    3    3    0  502 -0.64695082979E+03  0.12362005637E+04 -0.38815263282E+03  0.14482478263E+04  0.46999998093E+01 0.  1.
</event>
<event>
 5   0  0.1388724E-05  0.1690405E+04  0.7818609E-02  0.8766856E-01
       -2   -1    0    0    0  501  0.00000000000E+00  0.00000000000E+00  0.51597142283E+03  0.51597142284E+03  0.25500000920E-02 0.  1.
        2   -1    0    0  501    0  0.00000000000E+00  0.00000000000E+00 -0.13845096320E+04  0.13845096320E+04  0.25500000920E-02 0. -1.
    10030    2    1    2    0    0  0.00000000000E+00  0.00000000000E+00 -0.86853820919E+03  0.19004810549E+04  0.16904051642E+04 0.  0.
        4    1    3    3  502    0  0.50978742764E+03 -0.64034170972E+03 -0.67128883951E+03  0.10585608370E+04  0.12699999809E+01 0. -1.
       -4    1    3    3    0  502 -0.50978742764E+03  0.64034170972E+03 -0.19724936969E+03  0.84192021792E+03  0.12699999809E+01 0.  1.
</event>
<event>
 5   0  0.1523029E-05  0.2107741E+04  0.7818609E-02  0.8557841E-01
       -2   -1    0    0    0  501  0.00000000000E+00  0.00000000000E+00  0.58107672495E+03  0.58107672495E+03  0.25500000920E-02 0.  1.
        2   -1    0    0  501    0  0.00000000000E+00  0.00000000000E+00 -0.19113528139E+04  0.19113528139E+04  0.25500000920E-02 0. -1.
    10030    2    1    2    0    0  0.00000000000E+00  0.00000000000E+00 -0.13302760890E+04  0.24924295389E+04  0.21077406229E+04 0.  0.
        5    1    3    3  502    0  0.49172253336E+03 -0.44566102080E+03  0.30294594552E+03  0.72952253644E+03  0.46999998093E+01 0.  1.
       -5    1    3    3    0  502 -0.49172253336E+03  0.44566102080E+03 -0.16332220345E+04  0.17629070024E+04  0.46999998093E+01 0. -1.
</event>
<event>
 5   0  0.5522695E-06  0.2938682E+04  0.7818609E-02  0.8261461E-01
       -1   -1    0    0    0  501  0.00000000000E+00  0.00000000000E+00  0.13710613293E+04  0.13710613293E+04  0.50400001928E-02 0. -1.
        1   -1    0    0  501    0  0.00000000000E+00  0.00000000000E+00 -0.15746653680E+04  0.15746653680E+04  0.50400001928E-02 0.  1.
    10030    2    1    2    0    0  0.00000000000E+00  0.00000000000E+00 -0.20360403868E+03  0.29457266974E+04  0.29386818764E+04 0.  0.
        3    1    3    3  502    0 -0.48802558918E+03  0.11084869405E+04 -0.93569203240E+03  0.15305005268E+04  0.10100000352E+00 0. -1.
       -3    1    3    3    0  502  0.48802558918E+03 -0.11084869405E+04  0.73208799372E+03  0.14152261705E+04  0.10100000352E+00 0.  1.
</event>
<event>
 5   0  0.1388724E-05  0.3063629E+04  0.7818609E-02  0.8225791E-01
        2   -1    0    0  501    0  0.00000000000E+00  0.00000000000E+00  0.29942356003E+04  0.29942356003E+04  0.25500000920E-02 0. -1.
       -2   -1    0    0    0  501  0.00000000000E+00  0.00000000000E+00 -0.78365756054E+03  0.78365756054E+03  0.25500000920E-02 0.  1.
    10030    2    1    2    0    0  0.00000000000E+00  0.00000000000E+00  0.22105780397E+04  0.37778931608E+04  0.30636288066E+04 0.  0.
        4    1    3    3  502    0 -0.74827170558E+03 -0.10025047293E+03  0.27488858079E+04  0.28506728154E+04  0.12699999809E+01 0. -1.
       -4    1    3    3    0  502  0.74827170558E+03  0.10025047293E+03 -0.53830776820E+03  0.92722034538E+03  0.12699999809E+01 0.  1.
</event>
<event>
 5   0  0.1480547E-05  0.1747843E+04  0.7818609E-02  0.8734538E-01
        2   -1    0    0  501    0  0.00000000000E+00  0.00000000000E+00  0.19181755748E+04  0.19181755748E+04  0.25500000920E-02 0. -1.
       -2   -1    0    0    0  501  0.00000000000E+00  0.00000000000E+00 -0.39815901043E+03  0.39815901044E+03  0.25500000920E-02 0.  1.
    10030    2    1    2    0    0  0.00000000000E+00  0.00000000000E+00  0.15200165644E+04  0.23163345852E+04  0.17478431150E+04 0.  0.
        1    1    3    3  502    0 -0.19280479808E+03 -0.47866348791E+03  0.16947077976E+04  0.17715323718E+04  0.50400001928E-02 0. -1.
       -1    1    3    3    0  502  0.19280479808E+03  0.47866348791E+03 -0.17469123325E+03  0.54480221349E+03  0.50400001928E-02 0.  1.
</event>
<event>
 5   0  0.5522695E-06  0.3014195E+04  0.7818609E-02  0.8239689E-01
        1   -1    0    0  501    0  0.00000000000E+00  0.00000000000E+00  0.18881085732E+04  0.18881085732E+04  0.50400001928E-02 0. -1.
       -1   -1    0    0    0  501  0.00000000000E+00  0.00000000000E+00 -0.12029727113E+04  0.12029727113E+04  0.50400001928E-02 0.  1.
    10030    2    1    2    0    0  0.00000000000E+00  0.00000000000E+00  0.68513586192E+03  0.30910812845E+04  0.30141951427E+04 0.  0.
        3    1    3    3  502    0 -0.21965175833E+03  0.97221780274E+03  0.15018405537E+04  0.18024925547E+04  0.10100000352E+00 0. -1.
       -3    1    3    3    0  502  0.21965175833E+03 -0.97221780274E+03 -0.81670469174E+03  0.12885887298E+04  0.10100000352E+00 0.  1.
</event>
<event>
 5   0  0.1423692E-05  0.2927437E+04  0.7818609E-02  0.8264761E-01
       -2   -1    0    0    0  501  0.00000000000E+00  0.00000000000E+00  0.18050882219E+04  0.18050882219E+04  0.25500000920E-02 0.  1.
        2   -1    0    0  501    0  0.00000000000E+00  0.00000000000E+00 -0.11869072170E+04  0.11869072171E+04  0.25500000920E-02 0. -1.
    10030    2    1    2    0    0  0.00000000000E+00  0.00000000000E+00  0.61818100481E+03  0.29919954389E+04  0.29274372669E+04 0.  0.
        3    1    3    3  502    0  0.11150810916E+04 -0.93902510772E+03  0.17466730715E+03  0.14682243262E+04  0.10100000352E+00 0.  1.
       -3    1    3    3    0  502 -0.11150810916E+04  0.93902510772E+03  0.44351369766E+03  0.15237711127E+04  0.10100000352E+00 0. -1.
</event>
<event>
 5   0  0.5522695E-06  0.2993378E+04  0.7818609E-02  0.8245624E-01
        1   -1    0    0  501    0  0.00000000000E+00  0.00000000000E+00  0.15660089109E+04  0.15660089110E+04  0.50400001928E-02 0.  1.
       -1   -1    0    0    0  501  0.00000000000E+00  0.00000000000E+00 -0.14304373357E+04  0.14304373358E+04  0.50400001928E-02 0. -1.
    10030    2    1    2    0    0  0.00000000000E+00  0.00000000000E+00  0.13557157520E+03  0.29964462467E+04  0.29933777672E+04 0.  0.
        3    1    3    3  502    0 -0.12357482182E+04  0.40641499617E+03 -0.67312886533E+03  0.14647010915E+04  0.10100000352E+00 0. -1.
       -3    1    3    3    0  502  0.12357482182E+04 -0.40641499617E+03  0.80870044053E+03  0.15317451552E+04  0.10100000352E+00 0.  1.
</event>
<event>
 5   0  0.7032692E-06  0.2784515E+04  0.7818609E-02  0.8308092E-01
       -1   -1    0    0    0  501  0.00000000000E+00  0.00000000000E+00  0.15167496968E+04  0.15167496968E+04  0.50400001928E-02 0.  1.
        1   -1    0    0  501    0  0.00000000000E+00  0.00000000000E+00 -0.12779831392E+04  0.12779831393E+04  0.50400001928E-02 0. -1.
    10030    2    1    2    0    0  0.00000000000E+00  0.00000000000E+00  0.23876655758E+03  0.27947328361E+04  0.27845147075E+04 0.  0.
        5    1    3    3  502    0 -0.12118727971E+04 -0.54294920290E+03 -0.30039659098E+03  0.13615027415E+04  0.46999998093E+01 0.  1.
       -5    1    3    3    0  502  0.12118727971E+04  0.54294920290E+03  0.53916314856E+03  0.14332300946E+04  0.46999998093E+01 0. -1.
</event>
<event>
 5   0  0.5730920E-06  0.2670888E+04  0.7818609E-02  0.8344513E-01
        1   -1    0    0  501    0  0.00000000000E+00  0.00000000000E+00  0.19477926401E+04  0.19477926401E+04  0.50400001928E-02 0.  1.
       -1   -1    0    0    0  501  0.00000000000E+00  0.00000000000E+00 -0.91560631272E+03  0.91560631274E+03  0.50400001928E-02 0. -1.
    10030    2    1    2    0    0  0.00000000000E+00  0.00000000000E+00  0.10321863274E+04  0.28633989528E+04  0.26708884194E+04 0.  0.
        1    1    3    3  502    0 -0.60147541863E+03 -0.10722977034E+04 -0.42845020536E+02  0.12302157289E+04  0.50400001928E-02 0.  1.
       -1    1    3    3    0  502  0.60147541863E+03  0.10722977034E+04  0.10750313479E+04  0.16331832239E+04  0.50400001928E-02 0. -1.
</event>
<event>
 5   0  0.5730920E-06  0.3038667E+04  0.7818609E-02  0.8232775E-01
       -1   -1    0    0    0  501  0.00000000000E+00  0.00000000000E+00  0.31064533773E+04  0.31064533773E+04  0.50400001928E-02 0. -1.
        1   -1    0    0  501    0  0.00000000000E+00  0.00000000000E+00 -0.74309010025E+03  0.74309010027E+03  0.50400001928E-02 0.  1.
    10030    2    1    2    0    0  0.00000000000E+00  0.00000000000E+00  0.23633632771E+04  0.38495434776E+04  0.30386673076E+04 0.  0.
        1    1    3    3  502    0 -0.43066600550E+03  0.95318232511E+03  0.25777192525E+04  0.27818458437E+04  0.50400001928E-02 0. -1.
       -1    1    3    3    0  502  0.43066600550E+03 -0.95318232511E+03 -0.21435597545E+03  0.10676976339E+04  0.50400001928E-02 0.  1.
</event>
<event>
 5   0  0.1423692E-05  0.3036478E+04  0.7818609E-02  0.8233390E-01
        2   -1    0    0  501    0  0.00000000000E+00  0.00000000000E+00  0.87705883197E+03  0.87705883198E+03  0.25500000920E-02 0.  1.
       -2   -1    0    0    0  501  0.00000000000E+00  0.00000000000E+00 -0.26281582916E+04  0.26281582916E+04  0.25500000920E-02 0. -1.
    10030    2    1    2    0    0  0.00000000000E+00  0.00000000000E+00 -0.17510994596E+04  0.35052171236E+04  0.30364778553E+04 0.  0.
        3    1    3    3  502    0 -0.19646931747E+03  0.78815089475E+03  0.60513655419E+03  0.10129029001E+04  0.10100000352E+00 0.  1.
       -3    1    3    3    0  502  0.19646931747E+03 -0.78815089475E+03 -0.23562360138E+04  0.24923142235E+04  0.10100000352E+00 0. -1.
</event>
<event>
 5   0  0.5730920E-06  0.2946794E+04  0.7818609E-02  0.8259089E-01
        1   -1    0    0  501    0  0.00000000000E+00  0.00000000000E+00  0.15382184981E+04  0.15382184981E+04  0.50400001928E-02 0. -1.
       -1   -1    0    0    0  501  0.00000000000E+00  0.00000000000E+00 -0.14113071872E+04  0.14113071872E+04  0.50400001928E-02 0.  1.
    10030    2    1    2    0    0  0.00000000000E+00  0.00000000000E+00  0.12691131087E+03  0.29495256853E+04  0.29467940694E+04 0.  0.
        1    1    3    3  502    0 -0.72054844815E+03  0.87977497541E+03 -0.87427177307E+03  0.14344145868E+04  0.50400001928E-02 0.  1.
       -1    1    3    3    0  502  0.72054844815E+03 -0.87977497541E+03  0.10011830839E+04  0.15151110986E+04  0.50400001928E-02 0. -1.
</event>
<event>
 5   0  0.5392262E-06  0.3165796E+04  0.7818609E-02  0.8197909E-01
       -1   -1    0    0    0  501  0.00000000000E+00  0.00000000000E+00  0.98554528561E+03  0.98554528562E+03  0.50400001928E-02 0. -1.
        1   -1    0    0  501    0  0.00000000000E+00  0.00000000000E+00 -0.25423145055E+04  0.25423145055E+04  0.50400001928E-02 0.  1.
    10030    2    1    2    0    0  0.00000000000E+00  0.00000000000E+00 -0.15567692199E+04  0.35278597911E+04  0.31657959981E+04 0.  0.
        2    1    3    3  502    0  0.13734997656E+04 -0.90416173015E+02  0.92598393346E+02  0.13795836883E+04  0.25500000920E-02 0. -1.
       -2    1    3    3    0  502 -0.13734997656E+04  0.90416173015E+02 -0.16493676133E+04  0.21482761029E+04  0.25500000920E-02 0.  1.
</event>
<event>
 5   0  0.7032692E-06  0.2946440E+04  0.7818609E-02  0.8259193E-01
        1   -1    0    0  501    0  0.00000000000E+00  0.00000000000E+00  0.22709092323E+04  0.22709092323E+04  0.50400001928E-02 0.  1.
       -1   -1    0    0    0  501  0.00000000000E+00  0.00000000000E+00 -0.95573049843E+03  0.95573049844E+03  0.50400001928E-02 0. -1.
    10030    2    1    2    0    0  0.00000000000E+00  0.00000000000E+00  0.13151787339E+04  0.32266397308E+04  0.29464400299E+04 0.  0.
        5    1    3    3  502    0 -0.10011666265E+04 -0.50113649413E+03  0.17061891549E+04  0.20407292623E+04  0.46999998093E+01 0.  1.
       -5    1    3    3    0  502  0.10011666265E+04  0.50113649413E+03 -0.39101042105E+03  0.11859104684E+04  0.46999998093E+01 0. -1.
</event>
<event>
 5   0  0.1388724E-05  0.1897222E+04  0.7818609E-02  0.8656241E-01
       -2   -1    0    0    0  501  0.00000000000E+00  0.00000000000E+00  0.15642272207E+04  0.15642272207E+04  0.25500000920E-02 0.  1.
        2   -1    0    0  501    0  0.00000000000E+00  0.00000000000E+00 -0.57527608116E+03  0.57527608117E+03  0.25500000920E-02 0. -1.
    10030    2    1    2    0    0  0.00000000000E+00  0.00000000000E+00  0.98895113957E+03  0.21395033019E+04  0.18972216587E+04 0.  0.
        4    1    3    3  502    0  0.50255242428E+03  0.57720061895E+03  0.11265343576E+04  0.13619107039E+04  0.12699999809E+01 0.  1.
       -4    1    3    3    0  502 -0.50255242428E+03 -0.57720061895E+03 -0.13758321804E+03  0.77759259799E+03  0.12699999809E+01 0. -1.
</event>
<event>
 5   0  0.1423692E-05  0.3031583E+04  0.7818609E-02  0.8234769E-01
        2   -1    0    0  501    0  0.00000000000E+00  0.00000000000E+00  0.18453816304E+04  0.18453816304E+04  0.25500000920E-02 0.  1.
       -2   -1    0    0    0  501  0.00000000000E+00  0.00000000000E+00 -0.12450670769E+04  0.12450670769E+04  0.25500000920E-02 0. -1.
    10030    2    1    2    0    0  0.00000000000E+00  0.00000000000E+00  0.60031455353E+03  0.30904487073E+04  0.30315830270E+04 0.  0.
        3    1    3    3  502    0  0.11835425216E+04  0.47863221902E+03  0.11331917785E+04  0.17070399288E+04  0.10100000352E+00 0.  1.
       -3    1    3    3    0  502 -0.11835425216E+04 -0.47863221902E+03 -0.53287722493E+03  0.13834087785E+04  0.10100000352E+00 0. -1.
</event>
<event>
 5   0  0.5329891E-06  0.1649242E+04  0.7818609E-02  0.8790855E-01
        1   -1    0    0  501    0  0.00000000000E+00  0.00000000000E+00  0.14458462197E+04  0.14458462197E+04  0.50400001928E-02 0. -1.
       -1   -1    0    0    0  501  0.00000000000E+00  0.00000000000E+00 -0.47031240925E+03  0.47031240927E+03  0.50400001928E-02 0.  1.
    10030    2    1    2    0    0  0.00000000000E+00  0.00000000000E+00  0.97553381048E+03  0.19161586290E+04  0.16492415457E+04 0.  0.
        4    1    3    3  502    0  0.58380117673E+02  0.11946305145E+03 -0.45777443207E+03  0.47669560765E+03  0.12699999809E+01 0.  1.
       -4    1    3    3    0  502 -0.58380117673E+02 -0.11946305145E+03  0.14333082425E+04  0.14394630214E+04  0.12699999809E+01 0. -1.
</event>
<event>
 5   0  0.5392262E-06  0.2951696E+04  0.7818609E-02  0.8257661E-01
       -1   -1    0    0    0  501  0.00000000000E+00  0.00000000000E+00  0.12407239837E+04  0.12407239837E+04  0.50400001928E-02 0.  1.
        1   -1    0    0  501    0  0.00000000000E+00  0.00000000000E+00 -0.17555288722E+04  0.17555288723E+04  0.50400001928E-02 0. -1.
    10030    2    1    2    0    0  0.00000000000E+00  0.00000000000E+00 -0.51480488856E+03  0.29962528560E+04  0.29516956319E+04 0.  0.
        2    1    3    3  502    0  0.10315284501E+04  0.47980168064E+03 -0.12117358947E+04  0.16620964096E+04  0.25500000920E-02 0. -1.
       -2    1    3    3    0  502 -0.10315284501E+04 -0.47980168064E+03  0.69693100616E+03  0.13341564464E+04  0.25500000920E-02 0.  1.
</event>
<event>
 5   0  0.5329891E-06  0.2996978E+04  0.7818609E-02  0.8244594E-01
        1   -1    0    0  501    0  0.00000000000E+00  0.00000000000E+00  0.21547354773E+04  0.21547354773E+04  0.50400001928E-02 0.  1.
       -1   -1    0    0    0  501  0.00000000000E+00  0.00000000000E+00 -0.10421090431E+04  0.10421090431E+04  0.50400001928E-02 0. -1.
    10030    2    1    2    0    0  0.00000000000E+00  0.00000000000E+00  0.11126264342E+04  0.31968445205E+04  0.29969780289E+04 0.  0.
        4    1    3    3  502    0  0.76815126621E+03 -0.11239180329E+04 -0.11172699070E+03  0.13659182427E+04  0.12699999809E+01 0. -1.
       -4    1    3    3    0  502 -0.76815126621E+03  0.11239180329E+04  0.12243534249E+04  0.18309262777E+04  0.12699999809E+01 0.  1.
</event>
<event>
 5   0  0.5730920E-06  0.3057550E+04  0.7818609E-02  0.8227485E-01
       -1   -1    0    0    0  501  0.00000000000E+00  0.00000000000E+00  0.84774610167E+03  0.84774610169E+03  0.50400001928E-02 0.  1.
        1   -1    0    0  501    0  0.00000000000E+00  0.00000000000E+00 -0.27569017764E+04  0.27569017764E+04  0.50400001928E-02 0. -1.
    10030    2    1    2    0    0  0.00000000000E+00  0.00000000000E+00 -0.19091556747E+04  0.36046478781E+04  0.30575498254E+04 0.  0.
        1    1    3    3  502    0 -0.78969079181E+03 -0.48333106058E+03 -0.23887795090E+04  0.25619305227E+04  0.50400001928E-02 0. -1.
       -1    1    3    3    0  502  0.78969079181E+03  0.48333106058E+03  0.47962383424E+03  0.10427173554E+04  0.50400001928E-02 0.  1.
</event>
<event>
 5   0  0.5329891E-06  0.2842224E+04  0.7818609E-02  0.8290278E-01
       -1   -1    0    0    0  501  0.00000000000E+00  0.00000000000E+00  0.85836916963E+03  0.85836916964E+03  0.50400001928E-02 0. -1.
        1   -1    0    0  501    0  0.00000000000E+00  0.00000000000E+00 -0.23527858480E+04  0.23527858480E+04  0.50400001928E-02 0.  1.
    10030    2    1    2    0    0  0.00000000000E+00  0.00000000000E+00 -0.14944166783E+04  0.32111550176E+04  0.28422236609E+04 0.  0.
        4    1    3    3  502    0 -0.32856830879E+03 -0.13591345970E+04 -0.46060040139E+03  0.14721950716E+04  0.12699999809E+01 0. -1.
       -4    1    3    3    0  502  0.32856830879E+03  0.13591345970E+04 -0.10338162769E+04  0.17389599460E+04  0.12699999809E+01 0.  1.
</event>
<event>
 5   0  0.1388724E-05  0.1924789E+04  0.7818609E-02  0.8642615E-01
        2   -1    0    0  501    0  0.00000000000E+00  0.00000000000E+00  0.76297777391E+03  0.76297777392E+03  0.25500000920E-02 0.  1.
       -2   -1    0    0    0  501  0.00000000000E+00  0.00000000000E+00 -0.12139315924E+04  0.12139315924E+04  0.25500000920E-02 0. -1.
    10030    2    1    2    0    0  0.00000000000E+00  0.00000000000E+00 -0.45095381844E+03  0.19769093663E+04  0.19247886367E+04 0.  0.
        4    1    3    3  502    0 -0.35407533462E+03  0.16136262248E+03 -0.11295360252E+04  0.11946800759E+04  0.12699999809E+01 0. -1.
       -4    1    3    3    0  502  0.35407533462E+03 -0.16136262248E+03  0.67858220677E+03  0.78222929041E+03  0.12699999809E+01 0.  1.
</event>
<event>
 5   0  0.1388724E-05  0.3008910E+04  0.7818609E-02  0.8241191E-01
        2   -1    0    0  501    0  0.00000000000E+00  0.00000000000E+00  0.25898307390E+04  0.25898307390E+04  0.25500000920E-02 0. -1.
       -2   -1    0    0    0  501  0.00000000000E+00  0.00000000000E+00 -0.87395109173E+03  0.87395109173E+03  0.25500000920E-02 0.  1.
    10030    2    1    2    0    0  0.00000000000E+00  0.00000000000E+00  0.17158796473E+04  0.34637818307E+04  0.30089103687E+04 0.  0.
        4    1    3    3  502    0 -0.11274492445E+04 -0.34926808978E+03 -0.21596116189E+03  0.11999045103E+04  0.12699999809E+01 0.  1.
       -4    1    3    3    0  502  0.11274492445E+04  0.34926808978E+03  0.19318408092E+04  0.22638773205E+04  0.12699999809E+01 0. -1.
</event>
<event>
 5   0  0.5730920E-06  0.3018561E+04  0.7818609E-02  0.8238450E-01
       -1   -1    0    0    0  501  0.00000000000E+00  0.00000000000E+00  0.27752772077E+04  0.27752772077E+04  0.50400001928E-02 0.  1.
        1   -1    0    0  501    0  0.00000000000E+00  0.00000000000E+00 -0.82079285498E+03  0.82079285499E+03  0.50400001928E-02 0. -1.
    10030    2    1    2    0    0  0.00000000000E+00  0.00000000000E+00  0.19544843528E+04  0.35960700627E+04  0.30185610497E+04 0.  0.
        1    1    3    3  502    0  0.65879295125E+03 -0.11361093428E+04  0.18632947610E+04  0.22796096064E+04  0.50400001928E-02 0.  1.
       -1    1    3    3    0  502 -0.65879295125E+03  0.11361093428E+04  0.91189591759E+02  0.13164604563E+04  0.50400001928E-02 0. -1.
</event>
<event>
 5   0  0.5329891E-06  0.2526039E+04  0.7818609E-02  0.8393767E-01
        1   -1    0    0  501    0  0.00000000000E+00  0.00000000000E+00  0.15548826219E+04  0.15548826219E+04  0.50400001928E-02 0. -1.
       -1   -1    0    0    0  501  0.00000000000E+00  0.00000000000E+00 -0.10259414072E+04  0.10259414072E+04  0.50400001928E-02 0.  1.
    10030    2    1    2    0    0  0.00000000000E+00  0.00000000000E+00  0.52894121472E+03  0.25808240291E+04  0.25260391645E+04 0.  0.
        4    1    3    3  502    0  0.43590205620E+03  0.11790559519E+04  0.13920101973E+03  0.12647379480E+04  0.12699999809E+01 0.  1.
       -4    1    3    3    0  502 -0.43590205620E+03 -0.11790559519E+04  0.38974019499E+03  0.13160860811E+04  0.12699999809E+01 0. -1.
</event>
<event>
 5   0  0.1388724E-05  0.2960531E+04  0.7818609E-02  0.8255092E-01
       -2   -1    0    0    0  501  0.00000000000E+00  0.00000000000E+00  0.10870059462E+04  0.10870059462E+04  0.25500000920E-02 0. -1.
        2   -1    0    0  501    0  0.00000000000E+00  0.00000000000E+00 -0.20157996899E+04  0.20157996899E+04  0.25500000920E-02 0.  1.
    10030    2    1    2    0    0  0.00000000000E+00  0.00000000000E+00 -0.92879374369E+03  0.31028056361E+04  0.29605312019E+04 0.  0.
        4    1    3    3  502    0  0.34390223498E+03  0.89991500931E+03  0.71347606655E+03  0.11988183689E+04  0.12699999809E+01 0. -1.
       -4    1    3    3    0  502 -0.34390223498E+03 -0.89991500931E+03 -0.16422698102E+04  0.19039872672E+04  0.12699999809E+01 0.  1.
</event>
<event>
 5   0  0.1388724E-05  0.2999965E+04  0.7818609E-02  0.8243741E-01
        2   -1    0    0  501    0  0.00000000000E+00  0.00000000000E+00  0.12485521155E+04  0.12485521155E+04  0.25500000920E-02 0. -1.
       -2   -1    0    0    0  501  0.00000000000E+00  0.00000000000E+00 -0.18020449648E+04  0.18020449648E+04  0.25500000920E-02 0.  1.
    10030    2    1    2    0    0  0.00000000000E+00  0.00000000000E+00 -0.55349284935E+03  0.30505970803E+04  0.29999647018E+04 0.  0.
        4    1    3    3  502    0 -0.24562738726E+03 -0.75634871487E+03  0.10165481675E+04  0.12906463426E+04  0.12699999809E+01 0. -1.
       -4    1    3    3    0  502  0.24562738726E+03  0.75634871487E+03 -0.15700410169E+04  0.17599507378E+04  0.12699999809E+01 0.  1.
</event>
<event>
 5   0  0.1523029E-05  0.2483848E+04  0.7818609E-02  0.8408762E-01
        2   -1    0    0  501    0  0.00000000000E+00  0.00000000000E+00  0.14743245205E+04  0.14743245205E+04  0.25500000920E-02 0. -1.
       -2   -1    0    0    0  501  0.00000000000E+00  0.00000000000E+00 -0.10461575043E+04  0.10461575043E+04  0.25500000920E-02 0.  1.
    10030    2    1    2    0    0  0.00000000000E+00  0.00000000000E+00  0.42816701624E+03  0.25204820248E+04  0.24838483536E+04 0.  0.
        5    1    3    3  502    0  0.38184039296E+03 -0.82911409914E+03  0.10685967384E+04  0.14054014922E+04  0.46999998093E+01 0. -1.
       -5    1    3    3    0  502 -0.38184039296E+03  0.82911409914E+03 -0.64042972217E+03  0.11150805326E+04  0.46999998093E+01 0.  1.
</event>
<event>
 5   0  0.1480547E-05  0.2997703E+04  0.7818609E-02  0.8244387E-01
        2   -1    0    0  501    0  0.00000000000E+00  0.00000000000E+00  0.13505562341E+04  0.13505562341E+04  0.25500000920E-02 0. -1.
       -2   -1    0    0    0  501  0.00000000000E+00  0.00000000000E+00 -0.16634295439E+04  0.16634295439E+04  0.25500000920E-02 0.  1.
    10030    2    1    2    0    0  0.00000000000E+00  0.00000000000E+00 -0.31287330980E+03  0.30139857780E+04  0.29977025473E+04 0.  0.
        1    1    3    3  502    0  0.74986517423E+03  0.74371640599E+03  0.91289265145E+03  0.13959888485E+04  0.50400001928E-02 0. -1.
       -1    1    3    3    0  502 -0.74986517423E+03 -0.74371640599E+03 -0.12257659613E+04  0.16179969295E+04  0.50400001928E-02 0.  1.
</event>
<event>
 5   0  0.4806125E-06  0.3046756E+04  0.7818609E-02  0.8230504E-01
       -3   -1    0    0    0  501  0.00000000000E+00  0.00000000000E+00  0.16941246265E+04  0.16941246295E+04  0.10100000352E+00 0.  1.
        3   -1    0    0  501    0  0.00000000000E+00  0.00000000000E+00 -0.13698405649E+04  0.13698405686E+04  0.10100000352E+00 0. -1.
    10030    2    1    2    0    0  0.00000000000E+00  0.00000000000E+00  0.32428406164E+03  0.30639651981E+04  0.30467560753E+04 0.  0.
        4    1    3    3  502    0  0.10940878361E+04  0.25038841269E+03  0.11979873970E+04  0.16416144391E+04  0.12699999809E+01 0.  1.
       -4    1    3    3    0  502 -0.10940878361E+04 -0.25038841269E+03 -0.87370333538E+03  0.14223507590E+04  0.12699999809E+01 0. -1.
</event>
<event>
 5   0  0.1523029E-05  0.3021190E+04  0.7818609E-02  0.8237706E-01
        2   -1    0    0  501    0  0.00000000000E+00  0.00000000000E+00  0.24667145503E+04  0.24667145503E+04  0.25500000920E-02 0.  1.
       -2   -1    0    0    0  501  0.00000000000E+00  0.00000000000E+00 -0.92507542221E+03  0.92507542222E+03  0.25500000920E-02 0. -1.
    10030    2    1    2    0    0  0.00000000000E+00  0.00000000000E+00  0.15416391281E+04  0.33917899725E+04  0.30211898345E+04 0.  0.
        5    1    3    3  502    0  0.19031934233E+03 -0.88674627820E+03  0.21270339975E+04  0.23123226700E+04  0.46999998093E+01 0.  1.
       -5    1    3    3    0  502 -0.19031934233E+03  0.88674627820E+03 -0.58539486940E+03  0.10794673025E+04  0.46999998093E+01 0. -1.
</event>
<event>
 5   0  0.5392262E-06  0.3017603E+04  0.7818609E-02  0.8238722E-01
       -1   -1    0    0    0  501  0.00000000000E+00  0.00000000000E+00  0.95094399798E+03  0.95094399799E+03  0.50400001928E-02 0.  1.
        1   -1    0    0  501    0  0.00000000000E+00  0.00000000000E+00 -0.23939177913E+04  0.23939177913E+04  0.50400001928E-02 0. -1.
    10030    2    1    2    0    0  0.00000000000E+00  0.00000000000E+00 -0.14429737933E+04  0.33448617893E+04  0.30176028601E+04 0.  0.
        2    1    3    3  502    0  0.14504546843E+04  0.38230590245E+03 -0.54102674494E+03  0.15945803627E+04  0.25500000920E-02 0.  1.
       -2    1    3    3    0  502 -0.14504546843E+04 -0.38230590245E+03 -0.90194704836E+03  0.17502814266E+04  0.25500000920E-02 0. -1.
</event>
<event>
 5   0  0.1523029E-05  0.3004575E+04  0.7818609E-02  0.8242426E-01
        2   -1    0    0  501    0  0.00000000000E+00  0.00000000000E+00  0.12734167288E+04  0.12734167288E+04  0.25500000920E-02 0.  1.
       -2   -1    0    0    0  501  0.00000000000E+00  0.00000000000E+00 -0.17722926473E+04  0.17722926473E+04  0.25500000920E-02 0. -1.
    10030    2    1    2    0    0  0.00000000000E+00  0.00000000000E+00 -0.49887591852E+03  0.30457093762E+04  0.30045745825E+04 0.  0.
        5    1    3    3  502    0  0.82191005954E+03 -0.11261798620E+04 -0.81658662859E+03  0.16157515401E+04  0.46999998093E+01 0. -1.
       -5    1    3    3    0  502 -0.82191005954E+03  0.11261798620E+04  0.31771071007E+03  0.14299578360E+04  0.46999998093E+01 0.  1.
</event>
<event>
 5   0  0.5522695E-06  0.3055810E+04  0.7818609E-02  0.8227971E-01
       -1   -1    0    0    0  501  0.00000000000E+00  0.00000000000E+00  0.87906420709E+03  0.87906420711E+03  0.50400001928E-02 0. -1.
        1   -1    0    0  501    0  0.00000000000E+00  0.00000000000E+00 -0.26556580660E+04  0.26556580660E+04  0.50400001928E-02 0.  1.
    10030    2    1    2    0    0  0.00000000000E+00  0.00000000000E+00 -0.17765938589E+04  0.35347222731E+04  0.30558101722E+04 0.  0.
        3    1    3    3  502    0 -0.72353328201E+03  0.11963003347E+04 -0.17537798084E+03  0.14090395124E+04  0.10100000352E+00 0. -1.
       -3    1    3    3    0  502  0.72353328201E+03 -0.11963003347E+04 -0.16012158781E+04  0.21256827608E+04  0.10100000352E+00 0.  1.
</event>
<event>
 5   0  0.5329891E-06  0.1945449E+04  0.7818609E-02  0.8632558E-01
        1   -1    0    0  501    0  0.00000000000E+00  0.00000000000E+00  0.79767267191E+03  0.79767267193E+03  0.50400001928E-02 0. -1.
       -1   -1    0    0    0  501  0.00000000000E+00  0.00000000000E+00 -0.11861920011E+04  0.11861920011E+04  0.50400001928E-02 0.  1.
    10030    2    1    2    0    0  0.00000000000E+00  0.00000000000E+00 -0.38851932921E+03  0.19838646731E+04  0.19454489898E+04 0.  0.
        4    1    3    3  502    0 -0.20759016475E+03  0.36680877920E+03 -0.10882400070E+04  0.11670091186E+04  0.12699999809E+01 0.  1.
       -4    1    3    3    0  502  0.20759016475E+03 -0.36680877920E+03  0.69972067784E+03  0.81685555448E+03  0.12699999809E+01 0. -1.
</event>
<event>
 5   0  0.5522695E-06  0.1649569E+04  0.7818609E-02  0.8790662E-01
        1   -1    0    0  501    0  0.00000000000E+00  0.00000000000E+00  0.92631679663E+03  0.92631679664E+03  0.50400001928E-02 0. -1.
       -1   -1    0    0    0  501  0.00000000000E+00  0.00000000000E+00 -0.73438073719E+03  0.73438073720E+03  0.50400001928E-02 0.  1.
    10030    2    1    2    0    0  0.00000000000E+00  0.00000000000E+00  0.19193605944E+03  0.16606975338E+04  0.16495686854E+04 0.  0.
        3    1    3    3  502    0 -0.66254818437E+03  0.45882836980E+03 -0.80645361253E+02  0.80993657408E+03  0.10100000352E+00 0.  1.
       -3    1    3    3    0  502  0.66254818437E+03 -0.45882836980E+03  0.27258142069E+03  0.85076095976E+03  0.10100000352E+00 0. -1.
</event>
<event>
 5   0  0.5522695E-06  0.2998776E+04  0.7818609E-02  0.8244080E-01
       -1   -1    0    0    0  501  0.00000000000E+00  0.00000000000E+00  0.12645317916E+04  0.12645317916E+04  0.50400001928E-02 0.  1.
        1   -1    0    0  501    0  0.00000000000E+00  0.00000000000E+00 -0.17778633809E+04  0.17778633809E+04  0.50400001928E-02 0. -1.
    10030    2    1    2    0    0  0.00000000000E+00  0.00000000000E+00 -0.51333158925E+03  0.30423951725E+04  0.29987762612E+04 0.  0.
        3    1    3    3  502    0 -0.14962684310E+02  0.54450907038E+02  0.12634525767E+04  0.12647138834E+04  0.10100000352E+00 0.  1.
       -3    1    3    3    0  502  0.14962684310E+02 -0.54450907038E+02 -0.17767841659E+04  0.17776812891E+04  0.10100000352E+00 0. -1.
</event>
<event>
 5   0  0.1345931E-05  0.2885044E+04  0.7818609E-02  0.8277341E-01
        2   -1    0    0  501    0  0.00000000000E+00  0.00000000000E+00  0.20315864485E+04  0.20315864485E+04  0.25500000920E-02 0. -1.
       -2   -1    0    0    0  501  0.00000000000E+00  0.00000000000E+00 -0.10242587865E+04  0.10242587865E+04  0.25500000920E-02 0.  1.
    10030    2    1    2    0    0  0.00000000000E+00  0.00000000000E+00  0.10073276621E+04  0.30558452350E+04  0.28850443812E+04 0.  0.
        2    1    3    3  502    0 -0.76543164841E+03 -0.12168606849E+04  0.63003661628E+03  0.15695800944E+04  0.25500000920E-02 0.  1.
       -2    1    3    3    0  502  0.76543164841E+03  0.12168606849E+04  0.37729104578E+03  0.14862651406E+04  0.25500000920E-02 0. -1.
</event>
<event>
 5   0  0.7032692E-06  0.1872571E+04  0.7818609E-02  0.8668631E-01
       -1   -1    0    0    0  501  0.00000000000E+00  0.00000000000E+00  0.80117268797E+03  0.80117268799E+03  0.50400001928E-02 0.  1.
        1   -1    0    0  501    0  0.00000000000E+00  0.00000000000E+00 -0.10941842220E+04  0.10941842220E+04  0.50400001928E-02 0. -1.
    10030    2    1    2    0    0  0.00000000000E+00  0.00000000000E+00 -0.29301153405E+03  0.18953569100E+04  0.18725709752E+04 0.  0.
        5    1    3    3  502    0  0.54960531790E+03  0.72414785772E+03  0.80166369670E+02  0.91263621566E+03  0.46999998093E+01 0.  1.
       -5    1    3    3    0  502 -0.54960531790E+03 -0.72414785772E+03 -0.37317790372E+03  0.98272069437E+03  0.46999998093E+01 0. -1.
</event>
<event>
 5   0  0.5392262E-06  0.3003625E+04  0.7818609E-02  0.8242697E-01
       -1   -1    0    0    0  501  0.00000000000E+00  0.00000000000E+00  0.22086527406E+04  0.22086527406E+04  0.50400001928E-02 0. -1.
        1   -1    0    0  501    0  0.00000000000E+00  0.00000000000E+00 -0.10211839240E+04  0.10211839240E+04  0.50400001928E-02 0.  1.
    10030    2    1    2    0    0  0.00000000000E+00  0.00000000000E+00  0.11874688166E+04  0.32298366646E+04  0.30036249249E+04 0.  0.
        2    1    3    3  502    0  0.10004324681E+04 -0.21224206590E+02 -0.61048407144E+03  0.11721801874E+04  0.25500000920E-02 0.  1.
       -2    1    3    3    0  502 -0.10004324681E+04  0.21224206590E+02  0.17979528881E+04  0.20576564772E+04  0.25500000920E-02 0. -1.
</event>
<event>
 5   0  0.5522695E-06  0.2973780E+04  0.7818609E-02  0.8251258E-01
       -1   -1    0    0    0  501  0.00000000000E+00  0.00000000000E+00  0.26226970465E+04  0.26226970465E+04  0.50400001928E-02 0.  1.
        1   -1    0    0  501    0  0.00000000000E+00  0.00000000000E+00 -0.84296504940E+03  0.84296504941E+03  0.50400001928E-02 0. -1.
    10030    2    1    2    0    0  0.00000000000E+00  0.00000000000E+00  0.17797319971E+04  0.34656620959E+04  0.29737800493E+04 0.  0.
        3    1    3    3  502    0  0.14848081380E+04  0.55283594143E+02  0.95507100654E+03  0.17663159740E+04  0.10100000352E+00 0.  1.
       -3    1    3    3    0  502 -0.14848081380E+04 -0.55283594143E+02  0.82466099055E+03  0.16993461219E+04  0.10100000352E+00 0. -1.
</event>
<event>
 5   0  0.1480547E-05  0.2439145E+04  0.7818609E-02  0.8424992E-01
       -2   -1    0    0    0  501  0.00000000000E+00  0.00000000000E+00  0.66912749282E+03  0.66912749282E+03  0.25500000920E-02 0.  1.
        2   -1    0    0  501    0  0.00000000000E+00  0.00000000000E+00 -0.22228302743E+04  0.22228302743E+04  0.25500000920E-02 0. -1.
    10030    2    1    2    0    0  0.00000000000E+00  0.00000000000E+00 -0.15537027815E+04  0.28919577671E+04  0.24391448079E+04 0.  0.
        1    1    3    3  502    0 -0.17317799711E+03  0.11656574922E+04 -0.40453488640E+03  0.12459520384E+04  0.50400001928E-02 0.  1.
       -1    1    3    3    0  502  0.17317799711E+03 -0.11656574922E+04 -0.11491678951E+04  0.16460057287E+04  0.50400001928E-02 0. -1.
</event>
<event>
 5   0  0.1345931E-05  0.2930611E+04  0.7818609E-02  0.8263828E-01
       -2   -1    0    0    0  501  0.00000000000E+00  0.00000000000E+00  0.12496214890E+04  0.12496214890E+04  0.25500000920E-02 0. -1.
        2   -1    0    0  501    0  0.00000000000E+00  0.00000000000E+00 -0.17182161932E+04  0.17182161932E+04  0.25500000920E-02 0.  1.
    10030    2    1    2    0    0  0.00000000000E+00  0.00000000000E+00 -0.46859470418E+03  0.29678376823E+04  0.29306107745E+04 0.  0.
        2    1    3    3  502    0 -0.54464297378E+03  0.92106914799E+03 -0.12480707708E+04  0.16439844869E+04  0.25500000920E-02 0.  1.
       -2    1    3    3    0  502  0.54464297378E+03 -0.92106914799E+03  0.77947606667E+03  0.13238531953E+04  0.25500000920E-02 0. -1.
</event>
<event>
 5   0  0.5522695E-06  0.2970790E+04  0.7818609E-02  0.8252121E-01
        1   -1    0    0  501    0  0.00000000000E+00  0.00000000000E+00  0.12802790904E+04  0.12802790905E+04  0.50400001928E-02 0.  1.
       -1   -1    0    0    0  501  0.00000000000E+00  0.00000000000E+00 -0.17233730692E+04  0.17233730692E+04  0.50400001928E-02 0. -1.
    10030    2    1    2    0    0  0.00000000000E+00  0.00000000000E+00 -0.44309397871E+03  0.30036521596E+04  0.29707901343E+04 0.  0.
        3    1    3    3  502    0 -0.66161729282E+03 -0.12983663554E+04 -0.51266580777E+03  0.15447714639E+04  0.10100000352E+00 0. -1.
       -3    1    3    3    0  502  0.66161729282E+03  0.12983663554E+04  0.69571829063E+02  0.14588806958E+04  0.10100000352E+00 0.  1.
</event>
<event>
 5   0  0.1480547E-05  0.2988503E+04  0.7818609E-02  0.8247022E-01
        2   -1    0    0  501    0  0.00000000000E+00  0.00000000000E+00  0.11145588920E+04  0.11145588920E+04  0.25500000920E-02 0.  1.
       -2   -1    0    0    0  501  0.00000000000E+00  0.00000000000E+00 -0.20032922130E+04  0.20032922130E+04  0.25500000920E-02 0. -1.
    10030    2    1    2    0    0  0.00000000000E+00  0.00000000000E+00 -0.88873332102E+03  0.31178511049E+04  0.29885027349E+04 0.  0.
        1    1    3    3  502    0  0.13874004704E+04 -0.27462122691E+03  0.58675170072E+02  0.14155351141E+04  0.50400001928E-02 0.  1.
       -1    1    3    3    0  502 -0.13874004704E+04  0.27462122691E+03 -0.94740849109E+03  0.17023159908E+04  0.50400001928E-02 0. -1.
</event>
<event>
 5   0  0.5730920E-06  0.3113292E+04  0.7818609E-02  0.8212100E-01
        1   -1    0    0  501    0  0.00000000000E+00  0.00000000000E+00  0.17478992426E+04  0.17478992426E+04  0.50400001928E-02 0.  1.
       -1   -1    0    0    0  501  0.00000000000E+00  0.00000000000E+00 -0.13863191928E+04  0.13863191928E+04  0.50400001928E-02 0. -1.
    10030    2    1    2    0    0  0.00000000000E+00  0.00000000000E+00  0.36158004984E+03  0.31342184355E+04  0.31132916774E+04 0.  0.
        1    1    3    3  502    0  0.74301100622E+03  0.13621029811E+04  0.54421858483E+02  0.15525307163E+04  0.50400001928E-02 0. -1.
       -1    1    3    3    0  502 -0.74301100622E+03 -0.13621029811E+04  0.30715819136E+03  0.15816877191E+04  0.50400001928E-02 0.  1.
</event>
<event>
 5   0  0.5522695E-06  0.3098266E+04  0.7818609E-02  0.8216214E-01
        1   -1    0    0  501    0  0.00000000000E+00  0.00000000000E+00  0.20441614532E+04  0.20441614532E+04  0.50400001928E-02 0.  1.
       -1   -1    0    0    0  501  0.00000000000E+00  0.00000000000E+00 -0.11739839134E+04  0.11739839134E+04  0.50400001928E-02 0. -1.
    10030    2    1    2    0    0  0.00000000000E+00  0.00000000000E+00  0.87017753982E+03  0.32181453666E+04  0.30982657487E+04 0.  0.
        3    1    3    3  502    0  0.12668107619E+04 -0.82208889492E+03  0.76517146008E+02  0.15121159154E+04  0.10100000352E+00 0. -1.
       -3    1    3    3    0  502 -0.12668107619E+04  0.82208889492E+03  0.79366039381E+03  0.17060294513E+04  0.10100000352E+00 0.  1.
</event>
<event>
 5   0  0.1388724E-05  0.3003492E+04  0.7818609E-02  0.8242734E-01
       -2   -1    0    0    0  501  0.00000000000E+00  0.00000000000E+00  0.91478032683E+03  0.91478032683E+03  0.25500000920E-02 0.  1.
        2   -1    0    0  501    0  0.00000000000E+00  0.00000000000E+00 -0.24653359283E+04  0.24653359283E+04  0.25500000920E-02 0. -1.
    10030    2    1    2    0    0  0.00000000000E+00  0.00000000000E+00 -0.15505556014E+04  0.33801162551E+04  0.30034918386E+04 0.  0.
        4    1    3    3  502    0 -0.81800355189E+02  0.39713928888E+03  0.85200998342E+03  0.94357487123E+03  0.12699999809E+01 0.  1.
       -4    1    3    3    0  502  0.81800355189E+02 -0.39713928888E+03 -0.24025655848E+04  0.24365413839E+04  0.12699999809E+01 0. -1.
</event>
<event>
 5   0  0.1523029E-05  0.3001708E+04  0.7818609E-02  0.8243243E-01
        2   -1    0    0  501    0  0.00000000000E+00  0.00000000000E+00  0.13126022951E+04  0.13126022951E+04  0.25500000920E-02 0. -1.
       -2   -1    0    0    0  501  0.00000000000E+00  0.00000000000E+00 -0.17161043857E+04  0.17161043857E+04  0.25500000920E-02 0.  1.
    10030    2    1    2    0    0  0.00000000000E+00  0.00000000000E+00 -0.40350209054E+03  0.30287066808E+04  0.30017078840E+04 0.  0.
        5    1    3    3  502    0  0.10875611421E+04  0.47189292575E+03  0.72689027269E+03  0.13906342904E+04  0.46999998093E+01 0. -1.
       -5    1    3    3    0  502 -0.10875611421E+04 -0.47189292575E+03 -0.11303923632E+04  0.16380723904E+04  0.46999998093E+01 0.  1.
</event>
<event>
 5   0  0.1480547E-05  0.1997035E+04  0.7818609E-02  0.8608008E-01
        2   -1    0    0  501    0  0.00000000000E+00  0.00000000000E+00  0.78839260476E+03  0.78839260477E+03  0.25500000920E-02 0.  1.
       -2   -1    0    0    0  501  0.00000000000E+00  0.00000000000E+00 -0.12646450135E+04  0.12646450135E+04  0.25500000920E-02 0. -1.
    10030    2    1    2    0    0  0.00000000000E+00  0.00000000000E+00 -0.47625240878E+03  0.20530376183E+04  0.19970345779E+04 0.  0.
        1    1    3    3  502    0  0.47527244555E+03  0.96221221170E+02 -0.11354696616E+04  0.12346796237E+04  0.50400001928E-02 0. -1.
       -1    1    3    3    0  502 -0.47527244555E+03 -0.96221221170E+02  0.65921725279E+03  0.81835799458E+03  0.50400001928E-02 0.  1.
</event>
<event>
 5   0  0.1523029E-05  0.3020558E+04  0.7818609E-02  0.8237885E-01
       -2   -1    0    0    0  501  0.00000000000E+00  0.00000000000E+00  0.11003645894E+04  0.11003645895E+04  0.25500000920E-02 0.  1.
        2   -1    0    0  501    0  0.00000000000E+00  0.00000000000E+00 -0.20728974413E+04  0.20728974413E+04  0.25500000920E-02 0. -1.
    10030    2    1    2    0    0  0.00000000000E+00  0.00000000000E+00 -0.97253285187E+03  0.31732620308E+04  0.30205581882E+04 0.  0.
        5    1    3    3  502    0 -0.96606967987E+03 -0.10211133985E+04 -0.10664140222E+04  0.17644330975E+04  0.46999998093E+01 0. -1.
       -5    1    3    3    0  502  0.96606967987E+03  0.10211133985E+04  0.93881170282E+02  0.14088289332E+04  0.46999998093E+01 0.  1.
</event>
<event>
 5   0  0.1388724E-05  0.3078027E+04  0.7818609E-02  0.8221794E-01
        2   -1    0    0  501    0  0.00000000000E+00  0.00000000000E+00  0.20461069850E+04  0.20461069850E+04  0.25500000920E-02 0. -1.
       -2   -1    0    0    0  501  0.00000000000E+00  0.00000000000E+00 -0.11575947094E+04  0.11575947094E+04  0.25500000920E-02 0.  1.
    10030    2    1    2    0    0  0.00000000000E+00  0.00000000000E+00  0.88851227560E+03  0.32037016943E+04  0.30780270438E+04 0.  0.
        4    1    3    3  502    0  0.81785067875E+03 -0.51799350936E+03 -0.80098851243E+03  0.12564956102E+04  0.12699999809E+01 0.  1.
       -4    1    3    3    0  502 -0.81785067875E+03  0.51799350936E+03  0.16895007880E+04  0.19472060841E+04  0.12699999809E+01 0. -1.
</event>
<event>
 5   0  0.5522695E-06  0.3003929E+04  0.7818609E-02  0.8242610E-01
        1   -1    0    0  501    0  0.00000000000E+00  0.00000000000E+00  0.16524432102E+04  0.16524432102E+04  0.50400001928E-02 0.  1.
       -1   -1    0    0    0  501  0.00000000000E+00  0.00000000000E+00 -0.13651891656E+04  0.13651891656E+04  0.50400001928E-02 0. -1.
    10030    2    1    2    0    0  0.00000000000E+00  0.00000000000E+00  0.28725404463E+03  0.30176323758E+04  0.30039291385E+04 0.  0.
        3    1    3    3  502    0 -0.17585638122E+03  0.14906953607E+04  0.19677804059E+03  0.15138757323E+04  0.10100000352E+00 0. -1.
       -3    1    3    3    0  502  0.17585638122E+03 -0.14906953607E+04  0.90476004033E+02  0.15037566435E+04  0.10100000352E+00 0.  1.
</event>
<event>
 5   0  0.5522695E-06  0.3006822E+04  0.7818609E-02  0.8241785E-01
       -1   -1    0    0    0  501  0.00000000000E+00  0.00000000000E+00  0.13754595187E+04  0.13754595187E+04  0.50400001928E-02 0.  1.
        1   -1    0    0  501    0  0.00000000000E+00  0.00000000000E+00 -0.16432655146E+04  0.16432655146E+04  0.50400001928E-02 0. -1.
    10030    2    1    2    0    0  0.00000000000E+00  0.00000000000E+00 -0.26780599593E+03  0.30187250333E+04  0.30068223717E+04 0.  0.
        3    1    3    3  502    0  0.10678201530E+04 -0.81381949120E+03 -0.81311871885E+03  0.15696190954E+04  0.10100000352E+00 0. -1.
       -3    1    3    3    0  502 -0.10678201530E+04  0.81381949120E+03  0.54531272292E+03  0.14491059379E+04  0.10100000352E+00 0.  1.
</event>
<event>
 5   0  0.1423692E-05  0.2086125E+04  0.7818609E-02  0.8567380E-01
       -2   -1    0    0    0  501  0.00000000000E+00  0.00000000000E+00  0.72662850611E+03  0.72662850611E+03  0.25500000920E-02 0.  1.
        2   -1    0    0  501    0  0.00000000000E+00  0.00000000000E+00 -0.14972982598E+04  0.14972982598E+04  0.25500000920E-02 0. -1.
    10030    2    1    2    0    0  0.00000000000E+00  0.00000000000E+00 -0.77066975367E+03  0.22239267659E+04  0.20861252098E+04 0.  0.
        3    1    3    3  502    0 -0.90730595969E+03 -0.43772775584E+03 -0.96967367958E+02  0.10120337807E+04  0.10100000352E+00 0.  1.
       -3    1    3    3    0  502  0.90730595969E+03  0.43772775584E+03 -0.67370238571E+03  0.12118929851E+04  0.10100000352E+00 0. -1.
</event>
<event>
 5   0  0.1388724E-05  0.2795690E+04  0.7818609E-02  0.8304608E-01
       -2   -1    0    0    0  501  0.00000000000E+00  0.00000000000E+00  0.75849114418E+03  0.75849114418E+03  0.25500000920E-02 0.  1.
        2   -1    0    0  501    0  0.00000000000E+00  0.00000000000E+00 -0.25761282926E+04  0.25761282926E+04  0.25500000920E-02 0. -1.
    10030    2    1    2    0    0  0.00000000000E+00  0.00000000000E+00 -0.18176371484E+04  0.33346194367E+04  0.27956898942E+04 0.  0.
        4    1    3    3  502    0  0.10395451988E+01  0.39278602276E+03 -0.25089504013E+04  0.25395109115E+04  0.12699999809E+01 0. -1.
       -4    1    3    3    0  502 -0.10395451988E+01 -0.39278602276E+03  0.69131325295E+03  0.79510852526E+03  0.12699999809E+01 0.  1.
</event>
<event>
 5   0  0.5392262E-06  0.3000023E+04  0.7818609E-02  0.8243724E-01
       -1   -1    0    0    0  501  0.00000000000E+00  0.00000000000E+00  0.10921997252E+04  0.10921997252E+04  0.50400001928E-02 0.  1.
        1   -1    0    0  501    0  0.00000000000E+00  0.00000000000E+00 -0.20600940405E+04  0.20600940405E+04  0.50400001928E-02 0. -1.
    10030    2    1    2    0    0  0.00000000000E+00  0.00000000000E+00 -0.96789431523E+03  0.31522937657E+04  0.30000227632E+04 0.  0.
        2    1    3    3  502    0 -0.90871959180E+03  0.89902592755E+03 -0.13086506959E+04  0.18293675297E+04  0.25500000920E-02 0. -1.
       -2    1    3    3    0  502  0.90871959180E+03 -0.89902592755E+03  0.34075638066E+03  0.13229262360E+04  0.25500000920E-02 0.  1.
</event>
<event>
 5   0  0.5730920E-06  0.2970424E+04  0.7818609E-02  0.8252227E-01
       -1   -1    0    0    0  501  0.00000000000E+00  0.00000000000E+00  0.12990216052E+04  0.12990216052E+04  0.50400001928E-02 0.  1.
        1   -1    0    0  501    0  0.00000000000E+00  0.00000000000E+00 -0.16980892636E+04  0.16980892636E+04  0.50400001928E-02 0. -1.
    10030    2    1    2    0    0  0.00000000000E+00  0.00000000000E+00 -0.39906765837E+03  0.29971108688E+04  0.29704239704E+04 0.  0.
        1    1    3    3  502    0 -0.31017064095E+03 -0.84082072381E+03 -0.13945176285E+04  0.16576684627E+04  0.50400001928E-02 0. -1.
       -1    1    3    3    0  502  0.31017064095E+03  0.84082072381E+03  0.99544997012E+03  0.13394424061E+04  0.50400001928E-02 0.  1.
</event>
<event>
 5   0  0.5392262E-06  0.3104693E+04  0.7818609E-02  0.8214451E-01
        1   -1    0    0  501    0  0.00000000000E+00  0.00000000000E+00  0.21936214179E+04  0.21936214179E+04  0.50400001928E-02 0.  1.
       -1   -1    0    0    0  501  0.00000000000E+00  0.00000000000E+00 -0.10985395576E+04  0.10985395576E+04  0.50400001928E-02 0. -1.
    10030    2    1    2    0    0  0.00000000000E+00  0.00000000000E+00  0.10950818603E+04  0.32921609755E+04  0.31046931584E+04 0.  0.
        2    1    3    3  502    0 -0.41251981723E+03 -0.13248924827E+04 -0.19037164353E+03  0.14006263074E+04  0.25500000920E-02 0.  1.
       -2    1    3    3    0  502  0.41251981723E+03  0.13248924827E+04  0.12854535039E+04  0.18915346681E+04  0.25500000920E-02 0. -1.
</event>
<event>
 5   0  0.1388724E-05  0.3035043E+04  0.7818609E-02  0.8233794E-01
        2   -1    0    0  501    0  0.00000000000E+00  0.00000000000E+00  0.18092843111E+04  0.18092843111E+04  0.25500000920E-02 0. -1.
       -2   -1    0    0    0  501  0.00000000000E+00  0.00000000000E+00 -0.12728076447E+04  0.12728076447E+04  0.25500000920E-02 0.  1.
    10030    2    1    2    0    0  0.00000000000E+00  0.00000000000E+00  0.53647666645E+03  0.30820919558E+04  0.30350426044E+04 0.  0.
        4    1    3    3  502    0 -0.34965145735E+03  0.17624539636E+03  0.17571010251E+04  0.18002011573E+04  0.12699999809E+01 0. -1.
       -4    1    3    3    0  502  0.34965145735E+03 -0.17624539636E+03 -0.12206243587E+04  0.12818907985E+04  0.12699999809E+01 0.  1.
</event>
<event>
 5   0  0.1388724E-05  0.3000803E+04  0.7818609E-02  0.8243501E-01
       -2   -1    0    0    0  501  0.00000000000E+00  0.00000000000E+00  0.99205288700E+03  0.99205288700E+03  0.25500000920E-02 0.  1.
        2   -1    0    0  501    0  0.00000000000E+00  0.00000000000E+00 -0.22692392847E+04  0.22692392847E+04  0.25500000920E-02 0. -1.
    10030    2    1    2    0    0  0.00000000000E+00  0.00000000000E+00 -0.12771863977E+04  0.32612921717E+04  0.30008034815E+04 0.  0.
        4    1    3    3  502    0 -0.12614196946E+04 -0.78182850834E+03 -0.39858780674E+03  0.15366552362E+04  0.12699999809E+01 0. -1.
       -4    1    3    3    0  502  0.12614196946E+04  0.78182850834E+03 -0.87859859096E+03  0.17246369355E+04  0.12699999809E+01 0.  1.
</event>
<event>
 5   0  0.1523029E-05  0.3024701E+04  0.7818609E-02  0.8236712E-01
        2   -1    0    0  501    0  0.00000000000E+00  0.00000000000E+00  0.14930163007E+04  0.14930163007E+04  0.25500000920E-02 0. -1.
       -2   -1    0    0    0  501  0.00000000000E+00  0.00000000000E+00 -0.15319345837E+04  0.15319345837E+04  0.25500000920E-02 0.  1.
    10030    2    1    2    0    0  0.00000000000E+00  0.00000000000E+00 -0.38918282930E+02  0.30249508844E+04  0.30247005174E+04 0.  0.
        5    1    3    3  502    0  0.12790631337E+04  0.73395416241E+03 -0.35488219661E+03  0.15167909137E+04  0.46999998093E+01 0.  1.
       -5    1    3    3    0  502 -0.12790631337E+04 -0.73395416241E+03  0.31596391368E+03  0.15081599707E+04  0.46999998093E+01 0. -1.
</event>
<event>
 5   0  0.5522695E-06  0.2902648E+04  0.7818609E-02  0.8272090E-01
        1   -1    0    0  501    0  0.00000000000E+00  0.00000000000E+00  0.16340474029E+04  0.16340474029E+04  0.50400001928E-02 0. -1.
       -1   -1    0    0    0  501  0.00000000000E+00  0.00000000000E+00 -0.12890333834E+04  0.12890333834E+04  0.50400001928E-02 0.  1.
    10030    2    1    2    0    0  0.00000000000E+00  0.00000000000E+00  0.34501401951E+03  0.29230807863E+04  0.29026482063E+04 0.  0.
        3    1    3    3  502    0 -0.92917152363E+03  0.10756855270E+04 -0.12261318436E+03  0.14267070745E+04  0.10100000352E+00 0.  1.
       -3    1    3    3    0  502  0.92917152363E+03 -0.10756855270E+04  0.46762720387E+03  0.14963737118E+04  0.10100000352E+00 0. -1.
</event>
<event>
 5   0  0.5392262E-06  0.2996547E+04  0.7818609E-02  0.8244717E-01
        1   -1    0    0  501    0  0.00000000000E+00  0.00000000000E+00  0.30175542254E+04  0.30175542254E+04  0.50400001928E-02 0. -1.
       -1   -1    0    0    0  501  0.00000000000E+00  0.00000000000E+00 -0.74392170963E+03  0.74392170965E+03  0.50400001928E-02 0.  1.
    10030    2    1    2    0    0  0.00000000000E+00  0.00000000000E+00  0.22736325157E+04  0.37614759350E+04  0.29965474121E+04 0.  0.
        2    1    3    3  502    0  0.12937182614E+04 -0.69284717478E+03  0.75798262586E+03  0.16517511340E+04  0.25500000920E-02 0.  1.
       -2    1    3    3    0  502 -0.12937182614E+04  0.69284717478E+03  0.15156498899E+04  0.21097248010E+04  0.25500000920E-02 0. -1.
</event>
<event>
 5   0  0.1480547E-05  0.2760992E+04  0.7818609E-02  0.8315482E-01
        2   -1    0    0  501    0  0.00000000000E+00  0.00000000000E+00  0.23319200605E+04  0.23319200605E+04  0.25500000920E-02 0.  1.
       -2   -1    0    0    0  501  0.00000000000E+00  0.00000000000E+00 -0.81725315639E+03  0.81725315640E+03  0.25500000920E-02 0. -1.
    10030    2    1    2    0    0  0.00000000000E+00  0.00000000000E+00  0.15146669041E+04  0.31491732169E+04  0.27609918724E+04 0.  0.
        1    1    3    3  502    0  0.66423312146E+03 -0.12045627974E+04  0.62435819880E+03  0.15106291183E+04  0.50400001928E-02 0.  1.
       -1    1    3    3    0  502 -0.66423312146E+03  0.12045627974E+04  0.89030870533E+03  0.16385440987E+04  0.50400001928E-02 0. -1.
</event>
<event>
 5   0  0.5329891E-06  0.1890973E+04  0.7818609E-02  0.8659363E-01
        1   -1    0    0  501    0  0.00000000000E+00  0.00000000000E+00  0.10626895832E+04  0.10626895832E+04  0.50400001928E-02 0.  1.
       -1   -1    0    0    0  501  0.00000000000E+00  0.00000000000E+00 -0.84120920701E+03  0.84120920702E+03  0.50400001928E-02 0. -1.
    10030    2    1    2    0    0  0.00000000000E+00  0.00000000000E+00  0.22148037619E+03  0.19038987902E+04  0.18909725134E+04 0.  0.
        4    1    3    3  502    0 -0.27489258296E+03 -0.32347677169E+03  0.96134631445E+03  0.10509003298E+04  0.12699999809E+01 0.  1.
       -4    1    3    3    0  502  0.27489258296E+03  0.32347677169E+03 -0.73986593825E+03  0.85299846042E+03  0.12699999809E+01 0. -1.
</event>
<event>
 5   0  0.1388724E-05  0.2875326E+04  0.7818609E-02  0.8280257E-01
        2   -1    0    0  501    0  0.00000000000E+00  0.00000000000E+00  0.18150932713E+04  0.18150932713E+04  0.25500000920E-02 0.  1.
       -2   -1    0    0    0  501  0.00000000000E+00  0.00000000000E+00 -0.11387156048E+04  0.11387156048E+04  0.25500000920E-02 0. -1.
    10030    2    1    2    0    0  0.00000000000E+00  0.00000000000E+00  0.67637766650E+03  0.29538088761E+04  0.28753260908E+04 0.  0.
        4    1    3    3  502    0  0.11991585070E+04 -0.69161119137E+03 -0.60431189085E+02  0.13856264672E+04  0.12699999809E+01 0. -1.
       -4    1    3    3    0  502 -0.11991585070E+04  0.69161119137E+03  0.73680885558E+03  0.15681824089E+04  0.12699999809E+01 0.  1.
</event>
<event>
 5   0  0.1345931E-05  0.3028790E+04  0.7818609E-02  0.8235557E-01
        2   -1    0    0  501    0  0.00000000000E+00  0.00000000000E+00  0.20151288829E+04  0.20151288829E+04  0.25500000920E-02 0.  1.
       -2   -1    0    0    0  501  0.00000000000E+00  0.00000000000E+00 -0.11380872196E+04  0.11380872196E+04  0.25500000920E-02 0. -1.
    10030    2    1    2    0    0  0.00000000000E+00  0.00000000000E+00  0.87704166329E+03  0.31532161025E+04  0.30287901396E+04 0.  0.
        2    1    3    3  502    0  0.21336290182E+03 -0.14926629852E+04  0.29193191243E+03  0.15358355240E+04  0.25500000920E-02 0. -1.
       -2    1    3    3    0  502 -0.21336290182E+03  0.14926629852E+04  0.58510975086E+03  0.16173805785E+04  0.25500000920E-02 0.  1.
</event>
<event>
 5   0  0.5329891E-06  0.2886028E+04  0.7818609E-02  0.8277047E-01
       -1   -1    0    0    0  501  0.00000000000E+00  0.00000000000E+00  0.11591236695E+04  0.11591236695E+04  0.50400001928E-02 0.  1.
        1   -1    0    0  501    0  0.00000000000E+00  0.00000000000E+00 -0.17964341654E+04  0.17964341654E+04  0.50400001928E-02 0. -1.
    10030    2    1    2    0    0  0.00000000000E+00  0.00000000000E+00 -0.63731049586E+03  0.29555578349E+04  0.28860279707E+04 0.  0.
        4    1    3    3  502    0  0.10105886356E+04  0.74875450560E+03 -0.10430618660E+04  0.16339835891E+04  0.12699999809E+01 0. -1.
       -4    1    3    3    0  502 -0.10105886356E+04 -0.74875450560E+03  0.40575137018E+03  0.13215742459E+04  0.12699999809E+01 0.  1.
</event>
<event>
 5   0  0.1388724E-05  0.2986870E+04  0.7818609E-02  0.8247490E-01
        2   -1    0    0  501    0  0.00000000000E+00  0.00000000000E+00  0.23208371423E+04  0.23208371423E+04  0.25500000920E-02 0. -1.
       -2   -1    0    0    0  501  0.00000000000E+00  0.00000000000E+00 -0.96101035637E+03  0.96101035638E+03  0.25500000920E-02 0.  1.
    10030    2    1    2    0    0  0.00000000000E+00  0.00000000000E+00  0.13598267859E+04  0.32818474987E+04  0.29868702879E+04 0.  0.
        4    1    3    3  502    0  0.67017127942E+03 -0.15245751420E+03  0.21367413502E+04  0.22445574281E+04  0.12699999809E+01 0. -1.
       -4    1    3    3    0  502 -0.67017127942E+03  0.15245751420E+03 -0.77691456430E+03  0.10372900706E+04  0.12699999809E+01 0.  1.
</event>
<event>
 5   0  0.5522695E-06  0.2820958E+04  0.7818609E-02  0.8296791E-01
       -1   -1    0    0    0  501  0.00000000000E+00  0.00000000000E+00  0.15419109637E+04  0.15419109637E+04  0.50400001928E-02 0. -1.
        1   -1    0    0  501    0  0.00000000000E+00  0.00000000000E+00 -0.12902505216E+04  0.12902505216E+04  0.50400001928E-02 0.  1.
    10030    2    1    2    0    0  0.00000000000E+00  0.00000000000E+00  0.25166044213E+03  0.28321614853E+04  0.28209582948E+04 0.  0.
        3    1    3    3  502    0 -0.76504730759E+02 -0.43476679250E+03 -0.12191079146E+04  0.12965721173E+04  0.10100000352E+00 0.  1.
       -3    1    3    3    0  502  0.76504730759E+02  0.43476679250E+03  0.14707683568E+04  0.15355893680E+04  0.10100000352E+00 0. -1.
</event>
<event>
 5   0  0.1523029E-05  0.3015125E+04  0.7818609E-02  0.8239425E-01
        2   -1    0    0  501    0  0.00000000000E+00  0.00000000000E+00  0.17486033683E+04  0.17486033683E+04  0.25500000920E-02 0.  1.
       -2   -1    0    0    0  501  0.00000000000E+00  0.00000000000E+00 -0.12997488288E+04  0.12997488288E+04  0.25500000920E-02 0. -1.
    10030    2    1    2    0    0  0.00000000000E+00  0.00000000000E+00  0.44885453951E+03  0.30483521971E+04  0.30151253241E+04 0.  0.
        5    1    3    3  502    0  0.13312215527E+04  0.62225234824E+03  0.56484882408E+03  0.15743014614E+04  0.46999998093E+01 0.  1.
       -5    1    3    3    0  502 -0.13312215527E+04 -0.62225234824E+03 -0.11599428458E+03  0.14740507357E+04  0.46999998093E+01 0. -1.
</event>
<event>
 5   0  0.1523029E-05  0.3007158E+04  0.7818609E-02  0.8241690E-01
        2   -1    0    0  501    0  0.00000000000E+00  0.00000000000E+00  0.19786526816E+04  0.19786526816E+04  0.25500000920E-02 0.  1.
       -2   -1    0    0    0  501  0.00000000000E+00  0.00000000000E+00 -0.11425699469E+04  0.11425699469E+04  0.25500000920E-02 0. -1.
    10030    2    1    2    0    0  0.00000000000E+00  0.00000000000E+00  0.83608273477E+03  0.31212226285E+04  0.30071575212E+04 0.  0.
        5    1    3    3  502    0  0.11506403567E+04  0.80970548001E+03 -0.13228812387E+03  0.14131944072E+04  0.46999998093E+01 0. -1.
       -5    1    3    3    0  502 -0.11506403567E+04 -0.80970548001E+03  0.96837085865E+03  0.17080282213E+04  0.46999998093E+01 0.  1.
</event>
<event>
 5   0  0.1480547E-05  0.2883320E+04  0.7818609E-02  0.8277858E-01
       -2   -1    0    0    0  501  0.00000000000E+00  0.00000000000E+00  0.10280434693E+04  0.10280434693E+04  0.25500000920E-02 0.  1.
        2   -1    0    0  501    0  0.00000000000E+00  0.00000000000E+00 -0.20216879391E+04  0.20216879391E+04  0.25500000920E-02 0. -1.
    10030    2    1    2    0    0  0.00000000000E+00  0.00000000000E+00 -0.99364446977E+03  0.30497314085E+04  0.28833196721E+04 0.  0.
        1    1    3    3  502    0 -0.18303384139E+03  0.24660681266E+03  0.99304284043E+03  0.10394471560E+04  0.50400001928E-02 0.  1.
       -1    1    3    3    0  502  0.18303384139E+03 -0.24660681266E+03 -0.19866873102E+04  0.20102842525E+04  0.50400001928E-02 0. -1.
</event>
<event>
 5   0  0.5392262E-06  0.3007410E+04  0.7818609E-02  0.8241618E-01
       -1   -1    0    0    0  501  0.00000000000E+00  0.00000000000E+00  0.22477454317E+04  0.22477454317E+04  0.50400001928E-02 0.  1.
        1   -1    0    0  501    0  0.00000000000E+00  0.00000000000E+00 -0.10059540205E+04  0.10059540206E+04  0.50400001928E-02 0. -1.
    10030    2    1    2    0    0  0.00000000000E+00  0.00000000000E+00  0.12417914111E+04  0.32536994523E+04  0.30074098851E+04 0.  0.
        2    1    3    3  502    0 -0.35690907542E+03 -0.75030910073E+03 -0.73505091259E+03  0.11093456084E+04  0.25500000920E-02 0. -1.
       -2    1    3    3    0  502  0.35690907542E+03  0.75030910073E+03  0.19768423237E+04  0.21443538439E+04  0.25500000920E-02 0.  1.
</event>
<event>
 5   0  0.5522695E-06  0.2982799E+04  0.7818609E-02  0.8248660E-01
       -1   -1    0    0    0  501  0.00000000000E+00  0.00000000000E+00  0.27172806408E+04  0.27172806408E+04  0.50400001928E-02 0. -1.
        1   -1    0    0  501    0  0.00000000000E+00  0.00000000000E+00 -0.81856587175E+03  0.81856587177E+03  0.50400001928E-02 0.  1.
    10030    2    1    2    0    0  0.00000000000E+00  0.00000000000E+00  0.18987147691E+04  0.35358465126E+04  0.29827994881E+04 0.  0.
        3    1    3    3  502    0 -0.10456752907E+04  0.26143193119E+03 -0.27253149589E+03  0.11117809562E+04  0.10100000352E+00 0.  1.
       -3    1    3    3    0  502  0.10456752907E+04 -0.26143193119E+03  0.21712462650E+04  0.24240655564E+04  0.10100000352E+00 0. -1.
</event>
<event>
 5   0  0.5522695E-06  0.2307764E+04  0.7818609E-02  0.8474866E-01
       -1   -1    0    0    0  501  0.00000000000E+00  0.00000000000E+00  0.77327963286E+03  0.77327963288E+03  0.50400001928E-02 0. -1.
        1   -1    0    0  501    0  0.00000000000E+00  0.00000000000E+00 -0.17218132909E+04  0.17218132909E+04  0.50400001928E-02 0.  1.
    10030    2    1    2    0    0  0.00000000000E+00  0.00000000000E+00 -0.94853365803E+03  0.24950929238E+04  0.23077635490E+04 0.  0.
        3    1    3    3  502    0  0.70021526341E+03 -0.30587414286E+03  0.46054682261E+03  0.89216802924E+03  0.10100000352E+00 0. -1.
       -3    1    3    3    0  502 -0.70021526341E+03  0.30587414286E+03 -0.14090804806E+04  0.16029248945E+04  0.10100000352E+00 0.  1.
</event>
<event>
 5   0  0.1388724E-05  0.3020387E+04  0.7818609E-02  0.8237933E-01
       -2   -1    0    0    0  501  0.00000000000E+00  0.00000000000E+00  0.18503293587E+04  0.18503293587E+04  0.25500000920E-02 0. -1.
        2   -1    0    0  501    0  0.00000000000E+00  0.00000000000E+00 -0.12325833293E+04  0.12325833293E+04  0.25500000920E-02 0.  1.
    10030    2    1    2    0    0  0.00000000000E+00  0.00000000000E+00  0.61774602940E+03  0.30829126881E+04  0.30203874727E+04 0.  0.
        4    1    3    3  502    0  0.13111120651E+04 -0.57744091173E+03 -0.17875152427E+03  0.14437474067E+04  0.12699999809E+01 0. -1.
       -4    1    3    3    0  502 -0.13111120651E+04  0.57744091173E+03  0.79649755367E+03  0.16391652814E+04  0.12699999809E+01 0.  1.
</event>
<event>
 5   0  0.7032692E-06  0.3067810E+04  0.7818609E-02  0.8224628E-01
        1   -1    0    0  501    0  0.00000000000E+00  0.00000000000E+00  0.18148592562E+04  0.18148592562E+04  0.50400001928E-02 0. -1.
       -1   -1    0    0    0  501  0.00000000000E+00  0.00000000000E+00 -0.12964442707E+04  0.12964442707E+04  0.50400001928E-02 0.  1.
    10030    2    1    2    0    0  0.00000000000E+00  0.00000000000E+00  0.51841498549E+03  0.31113035269E+04  0.30678095670E+04 0.  0.
        5    1    3    3  502    0 -0.12232739159E+04 -0.52875932288E+03 -0.51107105660E+03  0.14273055769E+04  0.46999998093E+01 0.  1.
       -5    1    3    3    0  502  0.12232739159E+04  0.52875932288E+03  0.10294860421E+04  0.16839979500E+04  0.46999998093E+01 0. -1.
</event>
<event>
 5   0  0.5329891E-06  0.2936132E+04  0.7818609E-02  0.8262208E-01
        1   -1    0    0  501    0  0.00000000000E+00  0.00000000000E+00  0.18625541198E+04  0.18625541198E+04  0.50400001928E-02 0. -1.
       -1   -1    0    0    0  501  0.00000000000E+00  0.00000000000E+00 -0.11571302595E+04  0.11571302595E+04  0.50400001928E-02 0.  1.
    10030    2    1    2    0    0  0.00000000000E+00  0.00000000000E+00  0.70542386038E+03  0.30196843793E+04  0.29361319670E+04 0.  0.
        4    1    3    3  502    0  0.80805191830E+03 -0.12138069821E+04  0.17775085188E+03  0.14689697991E+04  0.12699999809E+01 0.  1.
       -4    1    3    3    0  502 -0.80805191830E+03  0.12138069821E+04  0.52767300850E+03  0.15507145802E+04  0.12699999809E+01 0. -1.
</event>
<event>
 5   0  0.5392262E-06  0.2949400E+04  0.7818609E-02  0.8258329E-01
       -1   -1    0    0    0  501  0.00000000000E+00  0.00000000000E+00  0.10159166694E+04  0.10159166695E+04  0.50400001928E-02 0.  1.
        1   -1    0    0  501    0  0.00000000000E+00  0.00000000000E+00 -0.21406683030E+04  0.21406683030E+04  0.50400001928E-02 0. -1.
    10030    2    1    2    0    0  0.00000000000E+00  0.00000000000E+00 -0.11247516336E+04  0.31565849725E+04  0.29494003545E+04 0.  0.
        2    1    3    3  502    0 -0.36209602185E+03 -0.13958391992E+04 -0.89269901641E+03  0.16959929637E+04  0.25500000920E-02 0. -1.
       -2    1    3    3    0  502  0.36209602185E+03  0.13958391992E+04 -0.23205261717E+03  0.14605920088E+04  0.25500000920E-02 0.  1.
</event>
<event>
 5   0  0.1423692E-05  0.3309929E+04  0.7818609E-02  0.8160374E-01
       -2   -1    0    0    0  501  0.00000000000E+00  0.00000000000E+00  0.98607237429E+03  0.98607237429E+03  0.25500000920E-02 0. -1.
        2   -1    0    0  501    0  0.00000000000E+00  0.00000000000E+00 -0.27775929927E+04  0.27775929927E+04  0.25500000920E-02 0.  1.
    10030    2    1    2    0    0  0.00000000000E+00  0.00000000000E+00 -0.17915206184E+04  0.37636653670E+04  0.33099291334E+04 0.  0.
        3    1    3    3  502    0  0.14687502824E+04 -0.33940018966E+03 -0.11913334596E+03  0.15121549673E+04  0.10100000352E+00 0. -1.
       -3    1    3    3    0  502 -0.14687502824E+04  0.33940018966E+03 -0.16723872724E+04  0.22515103997E+04  0.10100000352E+00 0.  1.
</event>
<event>
 5   0  0.1388724E-05  0.2958082E+04  0.7818609E-02  0.8255803E-01
        2   -1    0    0  501    0  0.00000000000E+00  0.00000000000E+00  0.19719160144E+04  0.19719160144E+04  0.25500000920E-02 0.  1.
       -2   -1    0    0    0  501  0.00000000000E+00  0.00000000000E+00 -0.11093584747E+04  0.11093584747E+04  0.25500000920E-02 0. -1.
    10030    2    1    2    0    0  0.00000000000E+00  0.00000000000E+00  0.86255753974E+03  0.30812744891E+04  0.29580816365E+04 0.  0.
        4    1    3    3  502    0  0.95657545386E+03 -0.79305329991E+03  0.12669296492E+04  0.17745654353E+04  0.12699999809E+01 0.  1.
       -4    1    3    3    0  502 -0.95657545386E+03  0.79305329991E+03 -0.40437210945E+03  0.13067090538E+04  0.12699999809E+01 0. -1.
</event>
<event>
 5   0  0.1480547E-05  0.1491872E+04  0.7818609E-02  0.8889876E-01
        2   -1    0    0  501    0  0.00000000000E+00  0.00000000000E+00  0.10754062884E+04  0.10754062884E+04  0.25500000920E-02 0.  1.
       -2   -1    0    0    0  501  0.00000000000E+00  0.00000000000E+00 -0.51740462294E+03  0.51740462294E+03  0.25500000920E-02 0. -1.
    10030    2    1    2    0    0  0.00000000000E+00  0.00000000000E+00  0.55800166543E+03  0.15928109113E+04  0.14918715563E+04 0.  0.
        1    1    3    3  502    0  0.11853517207E+03  0.65182947414E+03 -0.86955631630E+02  0.66820171526E+03  0.50400001928E-02 0. -1.
       -1    1    3    3    0  502 -0.11853517207E+03 -0.65182947414E+03  0.64495729706E+03  0.92460919606E+03  0.50400001928E-02 0.  1.
</event>
<event>
 5   0  0.1423692E-05  0.3053866E+04  0.7818609E-02  0.8228514E-01
        2   -1    0    0  501    0  0.00000000000E+00  0.00000000000E+00  0.77304629535E+03  0.77304629535E+03  0.25500000920E-02 0. -1.
       -2   -1    0    0    0  501  0.00000000000E+00  0.00000000000E+00 -0.30160210646E+04  0.30160210646E+04  0.25500000920E-02 0.  1.
    10030    2    1    2    0    0  0.00000000000E+00  0.00000000000E+00 -0.22429747693E+04  0.37890673600E+04  0.30538656884E+04 0.  0.
        3    1    3    3  502    0  0.42272958946E+03  0.14660309831E+04 -0.10472834802E+04  0.18506079670E+04  0.10100000352E+00 0. -1.
       -3    1    3    3    0  502 -0.42272958946E+03 -0.14660309831E+04 -0.11956912891E+04  0.19384593930E+04  0.10100000352E+00 0.  1.
</event>
<event>
 5   0  0.7032692E-06  0.2767864E+04  0.7818609E-02  0.8313315E-01
        1   -1    0    0  501    0  0.00000000000E+00  0.00000000000E+00  0.17546733096E+04  0.17546733096E+04  0.50400001928E-02 0. -1.
       -1   -1    0    0    0  501  0.00000000000E+00  0.00000000000E+00 -0.10915235124E+04  0.10915235124E+04  0.50400001928E-02 0.  1.
    10030    2    1    2    0    0  0.00000000000E+00  0.00000000000E+00  0.66314979720E+03  0.28461968219E+04  0.27678635616E+04 0.  0.
        5    1    3    3  502    0 -0.37229719515E+03  0.11928100642E+04 -0.28010778973E+03  0.12805793668E+04  0.46999998093E+01 0.  1.
       -5    1    3    3    0  502  0.37229719515E+03 -0.11928100642E+04  0.94325758693E+03  0.15656174552E+04  0.46999998093E+01 0. -1.
</event>
<event>
 5   0  0.5329891E-06  0.3012042E+04  0.7818609E-02  0.8240300E-01
        1   -1    0    0  501    0  0.00000000000E+00  0.00000000000E+00  0.13200273898E+04  0.13200273898E+04  0.50400001928E-02 0.  1.
       -1   -1    0    0    0  501  0.00000000000E+00  0.00000000000E+00 -0.17182217768E+04  0.17182217768E+04  0.50400001928E-02 0. -1.
    10030    2    1    2    0    0  0.00000000000E+00  0.00000000000E+00 -0.39819438707E+03  0.30382491666E+04  0.30120423683E+04 0.  0.
        4    1    3    3  502    0 -0.67678397183E+02 -0.12076022647E+04 -0.11042421401E+04  0.16377533124E+04  0.12699999809E+01 0. -1.
       -4    1    3    3    0  502  0.67678397183E+02  0.12076022647E+04  0.70604775305E+03  0.14004958542E+04  0.12699999809E+01 0.  1.
</event>
<event>
 5   0  0.7032692E-06  0.2932315E+04  0.7818609E-02  0.8263327E-01
       -1   -1    0    0    0  501  0.00000000000E+00  0.00000000000E+00  0.17926552810E+04  0.17926552810E+04  0.50400001928E-02 0.  1.
        1   -1    0    0  501    0  0.00000000000E+00  0.00000000000E+00 -0.11991249835E+04  0.11991249835E+04  0.50400001928E-02 0. -1.
    10030    2    1    2    0    0  0.00000000000E+00  0.00000000000E+00  0.59353029751E+03  0.29917802645E+04  0.29323149450E+04 0.  0.
        5    1    3    3  502    0 -0.71445712645E+03  0.25279731276E+03 -0.98377284699E+03  0.12418480468E+04  0.46999998093E+01 0. -1.
       -5    1    3    3    0  502  0.71445712645E+03 -0.25279731276E+03  0.15773031445E+04  0.17499322177E+04  0.46999998093E+01 0.  1.
</event>
<event>
 5   0  0.5730920E-06  0.2995141E+04  0.7818609E-02  0.8245120E-01
        1   -1    0    0  501    0  0.00000000000E+00  0.00000000000E+00  0.15517637448E+04  0.15517637448E+04  0.50400001928E-02 0.  1.
       -1   -1    0    0    0  501  0.00000000000E+00  0.00000000000E+00 -0.14452697628E+04  0.14452697628E+04  0.50400001928E-02 0. -1.
    10030    2    1    2    0    0  0.00000000000E+00  0.00000000000E+00  0.10649398196E+03  0.29970335077E+04  0.29951408778E+04 0.  0.
        1    1    3    3  502    0  0.12035312847E+04 -0.71708137748E+03  0.58275428125E+03  0.15173318053E+04  0.50400001928E-02 0.  1.
       -1    1    3    3    0  502 -0.12035312847E+04  0.71708137748E+03 -0.47626029929E+03  0.14797017023E+04  0.50400001928E-02 0. -1.
</event>
<event>
 5   0  0.1388724E-05  0.2861515E+04  0.7818609E-02  0.8284421E-01
       -2   -1    0    0    0  501  0.00000000000E+00  0.00000000000E+00  0.11552457599E+04  0.11552457599E+04  0.25500000920E-02 0. -1.
        2   -1    0    0  501    0  0.00000000000E+00  0.00000000000E+00 -0.17719750633E+04  0.17719750633E+04  0.25500000920E-02 0.  1.
    10030    2    1    2    0    0  0.00000000000E+00  0.00000000000E+00 -0.61672930339E+03  0.29272208231E+04  0.28615147586E+04 0.  0.
        4    1    3    3  502    0 -0.71015690812E+03 -0.17132618940E+03  0.95008215694E+03  0.11984711991E+04  0.12699999809E+01 0. -1.
       -4    1    3    3    0  502  0.71015690812E+03  0.17132618940E+03 -0.15668114603E+04  0.17287496240E+04  0.12699999809E+01 0.  1.
</event>
<event>
 5   0  0.1480547E-05  0.1775569E+04  0.7818609E-02  0.8719401E-01
        2   -1    0    0  501    0  0.00000000000E+00  0.00000000000E+00  0.16700853443E+04  0.16700853443E+04  0.25500000920E-02 0. -1.
       -2   -1    0    0    0  501  0.00000000000E+00  0.00000000000E+00 -0.47192862531E+03  0.47192862532E+03  0.25500000920E-02 0.  1.
    10030    2    1    2    0    0  0.00000000000E+00  0.00000000000E+00  0.11981567190E+04  0.21420139696E+04  0.17755687322E+04 0.  0.
        1    1    3    3  502    0  0.73420012770E+03  0.11117267220E+03  0.12087230680E+02  0.74266768593E+03  0.50400001928E-02 0.  1.
       -1    1    3    3    0  502 -0.73420012770E+03 -0.11117267220E+03  0.11860694883E+04  0.13993462837E+04  0.50400001928E-02 0. -1.
</event>
<event>
 5   0  0.1345931E-05  0.3011199E+04  0.7818609E-02  0.8240540E-01
       -2   -1    0    0    0  501  0.00000000000E+00  0.00000000000E+00  0.72021397585E+03  0.72021397586E+03  0.25500000920E-02 0.  1.
        2   -1    0    0  501    0  0.00000000000E+00  0.00000000000E+00 -0.31474384806E+04  0.31474384806E+04  0.25500000920E-02 0. -1.
    10030    2    1    2    0    0  0.00000000000E+00  0.00000000000E+00 -0.24272245047E+04  0.38676524564E+04  0.30111985533E+04 0.  0.
        2    1    3    3  502    0 -0.70845894471E+03  0.13028047669E+04 -0.87962562591E+03  0.17242260811E+04  0.25500000920E-02 0.  1.
       -2    1    3    3    0  502  0.70845894471E+03 -0.13028047669E+04 -0.15475988788E+04  0.21434263754E+04  0.25500000920E-02 0. -1.
</event>
<event>
 5   0  0.5522695E-06  0.2993925E+04  0.7818609E-02  0.8245468E-01
       -1   -1    0    0    0  501  0.00000000000E+00  0.00000000000E+00  0.20674081209E+04  0.20674081209E+04  0.50400001928E-02 0.  1.
        1   -1    0    0  501    0  0.00000000000E+00  0.00000000000E+00 -0.10839160053E+04  0.10839160053E+04  0.50400001928E-02 0. -1.
    10030    2    1    2    0    0  0.00000000000E+00  0.00000000000E+00  0.98349211557E+03  0.31513241262E+04  0.29939250170E+04 0.  0.
        3    1    3    3  502    0 -0.20360450825E+03 -0.14528113474E+04  0.80537237690E+03  0.16735412402E+04  0.10100000352E+00 0.  1.
       -3    1    3    3    0  502  0.20360450825E+03  0.14528113474E+04  0.17811973867E+03  0.14777828861E+04  0.10100000352E+00 0. -1.
</event>
<event>
 5   0  0.1423692E-05  0.2990144E+04  0.7818609E-02  0.8246551E-01
       -2   -1    0    0    0  501  0.00000000000E+00  0.00000000000E+00  0.21420580068E+04  0.21420580068E+04  0.25500000920E-02 0. -1.
        2   -1    0    0  501    0  0.00000000000E+00  0.00000000000E+00 -0.10435010157E+04  0.10435010157E+04  0.25500000920E-02 0.  1.
    10030    2    1    2    0    0  0.00000000000E+00  0.00000000000E+00  0.10985569911E+04  0.31855590225E+04  0.29901436124E+04 0.  0.
        3    1    3    3  502    0 -0.95081104230E+03  0.33163003306E+03 -0.62803056923E+03  0.11867782114E+04  0.10100000352E+00 0.  1.
       -3    1    3    3    0  502  0.95081104230E+03 -0.33163003306E+03  0.17265875603E+04  0.19987808111E+04  0.10100000352E+00 0. -1.
</event>
<event>
 5   0  0.1523029E-05  0.3045993E+04  0.7818609E-02  0.8230718E-01
        2   -1    0    0  501    0  0.00000000000E+00  0.00000000000E+00  0.15701256335E+04  0.15701256335E+04  0.25500000920E-02 0.  1.
       -2   -1    0    0    0  501  0.00000000000E+00  0.00000000000E+00 -0.14772819579E+04  0.14772819579E+04  0.25500000920E-02 0. -1.
    10030    2    1    2    0    0  0.00000000000E+00  0.00000000000E+00  0.92843675604E+02  0.30474075915E+04  0.30459929548E+04 0.  0.
        5    1    3    3  502    0  0.28264219255E+03  0.35226613662E+03  0.15015794229E+04  0.15680372742E+04  0.46999998093E+01 0.  1.
       -5    1    3    3    0  502 -0.28264219255E+03 -0.35226613662E+03 -0.14087357473E+04  0.14793703173E+04  0.46999998093E+01 0. -1.
</event>
<event>
 5   0  0.1480547E-05  0.2775137E+04  0.7818609E-02  0.8311029E-01
       -2   -1    0    0    0  501  0.00000000000E+00  0.00000000000E+00  0.88133757476E+03  0.88133757477E+03  0.25500000920E-02 0.  1.
        2   -1    0    0  501    0  0.00000000000E+00  0.00000000000E+00 -0.21845725389E+04  0.21845725389E+04  0.25500000920E-02 0. -1.
    10030    2    1    2    0    0  0.00000000000E+00  0.00000000000E+00 -0.13032349641E+04  0.30659101137E+04  0.27751366549E+04 0.  0.
        1    1    3    3  502    0 -0.76463238972E+03  0.61999466202E+03  0.42874577128E+03  0.10737220351E+04  0.50400001928E-02 0.  1.
       -1    1    3    3    0  502  0.76463238972E+03 -0.61999466202E+03 -0.17319807354E+04  0.19921880785E+04  0.50400001928E-02 0. -1.
</event>
<event>
 5   0  0.5522695E-06  0.3053133E+04  0.7818609E-02  0.8228719E-01
       -1   -1    0    0    0  501  0.00000000000E+00  0.00000000000E+00  0.70607548431E+03  0.70607548433E+03  0.50400001928E-02 0. -1.
        1   -1    0    0  501    0  0.00000000000E+00  0.00000000000E+00 -0.33005041866E+04  0.33005041866E+04  0.50400001928E-02 0.  1.
    10030    2    1    2    0    0  0.00000000000E+00  0.00000000000E+00 -0.25944287023E+04  0.40065796710E+04  0.30531328776E+04 0.  0.
        3    1    3    3  502    0  0.43201474905E+03  0.43670806622E+03  0.53672617523E+03  0.81573627839E+03  0.10100000352E+00 0. -1.
       -3    1    3    3    0  502 -0.43201474905E+03 -0.43670806622E+03 -0.31311548775E+04  0.31908433926E+04  0.10100000352E+00 0.  1.
</event>
<event>
 5   0  0.5329891E-06  0.2543823E+04  0.7818609E-02  0.8387537E-01
        1   -1    0    0  501    0  0.00000000000E+00  0.00000000000E+00  0.13690655720E+04  0.13690655720E+04  0.50400001928E-02 0. -1.
       -1   -1    0    0    0  501  0.00000000000E+00  0.00000000000E+00 -0.11816522051E+04  0.11816522051E+04  0.50400001928E-02 0.  1.
    10030    2    1    2    0    0  0.00000000000E+00  0.00000000000E+00  0.18741336683E+03  0.25507177771E+04  0.25438233839E+04 0.  0.
        4    1    3    3  502    0 -0.92018106877E+03 -0.13527203724E+03 -0.77624256445E+03  0.12114395797E+04  0.12699999809E+01 0.  1.
       -4    1    3    3    0  502  0.92018106877E+03  0.13527203724E+03  0.96365593128E+03  0.13392781975E+04  0.12699999809E+01 0. -1.
</event>
<event>
 5   0  0.5522695E-06  0.2986275E+04  0.7818609E-02  0.8247661E-01
       -1   -1    0    0    0  501  0.00000000000E+00  0.00000000000E+00  0.83835610036E+03  0.83835610037E+03  0.50400001928E-02 0. -1.
        1   -1    0    0  501    0  0.00000000000E+00  0.00000000000E+00 -0.26593222795E+04  0.26593222795E+04  0.50400001928E-02 0.  1.
    10030    2    1    2    0    0  0.00000000000E+00  0.00000000000E+00 -0.18209661792E+04  0.34976783799E+04  0.29862746397E+04 0.  0.
        3    1    3    3  502    0  0.85680924354E+03 -0.36617201174E+03  0.45604912494E+03  0.10373932892E+04  0.10100000352E+00 0. -1.
       -3    1    3    3    0  502 -0.85680924354E+03  0.36617201174E+03 -0.22770153041E+04  0.24602850906E+04  0.10100000352E+00 0.  1.
</event>
<event>
 5   0  0.1388724E-05  0.2882381E+04  0.7818609E-02  0.8278139E-01
       -2   -1    0    0    0  501  0.00000000000E+00  0.00000000000E+00  0.13263040379E+04  0.13263040379E+04  0.25500000920E-02 0.  1.
        2   -1    0    0  501    0  0.00000000000E+00  0.00000000000E+00 -0.15660287057E+04  0.15660287057E+04  0.25500000920E-02 0. -1.
    10030    2    1    2    0    0  0.00000000000E+00  0.00000000000E+00 -0.23972466778E+03  0.28923327436E+04  0.28823810961E+04 0.  0.
        4    1    3    3  502    0  0.44217613934E+03 -0.13401567334E+04 -0.41325644935E+03  0.14704837008E+04  0.12699999809E+01 0. -1.
       -4    1    3    3    0  502 -0.44217613934E+03  0.13401567334E+04  0.17353178156E+03  0.14218490428E+04  0.12699999809E+01 0.  1.
</event>
<event>
 5   0  0.1523029E-05  0.3027614E+04  0.7818609E-02  0.8235889E-01
       -2   -1    0    0    0  501  0.00000000000E+00  0.00000000000E+00  0.15228770655E+04  0.15228770655E+04  0.25500000920E-02 0.  1.
        2   -1    0    0  501    0  0.00000000000E+00  0.00000000000E+00 -0.15047909859E+04  0.15047909859E+04  0.25500000920E-02 0. -1.
    10030    2    1    2    0    0  0.00000000000E+00  0.00000000000E+00  0.18086079542E+02  0.30276680514E+04  0.30276140314E+04 0.  0.
        5    1    3    3  502    0  0.47850475889E+03 -0.32409237651E+03 -0.13901198438E+04  0.15054759855E+04  0.46999998093E+01 0. -1.
       -5    1    3    3    0  502 -0.47850475889E+03  0.32409237651E+03  0.14082059234E+04  0.15221920659E+04  0.46999998093E+01 0.  1.
</event>
<event>
 5   0  0.1345931E-05  0.2927395E+04  0.7818609E-02  0.8264773E-01
        2   -1    0    0  501    0  0.00000000000E+00  0.00000000000E+00  0.16355786940E+04  0.16355786940E+04  0.25500000920E-02 0.  1.
       -2   -1    0    0    0  501  0.00000000000E+00  0.00000000000E+00 -0.13098789834E+04  0.13098789834E+04  0.25500000920E-02 0. -1.
    10030    2    1    2    0    0  0.00000000000E+00  0.00000000000E+00  0.32569971061E+03  0.29454576774E+04  0.29273948534E+04 0.  0.
        2    1    3    3  502    0  0.57794309065E+03 -0.20653109704E+03 -0.11741595790E+04  0.13248864204E+04  0.25500000920E-02 0. -1.
       -2    1    3    3    0  502 -0.57794309065E+03  0.20653109704E+03  0.14998592896E+04  0.16205712569E+04  0.25500000920E-02 0.  1.
</event>
<event>
 5   0  0.1423692E-05  0.2988966E+04  0.7818609E-02  0.8246889E-01
       -2   -1    0    0    0  501  0.00000000000E+00  0.00000000000E+00  0.11696010590E+04  0.11696010590E+04  0.25500000920E-02 0. -1.
        2   -1    0    0  501    0  0.00000000000E+00  0.00000000000E+00 -0.19096076965E+04  0.19096076965E+04  0.25500000920E-02 0.  1.
    10030    2    1    2    0    0  0.00000000000E+00  0.00000000000E+00 -0.74000663750E+03  0.30792087555E+04  0.29889658305E+04 0.  0.
        3    1    3    3  502    0 -0.90763605316E+03 -0.98737807681E+03  0.30926791567E+03  0.13763594463E+04  0.10100000352E+00 0.  1.
       -3    1    3    3    0  502  0.90763605316E+03  0.98737807681E+03 -0.10492745532E+04  0.17028493092E+04  0.10100000352E+00 0. -1.
</event>
<event>
 5   0  0.1345931E-05  0.3089970E+04  0.7818609E-02  0.8218496E-01
       -2   -1    0    0    0  501  0.00000000000E+00  0.00000000000E+00  0.12091533278E+04  0.12091533278E+04  0.25500000920E-02 0.  1.
        2   -1    0    0  501    0  0.00000000000E+00  0.00000000000E+00 -0.19740906631E+04  0.19740906631E+04  0.25500000920E-02 0. -1.
    10030    2    1    2    0    0  0.00000000000E+00  0.00000000000E+00 -0.76493733526E+03  0.31832439909E+04  0.30899697699E+04 0.  0.
        2    1    3    3  502    0  0.83454333825E+01 -0.32254834566E+03  0.11740574173E+04  0.12175869171E+04  0.25500000920E-02 0.  1.
       -2    1    3    3    0  502 -0.83454333825E+01  0.32254834566E+03 -0.19389947525E+04  0.19656570738E+04  0.25500000920E-02 0. -1.
</event>
<event>
 5   0  0.1423692E-05  0.1773736E+04  0.7818609E-02  0.8720392E-01
        2   -1    0    0  501    0  0.00000000000E+00  0.00000000000E+00  0.63963031729E+03  0.63963031729E+03  0.25500000920E-02 0.  1.
       -2   -1    0    0    0  501  0.00000000000E+00  0.00000000000E+00 -0.12296708729E+04  0.12296708729E+04  0.25500000920E-02 0. -1.
    10030    2    1    2    0    0  0.00000000000E+00  0.00000000000E+00 -0.59004055561E+03  0.18693011902E+04  0.17737359111E+04 0.  0.
        3    1    3    3  502    0  0.43567555033E+03 -0.56562430079E+03 -0.84947500521E+03  0.11096629351E+04  0.10100000352E+00 0. -1.
       -3    1    3    3    0  502 -0.43567555033E+03  0.56562430079E+03  0.25943444960E+03  0.75963825512E+03  0.10100000352E+00 0.  1.
</event>
<event>
 5   0  0.1423692E-05  0.2525011E+04  0.7818609E-02  0.8394129E-01
        2   -1    0    0  501    0  0.00000000000E+00  0.00000000000E+00  0.30663820902E+04  0.30663820902E+04  0.25500000920E-02 0.  1.
       -2   -1    0    0    0  501  0.00000000000E+00  0.00000000000E+00 -0.51980493881E+03  0.51980493881E+03  0.25500000920E-02 0. -1.
    10030    2    1    2    0    0  0.00000000000E+00  0.00000000000E+00  0.25465771514E+04  0.35861870290E+04  0.25250113305E+04 0.  0.
        3    1    3    3  502    0  0.22620992070E+03  0.53023212113E+03  0.28685470088E+04  0.29258979788E+04  0.10100000352E+00 0.  1.
       -3    1    3    3    0  502 -0.22620992070E+03 -0.53023212113E+03 -0.32196985743E+03  0.66028905019E+03  0.10100000352E+00 0. -1.
</event>
<event>
 5   0  0.1345931E-05  0.3007391E+04  0.7818609E-02  0.8241623E-01
       -2   -1    0    0    0  501  0.00000000000E+00  0.00000000000E+00  0.16325222388E+04  0.16325222388E+04  0.25500000920E-02 0. -1.
        2   -1    0    0  501    0  0.00000000000E+00  0.00000000000E+00 -0.13850352871E+04  0.13850352871E+04  0.25500000920E-02 0.  1.
    10030    2    1    2    0    0  0.00000000000E+00  0.00000000000E+00  0.24748695169E+03  0.30175575258E+04  0.30073914994E+04 0.  0.
        2    1    3    3  502    0  0.26592310144E+03 -0.10624488223E+04 -0.91007348851E+03  0.14239895892E+04  0.25500000920E-02 0.  1.
       -2    1    3    3    0  502 -0.26592310144E+03  0.10624488223E+04  0.11575604402E+04  0.15935679366E+04  0.25500000920E-02 0. -1.
</event>
<event>
 5   0  0.5522695E-06  0.2922235E+04  0.7818609E-02  0.8266292E-01
       -1   -1    0    0    0  501  0.00000000000E+00  0.00000000000E+00  0.19082067933E+04  0.19082067933E+04  0.50400001928E-02 0. -1.
        1   -1    0    0  501    0  0.00000000000E+00  0.00000000000E+00 -0.11187806665E+04  0.11187806666E+04  0.50400001928E-02 0.  1.
    10030    2    1    2    0    0  0.00000000000E+00  0.00000000000E+00  0.78942612672E+03  0.30269874598E+04  0.29222353554E+04 0.  0.
        3    1    3    3  502    0 -0.24616362312E+03 -0.13324011518E+04 -0.17167387675E+03  0.13657822992E+04  0.10100000352E+00 0.  1.
       -3    1    3    3    0  502  0.24616362312E+03  0.13324011518E+04  0.96110000347E+03  0.16612051606E+04  0.10100000352E+00 0. -1.
</event>
<event>
 5   0  0.5392262E-06  0.2797730E+04  0.7818609E-02  0.8303973E-01
        1   -1    0    0  501    0  0.00000000000E+00  0.00000000000E+00  0.13123952047E+04  0.13123952047E+04  0.50400001928E-02 0.  1.
       -1   -1    0    0    0  501  0.00000000000E+00  0.00000000000E+00 -0.14910324608E+04  0.14910324609E+04  0.50400001928E-02 0. -1.
    10030    2    1    2    0    0  0.00000000000E+00  0.00000000000E+00 -0.17863725612E+03  0.28034276656E+04  0.27977304028E+04 0.  0.
        2    1    3    3  502    0 -0.10187848583E+04  0.71767498925E+03 -0.72609984151E+03  0.14422901780E+04  0.25500000920E-02 0. -1.
       -2    1    3    3    0  502  0.10187848583E+04 -0.71767498925E+03  0.54746258540E+03  0.13611374876E+04  0.25500000920E-02 0.  1.
</event>
<event>
 5   0  0.5392262E-06  0.1852624E+04  0.7818609E-02  0.8678805E-01
       -1   -1    0    0    0  501  0.00000000000E+00  0.00000000000E+00  0.87296225497E+03  0.87296225498E+03  0.50400001928E-02 0. -1.
        1   -1    0    0  501    0  0.00000000000E+00  0.00000000000E+00 -0.98292212075E+03  0.98292212077E+03  0.50400001928E-02 0.  1.
    10030    2    1    2    0    0  0.00000000000E+00  0.00000000000E+00 -0.10995986578E+03  0.18558843758E+04  0.18526239889E+04 0.  0.
        2    1    3    3  502    0  0.29892638464E+03 -0.66045785486E+03  0.52265634484E+03  0.89371763790E+03  0.25500000920E-02 0. -1.
       -2    1    3    3    0  502 -0.29892638464E+03  0.66045785486E+03 -0.63261621062E+03  0.96216673785E+03  0.25500000920E-02 0.  1.
</event>
<event>
 5   0  0.5522695E-06  0.1818507E+04  0.7818609E-02  0.8696519E-01
       -1   -1    0    0    0  501  0.00000000000E+00  0.00000000000E+00  0.13888404235E+04  0.13888404235E+04  0.50400001928E-02 0.  1.
        1   -1    0    0  501    0  0.00000000000E+00  0.00000000000E+00 -0.59527487373E+03  0.59527487375E+03  0.50400001928E-02 0. -1.
    10030    2    1    2    0    0  0.00000000000E+00  0.00000000000E+00  0.79356554975E+03  0.19841152972E+04  0.18185068685E+04 0.  0.
        3    1    3    3  502    0  0.42169295059E+03  0.22478420167E+03  0.12407852686E+04  0.13296243736E+04  0.10100000352E+00 0.  1.
       -3    1    3    3    0  502 -0.42169295059E+03 -0.22478420167E+03 -0.44721971889E+03  0.65449092359E+03  0.10100000352E+00 0. -1.
</event>
<event>
 5   0  0.1480547E-05  0.3057249E+04  0.7818609E-02  0.8227569E-01
        2   -1    0    0  501    0  0.00000000000E+00  0.00000000000E+00  0.18804868280E+04  0.18804868280E+04  0.25500000920E-02 0. -1.
       -2   -1    0    0    0  501  0.00000000000E+00  0.00000000000E+00 -0.12426001079E+04  0.12426001079E+04  0.25500000920E-02 0.  1.
    10030    2    1    2    0    0  0.00000000000E+00  0.00000000000E+00  0.63788672018E+03  0.31230869359E+04  0.30572491788E+04 0.  0.
        1    1    3    3  502    0 -0.39357349919E+03 -0.51983629016E+03  0.17313104030E+04  0.18500177241E+04  0.50400001928E-02 0. -1.
       -1    1    3    3    0  502  0.39357349919E+03  0.51983629016E+03 -0.10934236828E+04  0.12730692118E+04  0.50400001928E-02 0.  1.
</event>
<event>
 5   0  0.5522695E-06  0.2990452E+04  0.7818609E-02  0.8246463E-01
       -1   -1    0    0    0  501  0.00000000000E+00  0.00000000000E+00  0.14672199499E+04  0.14672199499E+04  0.50400001928E-02 0. -1.
        1   -1    0    0  501    0  0.00000000000E+00  0.00000000000E+00 -0.15237670698E+04  0.15237670698E+04  0.50400001928E-02 0.  1.
    10030    2    1    2    0    0  0.00000000000E+00  0.00000000000E+00 -0.56547119888E+02  0.29909870197E+04  0.29904524366E+04 0.  0.
        3    1    3    3  502    0  0.46318042495E+03  0.38520131705E+03  0.13404685280E+04  0.14696162919E+04  0.10100000352E+00 0. -1.
       -3    1    3    3    0  502 -0.46318042495E+03 -0.38520131705E+03 -0.13970156479E+04  0.15213707278E+04  0.10100000352E+00 0.  1.
</event>
<event>
 5   0  0.1423692E-05  0.1834004E+04  0.7818609E-02  0.8688422E-01
        2   -1    0    0  501    0  0.00000000000E+00  0.00000000000E+00  0.19525499089E+04  0.19525499089E+04  0.25500000920E-02 0. -1.
       -2   -1    0    0    0  501  0.00000000000E+00  0.00000000000E+00 -0.43066402293E+03  0.43066402294E+03  0.25500000920E-02 0.  1.
    10030    2    1    2    0    0  0.00000000000E+00  0.00000000000E+00  0.15218858860E+04  0.23832139319E+04  0.18340043607E+04 0.  0.
        3    1    3    3  502    0 -0.27357371038E+03  0.86803621452E+03  0.90659571181E+03  0.12846187137E+04  0.10100000352E+00 0. -1.
       -3    1    3    3    0  502  0.27357371038E+03 -0.86803621452E+03  0.61529017416E+03  0.10985952181E+04  0.10100000352E+00 0.  1.
</event>
<event>
 5   0  0.5730920E-06  0.2549944E+04  0.7818609E-02  0.8385406E-01
        1   -1    0    0  501    0  0.00000000000E+00  0.00000000000E+00  0.18535000663E+04  0.18535000664E+04  0.50400001928E-02 0.  1.
       -1   -1    0    0    0  501  0.00000000000E+00  0.00000000000E+00 -0.87701866137E+03  0.87701866138E+03  0.50400001928E-02 0. -1.
    10030    2    1    2    0    0  0.00000000000E+00  0.00000000000E+00  0.97648140498E+03  0.27305187277E+04  0.25499444285E+04 0.  0.
        1    1    3    3  502    0  0.71367418373E+03  0.86347239859E+03  0.11401539995E+04  0.15983949969E+04  0.50400001928E-02 0.  1.
       -1    1    3    3    0  502 -0.71367418373E+03 -0.86347239859E+03 -0.16367259449E+03  0.11321237308E+04  0.50400001928E-02 0. -1.
</event>
<event>
 5   0  0.1388724E-05  0.2446961E+04  0.7818609E-02  0.8422128E-01
        2   -1    0    0  501    0  0.00000000000E+00  0.00000000000E+00  0.19481950135E+04  0.19481950135E+04  0.25500000920E-02 0. -1.
       -2   -1    0    0    0  501  0.00000000000E+00  0.00000000000E+00 -0.76835469836E+03  0.76835469836E+03  0.25500000920E-02 0.  1.
    10030    2    1    2    0    0  0.00000000000E+00  0.00000000000E+00  0.11798403151E+04  0.27165497118E+04  0.24469612109E+04 0.  0.
        4    1    3    3  502    0  0.70663743896E+03 -0.76774612261E+03 -0.11931656603E+03  0.10502421791E+04  0.12699999809E+01 0.  1.
       -4    1    3    3    0  502 -0.70663743896E+03  0.76774612261E+03  0.12991568811E+04  0.16663075327E+04  0.12699999809E+01 0. -1.
</event>
<event>
 5   0  0.1388724E-05  0.2978289E+04  0.7818609E-02  0.8249958E-01
       -2   -1    0    0    0  501  0.00000000000E+00  0.00000000000E+00  0.18347605047E+04  0.18347605047E+04  0.25500000920E-02 0.  1.
        2   -1    0    0  501    0  0.00000000000E+00  0.00000000000E+00 -0.12086325633E+04  0.12086325633E+04  0.25500000920E-02 0. -1.
    10030    2    1    2    0    0  0.00000000000E+00  0.00000000000E+00  0.62612794144E+03  0.30433930680E+04  0.29782889664E+04 0.  0.
        4    1    3    3  502    0  0.13615161024E+03  0.30476976419E+03 -0.11699101620E+04  0.12165990589E+04  0.12699999809E+01 0. -1.
       -4    1    3    3    0  502 -0.13615161024E+03 -0.30476976419E+03  0.17960381034E+04  0.18267940091E+04  0.12699999809E+01 0.  1.
</event>
<event>
 5   0  0.7032692E-06  0.3021957E+04  0.7818609E-02  0.8237488E-01
        1   -1    0    0  501    0  0.00000000000E+00  0.00000000000E+00  0.16805305322E+04  0.16805305322E+04  0.50400001928E-02 0.  1.
       -1   -1    0    0    0  501  0.00000000000E+00  0.00000000000E+00 -0.13585332623E+04  0.13585332623E+04  0.50400001928E-02 0. -1.
    10030    2    1    2    0    0  0.00000000000E+00  0.00000000000E+00  0.32199726986E+03  0.30390637945E+04  0.30219573964E+04 0.  0.
        5    1    3    3  502    0  0.49620080710E+03 -0.13480959399E+04  0.63211244414E+03  0.15694477169E+04  0.46999998093E+01 0.  1.
       -5    1    3    3    0  502 -0.49620080710E+03  0.13480959399E+04 -0.31011517428E+03  0.14696160776E+04  0.46999998093E+01 0. -1.
</event>
<event>
 5   0  0.5522695E-06  0.1521966E+04  0.7818609E-02  0.8869976E-01
        1   -1    0    0  501    0  0.00000000000E+00  0.00000000000E+00  0.91845394317E+03  0.91845394318E+03  0.50400001928E-02 0. -1.
       -1   -1    0    0    0  501  0.00000000000E+00  0.00000000000E+00 -0.63051079089E+03  0.63051079091E+03  0.50400001928E-02 0.  1.
    10030    2    1    2    0    0  0.00000000000E+00  0.00000000000E+00  0.28794315228E+03  0.15489647341E+04  0.15219659945E+04 0.  0.
        3    1    3    3  502    0  0.49921949809E+03  0.37151194537E+03 -0.30180975158E+03  0.69161432112E+03  0.10100000352E+00 0.  1.
       -3    1    3    3    0  502 -0.49921949809E+03 -0.37151194537E+03  0.58975290386E+03  0.85735041298E+03  0.10100000352E+00 0. -1.
</event>
<event>
 5   0  0.5392262E-06  0.2951742E+04  0.7818609E-02  0.8257647E-01
       -1   -1    0    0    0  501  0.00000000000E+00  0.00000000000E+00  0.11045987208E+04  0.11045987208E+04  0.50400001928E-02 0.  1.
        1   -1    0    0  501    0  0.00000000000E+00  0.00000000000E+00 -0.19719330179E+04  0.19719330179E+04  0.50400001928E-02 0. -1.
    10030    2    1    2    0    0  0.00000000000E+00  0.00000000000E+00 -0.86733429711E+03  0.30765317387E+04  0.29517416480E+04 0.  0.
        2    1    3    3  502    0 -0.59446806399E+03 -0.32586635921E+03 -0.18000492658E+04  0.19234756360E+04  0.25500000920E-02 0. -1.
       -2    1    3    3    0  502  0.59446806399E+03  0.32586635921E+03  0.93271496866E+03  0.11530561027E+04  0.25500000920E-02 0.  1.
</event>
<event>
 5   0  0.1388724E-05  0.2441234E+04  0.7818609E-02  0.8424226E-01
       -2   -1    0    0    0  501  0.00000000000E+00  0.00000000000E+00  0.63166577658E+03  0.63166577658E+03  0.25500000920E-02 0.  1.
        2   -1    0    0  501    0  0.00000000000E+00  0.00000000000E+00 -0.23586923923E+04  0.23586923923E+04  0.25500000920E-02 0. -1.
    10030    2    1    2    0    0  0.00000000000E+00  0.00000000000E+00 -0.17270266157E+04  0.29903581689E+04  0.24412335093E+04 0.  0.
        4    1    3    3  502    0 -0.38286823104E+03  0.62932498751E+03  0.32868849828E+03  0.80664475703E+03  0.12699999809E+01 0.  1.
       -4    1    3    3    0  502  0.38286823104E+03 -0.62932498751E+03 -0.20557151140E+04  0.21837134118E+04  0.12699999809E+01 0. -1.
</event>
<event>
 5   0  0.5522695E-06  0.2783993E+04  0.7818609E-02  0.8308255E-01
       -1   -1    0    0    0  501  0.00000000000E+00  0.00000000000E+00  0.17119339057E+04  0.17119339058E+04  0.50400001928E-02 0.  1.
        1   -1    0    0  501    0  0.00000000000E+00  0.00000000000E+00 -0.11318511413E+04  0.11318511413E+04  0.50400001928E-02 0. -1.
    10030    2    1    2    0    0  0.00000000000E+00  0.00000000000E+00  0.58008276448E+03  0.28437850470E+04  0.27839930639E+04 0.  0.
        3    1    3    3  502    0  0.57722809332E+03  0.10224288553E+04  0.10538312063E+04  0.15776923837E+04  0.10100000352E+00 0.  1.
       -3    1    3    3    0  502 -0.57722809332E+03 -0.10224288553E+04 -0.47374844183E+03  0.12660926634E+04  0.10100000352E+00 0. -1.
</event>
<event>
 5   0  0.1345931E-05  0.3012610E+04  0.7818609E-02  0.8240139E-01
        2   -1    0    0  501    0  0.00000000000E+00  0.00000000000E+00  0.24099829756E+04  0.24099829756E+04  0.25500000920E-02 0. -1.
       -2   -1    0    0    0  501  0.00000000000E+00  0.00000000000E+00 -0.94148191323E+03  0.94148191323E+03  0.25500000920E-02 0.  1.
    10030    2    1    2    0    0  0.00000000000E+00  0.00000000000E+00  0.14685010623E+04  0.33514648888E+04  0.30126104180E+04 0.  0.
        2    1    3    3  502    0  0.60224490151E+03  0.42381088338E+03 -0.72756542938E+03  0.10352130410E+04  0.25500000920E-02 0.  1.
       -2    1    3    3    0  502 -0.60224490151E+03 -0.42381088338E+03  0.21960664917E+04  0.23162518478E+04  0.25500000920E-02 0. -1.
</event>
<event>
 5   0  0.1388724E-05  0.2945858E+04  0.7818609E-02  0.8259363E-01
        2   -1    0    0  501    0  0.00000000000E+00  0.00000000000E+00  0.20701310494E+04  0.20701310494E+04  0.25500000920E-02 0. -1.
       -2   -1    0    0    0  501  0.00000000000E+00  0.00000000000E+00 -0.10480106774E+04  0.10480106774E+04  0.25500000920E-02 0.  1.
    10030    2    1    2    0    0  0.00000000000E+00  0.00000000000E+00  0.10221203721E+04  0.31181417268E+04  0.29458577313E+04 0.  0.
        4    1    3    3  502    0 -0.88285801592E+03  0.77259577787E+03 -0.43162933123E+03  0.12500592005E+04  0.12699999809E+01 0.  1.
       -4    1    3    3    0  502  0.88285801592E+03 -0.77259577787E+03  0.14537497033E+04  0.18680825263E+04  0.12699999809E+01 0. -1.
</event>
<event>
 5   0  0.7032692E-06  0.2747670E+04  0.7818609E-02  0.8319701E-01
       -1   -1    0    0    0  501  0.00000000000E+00  0.00000000000E+00  0.12860974498E+04  0.12860974498E+04  0.50400001928E-02 0. -1.
        1   -1    0    0  501    0  0.00000000000E+00  0.00000000000E+00 -0.14675576145E+04  0.14675576145E+04  0.50400001928E-02 0.  1.
    10030    2    1    2    0    0  0.00000000000E+00  0.00000000000E+00 -0.18146016476E+03  0.27536550643E+04  0.27476696348E+04 0.  0.
        5    1    3    3  502    0  0.66679120522E+03  0.10708694853E+04 -0.63599989546E+03  0.14127596834E+04  0.46999998093E+01 0.  1.
       -5    1    3    3    0  502 -0.66679120522E+03 -0.10708694853E+04  0.45453973070E+03  0.13408953810E+04  0.46999998093E+01 0. -1.
</event>
<event>
 5   0  0.5392262E-06  0.2928701E+04  0.7818609E-02  0.8264389E-01
       -1   -1    0    0    0  501  0.00000000000E+00  0.00000000000E+00  0.12985884649E+04  0.12985884649E+04  0.50400001928E-02 0.  1.
        1   -1    0    0  501    0  0.00000000000E+00  0.00000000000E+00 -0.16512719340E+04  0.16512719340E+04  0.50400001928E-02 0. -1.
    10030    2    1    2    0    0  0.00000000000E+00  0.00000000000E+00 -0.35268346906E+03  0.29498603989E+04  0.29287012042E+04 0.  0.
        2    1    3    3  502    0 -0.93269093517E+03 -0.99535330006E+03 -0.71280794711E+03  0.15390697651E+04  0.25500000920E-02 0. -1.
       -2    1    3    3    0  502  0.93269093517E+03  0.99535330006E+03  0.36012447805E+03  0.14107906337E+04  0.25500000920E-02 0.  1.
</event>
<event>
 5   0  0.1345931E-05  0.3005615E+04  0.7818609E-02  0.8242129E-01
       -2   -1    0    0    0  501  0.00000000000E+00  0.00000000000E+00  0.15389668590E+04  0.15389668590E+04  0.25500000920E-02 0.  1.
        2   -1    0    0  501    0  0.00000000000E+00  0.00000000000E+00 -0.14674973162E+04  0.14674973162E+04  0.25500000920E-02 0. -1.
    10030    2    1    2    0    0  0.00000000000E+00  0.00000000000E+00  0.71469542811E+02  0.30064641752E+04  0.30056145696E+04 0.  0.
        2    1    3    3  502    0 -0.96898287497E+03 -0.18925705869E+03  0.11690526953E+04  0.15301732747E+04  0.25500000920E-02 0.  1.
       -2    1    3    3    0  502  0.96898287497E+03  0.18925705869E+03 -0.10975831525E+04  0.14762909005E+04  0.25500000920E-02 0. -1.
</event>
<event>
 5   0  0.1423692E-05  0.1982832E+04  0.7818609E-02  0.8614690E-01
       -2   -1    0    0    0  501  0.00000000000E+00  0.00000000000E+00  0.45812560056E+03  0.45812560057E+03  0.25500000920E-02 0.  1.
        2   -1    0    0  501    0  0.00000000000E+00  0.00000000000E+00 -0.21454931854E+04  0.21454931854E+04  0.25500000920E-02 0. -1.
    10030    2    1    2    0    0  0.00000000000E+00  0.00000000000E+00 -0.16873675848E+04  0.26036187859E+04  0.19828316661E+04 0.  0.
        3    1    3    3  502    0 -0.36067584169E+03 -0.62421795127E+03 -0.17373222893E+04  0.18809635457E+04  0.10100000352E+00 0. -1.
       -3    1    3    3    0  502  0.36067584169E+03  0.62421795127E+03  0.49954704460E+02  0.72265524018E+03  0.10100000352E+00 0.  1.
</event>
<event>
 5   0  0.1523029E-05  0.2996056E+04  0.7818609E-02  0.8244858E-01
        2   -1    0    0  501    0  0.00000000000E+00  0.00000000000E+00  0.24169209596E+04  0.24169209596E+04  0.25500000920E-02 0. -1.
       -2   -1    0    0    0  501  0.00000000000E+00  0.00000000000E+00 -0.92849025415E+03  0.92849025415E+03  0.25500000920E-02 0.  1.
    10030    2    1    2    0    0  0.00000000000E+00  0.00000000000E+00  0.14884307055E+04  0.33454112138E+04  0.29960557779E+04 0.  0.
        5    1    3    3  502    0  0.73576221696E+03 -0.54995229332E+03 -0.57709793033E+03  0.10848307131E+04  0.46999998093E+01 0.  1.
       -5    1    3    3    0  502 -0.73576221696E+03  0.54995229332E+03  0.20655286358E+04  0.22605805007E+04  0.46999998093E+01 0. -1.
</event>
<event>
 5   0  0.5392262E-06  0.2919322E+04  0.7818609E-02  0.8267152E-01
       -1   -1    0    0    0  501  0.00000000000E+00  0.00000000000E+00  0.16711678573E+04  0.16711678573E+04  0.50400001928E-02 0.  1.
        1   -1    0    0  501    0  0.00000000000E+00  0.00000000000E+00 -0.12749227174E+04  0.12749227174E+04  0.50400001928E-02 0. -1.
    10030    2    1    2    0    0  0.00000000000E+00  0.00000000000E+00  0.39624513991E+03  0.29460905747E+04  0.29193217471E+04 0.  0.
        2    1    3    3  502    0  0.92436337698E+03 -0.10975506363E+04  0.46805384816E+03  0.15093506739E+04  0.25500000920E-02 0. -1.
       -2    1    3    3    0  502 -0.92436337698E+03  0.10975506363E+04 -0.71808708251E+02  0.14367399008E+04  0.25500000920E-02 0.  1.
</event>
<event>
 5   0  0.1345931E-05  0.3012658E+04  0.7818609E-02  0.8240125E-01
       -2   -1    0    0    0  501  0.00000000000E+00  0.00000000000E+00  0.11081782394E+04  0.11081782394E+04  0.25500000920E-02 0.  1.
        2   -1    0    0  501    0  0.00000000000E+00  0.00000000000E+00 -0.20475294582E+04  0.20475294582E+04  0.25500000920E-02 0. -1.
    10030    2    1    2    0    0  0.00000000000E+00  0.00000000000E+00 -0.93935121881E+03  0.31557076975E+04  0.30126583544E+04 0.  0.
        2    1    3    3  502    0  0.78263457865E+03 -0.12431490286E+04 -0.12054597597E+03  0.14739293481E+04  0.25500000920E-02 0.  1.
       -2    1    3    3    0  502 -0.78263457865E+03  0.12431490286E+04 -0.81880524284E+03  0.16817783494E+04  0.25500000920E-02 0. -1.
</event>
<event>
 5   0  0.5392262E-06  0.1833618E+04  0.7818609E-02  0.8688623E-01
       -1   -1    0    0    0  501  0.00000000000E+00  0.00000000000E+00  0.63392999836E+03  0.63392999838E+03  0.50400001928E-02 0. -1.
        1   -1    0    0  501    0  0.00000000000E+00  0.00000000000E+00 -0.13259172699E+04  0.13259172699E+04  0.50400001928E-02 0.  1.
    10030    2    1    2    0    0  0.00000000000E+00  0.00000000000E+00 -0.69198727154E+03  0.19598472683E+04  0.18336179894E+04 0.  0.
        2    1    3    3  502    0  0.30809382640E+02  0.38721077956E+03  0.54163242375E+03  0.66651863314E+03  0.25500000920E-02 0. -1.
       -2    1    3    3    0  502 -0.30809382640E+02 -0.38721077956E+03 -0.12336196953E+04  0.12933286351E+04  0.25500000920E-02 0.  1.
</event>
<event>
 5   0  0.1523029E-05  0.2957093E+04  0.7818609E-02  0.8256091E-01
       -2   -1    0    0    0  501  0.00000000000E+00  0.00000000000E+00  0.16160151147E+04  0.16160151147E+04  0.25500000920E-02 0.  1.
        2   -1    0    0  501    0  0.00000000000E+00  0.00000000000E+00 -0.13527714030E+04  0.13527714030E+04  0.25500000920E-02 0. -1.
    10030    2    1    2    0    0  0.00000000000E+00  0.00000000000E+00  0.26324371171E+03  0.29687865178E+04  0.29570925140E+04 0.  0.
        5    1    3    3  502    0  0.97177677816E+03  0.10651008906E+04 -0.19722028523E+03  0.14552346699E+04  0.46999998093E+01 0. -1.
       -5    1    3    3    0  502 -0.97177677816E+03 -0.10651008906E+04  0.46046399694E+03  0.15135518478E+04  0.46999998093E+01 0.  1.
</event>
<event>
 5   0  0.5730920E-06  0.1730022E+04  0.7818609E-02  0.8744424E-01
        1   -1    0    0  501    0  0.00000000000E+00  0.00000000000E+00  0.49937332535E+03  0.49937332538E+03  0.50400001928E-02 0.  1.
       -1   -1    0    0    0  501  0.00000000000E+00  0.00000000000E+00 -0.14983666966E+04  0.14983666967E+04  0.50400001928E-02 0. -1.
    10030    2    1    2    0    0  0.00000000000E+00  0.00000000000E+00 -0.99899337129E+03  0.19977400220E+04  0.17300223813E+04 0.  0.
        1    1    3    3  502    0  0.61251636581E+02 -0.60238205161E+03 -0.12128548342E+04  0.13555931351E+04  0.50400001928E-02 0. -1.
       -1    1    3    3    0  502 -0.61251636581E+02  0.60238205161E+03  0.21386146288E+03  0.64214688694E+03  0.50400001928E-02 0.  1.
</event>
<event>
 5   0  0.5392262E-06  0.2943618E+04  0.7818609E-02  0.8260017E-01
        1   -1    0    0  501    0  0.00000000000E+00  0.00000000000E+00  0.16873475610E+04  0.16873475610E+04  0.50400001928E-02 0.  1.
       -1   -1    0    0    0  501  0.00000000000E+00  0.00000000000E+00 -0.12838028177E+04  0.12838028177E+04  0.50400001928E-02 0. -1.
    10030    2    1    2    0    0  0.00000000000E+00  0.00000000000E+00  0.40354474330E+03  0.29711503787E+04  0.29436178782E+04 0.  0.
        2    1    3    3  502    0 -0.19553913033E+03  0.40015583677E+03 -0.12141532635E+04  0.12932626928E+04  0.25500000920E-02 0. -1.
       -2    1    3    3    0  502  0.19553913033E+03 -0.40015583677E+03  0.16176980068E+04  0.16778876859E+04  0.25500000920E-02 0.  1.
</event>
<event>
 5   0  0.5730920E-06  0.2951593E+04  0.7818609E-02  0.8257691E-01
       -1   -1    0    0    0  501  0.00000000000E+00  0.00000000000E+00  0.18643259859E+04  0.18643259859E+04  0.50400001928E-02 0. -1.
        1   -1    0    0  501    0  0.00000000000E+00  0.00000000000E+00 -0.11682371486E+04  0.11682371486E+04  0.50400001928E-02 0.  1.
    10030    2    1    2    0    0  0.00000000000E+00  0.00000000000E+00  0.69608883734E+03  0.30325631345E+04  0.29515927048E+04 0.  0.
        1    1    3    3  502    0 -0.23783815676E+03  0.75884427750E+03  0.16253558939E+04  0.18094732405E+04  0.50400001928E-02 0. -1.
       -1    1    3    3    0  502  0.23783815676E+03 -0.75884427750E+03 -0.92926705654E+03  0.12230898940E+04  0.50400001928E-02 0.  1.
</event>
<event>
 5   0  0.1523029E-05  0.2547735E+04  0.7818609E-02  0.8386174E-01
       -2   -1    0    0    0  501  0.00000000000E+00  0.00000000000E+00  0.84074025983E+03  0.84074025983E+03  0.25500000920E-02 0.  1.
        2   -1    0    0  501    0  0.00000000000E+00  0.00000000000E+00 -0.19301304179E+04  0.19301304179E+04  0.25500000920E-02 0. -1.
    10030    2    1    2    0    0  0.00000000000E+00  0.00000000000E+00 -0.10893901581E+04  0.27708706777E+04  0.25477349541E+04 0.  0.
        5    1    3    3  502    0  0.57023375306E+03  0.66223335091E+03 -0.15526886515E+04  0.17817361428E+04  0.46999998093E+01 0. -1.
       -5    1    3    3    0  502 -0.57023375306E+03 -0.66223335091E+03  0.46329849340E+03  0.98913453492E+03  0.46999998093E+01 0.  1.
</event>
<event>
 5   0  0.7032692E-06  0.3055440E+04  0.7818609E-02  0.8228075E-01
       -1   -1    0    0    0  501  0.00000000000E+00  0.00000000000E+00  0.22198922516E+04  0.22198922516E+04  0.50400001928E-02 0.  1.
        1   -1    0    0  501    0  0.00000000000E+00  0.00000000000E+00 -0.10513700261E+04  0.10513700261E+04  0.50400001928E-02 0. -1.
    10030    2    1    2    0    0  0.00000000000E+00  0.00000000000E+00  0.11685222255E+04  0.32712622778E+04  0.30554398535E+04 0.  0.
        5    1    3    3  502    0  0.32759377278E+03  0.57213413357E+03  0.20597393269E+04  0.21626842884E+04  0.46999998093E+01 0.  1.
       -5    1    3    3    0  502 -0.32759377278E+03 -0.57213413357E+03 -0.89121710134E+03  0.11085779894E+04  0.46999998093E+01 0. -1.
</event>
<event>
 5   0  0.5522695E-06  0.2954092E+04  0.7818609E-02  0.8256963E-01
       -1   -1    0    0    0  501  0.00000000000E+00  0.00000000000E+00  0.14561952482E+04  0.14561952482E+04  0.50400001928E-02 0.  1.
        1   -1    0    0  501    0  0.00000000000E+00  0.00000000000E+00 -0.14981957732E+04  0.14981957732E+04  0.50400001928E-02 0. -1.
    10030    2    1    2    0    0  0.00000000000E+00  0.00000000000E+00 -0.42000525012E+02  0.29543910214E+04  0.29540924601E+04 0.  0.
        3    1    3    3  502    0  0.49741358905E+02  0.95369565119E+03  0.11059037313E+04  0.14611750994E+04  0.10100000352E+00 0.  1.
       -3    1    3    3    0  502 -0.49741358905E+02 -0.95369565119E+03 -0.11479042563E+04  0.14932159220E+04  0.10100000352E+00 0. -1.
</event>
<event>
 5   0  0.1480547E-05  0.3049640E+04  0.7818609E-02  0.8229696E-01
       -2   -1    0    0    0  501  0.00000000000E+00  0.00000000000E+00  0.97149152028E+03  0.97149152028E+03  0.25500000920E-02 0. -1.
        2   -1    0    0  501    0  0.00000000000E+00  0.00000000000E+00 -0.23933048341E+04  0.23933048341E+04  0.25500000920E-02 0.  1.
    10030    2    1    2    0    0  0.00000000000E+00  0.00000000000E+00 -0.14218133138E+04  0.33647963544E+04  0.30496395536E+04 0.  0.
        1    1    3    3  502    0 -0.11011797096E+04 -0.35142514972E+03  0.38633882152E+03  0.12187510302E+04  0.50400001928E-02 0. -1.
       -1    1    3    3    0  502  0.11011797096E+04  0.35142514972E+03 -0.18081521353E+04  0.21460453241E+04  0.50400001928E-02 0.  1.
</event>
<event>
 5   0  0.5730920E-06  0.3010636E+04  0.7818609E-02  0.8240700E-01
        1   -1    0    0  501    0  0.00000000000E+00  0.00000000000E+00  0.71650389975E+03  0.71650389976E+03  0.50400001928E-02 0. -1.
       -1   -1    0    0    0  501  0.00000000000E+00  0.00000000000E+00 -0.31625536798E+04  0.31625536798E+04  0.50400001928E-02 0.  1.
    10030    2    1    2    0    0  0.00000000000E+00  0.00000000000E+00 -0.24460497801E+04  0.38790575796E+04  0.30106358430E+04 0.  0.
        1    1    3    3  502    0 -0.57579818091E+03 -0.51137947244E+03  0.44348088366E+03  0.88866630642E+03  0.50400001928E-02 0. -1.
       -1    1    3    3    0  502  0.57579818091E+03  0.51137947244E+03 -0.28895306637E+04  0.29903912732E+04  0.50400001928E-02 0.  1.
</event>
<event>
 5   0  0.1423692E-05  0.3035816E+04  0.7818609E-02  0.8233577E-01
       -2   -1    0    0    0  501  0.00000000000E+00  0.00000000000E+00  0.94263281226E+03  0.94263281226E+03  0.25500000920E-02 0.  1.
        2   -1    0    0  501    0  0.00000000000E+00  0.00000000000E+00 -0.24442655178E+04  0.24442655178E+04  0.25500000920E-02 0. -1.
    10030    2    1    2    0    0  0.00000000000E+00  0.00000000000E+00 -0.15016327055E+04  0.33868983300E+04  0.30358161202E+04 0.  0.
        3    1    3    3  502    0  0.11160905035E+04 -0.69429339630E+03  0.96152443894E+02  0.13179327126E+04  0.10100000352E+00 0.  1.
       -3    1    3    3    0  502 -0.11160905035E+04  0.69429339630E+03 -0.15977851494E+04  0.20689656174E+04  0.10100000352E+00 0. -1.
</event>
<event>
 5   0  0.5730920E-06  0.3034475E+04  0.7818609E-02  0.8233954E-01
        1   -1    0    0  501    0  0.00000000000E+00  0.00000000000E+00  0.18894305349E+04  0.18894305349E+04  0.50400001928E-02 0. -1.
       -1   -1    0    0    0  501  0.00000000000E+00  0.00000000000E+00 -0.12183616407E+04  0.12183616407E+04  0.50400001928E-02 0.  1.
    10030    2    1    2    0    0  0.00000000000E+00  0.00000000000E+00  0.67106889423E+03  0.31077921756E+04  0.30344750363E+04 0.  0.
        1    1    3    3  502    0  0.10519372918E+04  0.10780363840E+04  0.52235668767E+03  0.15942368144E+04  0.50400001928E-02 0.  1.
       -1    1    3    3    0  502 -0.10519372918E+04 -0.10780363840E+04  0.14871220656E+03  0.15135553612E+04  0.50400001928E-02 0. -1.
</event>
<event>
 5   0  0.5730920E-06  0.3017071E+04  0.7818609E-02  0.8238873E-01
       -1   -1    0    0    0  501  0.00000000000E+00  0.00000000000E+00  0.95044720641E+03  0.95044720643E+03  0.50400001928E-02 0.  1.
        1   -1    0    0  501    0  0.00000000000E+00  0.00000000000E+00 -0.23943245967E+04  0.23943245967E+04  0.50400001928E-02 0. -1.
    10030    2    1    2    0    0  0.00000000000E+00  0.00000000000E+00 -0.14438773903E+04  0.33447718031E+04  0.30170708472E+04 0.  0.
        1    1    3    3  502    0 -0.34044606538E+03  0.13857784269E+04 -0.17951657627E+03  0.14382320999E+04  0.50400001928E-02 0.  1.
       -1    1    3    3    0  502  0.34044606538E+03 -0.13857784269E+04 -0.12643608140E+04  0.19065397032E+04  0.50400001928E-02 0. -1.
</event>
<event>
 5   0  0.1480547E-05  0.2884663E+04  0.7818609E-02  0.8277455E-01
       -2   -1    0    0    0  501  0.00000000000E+00  0.00000000000E+00  0.12383106848E+04  0.12383106848E+04  0.25500000920E-02 0.  1.
        2   -1    0    0  501    0  0.00000000000E+00  0.00000000000E+00 -0.16799661597E+04  0.16799661597E+04  0.25500000920E-02 0. -1.
    10030    2    1    2    0    0  0.00000000000E+00  0.00000000000E+00 -0.44165547490E+03  0.29182768445E+04  0.28846629236E+04 0.  0.
        1    1    3    3  502    0  0.33854536033E+03  0.13947844481E+04 -0.76748269824E+02  0.14373332649E+04  0.50400001928E-02 0. -1.
       -1    1    3    3    0  502 -0.33854536033E+03 -0.13947844481E+04 -0.36490720507E+03  0.14809435796E+04  0.50400001928E-02 0.  1.
</event>
<event>
 5   0  0.5730920E-06  0.2922775E+04  0.7818609E-02  0.8266133E-01
        1   -1    0    0  501    0  0.00000000000E+00  0.00000000000E+00  0.25234318715E+04  0.25234318715E+04  0.50400001928E-02 0. -1.
       -1   -1    0    0    0  501  0.00000000000E+00  0.00000000000E+00 -0.84632896835E+03  0.84632896837E+03  0.50400001928E-02 0.  1.
    10030    2    1    2    0    0  0.00000000000E+00  0.00000000000E+00  0.16771029031E+04  0.33697608399E+04  0.29227750461E+04 0.  0.
        1    1    3    3  502    0  0.88733166227E+03  0.92718086693E+03  0.16444761898E+04  0.20859826887E+04  0.50400001928E-02 0.  1.
       -1    1    3    3    0  502 -0.88733166227E+03 -0.92718086693E+03  0.32626713343E+02  0.12837781511E+04  0.50400001928E-02 0. -1.
</event>
<event>
 5   0  0.5730920E-06  0.1628612E+04  0.7818609E-02  0.8803161E-01
        1   -1    0    0  501    0  0.00000000000E+00  0.00000000000E+00  0.12915318806E+04  0.12915318806E+04  0.50400001928E-02 0.  1.
       -1   -1    0    0    0  501  0.00000000000E+00  0.00000000000E+00 -0.51341711783E+03  0.51341711785E+03  0.50400001928E-02 0. -1.
    10030    2    1    2    0    0  0.00000000000E+00  0.00000000000E+00  0.77811476275E+03  0.18049489984E+04  0.16286123857E+04 0.  0.
        1    1    3    3  502    0 -0.54882223494E+03  0.25677491157E+03  0.99197825161E+03  0.11623941038E+04  0.50400001928E-02 0.  1.
       -1    1    3    3    0  502  0.54882223494E+03 -0.25677491157E+03 -0.21386348886E+03  0.64255489467E+03  0.50400001928E-02 0. -1.
</event>
<event>
 5   0  0.1423692E-05  0.3056459E+04  0.7818609E-02  0.8227790E-01
        2   -1    0    0  501    0  0.00000000000E+00  0.00000000000E+00  0.14466446247E+04  0.14466446247E+04  0.25500000920E-02 0.  1.
       -2   -1    0    0    0  501  0.00000000000E+00  0.00000000000E+00 -0.16144151467E+04  0.16144151468E+04  0.25500000920E-02 0. -1.
    10030    2    1    2    0    0  0.00000000000E+00  0.00000000000E+00 -0.16777052208E+03  0.30610597714E+04  0.30564587313E+04 0.  0.
        3    1    3    3  502    0  0.86454962698E+03  0.12579358431E+04 -0.15907384490E+03  0.15346508206E+04  0.10100000352E+00 0.  1.
       -3    1    3    3    0  502 -0.86454962698E+03 -0.12579358431E+04 -0.86966771847E+01  0.15264089508E+04  0.10100000352E+00 0. -1.
</event>
<event>
 5   0  0.1523029E-05  0.2928346E+04  0.7818609E-02  0.8264493E-01
       -2   -1    0    0    0  501  0.00000000000E+00  0.00000000000E+00  0.95834435652E+03  0.95834435653E+03  0.25500000920E-02 0. -1.
        2   -1    0    0  501    0  0.00000000000E+00  0.00000000000E+00 -0.22369855160E+04  0.22369855160E+04  0.25500000920E-02 0.  1.
    10030    2    1    2    0    0  0.00000000000E+00  0.00000000000E+00 -0.12786411595E+04  0.31953298725E+04  0.29283459119E+04 0.  0.
        5    1    3    3  502    0  0.42904870875E+03  0.18538499069E+03  0.87474925881E+03  0.99179571740E+03  0.46999998093E+01 0. -1.
       -5    1    3    3    0  502 -0.42904870875E+03 -0.18538499069E+03 -0.21533904183E+04  0.22035341551E+04  0.46999998093E+01 0.  1.
</event>
<event>
 5   0  0.1345931E-05  0.3010567E+04  0.7818609E-02  0.8240720E-01
        2   -1    0    0  501    0  0.00000000000E+00  0.00000000000E+00  0.18777650922E+04  0.18777650922E+04  0.25500000920E-02 0. -1.
       -2   -1    0    0    0  501  0.00000000000E+00  0.00000000000E+00 -0.12066891903E+04  0.12066891903E+04  0.25500000920E-02 0.  1.
    10030    2    1    2    0    0  0.00000000000E+00  0.00000000000E+00  0.67107590188E+03  0.30844542824E+04  0.30105672812E+04 0.  0.
        2    1    3    3  502    0 -0.80071594982E+03  0.50762937454E+03  0.15334403679E+04  0.18028513461E+04  0.25500000920E-02 0. -1.
       -2    1    3    3    0  502  0.80071594982E+03 -0.50762937454E+03 -0.86236446603E+03  0.12816029364E+04  0.25500000920E-02 0.  1.
</event>
<event>
 5   0  0.1345931E-05  0.2925956E+04  0.7818609E-02  0.8265197E-01
       -2   -1    0    0    0  501  0.00000000000E+00  0.00000000000E+00  0.93029596945E+03  0.93029596945E+03  0.25500000920E-02 0.  1.
        2   -1    0    0  501    0  0.00000000000E+00  0.00000000000E+00 -0.23006703386E+04  0.23006703386E+04  0.25500000920E-02 0. -1.
    10030    2    1    2    0    0  0.00000000000E+00  0.00000000000E+00 -0.13703743692E+04  0.32309663081E+04  0.29259558049E+04 0.  0.
        2    1    3    3  502    0 -0.56576743785E+03  0.89211971323E+02 -0.21717184701E+04  0.22459769997E+04  0.25500000920E-02 0. -1.
       -2    1    3    3    0  502  0.56576743785E+03 -0.89211971323E+02  0.80134410095E+03  0.98498930841E+03  0.25500000920E-02 0.  1.
</event>
<event>
 5   0  0.1423692E-05  0.2930337E+04  0.7818609E-02  0.8263908E-01
        2   -1    0    0  501    0  0.00000000000E+00  0.00000000000E+00  0.21929157975E+04  0.21929157975E+04  0.25500000920E-02 0. -1.
       -2   -1    0    0    0  501  0.00000000000E+00  0.00000000000E+00 -0.97893318663E+03  0.97893318663E+03  0.25500000920E-02 0.  1.
    10030    2    1    2    0    0  0.00000000000E+00  0.00000000000E+00  0.12139826109E+04  0.31718489841E+04  0.29303365333E+04 0.  0.
        3    1    3    3  502    0 -0.83549360916E+03  0.11697701972E+04  0.91373060160E+03  0.17033248391E+04  0.10100000352E+00 0. -1.
       -3    1    3    3    0  502  0.83549360916E+03 -0.11697701972E+04  0.30025200926E+03  0.14685241450E+04  0.10100000352E+00 0.  1.
</event>
<event>
 5   0  0.5392262E-06  0.2050136E+04  0.7818609E-02  0.8583532E-01
       -1   -1    0    0    0  501  0.00000000000E+00  0.00000000000E+00  0.46753904459E+03  0.46753904461E+03  0.50400001928E-02 0. -1.
        1   -1    0    0  501    0  0.00000000000E+00  0.00000000000E+00 -0.22474375291E+04  0.22474375291E+04  0.50400001928E-02 0.  1.
    10030    2    1    2    0    0  0.00000000000E+00  0.00000000000E+00 -0.17798984845E+04  0.27149765737E+04  0.20501363810E+04 0.  0.
        2    1    3    3  502    0 -0.31797077490E+03 -0.21652703963E+03  0.36831889049E+03  0.53258631008E+03  0.25500000920E-02 0. -1.
       -2    1    3    3    0  502  0.31797077490E+03  0.21652703963E+03 -0.21482173750E+04  0.21823902636E+04  0.25500000920E-02 0.  1.
</event>
<event>
 5   0  0.1480547E-05  0.1579974E+04  0.7818609E-02  0.8832946E-01
       -2   -1    0    0    0  501  0.00000000000E+00  0.00000000000E+00  0.55416182227E+03  0.55416182227E+03  0.25500000920E-02 0.  1.
        2   -1    0    0  501    0  0.00000000000E+00  0.00000000000E+00 -0.11261678465E+04  0.11261678465E+04  0.25500000920E-02 0. -1.
    10030    2    1    2    0    0  0.00000000000E+00  0.00000000000E+00 -0.57200602428E+03  0.16803296688E+04  0.15799737036E+04 0.  0.
        1    1    3    3  502    0 -0.14675162432E+03  0.70425885136E+03 -0.63317698327E+03  0.95834735933E+03  0.50400001928E-02 0. -1.
       -1    1    3    3    0  502  0.14675162432E+03 -0.70425885136E+03  0.61170958997E+02  0.72198230949E+03  0.50400001928E-02 0.  1.
</event>
<event>
 5   0  0.5522695E-06  0.2924794E+04  0.7818609E-02  0.8265538E-01
       -1   -1    0    0    0  501  0.00000000000E+00  0.00000000000E+00  0.81071443536E+03  0.81071443537E+03  0.50400001928E-02 0. -1.
        1   -1    0    0  501    0  0.00000000000E+00  0.00000000000E+00 -0.26379267619E+04  0.26379267619E+04  0.50400001928E-02 0.  1.
    10030    2    1    2    0    0  0.00000000000E+00  0.00000000000E+00 -0.18272123265E+04  0.34486411973E+04  0.29247942186E+04 0.  0.
        3    1    3    3  502    0 -0.12185874245E+04 -0.48802363973E+02  0.37946152716E+02  0.12201544585E+04  0.10100000352E+00 0. -1.
       -3    1    3    3    0  502  0.12185874245E+04  0.48802363973E+02 -0.18651584792E+04  0.22284867388E+04  0.10100000352E+00 0.  1.
</event>
<event>
 5   0  0.5522695E-06  0.2937971E+04  0.7818609E-02  0.8261669E-01
        1   -1    0    0  501    0  0.00000000000E+00  0.00000000000E+00  0.12644064725E+04  0.12644064725E+04  0.50400001928E-02 0.  1.
       -1   -1    0    0    0  501  0.00000000000E+00  0.00000000000E+00 -0.17066653371E+04  0.17066653371E+04  0.50400001928E-02 0. -1.
    10030    2    1    2    0    0  0.00000000000E+00  0.00000000000E+00 -0.44225886466E+03  0.29710718096E+04  0.29379712038E+04 0.  0.
        3    1    3    3  502    0 -0.46296028186E+03 -0.28890269325E+03 -0.16003581569E+04  0.16908409829E+04  0.10100000352E+00 0. -1.
       -3    1    3    3    0  502  0.46296028186E+03  0.28890269325E+03  0.11580992923E+04  0.12802308267E+04  0.10100000352E+00 0.  1.
</event>
<event>
 5   0  0.5329891E-06  0.1757494E+04  0.7818609E-02  0.8729236E-01
        1   -1    0    0  501    0  0.00000000000E+00  0.00000000000E+00  0.55115967359E+03  0.55115967361E+03  0.50400001928E-02 0.  1.
       -1   -1    0    0    0  501  0.00000000000E+00  0.00000000000E+00 -0.14010389673E+04  0.14010389673E+04  0.50400001928E-02 0. -1.
    10030    2    1    2    0    0  0.00000000000E+00  0.00000000000E+00 -0.84987929370E+03  0.19521986409E+04  0.17574938747E+04 0.  0.
        4    1    3    3  502    0  0.21546718786E+02  0.79346489601E+03 -0.61517779754E+01  0.79378224946E+03  0.12699999809E+01 0.  1.
       -4    1    3    3    0  502 -0.21546718786E+02 -0.79346489601E+03 -0.84372751572E+03  0.11584163914E+04  0.12699999809E+01 0. -1.
</event>
<event>
 5   0  0.1388724E-05  0.2864251E+04  0.7818609E-02  0.8283594E-01
       -2   -1    0    0    0  501  0.00000000000E+00  0.00000000000E+00  0.12052754821E+04  0.12052754821E+04  0.25500000920E-02 0. -1.
        2   -1    0    0  501    0  0.00000000000E+00  0.00000000000E+00 -0.17016718897E+04  0.17016718897E+04  0.25500000920E-02 0.  1.
    10030    2    1    2    0    0  0.00000000000E+00  0.00000000000E+00 -0.49639640758E+03  0.29069473718E+04  0.28642509717E+04 0.  0.
        4    1    3    3  502    0 -0.11467125395E+04 -0.24004203543E+03 -0.10841338604E+04  0.15962198054E+04  0.12699999809E+01 0.  1.
       -4    1    3    3    0  502  0.11467125395E+04  0.24004203543E+03  0.58773745284E+03  0.13107275664E+04  0.12699999809E+01 0. -1.
</event>
<event>
 5   0  0.5522695E-06  0.2798809E+04  0.7818609E-02  0.8303638E-01
       -1   -1    0    0    0  501  0.00000000000E+00  0.00000000000E+00  0.10601300700E+04  0.10601300700E+04  0.50400001928E-02 0.  1.
        1   -1    0    0  501    0  0.00000000000E+00  0.00000000000E+00 -0.18472575586E+04  0.18472575586E+04  0.50400001928E-02 0. -1.
    10030    2    1    2    0    0  0.00000000000E+00  0.00000000000E+00 -0.78712748862E+03  0.29073876287E+04  0.27988092361E+04 0.  0.
        3    1    3    3  502    0 -0.46445933697E+03 -0.91127081813E+03 -0.13857056458E+04  0.17222999525E+04  0.10100000352E+00 0. -1.
       -3    1    3    3    0  502  0.46445933697E+03  0.91127081813E+03  0.59857815713E+03  0.11850876761E+04  0.10100000352E+00 0.  1.
</event>
<event>
 5   0  0.1523029E-05  0.2145503E+04  0.7818609E-02  0.8541460E-01
       -2   -1    0    0    0  501  0.00000000000E+00  0.00000000000E+00  0.12587188725E+04  0.12587188725E+04  0.25500000920E-02 0. -1.
        2   -1    0    0  501    0  0.00000000000E+00  0.00000000000E+00 -0.91425933419E+03  0.91425933419E+03  0.25500000920E-02 0.  1.
    10030    2    1    2    0    0  0.00000000000E+00  0.00000000000E+00  0.34445953827E+03  0.21729782066E+04  0.21455027180E+04 0.  0.
        5    1    3    3  502    0  0.99554899081E+03  0.13087164884E+03 -0.21013398068E+03  0.10258769719E+04  0.46999998093E+01 0.  1.
       -5    1    3    3    0  502 -0.99554899081E+03 -0.13087164884E+03  0.55459351895E+03  0.11471012348E+04  0.46999998093E+01 0. -1.
</event>
<event>
 5   0  0.5522695E-06  0.1827040E+04  0.7818609E-02  0.8692051E-01
        1   -1    0    0  501    0  0.00000000000E+00  0.00000000000E+00  0.17755947093E+04  0.17755947093E+04  0.50400001928E-02 0. -1.
       -1   -1    0    0    0  501  0.00000000000E+00  0.00000000000E+00 -0.46999386427E+03  0.46999386430E+03  0.50400001928E-02 0.  1.
    10030    2    1    2    0    0  0.00000000000E+00  0.00000000000E+00  0.13056008450E+04  0.22455885736E+04  0.18270398122E+04 0.  0.
        3    1    3    3  502    0  0.27959178860E+03  0.86369904481E+03  0.52763265566E+03  0.10500208749E+04  0.10100000352E+00 0.  1.
       -3    1    3    3    0  502 -0.27959178860E+03 -0.86369904481E+03  0.77796818937E+03  0.11955676987E+04  0.10100000352E+00 0. -1.
</event>
<event>
 5   0  0.1480547E-05  0.2950478E+04  0.7818609E-02  0.8258015E-01
        2   -1    0    0  501    0  0.00000000000E+00  0.00000000000E+00  0.19831546005E+04  0.19831546005E+04  0.25500000920E-02 0.  1.
       -2   -1    0    0    0  501  0.00000000000E+00  0.00000000000E+00 -0.10974083304E+04  0.10974083304E+04  0.25500000920E-02 0. -1.
    10030    2    1    2    0    0  0.00000000000E+00  0.00000000000E+00  0.88574627006E+03  0.30805629309E+04  0.29504781844E+04 0.  0.
        1    1    3    3  502    0  0.73693550722E+03  0.10893620558E+04 -0.25483075302E+03  0.13396724760E+04  0.50400001928E-02 0.  1.
       -1    1    3    3    0  502 -0.73693550722E+03 -0.10893620558E+04  0.11405770231E+04  0.17408904549E+04  0.50400001928E-02 0. -1.
</event>
<event>
 5   0  0.5522695E-06  0.1611613E+04  0.7818609E-02  0.8813445E-01
       -1   -1    0    0    0  501  0.00000000000E+00  0.00000000000E+00  0.29463152959E+03  0.29463152963E+03  0.50400001928E-02 0.  1.
        1   -1    0    0  501    0  0.00000000000E+00  0.00000000000E+00 -0.22038526654E+04  0.22038526654E+04  0.50400001928E-02 0. -1.
    10030    2    1    2    0    0  0.00000000000E+00  0.00000000000E+00 -0.19092211358E+04  0.24984841950E+04  0.16116134547E+04 0.  0.
        3    1    3    3  502    0 -0.45754762063E+03 -0.36738669443E+03 -0.18107940124E+04  0.19034961975E+04  0.10100000352E+00 0. -1.
       -3    1    3    3    0  502  0.45754762063E+03  0.36738669443E+03 -0.98427123430E+02  0.59498799754E+03  0.10100000352E+00 0.  1.
</event>
<event>
 5   0  0.1523029E-05  0.3078982E+04  0.7818609E-02  0.8221530E-01
       -2   -1    0    0    0  501  0.00000000000E+00  0.00000000000E+00  0.25958495644E+04  0.25958495644E+04  0.25500000920E-02 0. -1.
        2   -1    0    0  501    0  0.00000000000E+00  0.00000000000E+00 -0.91300830996E+03  0.91300830996E+03  0.25500000920E-02 0.  1.
    10030    2    1    2    0    0  0.00000000000E+00  0.00000000000E+00  0.16828412544E+04  0.35088578743E+04  0.30789817951E+04 0.  0.
        5    1    3    3  502    0 -0.35272079781E+03 -0.12400380986E+04  0.18002597446E+04  0.22142862699E+04  0.46999998093E+01 0.  1.
       -5    1    3    3    0  502  0.35272079781E+03  0.12400380986E+04 -0.11741849019E+03  0.12945716044E+04  0.46999998093E+01 0. -1.
</event>
<event>
 5   0  0.1423692E-05  0.2963510E+04  0.7818609E-02  0.8254228E-01
        2   -1    0    0  501    0  0.00000000000E+00  0.00000000000E+00  0.22790868765E+04  0.22790868765E+04  0.25500000920E-02 0.  1.
       -2   -1    0    0    0  501  0.00000000000E+00  0.00000000000E+00 -0.96336725657E+03  0.96336725658E+03  0.25500000920E-02 0. -1.
    10030    2    1    2    0    0  0.00000000000E+00  0.00000000000E+00  0.13157196199E+04  0.32424541331E+04  0.29635098594E+04 0.  0.
        3    1    3    3  502    0 -0.51365629408E+03  0.37376734285E+03 -0.80682059425E+03  0.10268905962E+04  0.10100000352E+00 0. -1.
       -3    1    3    3    0  502  0.51365629408E+03 -0.37376734285E+03  0.21225402142E+04  0.22155635369E+04  0.10100000352E+00 0.  1.
</event>
<event>
 5   0  0.1423692E-05  0.3033824E+04  0.7818609E-02  0.8234138E-01
       -2   -1    0    0    0  501  0.00000000000E+00  0.00000000000E+00  0.12925033487E+04  0.12925033487E+04  0.25500000920E-02 0. -1.
        2   -1    0    0  501    0  0.00000000000E+00  0.00000000000E+00 -0.17802835081E+04  0.17802835081E+04  0.25500000920E-02 0.  1.
    10030    2    1    2    0    0  0.00000000000E+00  0.00000000000E+00 -0.48778015938E+03  0.30727868568E+04  0.30338242506E+04 0.  0.
        3    1    3    3  502    0 -0.10136401983E+04  0.11284540311E+04 -0.25618825540E+03  0.15383456647E+04  0.10100000352E+00 0.  1.
       -3    1    3    3    0  502  0.10136401983E+04 -0.11284540311E+04 -0.23159190398E+03  0.15344411921E+04  0.10100000352E+00 0. -1.
</event>
<event>
 5   0  0.5730920E-06  0.1585168E+04  0.7818609E-02  0.8829712E-01
       -1   -1    0    0    0  501  0.00000000000E+00  0.00000000000E+00  0.89237856859E+03  0.89237856861E+03  0.50400001928E-02 0. -1.
        1   -1    0    0  501    0  0.00000000000E+00  0.00000000000E+00 -0.70394916137E+03  0.70394916139E+03  0.50400001928E-02 0.  1.
    10030    2    1    2    0    0  0.00000000000E+00  0.00000000000E+00  0.18842940722E+03  0.15963277300E+04  0.15851676820E+04 0.  0.
        1    1    3    3  502    0  0.56509244385E+03 -0.18571391055E+03 -0.43327644265E+03  0.73589917954E+03  0.50400001928E-02 0.  1.
       -1    1    3    3    0  502 -0.56509244385E+03  0.18571391055E+03  0.62170584987E+03  0.86042855046E+03  0.50400001928E-02 0. -1.
</event>
<event>
 5   0  0.5329891E-06  0.2976312E+04  0.7818609E-02  0.8250528E-01
       -1   -1    0    0    0  501  0.00000000000E+00  0.00000000000E+00  0.20585108656E+04  0.20585108656E+04  0.50400001928E-02 0. -1.
        1   -1    0    0  501    0  0.00000000000E+00  0.00000000000E+00 -0.10758301092E+04  0.10758301092E+04  0.50400001928E-02 0.  1.
    10030    2    1    2    0    0  0.00000000000E+00  0.00000000000E+00  0.98268075638E+03  0.31343409748E+04  0.29763117911E+04 0.  0.
        4    1    3    3  502    0  0.42236219329E+03 -0.45479422752E+02  0.19933029349E+04  0.20380668299E+04  0.12699999809E+01 0. -1.
       -4    1    3    3    0  502 -0.42236219329E+03  0.45479422752E+02 -0.10106221785E+04  0.10962741449E+04  0.12699999809E+01 0.  1.
</event>
<event>
 5   0  0.5730920E-06  0.2968970E+04  0.7818609E-02  0.8252648E-01
        1   -1    0    0  501    0  0.00000000000E+00  0.00000000000E+00  0.22786493818E+04  0.22786493818E+04  0.50400001928E-02 0.  1.
       -1   -1    0    0    0  501  0.00000000000E+00  0.00000000000E+00 -0.96710577596E+03  0.96710577597E+03  0.50400001928E-02 0. -1.
    10030    2    1    2    0    0  0.00000000000E+00  0.00000000000E+00  0.13115436058E+04  0.32457551578E+04  0.29689695038E+04 0.  0.
        1    1    3    3  502    0  0.89097925389E+03  0.11138681475E+04  0.11053904852E+04  0.18045593383E+04  0.50400001928E-02 0.  1.
       -1    1    3    3    0  502 -0.89097925389E+03 -0.11138681475E+04  0.20615312063E+03  0.14411958194E+04  0.50400001928E-02 0. -1.
</event>
<event>
 5   0  0.4806125E-06  0.2110760E+04  0.7818609E-02  0.8556518E-01
       -3   -1    0    0    0  501  0.00000000000E+00  0.00000000000E+00  0.61547230483E+03  0.61547231312E+03  0.10100000352E+00 0. -1.
        3   -1    0    0  501    0  0.00000000000E+00  0.00000000000E+00 -0.18097105692E+04  0.18097105721E+04  0.10100000352E+00 0.  1.
    10030    2    1    2    0    0  0.00000000000E+00  0.00000000000E+00 -0.11942382644E+04  0.24251828852E+04  0.21107598145E+04 0.  0.
        5    1    3    3  502    0  0.77110356259E+03  0.71279552312E+03 -0.71831418624E+03  0.12722717957E+04  0.46999998093E+01 0.  1.
       -5    1    3    3    0  502 -0.77110356259E+03 -0.71279552312E+03 -0.47592407818E+03  0.11529110895E+04  0.46999998093E+01 0. -1.
</event>
<event>
 5   0  0.5522695E-06  0.3110058E+04  0.7818609E-02  0.8212983E-01
        1   -1    0    0  501    0  0.00000000000E+00  0.00000000000E+00  0.22250179423E+04  0.22250179423E+04  0.50400001928E-02 0. -1.
       -1   -1    0    0    0  501  0.00000000000E+00  0.00000000000E+00 -0.10867845698E+04  0.10867845698E+04  0.50400001928E-02 0.  1.
    10030    2    1    2    0    0  0.00000000000E+00  0.00000000000E+00  0.11382333726E+04  0.33118025121E+04  0.31100579848E+04 0.  0.
        3    1    3    3  502    0 -0.12988569743E+04  0.58231650591E+02  0.14775029921E+04  0.19681045365E+04  0.10100000352E+00 0. -1.
       -3    1    3    3    0  502  0.12988569743E+04 -0.58231650591E+02 -0.33926961953E+03  0.13436979756E+04  0.10100000352E+00 0.  1.
</event>
<event>
 5   0  0.5329891E-06  0.2949888E+04  0.7818609E-02  0.8258187E-01
        1   -1    0    0  501    0  0.00000000000E+00  0.00000000000E+00  0.14093621843E+04  0.14093621843E+04  0.50400001928E-02 0.  1.
       -1   -1    0    0    0  501  0.00000000000E+00  0.00000000000E+00 -0.15435770580E+04  0.15435770580E+04  0.50400001928E-02 0. -1.
    10030    2    1    2    0    0  0.00000000000E+00  0.00000000000E+00 -0.13421487370E+03  0.29529392423E+04  0.29498875464E+04 0.  0.
        4    1    3    3  502    0 -0.10089193989E+03  0.58114198151E+03 -0.14203759035E+04  0.15379774076E+04  0.12699999809E+01 0. -1.
       -4    1    3    3    0  502  0.10089193989E+03 -0.58114198151E+03  0.12861610298E+04  0.14149618347E+04  0.12699999809E+01 0.  1.
</event>
<event>
 5   0  0.5392262E-06  0.3072959E+04  0.7818609E-02  0.8223199E-01
        1   -1    0    0  501    0  0.00000000000E+00  0.00000000000E+00  0.17877834346E+04  0.17877834346E+04  0.50400001928E-02 0.  1.
       -1   -1    0    0    0  501  0.00000000000E+00  0.00000000000E+00 -0.13205005539E+04  0.13205005539E+04  0.50400001928E-02 0. -1.
    10030    2    1    2    0    0  0.00000000000E+00  0.00000000000E+00  0.46728288067E+03  0.31082839885E+04  0.30729588449E+04 0.  0.
        2    1    3    3  502    0  0.11297991698E+04 -0.29079859898E+03  0.12450150433E+04  0.17061865218E+04  0.25500000920E-02 0.  1.
       -2    1    3    3    0  502 -0.11297991698E+04  0.29079859898E+03 -0.77773216260E+03  0.14020974666E+04  0.25500000920E-02 0. -1.
</event>
<event>
 5   0  0.1345931E-05  0.2999166E+04  0.7818609E-02  0.8243969E-01
       -2   -1    0    0    0  501  0.00000000000E+00  0.00000000000E+00  0.97837464723E+03  0.97837464723E+03  0.25500000920E-02 0. -1.
        2   -1    0    0  501    0  0.00000000000E+00  0.00000000000E+00 -0.22984543833E+04  0.22984543833E+04  0.25500000920E-02 0.  1.
    10030    2    1    2    0    0  0.00000000000E+00  0.00000000000E+00 -0.13200797361E+04  0.32768290306E+04  0.29991662151E+04 0.  0.
        2    1    3    3  502    0  0.83353416747E+01 -0.83959961336E+02 -0.22958590045E+04  0.22974088277E+04  0.25500000920E-02 0.  1.
       -2    1    3    3    0  502 -0.83353416747E+01  0.83959961336E+02  0.97577926843E+03  0.97942020284E+03  0.25500000920E-02 0. -1.
</event>
<event>
 5   0  0.7032692E-06  0.3023192E+04  0.7818609E-02  0.8237139E-01
        1   -1    0    0  501    0  0.00000000000E+00  0.00000000000E+00  0.14271670211E+04  0.14271670211E+04  0.50400001928E-02 0. -1.
       -1   -1    0    0    0  501  0.00000000000E+00  0.00000000000E+00 -0.16010191720E+04  0.16010191720E+04  0.50400001928E-02 0.  1.
    10030    2    1    2    0    0  0.00000000000E+00  0.00000000000E+00 -0.17385215089E+03  0.30281861931E+04  0.30231915338E+04 0.  0.
        5    1    3    3  502    0 -0.12349257047E+04 -0.48903709778E+03 -0.80971430854E+03  0.15555893194E+04  0.46999998093E+01 0.  1.
       -5    1    3    3    0  502  0.12349257047E+04  0.48903709778E+03  0.63586215765E+03  0.14725968738E+04  0.46999998093E+01 0. -1.
</event>
<event>
 5   0  0.5522695E-06  0.2995511E+04  0.7818609E-02  0.8245014E-01
       -1   -1    0    0    0  501  0.00000000000E+00  0.00000000000E+00  0.13831663063E+04  0.13831663063E+04  0.50400001928E-02 0.  1.
        1   -1    0    0  501    0  0.00000000000E+00  0.00000000000E+00 -0.16218377306E+04  0.16218377306E+04  0.50400001928E-02 0. -1.
    10030    2    1    2    0    0  0.00000000000E+00  0.00000000000E+00 -0.23867142432E+03  0.30050040369E+04  0.29955108434E+04 0.  0.
        3    1    3    3  502    0 -0.93610469104E+03  0.48967196351E+03 -0.11843974490E+04  0.15870941849E+04  0.10100000352E+00 0. -1.
       -3    1    3    3    0  502  0.93610469104E+03 -0.48967196351E+03  0.94572602466E+03  0.14179098520E+04  0.10100000352E+00 0.  1.
</event>
<event>
 5   0  0.1345931E-05  0.3037900E+04  0.7818609E-02  0.8232990E-01
       -2   -1    0    0    0  501  0.00000000000E+00  0.00000000000E+00  0.10662719345E+04  0.10662719345E+04  0.25500000920E-02 0. -1.
        2   -1    0    0  501    0  0.00000000000E+00  0.00000000000E+00 -0.21638088259E+04  0.21638088259E+04  0.25500000920E-02 0.  1.
    10030    2    1    2    0    0  0.00000000000E+00  0.00000000000E+00 -0.10975368914E+04  0.32300807604E+04  0.30378996841E+04 0.  0.
        2    1    3    3  502    0 -0.87977484646E+03  0.11560759615E+04 -0.77210963741E+02  0.14548116518E+04  0.25500000920E-02 0. -1.
       -2    1    3    3    0  502  0.87977484646E+03 -0.11560759615E+04 -0.10203259276E+04  0.17752691086E+04  0.25500000920E-02 0.  1.
</event>
<event>
 5   0  0.5392262E-06  0.3022393E+04  0.7818609E-02  0.8237365E-01
        1   -1    0    0  501    0  0.00000000000E+00  0.00000000000E+00  0.24435335153E+04  0.24435335153E+04  0.50400001928E-02 0.  1.
       -1   -1    0    0    0  501  0.00000000000E+00  0.00000000000E+00 -0.93459532294E+03  0.93459532295E+03  0.50400001928E-02 0. -1.
    10030    2    1    2    0    0  0.00000000000E+00  0.00000000000E+00  0.15089381923E+04  0.33781288382E+04  0.30223930881E+04 0.  0.
        2    1    3    3  502    0 -0.40708465243E+03  0.84828857082E+03 -0.56725718450E+03  0.10986774445E+04  0.25500000920E-02 0. -1.
       -2    1    3    3    0  502  0.40708465243E+03 -0.84828857082E+03  0.20761953768E+04  0.22794513937E+04  0.25500000920E-02 0.  1.
</event>
<event>
 5   0  0.7032692E-06  0.2941804E+04  0.7818609E-02  0.8260547E-01
       -1   -1    0    0    0  501  0.00000000000E+00  0.00000000000E+00  0.98187808975E+03  0.98187808976E+03  0.50400001928E-02 0. -1.
        1   -1    0    0  501    0  0.00000000000E+00  0.00000000000E+00 -0.22034845263E+04  0.22034845263E+04  0.50400001928E-02 0.  1.
    10030    2    1    2    0    0  0.00000000000E+00  0.00000000000E+00 -0.12216064366E+04  0.31853626161E+04  0.29418043290E+04 0.  0.
        5    1    3    3  502    0  0.82936242292E+03  0.10722067276E+04 -0.12290972465E+04  0.18298009253E+04  0.46999998093E+01 0. -1.
       -5    1    3    3    0  502 -0.82936242292E+03 -0.10722067276E+04  0.74908098850E+01  0.13555616907E+04  0.46999998093E+01 0.  1.
</event>
<event>
 5   0  0.1388724E-05  0.2942302E+04  0.7818609E-02  0.8260401E-01
       -2   -1    0    0    0  501  0.00000000000E+00  0.00000000000E+00  0.15449854479E+04  0.15449854479E+04  0.25500000920E-02 0.  1.
        2   -1    0    0  501    0  0.00000000000E+00  0.00000000000E+00 -0.14008455225E+04  0.14008455225E+04  0.25500000920E-02 0. -1.
    10030    2    1    2    0    0  0.00000000000E+00  0.00000000000E+00  0.14413992539E+03  0.29458309704E+04  0.29423024637E+04 0.  0.
        4    1    3    3  502    0  0.13037638857E+04 -0.27334829274E+03  0.69713009859E+03  0.15034997659E+04  0.12699999809E+01 0.  1.
       -4    1    3    3    0  502 -0.13037638857E+04  0.27334829274E+03 -0.55299017320E+03  0.14423312045E+04  0.12699999809E+01 0. -1.
</event>
<event>
 5   0  0.1345931E-05  0.3200466E+04  0.7818609E-02  0.8188694E-01
        2   -1    0    0  501    0  0.00000000000E+00  0.00000000000E+00  0.24942772847E+04  0.24942772847E+04  0.25500000920E-02 0. -1.
       -2   -1    0    0    0  501  0.00000000000E+00  0.00000000000E+00 -0.10266483660E+04  0.10266483660E+04  0.25500000920E-02 0.  1.
    10030    2    1    2    0    0  0.00000000000E+00  0.00000000000E+00  0.14676289187E+04  0.35209256507E+04  0.32004660277E+04 0.  0.
        2    1    3    3  502    0 -0.39584962097E+03  0.58229206468E+03 -0.84707700584E+03  0.11014991715E+04  0.25500000920E-02 0.  1.
       -2    1    3    3    0  502  0.39584962097E+03 -0.58229206468E+03  0.23147059245E+04  0.24194264792E+04  0.25500000920E-02 0. -1.
</event>
<event>
 5   0  0.1388724E-05  0.2981631E+04  0.7818609E-02  0.8248996E-01
        2   -1    0    0  501    0  0.00000000000E+00  0.00000000000E+00  0.16570564596E+04  0.16570564596E+04  0.25500000920E-02 0. -1.
       -2   -1    0    0    0  501  0.00000000000E+00  0.00000000000E+00 -0.13412523990E+04  0.13412523990E+04  0.25500000920E-02 0.  1.
    10030    2    1    2    0    0  0.00000000000E+00  0.00000000000E+00  0.31580406066E+03  0.29983088586E+04  0.29816310648E+04 0.  0.
        4    1    3    3  502    0 -0.18308778379E+03 -0.46076004724E+03 -0.12559168115E+04  0.13502405741E+04  0.12699999809E+01 0.  1.
       -4    1    3    3    0  502  0.18308778379E+03  0.46076004724E+03  0.15717208721E+04  0.16480682845E+04  0.12699999809E+01 0. -1.
</event>
<event>
 5   0  0.1523029E-05  0.2996807E+04  0.7818609E-02  0.8244643E-01
       -2   -1    0    0    0  501  0.00000000000E+00  0.00000000000E+00  0.10185781373E+04  0.10185781373E+04  0.25500000920E-02 0. -1.
        2   -1    0    0  501    0  0.00000000000E+00  0.00000000000E+00 -0.22042616089E+04  0.22042616089E+04  0.25500000920E-02 0.  1.
    10030    2    1    2    0    0  0.00000000000E+00  0.00000000000E+00 -0.11856834716E+04  0.32228397463E+04  0.29968067564E+04 0.  0.
        5    1    3    3  502    0  0.44036896355E+03 -0.45963211137E+03  0.86593680576E+03  0.10747349177E+04  0.46999998093E+01 0. -1.
       -5    1    3    3    0  502 -0.44036896355E+03  0.45963211137E+03 -0.20516202774E+04  0.21481048285E+04  0.46999998093E+01 0.  1.
</event>
<event>
 5   0  0.1388724E-05  0.1996237E+04  0.7818609E-02  0.8608382E-01
       -2   -1    0    0    0  501  0.00000000000E+00  0.00000000000E+00  0.84228802726E+03  0.84228802726E+03  0.25500000920E-02 0. -1.
        2   -1    0    0  501    0  0.00000000000E+00  0.00000000000E+00 -0.11827787476E+04  0.11827787476E+04  0.25500000920E-02 0.  1.
    10030    2    1    2    0    0  0.00000000000E+00  0.00000000000E+00 -0.34049072037E+03  0.20250667749E+04  0.19962368377E+04 0.  0.
        4    1    3    3  502    0  0.26681316159E+03  0.36259999874E+03  0.73344595106E+03  0.86058851858E+03  0.12699999809E+01 0. -1.
       -4    1    3    3    0  502 -0.26681316159E+03 -0.36259999874E+03 -0.10739366714E+04  0.11644782563E+04  0.12699999809E+01 0.  1.
</event>
<event>
 5   0  0.1480547E-05  0.2976065E+04  0.7818609E-02  0.8250599E-01
       -2   -1    0    0    0  501  0.00000000000E+00  0.00000000000E+00  0.96246795355E+03  0.96246795355E+03  0.25500000920E-02 0. -1.
        2   -1    0    0  501    0  0.00000000000E+00  0.00000000000E+00 -0.23005859272E+04  0.23005859272E+04  0.25500000920E-02 0.  1.
    10030    2    1    2    0    0  0.00000000000E+00  0.00000000000E+00 -0.13381179737E+04  0.32630538808E+04  0.29760646696E+04 0.  0.
        1    1    3    3  502    0 -0.97782725069E+03  0.16269655475E+03 -0.18858638586E+04  0.21305160864E+04  0.50400001928E-02 0.  1.
       -1    1    3    3    0  502  0.97782725069E+03 -0.16269655475E+03  0.54774588497E+03  0.11325377944E+04  0.50400001928E-02 0. -1.
</event>
<event>
 5   0  0.5392262E-06  0.2949232E+04  0.7818609E-02  0.8258378E-01
       -1   -1    0    0    0  501  0.00000000000E+00  0.00000000000E+00  0.11656070324E+04  0.11656070324E+04  0.50400001928E-02 0.  1.
        1   -1    0    0  501    0  0.00000000000E+00  0.00000000000E+00 -0.18655448039E+04  0.18655448039E+04  0.50400001928E-02 0. -1.
    10030    2    1    2    0    0  0.00000000000E+00  0.00000000000E+00 -0.69993777151E+03  0.30311518363E+04  0.29492318611E+04 0.  0.
        2    1    3    3  502    0 -0.69205018053E+03  0.80449810015E+03  0.70235678074E+03  0.12725783642E+04  0.25500000920E-02 0.  1.
       -2    1    3    3    0  502  0.69205018053E+03 -0.80449810015E+03 -0.14022945523E+04  0.17585734721E+04  0.25500000920E-02 0. -1.
</event>
<event>
 5   0  0.1345931E-05  0.2924095E+04  0.7818609E-02  0.8265744E-01
       -2   -1    0    0    0  501  0.00000000000E+00  0.00000000000E+00  0.12253082379E+04  0.12253082379E+04  0.25500000920E-02 0. -1.
        2   -1    0    0  501    0  0.00000000000E+00  0.00000000000E+00 -0.17445263858E+04  0.17445263858E+04  0.25500000920E-02 0.  1.
    10030    2    1    2    0    0  0.00000000000E+00  0.00000000000E+00 -0.51921814782E+03  0.29698346237E+04  0.29240947671E+04 0.  0.
        2    1    3    3  502    0 -0.90778380202E+03  0.41795067287E+03  0.82424286436E+03  0.12954267620E+04  0.25500000920E-02 0. -1.
       -2    1    3    3    0  502  0.90778380202E+03 -0.41795067287E+03 -0.13434610122E+04  0.16744078617E+04  0.25500000920E-02 0.  1.
</event>
<event>
 5   0  0.1423692E-05  0.1820851E+04  0.7818609E-02  0.8695289E-01
       -2   -1    0    0    0  501  0.00000000000E+00  0.00000000000E+00  0.44132682438E+03  0.44132682439E+03  0.25500000920E-02 0.  1.
        2   -1    0    0  501    0  0.00000000000E+00  0.00000000000E+00 -0.18781426410E+04  0.18781426410E+04  0.25500000920E-02 0. -1.
    10030    2    1    2    0    0  0.00000000000E+00  0.00000000000E+00 -0.14368158166E+04  0.23194694654E+04  0.18208511499E+04 0.  0.
        3    1    3    3  502    0 -0.45891103735E+03  0.56483072308E+03 -0.21580504322E+02  0.72807885171E+03  0.10100000352E+00 0.  1.
       -3    1    3    3    0  502  0.45891103735E+03 -0.56483072308E+03 -0.14152353123E+04  0.15913906137E+04  0.10100000352E+00 0. -1.
</event>
<event>
 5   0  0.1523029E-05  0.2999840E+04  0.7818609E-02  0.8243777E-01
        2   -1    0    0  501    0  0.00000000000E+00  0.00000000000E+00  0.12473709717E+04  0.12473709717E+04  0.25500000920E-02 0.  1.
       -2   -1    0    0    0  501  0.00000000000E+00  0.00000000000E+00 -0.18036008161E+04  0.18036008161E+04  0.25500000920E-02 0. -1.
    10030    2    1    2    0    0  0.00000000000E+00  0.00000000000E+00 -0.55622984439E+03  0.30509717877E+04  0.29998395307E+04 0.  0.
        5    1    3    3  502    0  0.75277383426E+03 -0.78022775282E+03 -0.13322728240E+04  0.17176719010E+04  0.46999998093E+01 0. -1.
       -5    1    3    3    0  502 -0.75277383426E+03  0.78022775282E+03  0.77604297961E+03  0.13332998868E+04  0.46999998093E+01 0.  1.
</event>
<event>
 5   0  0.1480547E-05  0.3048700E+04  0.7818609E-02  0.8229959E-01
       -2   -1    0    0    0  501  0.00000000000E+00  0.00000000000E+00  0.99514239567E+03  0.99514239567E+03  0.25500000920E-02 0. -1.
        2   -1    0    0  501    0  0.00000000000E+00  0.00000000000E+00 -0.23349854803E+04  0.23349854803E+04  0.25500000920E-02 0.  1.
    10030    2    1    2    0    0  0.00000000000E+00  0.00000000000E+00 -0.13398430846E+04  0.33301278760E+04  0.30487000802E+04 0.  0.
        1    1    3    3  502    0  0.33183877798E+02 -0.83293622825E+03 -0.20639596246E+04  0.22259409835E+04  0.50400001928E-02 0.  1.
       -1    1    3    3    0  502 -0.33183877798E+02  0.83293622825E+03  0.72411653994E+03  0.11041868925E+04  0.50400001928E-02 0. -1.
</event>
<event>
 5   0  0.5730920E-06  0.2995386E+04  0.7818609E-02  0.8245050E-01
        1   -1    0    0  501    0  0.00000000000E+00  0.00000000000E+00  0.27387193245E+04  0.27387193245E+04  0.50400001928E-02 0. -1.
       -1   -1    0    0    0  501  0.00000000000E+00  0.00000000000E+00 -0.81902683076E+03  0.81902683078E+03  0.50400001928E-02 0.  1.
    10030    2    1    2    0    0  0.00000000000E+00  0.00000000000E+00  0.19196924937E+04  0.35577461553E+04  0.29953861913E+04 0.  0.
        1    1    3    3  502    0  0.41304170477E+03  0.27917505515E+03  0.26372738151E+04  0.26839812475E+04  0.50400001928E-02 0. -1.
       -1    1    3    3    0  502 -0.41304170477E+03 -0.27917505515E+03 -0.71758132134E+03  0.87376490777E+03  0.50400001928E-02 0.  1.
</event>
<event>
 5   0  0.1345931E-05  0.2877937E+04  0.7818609E-02  0.8279472E-01
        2   -1    0    0  501    0  0.00000000000E+00  0.00000000000E+00  0.25344539906E+04  0.25344539906E+04  0.25500000920E-02 0.  1.
       -2   -1    0    0    0  501  0.00000000000E+00  0.00000000000E+00 -0.81699260231E+03  0.81699260232E+03  0.25500000920E-02 0. -1.
    10030    2    1    2    0    0  0.00000000000E+00  0.00000000000E+00  0.17174613883E+04  0.33514465929E+04  0.28779368730E+04 0.  0.
        2    1    3    3  502    0  0.91512733748E+03  0.39026485469E+03  0.20694315769E+04  0.22961515089E+04  0.25500000920E-02 0.  1.
       -2    1    3    3    0  502 -0.91512733748E+03 -0.39026485469E+03 -0.35197018859E+03  0.10552950840E+04  0.25500000920E-02 0. -1.
</event>
<event>
 5   0  0.5522695E-06  0.1758834E+04  0.7818609E-02  0.8728503E-01
       -1   -1    0    0    0  501  0.00000000000E+00  0.00000000000E+00  0.74415200357E+03  0.74415200359E+03  0.50400001928E-02 0.  1.
        1   -1    0    0  501    0  0.00000000000E+00  0.00000000000E+00 -0.10392689551E+04  0.10392689551E+04  0.50400001928E-02 0. -1.
    10030    2    1    2    0    0  0.00000000000E+00  0.00000000000E+00 -0.29511695152E+03  0.17834209587E+04  0.17588337900E+04 0.  0.
        3    1    3    3  502    0  0.36273987219E+03  0.29230653782E+03  0.60875771898E+03  0.76655678039E+03  0.10100000352E+00 0.  1.
       -3    1    3    3    0  502 -0.36273987219E+03 -0.29230653782E+03 -0.90387467051E+03  0.10168641783E+04  0.10100000352E+00 0. -1.
</event>
<event>
 5   0  0.1523029E-05  0.2529260E+04  0.7818609E-02  0.8392635E-01
       -2   -1    0    0    0  501  0.00000000000E+00  0.00000000000E+00  0.22032871903E+04  0.22032871903E+04  0.25500000920E-02 0. -1.
        2   -1    0    0  501    0  0.00000000000E+00  0.00000000000E+00 -0.72586509236E+03  0.72586509237E+03  0.25500000920E-02 0.  1.
    10030    2    1    2    0    0  0.00000000000E+00  0.00000000000E+00  0.14774220980E+04  0.29291522827E+04  0.25292601763E+04 0.  0.
        5    1    3    3  502    0  0.23886007333E+03 -0.11489399959E+04  0.12845588014E+04  0.17398938625E+04  0.46999998093E+01 0. -1.
       -5    1    3    3    0  502 -0.23886007333E+03  0.11489399959E+04  0.19286329659E+03  0.11892584201E+04  0.46999998093E+01 0.  1.
</event>
<event>
 5   0  0.5329891E-06  0.3015319E+04  0.7818609E-02  0.8239370E-01
        1   -1    0    0  501    0  0.00000000000E+00  0.00000000000E+00  0.15779737357E+04  0.15779737357E+04  0.50400001928E-02 0.  1.
       -1   -1    0    0    0  501  0.00000000000E+00  0.00000000000E+00 -0.14404783854E+04  0.14404783854E+04  0.50400001928E-02 0. -1.
    10030    2    1    2    0    0  0.00000000000E+00  0.00000000000E+00  0.13749535028E+03  0.30184521212E+04  0.30153189278E+04 0.  0.
        4    1    3    3  502    0 -0.41074405521E+03 -0.12245781171E+04  0.84720165706E+03  0.15446858919E+04  0.12699999809E+01 0.  1.
       -4    1    3    3    0  502  0.41074405521E+03  0.12245781171E+04 -0.70970630679E+03  0.14737662293E+04  0.12699999809E+01 0. -1.
</event>
<event>
 5   0  0.1388724E-05  0.2607440E+04  0.7818609E-02  0.8365678E-01
        2   -1    0    0  501    0  0.00000000000E+00  0.00000000000E+00  0.15102320903E+04  0.15102320903E+04  0.25500000920E-02 0.  1.
       -2   -1    0    0    0  501  0.00000000000E+00  0.00000000000E+00 -0.11254469497E+04  0.11254469497E+04  0.25500000920E-02 0. -1.
    10030    2    1    2    0    0  0.00000000000E+00  0.00000000000E+00  0.38478514064E+03  0.26356790400E+04  0.26074402001E+04 0.  0.
        4    1    3    3  502    0  0.98432141985E+03  0.68805489963E+03 -0.32042444772E+03  0.12429729048E+04  0.12699999809E+01 0.  1.
       -4    1    3    3    0  502 -0.98432141985E+03 -0.68805489963E+03  0.70520958837E+03  0.13927061352E+04  0.12699999809E+01 0. -1.
</event>
<event>
 5   0  0.5730920E-06  0.2038926E+04  0.7818609E-02  0.8588634E-01
        1   -1    0    0  501    0  0.00000000000E+00  0.00000000000E+00  0.97024223801E+03  0.97024223803E+03  0.50400001928E-02 0.  1.
       -1   -1    0    0    0  501  0.00000000000E+00  0.00000000000E+00 -0.10711812253E+04  0.10711812253E+04  0.50400001928E-02 0. -1.
    10030    2    1    2    0    0  0.00000000000E+00  0.00000000000E+00 -0.10093898726E+03  0.20414234633E+04  0.20389264522E+04 0.  0.
        1    1    3    3  502    0 -0.58571718776E+03 -0.61637490070E+03  0.51264495555E+03  0.99286831591E+03  0.50400001928E-02 0.  1.
       -1    1    3    3    0  502  0.58571718776E+03  0.61637490070E+03 -0.61358394280E+03  0.10485551474E+04  0.50400001928E-02 0. -1.
</event>
<event>
 5   0  0.1480547E-05  0.1783320E+04  0.7818609E-02  0.8715220E-01
        2   -1    0    0  501    0  0.00000000000E+00  0.00000000000E+00  0.72907900392E+03  0.72907900393E+03  0.25500000920E-02 0. -1.
       -2   -1    0    0    0  501  0.00000000000E+00  0.00000000000E+00 -0.10904957599E+04  0.10904957599E+04  0.25500000920E-02 0.  1.
    10030    2    1    2    0    0  0.00000000000E+00  0.00000000000E+00 -0.36141675593E+03  0.18195747638E+04  0.17833200076E+04 0.  0.
        1    1    3    3  502    0  0.78939471447E+03  0.27772490371E+03 -0.49483484558E+03  0.97218139347E+03  0.50400001928E-02 0. -1.
       -1    1    3    3    0  502 -0.78939471447E+03 -0.27772490371E+03  0.13341808965E+03  0.84739337031E+03  0.50400001928E-02 0.  1.
</event>
<event>
 5   0  0.5329891E-06  0.3163699E+04  0.7818609E-02  0.8198471E-01
        1   -1    0    0  501    0  0.00000000000E+00  0.00000000000E+00  0.29558642248E+04  0.29558642248E+04  0.50400001928E-02 0.  1.
       -1   -1    0    0    0  501  0.00000000000E+00  0.00000000000E+00 -0.84653665347E+03  0.84653665349E+03  0.50400001928E-02 0. -1.
    10030    2    1    2    0    0  0.00000000000E+00  0.00000000000E+00  0.21093275713E+04  0.38024008783E+04  0.31636987271E+04 0.  0.
        4    1    3    3  502    0  0.15239424248E+04  0.42348488732E+03  0.10816950270E+04  0.19161956341E+04  0.12699999809E+01 0. -1.
       -4    1    3    3    0  502 -0.15239424248E+04 -0.42348488732E+03  0.10276325443E+04  0.18862052441E+04  0.12699999809E+01 0.  1.
</event>
<event>
 5   0  0.1423692E-05  0.3005266E+04  0.7818609E-02  0.8242229E-01
        2   -1    0    0  501    0  0.00000000000E+00  0.00000000000E+00  0.22438771507E+04  0.22438771507E+04  0.25500000920E-02 0.  1.
       -2   -1    0    0    0  501  0.00000000000E+00  0.00000000000E+00 -0.10062523087E+04  0.10062523087E+04  0.25500000920E-02 0. -1.
    10030    2    1    2    0    0  0.00000000000E+00  0.00000000000E+00  0.12376248420E+04  0.32501294594E+04  0.30052664197E+04 0.  0.
        3    1    3    3  502    0 -0.52297044267E+03 -0.92527648233E+03  0.17675598902E+04  0.20624991220E+04  0.10100000352E+00 0.  1.
       -3    1    3    3    0  502  0.52297044267E+03  0.92527648233E+03 -0.52993504825E+03  0.11876303374E+04  0.10100000352E+00 0. -1.
</event>
<event>
 5   0  0.5522695E-06  0.1567294E+04  0.7818609E-02  0.8840896E-01
        1   -1    0    0  501    0  0.00000000000E+00  0.00000000000E+00  0.13827815849E+04  0.13827815849E+04  0.50400001928E-02 0. -1.
       -1   -1    0    0    0  501  0.00000000000E+00  0.00000000000E+00 -0.44410672991E+03  0.44410672994E+03  0.50400001928E-02 0.  1.
    10030    2    1    2    0    0  0.00000000000E+00  0.00000000000E+00  0.93867485500E+03  0.18268883149E+04  0.15672939838E+04 0.  0.
        3    1    3    3  502    0  0.46041617063E+03 -0.16107667268E+02 -0.26958520766E+03  0.53377776416E+03  0.10100000352E+00 0.  1.
       -3    1    3    3    0  502 -0.46041617063E+03  0.16107667268E+02  0.12082600627E+04  0.12931105507E+04  0.10100000352E+00 0. -1.
</event>
<event>
 5   0  0.1480547E-05  0.3035064E+04  0.7818609E-02  0.8233789E-01
        2   -1    0    0  501    0  0.00000000000E+00  0.00000000000E+00  0.21658153059E+04  0.21658153059E+04  0.25500000920E-02 0.  1.
       -2   -1    0    0    0  501  0.00000000000E+00  0.00000000000E+00 -0.10632960718E+04  0.10632960718E+04  0.25500000920E-02 0. -1.
    10030    2    1    2    0    0  0.00000000000E+00  0.00000000000E+00  0.11025192341E+04  0.32291113778E+04  0.30350636943E+04 0.  0.
        1    1    3    3  502    0 -0.30385523346E+03 -0.98502663672E+03  0.17361498973E+04  0.20191141483E+04  0.50400001928E-02 0.  1.
       -1    1    3    3    0  502  0.30385523346E+03  0.98502663672E+03 -0.63363066320E+03  0.12099972295E+04  0.50400001928E-02 0. -1.
</event>
<event>
 5   0  0.5329891E-06  0.2628191E+04  0.7818609E-02  0.8358688E-01
        1   -1    0    0  501    0  0.00000000000E+00  0.00000000000E+00  0.11123588871E+04  0.11123588871E+04  0.50400001928E-02 0.  1.
       -1   -1    0    0    0  501  0.00000000000E+00  0.00000000000E+00 -0.15524191995E+04  0.15524191995E+04  0.50400001928E-02 0. -1.
    10030    2    1    2    0    0  0.00000000000E+00  0.00000000000E+00 -0.44006031236E+03  0.26647780866E+04  0.26281912358E+04 0.  0.
        4    1    3    3  502    0  0.10881410572E+04 -0.71617137868E+03 -0.44726552727E+02  0.13034394813E+04  0.12699999809E+01 0. -1.
       -4    1    3    3    0  502 -0.10881410572E+04  0.71617137868E+03 -0.39533375964E+03  0.13613386053E+04  0.12699999809E+01 0.  1.
</event>
<event>
 5   0  0.1423692E-05  0.2161137E+04  0.7818609E-02  0.8534780E-01
        2   -1    0    0  501    0  0.00000000000E+00  0.00000000000E+00  0.20625213910E+04  0.20625213910E+04  0.25500000920E-02 0. -1.
       -2   -1    0    0    0  501  0.00000000000E+00  0.00000000000E+00 -0.56611680910E+03  0.56611680911E+03  0.25500000920E-02 0.  1.
    10030    2    1    2    0    0  0.00000000000E+00  0.00000000000E+00  0.14964045819E+04  0.26286382001E+04  0.21611367644E+04 0.  0.
        3    1    3    3  502    0 -0.23249566189E+03 -0.47690274381E+03 -0.39678096485E+03  0.66251460672E+03  0.10100000352E+00 0.  1.
       -3    1    3    3    0  502  0.23249566189E+03  0.47690274381E+03  0.18931855467E+04  0.19661235934E+04  0.10100000352E+00 0. -1.
</event>
<event>
 5   0  0.5329891E-06  0.2983427E+04  0.7818609E-02  0.8248479E-01
        1   -1    0    0  501    0  0.00000000000E+00  0.00000000000E+00  0.95499950197E+03  0.95499950198E+03  0.50400001928E-02 0.  1.
       -1   -1    0    0    0  501  0.00000000000E+00  0.00000000000E+00 -0.23300627423E+04  0.23300627423E+04  0.50400001928E-02 0. -1.
    10030    2    1    2    0    0  0.00000000000E+00  0.00000000000E+00 -0.13750632403E+04  0.32850622443E+04  0.29834267268E+04 0.  0.
        4    1    3    3  502    0 -0.51627011239E+03  0.13916767277E+04 -0.85051060052E+03  0.17107509573E+04  0.12699999809E+01 0. -1.
       -4    1    3    3    0  502  0.51627011239E+03 -0.13916767277E+04 -0.52455263983E+03  0.15743112870E+04  0.12699999809E+01 0.  1.
</event>
<event>
 5   0  0.4806125E-06  0.1969665E+04  0.7818609E-02  0.8620936E-01
        3   -1    0    0  501    0  0.00000000000E+00  0.00000000000E+00  0.11587728946E+04  0.11587728990E+04  0.10100000352E+00 0.  1.
       -3   -1    0    0    0  501  0.00000000000E+00  0.00000000000E+00 -0.83700154812E+03  0.83700155421E+03  0.10100000352E+00 0. -1.
    10030    2    1    2    0    0  0.00000000000E+00  0.00000000000E+00  0.32177134650E+03  0.19957744532E+04  0.19696646590E+04 0.  0.
        5    1    3    3  502    0  0.46935393383E+03 -0.18341938936E+02 -0.71617681829E+03  0.85648167931E+03  0.46999998093E+01 0. -1.
       -5    1    3    3    0  502 -0.46935393383E+03  0.18341938936E+02  0.10379481648E+04  0.11392927739E+04  0.46999998093E+01 0.  1.
</event>
<event>
 5   0  0.5329891E-06  0.2889897E+04  0.7818609E-02  0.8275890E-01
        1   -1    0    0  501    0  0.00000000000E+00  0.00000000000E+00  0.28206979278E+04  0.28206979278E+04  0.50400001928E-02 0. -1.
       -1   -1    0    0    0  501  0.00000000000E+00  0.00000000000E+00 -0.74019837601E+03  0.74019837603E+03  0.50400001928E-02 0.  1.
    10030    2    1    2    0    0  0.00000000000E+00  0.00000000000E+00  0.20804995518E+04  0.35608963039E+04  0.28898969016E+04 0.  0.
        4    1    3    3  502    0 -0.58199852821E+03  0.12247005612E+04  0.16554321003E+04  0.21398763523E+04  0.12699999809E+01 0. -1.
       -4    1    3    3    0  502  0.58199852821E+03 -0.12247005612E+04  0.42506745153E+03  0.14210199516E+04  0.12699999809E+01 0.  1.
</event>
<event>
 5   0  0.7032692E-06  0.3174625E+04  0.7818609E-02  0.8195551E-01
       -1   -1    0    0    0  501  0.00000000000E+00  0.00000000000E+00  0.11388865996E+04  0.11388865996E+04  0.50400001928E-02 0. -1.
        1   -1    0    0  501    0  0.00000000000E+00  0.00000000000E+00 -0.22123020395E+04  0.22123020395E+04  0.50400001928E-02 0.  1.
    10030    2    1    2    0    0  0.00000000000E+00  0.00000000000E+00 -0.10734154398E+04  0.33511886391E+04  0.31746251099E+04 0.  0.
        5    1    3    3  502    0 -0.14001330087E+03 -0.14576415527E+04 -0.11833250728E+04  0.18827115920E+04  0.46999998093E+01 0.  1.
       -5    1    3    3    0  502  0.14001330087E+03  0.14576415527E+04  0.10990963292E+03  0.14684770472E+04  0.46999998093E+01 0. -1.
</event>
<event>
 5   0  0.1345931E-05  0.3025751E+04  0.7818609E-02  0.8236416E-01
       -2   -1    0    0    0  501  0.00000000000E+00  0.00000000000E+00  0.12673076540E+04  0.12673076540E+04  0.25500000920E-02 0. -1.
        2   -1    0    0  501    0  0.00000000000E+00  0.00000000000E+00 -0.18060273156E+04  0.18060273156E+04  0.25500000920E-02 0.  1.
    10030    2    1    2    0    0  0.00000000000E+00  0.00000000000E+00 -0.53871966161E+03  0.30733349697E+04  0.30257509749E+04 0.  0.
        2    1    3    3  502    0 -0.10540580032E+02  0.70537130152E+02  0.12655991665E+04  0.12676071319E+04  0.25500000920E-02 0. -1.
       -2    1    3    3    0  502  0.10540580032E+02 -0.70537130152E+02 -0.18043188281E+04  0.18057278378E+04  0.25500000920E-02 0.  1.
</event>
<event>
 5   0  0.1388724E-05  0.3181025E+04  0.7818609E-02  0.8193847E-01
        2   -1    0    0  501    0  0.00000000000E+00  0.00000000000E+00  0.17657878398E+04  0.17657878398E+04  0.25500000920E-02 0.  1.
       -2   -1    0    0    0  501  0.00000000000E+00  0.00000000000E+00 -0.14326349627E+04  0.14326349627E+04  0.25500000920E-02 0. -1.
    10030    2    1    2    0    0  0.00000000000E+00  0.00000000000E+00  0.33315287710E+03  0.31984228025E+04  0.31810246123E+04 0.  0.
        4    1    3    3  502    0 -0.55366852668E+02  0.13204528598E+04 -0.72317393126E+03  0.15065335679E+04  0.12699999809E+01 0. -1.
       -4    1    3    3    0  502  0.55366852668E+02 -0.13204528598E+04  0.10563268084E+04  0.16918892346E+04  0.12699999809E+01 0.  1.
</event>
<event>
 5   0  0.1423692E-05  0.1808662E+04  0.7818609E-02  0.8701707E-01
        2   -1    0    0  501    0  0.00000000000E+00  0.00000000000E+00  0.90422184085E+03  0.90422184085E+03  0.25500000920E-02 0. -1.
       -2   -1    0    0    0  501  0.00000000000E+00  0.00000000000E+00 -0.90443992630E+03  0.90443992630E+03  0.25500000920E-02 0.  1.
    10030    2    1    2    0    0  0.00000000000E+00  0.00000000000E+00 -0.21808545273E+00  0.18086617672E+04  0.18086617540E+04 0.  0.
        3    1    3    3  502    0 -0.51711299217E+03 -0.72172482976E+03  0.17170989907E+03  0.90431016593E+03  0.10100000352E+00 0. -1.
       -3    1    3    3    0  502  0.51711299217E+03  0.72172482976E+03 -0.17192798453E+03  0.90435160122E+03  0.10100000352E+00 0.  1.
</event>
<event>
 5   0  0.1523029E-05  0.3090495E+04  0.7818609E-02  0.8218351E-01
        2   -1    0    0  501    0  0.00000000000E+00  0.00000000000E+00  0.12138237709E+04  0.12138237709E+04  0.25500000920E-02 0. -1.
       -2   -1    0    0    0  501  0.00000000000E+00  0.00000000000E+00 -0.19671638244E+04  0.19671638244E+04  0.25500000920E-02 0.  1.
    10030    2    1    2    0    0  0.00000000000E+00  0.00000000000E+00 -0.75334005351E+03  0.31809875953E+04  0.30904952427E+04 0.  0.
        5    1    3    3  502    0  0.71648285092E+03 -0.20212907240E+03  0.10170706218E+04  0.12604200003E+04  0.46999998093E+01 0. -1.
       -5    1    3    3    0  502 -0.71648285092E+03  0.20212907240E+03 -0.17704106753E+04  0.19205675949E+04  0.46999998093E+01 0.  1.
</event>
<event>
 5   0  0.5329891E-06  0.3067442E+04  0.7818609E-02  0.8224730E-01
        1   -1    0    0  501    0  0.00000000000E+00  0.00000000000E+00  0.17084406450E+04  0.17084406450E+04  0.50400001928E-02 0. -1.
       -1   -1    0    0    0  501  0.00000000000E+00  0.00000000000E+00 -0.13768693948E+04  0.13768693948E+04  0.50400001928E-02 0.  1.
    10030    2    1    2    0    0  0.00000000000E+00  0.00000000000E+00  0.33157125020E+03  0.30853100397E+04  0.30674416942E+04 0.  0.
        4    1    3    3  502    0 -0.68940187736E+03  0.57655619009E+03 -0.10842758170E+04  0.14083137609E+04  0.12699999809E+01 0.  1.
       -4    1    3    3    0  502  0.68940187736E+03 -0.57655619009E+03  0.14158470672E+04  0.16769962789E+04  0.12699999809E+01 0. -1.
</event>
<event>
 5   0  0.5730920E-06  0.2891820E+04  0.7818609E-02  0.8275316E-01
        1   -1    0    0  501    0  0.00000000000E+00  0.00000000000E+00  0.18330893407E+04  0.18330893407E+04  0.50400001928E-02 0. -1.
       -1   -1    0    0    0  501  0.00000000000E+00  0.00000000000E+00 -0.11405091252E+04  0.11405091252E+04  0.50400001928E-02 0.  1.
    10030    2    1    2    0    0  0.00000000000E+00  0.00000000000E+00  0.69258021548E+03  0.29735984659E+04  0.28918195797E+04 0.  0.
        1    1    3    3  502    0 -0.26826887136E+03  0.55965365462E+03 -0.99657927874E+03  0.11740317966E+04  0.50400001928E-02 0.  1.
       -1    1    3    3    0  502  0.26826887136E+03 -0.55965365462E+03  0.16891594942E+04  0.17995666693E+04  0.50400001928E-02 0. -1.
</event>
<event>
 5   0  0.1423692E-05  0.2256523E+04  0.7818609E-02  0.8495264E-01
       -2   -1    0    0    0  501  0.00000000000E+00  0.00000000000E+00  0.46591318580E+03  0.46591318581E+03  0.25500000920E-02 0.  1.
        2   -1    0    0  501    0  0.00000000000E+00  0.00000000000E+00 -0.27322121513E+04  0.27322121513E+04  0.25500000920E-02 0. -1.
    10030    2    1    2    0    0  0.00000000000E+00  0.00000000000E+00 -0.22662989655E+04  0.31981253371E+04  0.22565226945E+04 0.  0.
        3    1    3    3  502    0  0.28218080062E+03 -0.32409331596E+03 -0.26116868973E+04  0.26468039106E+04  0.10100000352E+00 0. -1.
       -3    1    3    3    0  502 -0.28218080062E+03  0.32409331596E+03  0.34538793178E+03  0.55132142649E+03  0.10100000352E+00 0.  1.
</event>
<event>
 5   0  0.1480547E-05  0.3026004E+04  0.7818609E-02  0.8236344E-01
        2   -1    0    0  501    0  0.00000000000E+00  0.00000000000E+00  0.18358717374E+04  0.18358717374E+04  0.25500000920E-02 0. -1.
       -2   -1    0    0    0  501  0.00000000000E+00  0.00000000000E+00 -0.12469142839E+04  0.12469142839E+04  0.25500000920E-02 0.  1.
    10030    2    1    2    0    0  0.00000000000E+00  0.00000000000E+00  0.58895745355E+03  0.30827860213E+04  0.30260037626E+04 0.  0.
        1    1    3    3  502    0  0.84690528444E+03  0.10123720986E+04  0.10479714098E+04  0.16853456330E+04  0.50400001928E-02 0. -1.
       -1    1    3    3    0  502 -0.84690528444E+03 -0.10123720986E+04 -0.45901395623E+03  0.13974403883E+04  0.50400001928E-02 0.  1.
</event>
<event>
 5   0  0.1423692E-05  0.2780051E+04  0.7818609E-02  0.8309489E-01
        2   -1    0    0  501    0  0.00000000000E+00  0.00000000000E+00  0.24486533646E+04  0.24486533646E+04  0.25500000920E-02 0. -1.
       -2   -1    0    0    0  501  0.00000000000E+00  0.00000000000E+00 -0.78907469845E+03  0.78907469846E+03  0.25500000920E-02 0.  1.
    10030    2    1    2    0    0  0.00000000000E+00  0.00000000000E+00  0.16595786661E+04  0.32377280630E+04  0.27800506580E+04 0.  0.
        3    1    3    3  502    0 -0.11041082406E+04 -0.84343846306E+03  0.78139121737E+03  0.15940563643E+04  0.10100000352E+00 0.  1.
       -3    1    3    3    0  502  0.11041082406E+04  0.84343846306E+03  0.87818744875E+03  0.16436716987E+04  0.10100000352E+00 0. -1.
</event>
<event>
 5   0  0.5522695E-06  0.1605808E+04  0.7818609E-02  0.8816988E-01
       -1   -1    0    0    0  501  0.00000000000E+00  0.00000000000E+00  0.86339794414E+03  0.86339794416E+03  0.50400001928E-02 0.  1.
        1   -1    0    0  501    0  0.00000000000E+00  0.00000000000E+00 -0.74664831092E+03  0.74664831094E+03  0.50400001928E-02 0. -1.
    10030    2    1    2    0    0  0.00000000000E+00  0.00000000000E+00  0.11674963323E+03  0.16100462551E+04  0.16058077303E+04 0.  0.
        3    1    3    3  502    0 -0.82481911716E+02  0.39261755927E+03  0.75569800352E+03  0.85558827501E+03  0.10100000352E+00 0.  1.
       -3    1    3    3    0  502  0.82481911716E+02 -0.39261755927E+03 -0.63894837030E+03  0.75445798008E+03  0.10100000352E+00 0. -1.
</event>
<event>
 5   0  0.1345931E-05  0.3022158E+04  0.7818609E-02  0.8237432E-01
        2   -1    0    0  501    0  0.00000000000E+00  0.00000000000E+00  0.25388263211E+04  0.25388263211E+04  0.25500000920E-02 0. -1.
       -2   -1    0    0    0  501  0.00000000000E+00  0.00000000000E+00 -0.89937583302E+03  0.89937583303E+03  0.25500000920E-02 0.  1.
    10030    2    1    2    0    0  0.00000000000E+00  0.00000000000E+00  0.16394504880E+04  0.34382021541E+04  0.30221575322E+04 0.  0.
        2    1    3    3  502    0 -0.10494537458E+04 -0.17068145797E+03 -0.40180768258E+03  0.11366330711E+04  0.25500000920E-02 0.  1.
       -2    1    3    3    0  502  0.10494537458E+04  0.17068145797E+03  0.20412581706E+04  0.23015690830E+04  0.25500000920E-02 0. -1.
</event>
<event>
 5   0  0.5730920E-06  0.2973476E+04  0.7818609E-02  0.8251346E-01
       -1   -1    0    0    0  501  0.00000000000E+00  0.00000000000E+00  0.81805948629E+03  0.81805948631E+03  0.50400001928E-02 0.  1.
        1   -1    0    0  501    0  0.00000000000E+00  0.00000000000E+00 -0.27019913707E+04  0.27019913707E+04  0.50400001928E-02 0. -1.
    10030    2    1    2    0    0  0.00000000000E+00  0.00000000000E+00 -0.18839318844E+04  0.35200508570E+04  0.29734758602E+04 0.  0.
        1    1    3    3  502    0 -0.56597462163E+03 -0.89322603085E+03 -0.21791591509E+04  0.24221714678E+04  0.50400001928E-02 0. -1.
       -1    1    3    3    0  502  0.56597462163E+03  0.89322603085E+03  0.29522726642E+03  0.10978793893E+04  0.50400001928E-02 0.  1.
</event>
<event>
 5   0  0.1423692E-05  0.2208614E+04  0.7818609E-02  0.8514851E-01
        2   -1    0    0  501    0  0.00000000000E+00  0.00000000000E+00  0.80241785847E+03  0.80241785848E+03  0.25500000920E-02 0.  1.
       -2   -1    0    0    0  501  0.00000000000E+00  0.00000000000E+00 -0.15197744027E+04  0.15197744027E+04  0.25500000920E-02 0. -1.
    10030    2    1    2    0    0  0.00000000000E+00  0.00000000000E+00 -0.71735654420E+03  0.23221922612E+04  0.22086141551E+04 0.  0.
        3    1    3    3  502    0 -0.52012702755E+03  0.81587115226E+03  0.20096857855E+03  0.98821366194E+03  0.10100000352E+00 0.  1.
       -3    1    3    3    0  502  0.52012702755E+03 -0.81587115226E+03 -0.91832512275E+03  0.13339785992E+04  0.10100000352E+00 0. -1.
</event>
<event>
 5   0  0.1345931E-05  0.2916854E+04  0.7818609E-02  0.8267880E-01
        2   -1    0    0  501    0  0.00000000000E+00  0.00000000000E+00  0.19226798965E+04  0.19226798965E+04  0.25500000920E-02 0.  1.
       -2   -1    0    0    0  501  0.00000000000E+00  0.00000000000E+00 -0.11062734373E+04  0.11062734373E+04  0.25500000920E-02 0. -1.
    10030    2    1    2    0    0  0.00000000000E+00  0.00000000000E+00  0.81640645923E+03  0.30289533338E+04  0.29168542630E+04 0.  0.
        2    1    3    3  502    0 -0.67284511172E+03 -0.12628621039E+04  0.70093863389E+03  0.15933788646E+04  0.25500000920E-02 0. -1.
       -2    1    3    3    0  502  0.67284511172E+03  0.12628621039E+04  0.11546782534E+03  0.14355744692E+04  0.25500000920E-02 0.  1.
</event>
<event>
 5   0  0.5730920E-06  0.2935678E+04  0.7818609E-02  0.8262341E-01
        1   -1    0    0  501    0  0.00000000000E+00  0.00000000000E+00  0.15591781205E+04  0.15591781205E+04  0.50400001928E-02 0.  1.
       -1   -1    0    0    0  501  0.00000000000E+00  0.00000000000E+00 -0.13818506986E+04  0.13818506986E+04  0.50400001928E-02 0. -1.
    10030    2    1    2    0    0  0.00000000000E+00  0.00000000000E+00  0.17732742185E+03  0.29410288191E+04  0.29356780308E+04 0.  0.
        1    1    3    3  502    0  0.53242402732E+01 -0.13445261926E+04  0.67861083047E+03  0.15060848878E+04  0.50400001928E-02 0. -1.
       -1    1    3    3    0  502 -0.53242402732E+01  0.13445261926E+04 -0.50128340863E+03  0.14349439313E+04  0.50400001928E-02 0.  1.
</event>
<event>
 5   0  0.1523029E-05  0.2826161E+04  0.7818609E-02  0.8295192E-01
       -2   -1    0    0    0  501  0.00000000000E+00  0.00000000000E+00  0.93383131736E+03  0.93383131736E+03  0.25500000920E-02 0. -1.
        2   -1    0    0  501    0  0.00000000000E+00  0.00000000000E+00 -0.21382835462E+04  0.21382835462E+04  0.25500000920E-02 0.  1.
    10030    2    1    2    0    0  0.00000000000E+00  0.00000000000E+00 -0.12044522288E+04  0.30721148635E+04  0.28261607462E+04 0.  0.
        5    1    3    3  502    0 -0.99716895207E+03 -0.80232784788E+03 -0.12532623507E+04  0.17913024602E+04  0.46999998093E+01 0.  1.
       -5    1    3    3    0  502  0.99716895207E+03  0.80232784788E+03  0.48810121844E+02  0.12808124033E+04  0.46999998093E+01 0. -1.
</event>
<event>
 5   0  0.1345931E-05  0.3047898E+04  0.7818609E-02  0.8230184E-01
        2   -1    0    0  501    0  0.00000000000E+00  0.00000000000E+00  0.21795905553E+04  0.21795905553E+04  0.25500000920E-02 0. -1.
       -2   -1    0    0    0  501  0.00000000000E+00  0.00000000000E+00 -0.10655307050E+04  0.10655307050E+04  0.25500000920E-02 0.  1.
    10030    2    1    2    0    0  0.00000000000E+00  0.00000000000E+00  0.11140598503E+04  0.32451212603E+04  0.30478980699E+04 0.  0.
        2    1    3    3  502    0 -0.13841282339E+04  0.12722441755E+03  0.12223008515E+04  0.18509501322E+04  0.25500000920E-02 0. -1.
       -2    1    3    3    0  502  0.13841282339E+04 -0.12722441755E+03 -0.10824100119E+03  0.13941711282E+04  0.25500000920E-02 0.  1.
</event>
<event>
 5   0  0.1523029E-05  0.2897689E+04  0.7818609E-02  0.8273565E-01
        2   -1    0    0  501    0  0.00000000000E+00  0.00000000000E+00  0.13344812071E+04  0.13344812071E+04  0.25500000920E-02 0.  1.
       -2   -1    0    0    0  501  0.00000000000E+00  0.00000000000E+00 -0.15730086536E+04  0.15730086536E+04  0.25500000920E-02 0. -1.
    10030    2    1    2    0    0  0.00000000000E+00  0.00000000000E+00 -0.23852744655E+03  0.29074898607E+04  0.28976890701E+04 0.  0.
        5    1    3    3  502    0  0.10318662625E+04 -0.15159923404E+03 -0.11283481176E+04  0.15365291653E+04  0.46999998093E+01 0. -1.
       -5    1    3    3    0  502 -0.10318662625E+04  0.15159923404E+03  0.88982067104E+03  0.13709606953E+04  0.46999998093E+01 0.  1.
</event>
<event>
 5   0  0.5730920E-06  0.2975039E+04  0.7818609E-02  0.8250895E-01
       -1   -1    0    0    0  501  0.00000000000E+00  0.00000000000E+00  0.90017292160E+03  0.90017292161E+03  0.50400001928E-02 0. -1.
        1   -1    0    0  501    0  0.00000000000E+00  0.00000000000E+00 -0.24580992907E+04  0.24580992907E+04  0.50400001928E-02 0.  1.
    10030    2    1    2    0    0  0.00000000000E+00  0.00000000000E+00 -0.15579263691E+04  0.33582722123E+04  0.29750391057E+04 0.  0.
        1    1    3    3  502    0 -0.10387194887E+04 -0.10285307139E+04 -0.46797317643E+03  0.15348656291E+04  0.50400001928E-02 0. -1.
       -1    1    3    3    0  502  0.10387194887E+04  0.10285307139E+04 -0.10899531927E+04  0.18234065832E+04  0.50400001928E-02 0.  1.
</event>
<event>
 5   0  0.1388724E-05  0.2993882E+04  0.7818609E-02  0.8245480E-01
        2   -1    0    0  501    0  0.00000000000E+00  0.00000000000E+00  0.20538319035E+04  0.20538319035E+04  0.25500000920E-02 0. -1.
       -2   -1    0    0    0  501  0.00000000000E+00  0.00000000000E+00 -0.10910497270E+04  0.10910497270E+04  0.25500000920E-02 0.  1.
    10030    2    1    2    0    0  0.00000000000E+00  0.00000000000E+00  0.96278217658E+03  0.31448816305E+04  0.29938822539E+04 0.  0.
        4    1    3    3  502    0 -0.95455923146E+03  0.43188992993E+03  0.16044829698E+04  0.19162670616E+04  0.12699999809E+01 0. -1.
       -4    1    3    3    0  502  0.95455923146E+03 -0.43188992993E+03 -0.64170079325E+03  0.12286145689E+04  0.12699999809E+01 0.  1.
</event>
<event>
 5   0  0.1423692E-05  0.2971326E+04  0.7818609E-02  0.8251967E-01
        2   -1    0    0  501    0  0.00000000000E+00  0.00000000000E+00  0.23824589232E+04  0.23824589232E+04  0.25500000920E-02 0. -1.
       -2   -1    0    0    0  501  0.00000000000E+00  0.00000000000E+00 -0.92643544851E+03  0.92643544851E+03  0.25500000920E-02 0.  1.
    10030    2    1    2    0    0  0.00000000000E+00  0.00000000000E+00  0.14560234747E+04  0.33088943717E+04  0.29713259001E+04 0.  0.
        3    1    3    3  502    0 -0.11587881132E+04  0.90197065190E+03  0.47688509227E+03  0.15439431174E+04  0.10100000352E+00 0. -1.
       -3    1    3    3    0  502  0.11587881132E+04 -0.90197065190E+03  0.97913838244E+03  0.17649512544E+04  0.10100000352E+00 0.  1.
</event>
<event>
 5   0  0.1523029E-05  0.3065686E+04  0.7818609E-02  0.8225219E-01
       -2   -1    0    0    0  501  0.00000000000E+00  0.00000000000E+00  0.10802155457E+04  0.10802155457E+04  0.25500000920E-02 0.  1.
        2   -1    0    0  501    0  0.00000000000E+00  0.00000000000E+00 -0.21751278803E+04  0.21751278803E+04  0.25500000920E-02 0. -1.
    10030    2    1    2    0    0  0.00000000000E+00  0.00000000000E+00 -0.10949123346E+04  0.32553434260E+04  0.30656855351E+04 0.  0.
        5    1    3    3  502    0  0.21169287908E+03 -0.57187404412E+03  0.94586363557E+03  0.11254038851E+04  0.46999998093E+01 0.  1.
       -5    1    3    3    0  502 -0.21169287908E+03  0.57187404412E+03 -0.20407759702E+04  0.21299395409E+04  0.46999998093E+01 0. -1.
</event>
<event>
 5   0  0.1423692E-05  0.2401371E+04  0.7818609E-02  0.8438990E-01
        2   -1    0    0  501    0  0.00000000000E+00  0.00000000000E+00  0.11630258686E+04  0.11630258686E+04  0.25500000920E-02 0. -1.
       -2   -1    0    0    0  501  0.00000000000E+00  0.00000000000E+00 -0.12395646255E+04  0.12395646255E+04  0.25500000920E-02 0.  1.
    10030    2    1    2    0    0  0.00000000000E+00  0.00000000000E+00 -0.76538756928E+02  0.24025904941E+04  0.24013710461E+04 0.  0.
        3    1    3    3  502    0  0.11767484176E+04  0.23671789380E+03 -0.67839680630E+02  0.12022372612E+04  0.10100000352E+00 0. -1.
       -3    1    3    3    0  502 -0.11767484176E+04 -0.23671789380E+03 -0.86990762975E+01  0.12003532329E+04  0.10100000352E+00 0.  1.
</event>
<event>
 5   0  0.5522695E-06  0.3091149E+04  0.7818609E-02  0.8218171E-01
        1   -1    0    0  501    0  0.00000000000E+00  0.00000000000E+00  0.12251947728E+04  0.12251947729E+04  0.50400001928E-02 0.  1.
       -1   -1    0    0    0  501  0.00000000000E+00  0.00000000000E+00 -0.19497309550E+04  0.19497309550E+04  0.50400001928E-02 0. -1.
    10030    2    1    2    0    0  0.00000000000E+00  0.00000000000E+00 -0.72453618215E+03  0.31749257279E+04  0.30911487667E+04 0.  0.
        3    1    3    3  502    0  0.25518285708E+03  0.65652063871E+03  0.10507582405E+04  0.12650021857E+04  0.10100000352E+00 0.  1.
       -3    1    3    3    0  502 -0.25518285708E+03 -0.65652063871E+03 -0.17752944227E+04  0.19099235422E+04  0.10100000352E+00 0. -1.
</event>
<event>
 5   0  0.5522695E-06  0.1601209E+04  0.7818609E-02  0.8819805E-01
       -1   -1    0    0    0  501  0.00000000000E+00  0.00000000000E+00  0.76109131073E+03  0.76109131074E+03  0.50400001928E-02 0. -1.
        1   -1    0    0  501    0  0.00000000000E+00  0.00000000000E+00 -0.84216946772E+03  0.84216946774E+03  0.50400001928E-02 0.  1.
    10030    2    1    2    0    0  0.00000000000E+00  0.00000000000E+00 -0.81078157000E+02  0.16032607785E+04  0.16012093730E+04 0.  0.
        3    1    3    3  502    0 -0.56848566812E+03  0.53036298089E+03  0.15077378061E+03  0.79195554767E+03  0.10100000352E+00 0.  1.
       -3    1    3    3    0  502  0.56848566812E+03 -0.53036298089E+03 -0.23185193761E+03  0.81130523081E+03  0.10100000352E+00 0. -1.
</event>
<event>
 5   0  0.1388724E-05  0.3044113E+04  0.7818609E-02  0.8231245E-01
        2   -1    0    0  501    0  0.00000000000E+00  0.00000000000E+00  0.16743914248E+04  0.16743914248E+04  0.25500000920E-02 0. -1.
       -2   -1    0    0    0  501  0.00000000000E+00  0.00000000000E+00 -0.13835805013E+04  0.13835805013E+04  0.25500000920E-02 0.  1.
    10030    2    1    2    0    0  0.00000000000E+00  0.00000000000E+00  0.29081092357E+03  0.30579719261E+04  0.30441125649E+04 0.  0.
        4    1    3    3  502    0  0.44307430649E+03 -0.74362003779E+03 -0.11122401789E+04  0.14093847701E+04  0.12699999809E+01 0.  1.
       -4    1    3    3    0  502 -0.44307430649E+03  0.74362003779E+03  0.14030511025E+04  0.16485871560E+04  0.12699999809E+01 0. -1.
</event>
<event>
 5   0  0.7032692E-06  0.2488843E+04  0.7818609E-02  0.8406971E-01
        1   -1    0    0  501    0  0.00000000000E+00  0.00000000000E+00  0.16633205638E+04  0.16633205638E+04  0.50400001928E-02 0.  1.
       -1   -1    0    0    0  501  0.00000000000E+00  0.00000000000E+00 -0.93102016737E+03  0.93102016738E+03  0.50400001928E-02 0. -1.
    10030    2    1    2    0    0  0.00000000000E+00  0.00000000000E+00  0.73230039638E+03  0.25943407311E+04  0.24888430964E+04 0.  0.
        5    1    3    3  502    0  0.30468356868E+03 -0.10237810368E+04 -0.29935016114E+03  0.11093206467E+04  0.46999998093E+01 0. -1.
       -5    1    3    3    0  502 -0.30468356868E+03  0.10237810368E+04  0.10316505575E+04  0.14850200844E+04  0.46999998093E+01 0.  1.
</event>
<event>
 5   0  0.5522695E-06  0.2617680E+04  0.7818609E-02  0.8362220E-01
       -1   -1    0    0    0  501  0.00000000000E+00  0.00000000000E+00  0.12841852947E+04  0.12841852947E+04  0.50400001928E-02 0.  1.
        1   -1    0    0  501    0  0.00000000000E+00  0.00000000000E+00 -0.13339682926E+04  0.13339682926E+04  0.50400001928E-02 0. -1.
    10030    2    1    2    0    0  0.00000000000E+00  0.00000000000E+00 -0.49782997897E+02  0.26181535874E+04  0.26176802441E+04 0.  0.
        3    1    3    3  502    0  0.69947472028E+03  0.11045202603E+04  0.37027409350E+02  0.13078994338E+04  0.10100000352E+00 0.  1.
       -3    1    3    3    0  502 -0.69947472028E+03 -0.11045202603E+04 -0.86810407247E+02  0.13102541535E+04  0.10100000352E+00 0. -1.
</event>
<event>
 5   0  0.5522695E-06  0.3041560E+04  0.7818609E-02  0.8231962E-01
       -1   -1    0    0    0  501  0.00000000000E+00  0.00000000000E+00  0.83878418289E+03  0.83878418290E+03  0.50400001928E-02 0.  1.
        1   -1    0    0  501    0  0.00000000000E+00  0.00000000000E+00 -0.27572910182E+04  0.27572910183E+04  0.50400001928E-02 0. -1.
    10030    2    1    2    0    0  0.00000000000E+00  0.00000000000E+00 -0.19185068354E+04  0.35960752012E+04  0.30415601876E+04 0.  0.
        3    1    3    3  502    0  0.76113032523E+03 -0.22272398738E+03  0.57495241706E+03  0.97953848246E+03  0.10100000352E+00 0.  1.
       -3    1    3    3    0  502 -0.76113032523E+03  0.22272398738E+03 -0.24934592524E+04  0.26165367187E+04  0.10100000352E+00 0. -1.
</event>
<event>
 5   0  0.1480547E-05  0.2915345E+04  0.7818609E-02  0.8268326E-01
       -2   -1    0    0    0  501  0.00000000000E+00  0.00000000000E+00  0.13220043793E+04  0.13220043793E+04  0.25500000920E-02 0. -1.
        2   -1    0    0  501    0  0.00000000000E+00  0.00000000000E+00 -0.16072636049E+04  0.16072636049E+04  0.25500000920E-02 0.  1.
    10030    2    1    2    0    0  0.00000000000E+00  0.00000000000E+00 -0.28525922561E+03  0.29292679842E+04  0.29153452793E+04 0.  0.
        1    1    3    3  502    0  0.78734931225E+03  0.66826200613E+03  0.89102842420E+03  0.13639738638E+04  0.50400001928E-02 0. -1.
       -1    1    3    3    0  502 -0.78734931225E+03 -0.66826200613E+03 -0.11762876498E+04  0.15652941204E+04  0.50400001928E-02 0.  1.
</event>
<event>
 5   0  0.5392262E-06  0.2939509E+04  0.7818609E-02  0.8261219E-01
        1   -1    0    0  501    0  0.00000000000E+00  0.00000000000E+00  0.26096362715E+04  0.26096362715E+04  0.50400001928E-02 0. -1.
       -1   -1    0    0    0  501  0.00000000000E+00  0.00000000000E+00 -0.82776975682E+03  0.82776975683E+03  0.50400001928E-02 0.  1.
    10030    2    1    2    0    0  0.00000000000E+00  0.00000000000E+00  0.17818665147E+04  0.34374060283E+04  0.29395087902E+04 0.  0.
        2    1    3    3  502    0  0.23657715241E+02 -0.93168225818E+02  0.26059565181E+04  0.26077287781E+04  0.25500000920E-02 0. -1.
       -2    1    3    3    0  502 -0.23657715241E+02  0.93168225818E+02 -0.82409000344E+03  0.82967725024E+03  0.25500000920E-02 0.  1.
</event>
<event>
 5   0  0.5522695E-06  0.1479744E+04  0.7818609E-02  0.8898036E-01
       -1   -1    0    0    0  501  0.00000000000E+00  0.00000000000E+00  0.94489303299E+03  0.94489303300E+03  0.50400001928E-02 0.  1.
        1   -1    0    0  501    0  0.00000000000E+00  0.00000000000E+00 -0.57933584913E+03  0.57933584915E+03  0.50400001928E-02 0. -1.
    10030    2    1    2    0    0  0.00000000000E+00  0.00000000000E+00  0.36555718385E+03  0.15242288822E+04  0.14797437719E+04 0.  0.
        3    1    3    3  502    0  0.55405088260E+03 -0.46874687285E+03  0.34526886007E+02  0.72655910109E+03  0.10100000352E+00 0.  1.
       -3    1    3    3    0  502 -0.55405088260E+03  0.46874687285E+03  0.33103029785E+03  0.79766978106E+03  0.10100000352E+00 0. -1.
</event>
<event>
 5   0  0.5392262E-06  0.3030367E+04  0.7818609E-02  0.8235112E-01
       -1   -1    0    0    0  501  0.00000000000E+00  0.00000000000E+00  0.17103580516E+04  0.17103580516E+04  0.50400001928E-02 0.  1.
        1   -1    0    0  501    0  0.00000000000E+00  0.00000000000E+00 -0.13422813528E+04  0.13422813528E+04  0.50400001928E-02 0. -1.
    10030    2    1    2    0    0  0.00000000000E+00  0.00000000000E+00  0.36807669883E+03  0.30526394045E+04  0.30303674492E+04 0.  0.
        2    1    3    3  502    0 -0.63842638821E+03 -0.11466321421E+03  0.15634254339E+04  0.16926414249E+04  0.25500000920E-02 0.  1.
       -2    1    3    3    0  502  0.63842638821E+03  0.11466321421E+03 -0.11953487351E+04  0.13599979795E+04  0.25500000920E-02 0. -1.
</event>
<event>
 5   0  0.5522695E-06  0.3023244E+04  0.7818609E-02  0.8237124E-01
        1   -1    0    0  501    0  0.00000000000E+00  0.00000000000E+00  0.19922293238E+04  0.19922293238E+04  0.50400001928E-02 0. -1.
       -1   -1    0    0    0  501  0.00000000000E+00  0.00000000000E+00 -0.11469571763E+04  0.11469571763E+04  0.50400001928E-02 0.  1.
    10030    2    1    2    0    0  0.00000000000E+00  0.00000000000E+00  0.84527214752E+03  0.31391865002E+04  0.30232444293E+04 0.  0.
        3    1    3    3  502    0 -0.11092583796E+04 -0.30787130612E+03  0.14398816660E+04  0.18435015911E+04  0.10100000352E+00 0. -1.
       -3    1    3    3    0  502  0.11092583796E+04  0.30787130612E+03 -0.59460951850E+03  0.12956849091E+04  0.10100000352E+00 0.  1.
</event>
<event>
 5   0  0.1523029E-05  0.2704370E+04  0.7818609E-02  0.8333589E-01
        2   -1    0    0  501    0  0.00000000000E+00  0.00000000000E+00  0.14540923646E+04  0.14540923646E+04  0.25500000920E-02 0.  1.
       -2   -1    0    0    0  501  0.00000000000E+00  0.00000000000E+00 -0.12574194137E+04  0.12574194137E+04  0.25500000920E-02 0. -1.
    10030    2    1    2    0    0  0.00000000000E+00  0.00000000000E+00  0.19667295092E+03  0.27115117782E+04  0.27043697739E+04 0.  0.
        5    1    3    3  502    0  0.92978433113E+03  0.43848147836E+03 -0.78240065719E+03  0.12918737507E+04  0.46999998093E+01 0. -1.
       -5    1    3    3    0  502 -0.92978433113E+03 -0.43848147836E+03  0.97907360811E+03  0.14196380276E+04  0.46999998093E+01 0.  1.
</event>
<event>
 5   0  0.1480547E-05  0.1900329E+04  0.7818609E-02  0.8654693E-01
       -2   -1    0    0    0  501  0.00000000000E+00  0.00000000000E+00  0.48961668668E+03  0.48961668669E+03  0.25500000920E-02 0.  1.
        2   -1    0    0  501    0  0.00000000000E+00  0.00000000000E+00 -0.18439169503E+04  0.18439169503E+04  0.25500000920E-02 0. -1.
    10030    2    1    2    0    0  0.00000000000E+00  0.00000000000E+00 -0.13543002636E+04  0.23335336370E+04  0.19003289270E+04 0.  0.
        1    1    3    3  502    0  0.76501695766E+03 -0.31726937434E+03 -0.10525451181E+03  0.83485885854E+03  0.50400001928E-02 0. -1.
       -1    1    3    3    0  502 -0.76501695766E+03  0.31726937434E+03 -0.12490457518E+04  0.14986747785E+04  0.50400001928E-02 0.  1.
</event>
<event>
 5   0  0.5730920E-06  0.2211968E+04  0.7818609E-02  0.8513463E-01
       -1   -1    0    0    0  501  0.00000000000E+00  0.00000000000E+00  0.70489560243E+03  0.70489560244E+03  0.50400001928E-02 0.  1.
        1   -1    0    0  501    0  0.00000000000E+00  0.00000000000E+00 -0.17352938344E+04  0.17352938344E+04  0.50400001928E-02 0. -1.
    10030    2    1    2    0    0  0.00000000000E+00  0.00000000000E+00 -0.10303982320E+04  0.24401894369E+04  0.22119683477E+04 0.  0.
        1    1    3    3  502    0  0.62402948453E+03 -0.75402569102E+03 -0.10833435861E+04  0.14600002966E+04  0.50400001928E-02 0.  1.
       -1    1    3    3    0  502 -0.62402948453E+03  0.75402569102E+03  0.52945354128E+02  0.98018914033E+03  0.50400001928E-02 0. -1.
</event>
<event>
 5   0  0.1345931E-05  0.2964409E+04  0.7818609E-02  0.8253968E-01
       -2   -1    0    0    0  501  0.00000000000E+00  0.00000000000E+00  0.12060122821E+04  0.12060122821E+04  0.25500000920E-02 0.  1.
        2   -1    0    0  501    0  0.00000000000E+00  0.00000000000E+00 -0.18216480716E+04  0.18216480716E+04  0.25500000920E-02 0. -1.
    10030    2    1    2    0    0  0.00000000000E+00  0.00000000000E+00 -0.61563578958E+03  0.30276603537E+04  0.29644088436E+04 0.  0.
        2    1    3    3  502    0  0.98640690321E+03 -0.12148376738E+03 -0.14309045986E+04  0.17421954124E+04  0.25500000920E-02 0. -1.
       -2    1    3    3    0  502 -0.98640690321E+03  0.12148376738E+03  0.81526880905E+03  0.12854649414E+04  0.25500000920E-02 0.  1.
</event>
<event>
 5   0  0.1523029E-05  0.2783104E+04  0.7818609E-02  0.8308533E-01
       -2   -1    0    0    0  501  0.00000000000E+00  0.00000000000E+00  0.10702484908E+04  0.10702484908E+04  0.25500000920E-02 0.  1.
        2   -1    0    0  501    0  0.00000000000E+00  0.00000000000E+00 -0.18093151076E+04  0.18093151076E+04  0.25500000920E-02 0. -1.
    10030    2    1    2    0    0  0.00000000000E+00  0.00000000000E+00 -0.73906661674E+03  0.28795635984E+04  0.27831038524E+04 0.  0.
        5    1    3    3  502    0 -0.99245417146E+03  0.31800558357E+03  0.58454456012E+03  0.11949088946E+04  0.46999998093E+01 0.  1.
       -5    1    3    3    0  502  0.99245417146E+03 -0.31800558357E+03 -0.13236111769E+04  0.16846547038E+04  0.46999998093E+01 0. -1.
</event>
<event>
 5   0  0.5392262E-06  0.2884143E+04  0.7818609E-02  0.8277611E-01
       -1   -1    0    0    0  501  0.00000000000E+00  0.00000000000E+00  0.13600909178E+04  0.13600909178E+04  0.50400001928E-02 0.  1.
        1   -1    0    0  501    0  0.00000000000E+00  0.00000000000E+00 -0.15289937592E+04  0.15289937592E+04  0.50400001928E-02 0. -1.
    10030    2    1    2    0    0  0.00000000000E+00  0.00000000000E+00 -0.16890284141E+03  0.28890846771E+04  0.28841432179E+04 0.  0.
        2    1    3    3  502    0  0.13525005801E+04 -0.52475361927E+01 -0.58559365731E+03  0.14738403194E+04  0.25500000920E-02 0. -1.
       -2    1    3    3    0  502 -0.13525005801E+04  0.52475361927E+01  0.41669081589E+03  0.14152443576E+04  0.25500000920E-02 0.  1.
</event>
<event>
 5   0  0.1345931E-05  0.2959039E+04  0.7818609E-02  0.8255525E-01
       -2   -1    0    0    0  501  0.00000000000E+00  0.00000000000E+00  0.17348698294E+04  0.17348698294E+04  0.25500000920E-02 0.  1.
        2   -1    0    0  501    0  0.00000000000E+00  0.00000000000E+00 -0.12617531630E+04  0.12617531630E+04  0.25500000920E-02 0. -1.
    10030    2    1    2    0    0  0.00000000000E+00  0.00000000000E+00  0.47311666648E+03  0.29966229924E+04  0.29590386916E+04 0.  0.
        2    1    3    3  502    0  0.10816223563E+04 -0.88629032262E+03  0.72597722728E+03  0.15755825564E+04  0.25500000920E-02 0.  1.
       -2    1    3    3    0  502 -0.10816223563E+04  0.88629032262E+03 -0.25286056080E+03  0.14210404360E+04  0.25500000920E-02 0. -1.
</event>
<event>
 5   0  0.1423692E-05  0.2675888E+04  0.7818609E-02  0.8342871E-01
        2   -1    0    0  501    0  0.00000000000E+00  0.00000000000E+00  0.22244441772E+04  0.22244441772E+04  0.25500000920E-02 0. -1.
       -2   -1    0    0    0  501  0.00000000000E+00  0.00000000000E+00 -0.80473763963E+03  0.80473763964E+03  0.25500000920E-02 0.  1.
    10030    2    1    2    0    0  0.00000000000E+00  0.00000000000E+00  0.14197065376E+04  0.30291818169E+04  0.26758878577E+04 0.  0.
        3    1    3    3  502    0 -0.60665734034E+03  0.35730416328E+03 -0.57807231628E+03  0.91097036546E+03  0.10100000352E+00 0.  1.
       -3    1    3    3    0  502  0.60665734034E+03 -0.35730416328E+03  0.19977788539E+04  0.21182114514E+04  0.10100000352E+00 0. -1.
</event>
<event>
 5   0  0.4806125E-06  0.1499959E+04  0.7818609E-02  0.8884480E-01
        3   -1    0    0  501    0  0.00000000000E+00  0.00000000000E+00  0.46530033381E+03  0.46530034477E+03  0.10100000352E+00 0.  1.
       -3   -1    0    0    0  501  0.00000000000E+00  0.00000000000E+00 -0.12088303199E+04  0.12088303241E+04  0.10100000352E+00 0. -1.
    10030    2    1    2    0    0  0.00000000000E+00  0.00000000000E+00 -0.74352998605E+03  0.16741306688E+04  0.14999588848E+04 0.  0.
        5    1    3    3  502    0  0.67814951660E+03 -0.29574931641E+03 -0.50888244496E+03  0.89796317174E+03  0.46999998093E+01 0. -1.
       -5    1    3    3    0  502 -0.67814951660E+03  0.29574931641E+03 -0.23464754109E+03  0.77616749710E+03  0.46999998093E+01 0.  1.
</event>
<event>
 5   0  0.7032692E-06  0.2994451E+04  0.7818609E-02  0.8245317E-01
       -1   -1    0    0    0  501  0.00000000000E+00  0.00000000000E+00  0.18322177094E+04  0.18322177094E+04  0.50400001928E-02 0.  1.
        1   -1    0    0  501    0  0.00000000000E+00  0.00000000000E+00 -0.12234813595E+04  0.12234813595E+04  0.50400001928E-02 0. -1.
    10030    2    1    2    0    0  0.00000000000E+00  0.00000000000E+00  0.60873634988E+03  0.30556990689E+04  0.29944510108E+04 0.  0.
        5    1    3    3  502    0  0.65216711452E+03 -0.90946585111E+03 -0.71056644610E+03  0.13256609083E+04  0.46999998093E+01 0. -1.
       -5    1    3    3    0  502 -0.65216711452E+03  0.90946585111E+03  0.13193027960E+04  0.17300381606E+04  0.46999998093E+01 0.  1.
</event>
<event>
 5   0  0.1480547E-05  0.2251139E+04  0.7818609E-02  0.8497440E-01
        2   -1    0    0  501    0  0.00000000000E+00  0.00000000000E+00  0.12282350703E+04  0.12282350703E+04  0.25500000920E-02 0.  1.
       -2   -1    0    0    0  501  0.00000000000E+00  0.00000000000E+00 -0.10314852036E+04  0.10314852036E+04  0.25500000920E-02 0. -1.
    10030    2    1    2    0    0  0.00000000000E+00  0.00000000000E+00  0.19674986667E+03  0.22597202739E+04  0.22511386466E+04 0.  0.
        1    1    3    3  502    0  0.18755253008E+03 -0.94256975592E+03 -0.48977040953E+03  0.10786513572E+04  0.50400001928E-02 0. -1.
       -1    1    3    3    0  502 -0.18755253008E+03  0.94256975592E+03  0.68652027619E+03  0.11810689167E+04  0.50400001928E-02 0.  1.
</event>
<event>
 5   0  0.5329891E-06  0.3068630E+04  0.7818609E-02  0.8224400E-01
       -1   -1    0    0    0  501  0.00000000000E+00  0.00000000000E+00  0.12550772277E+04  0.12550772277E+04  0.50400001928E-02 0. -1.
        1   -1    0    0  501    0  0.00000000000E+00  0.00000000000E+00 -0.18756792211E+04  0.18756792211E+04  0.50400001928E-02 0.  1.
    10030    2    1    2    0    0  0.00000000000E+00  0.00000000000E+00 -0.62060199338E+03  0.31307564489E+04  0.30686298421E+04 0.  0.
        4    1    3    3  502    0 -0.13422524750E+04 -0.60670736949E+03  0.12779342254E+03  0.14785358672E+04  0.12699999809E+01 0. -1.
       -4    1    3    3    0  502  0.13422524750E+04  0.60670736949E+03 -0.74839541591E+03  0.16522205816E+04  0.12699999809E+01 0.  1.
</event>
<event>
 5   0  0.5392262E-06  0.3158924E+04  0.7818609E-02  0.8199750E-01
       -1   -1    0    0    0  501  0.00000000000E+00  0.00000000000E+00  0.10004885549E+04  0.10004885549E+04  0.50400001928E-02 0.  1.
        1   -1    0    0  501    0  0.00000000000E+00  0.00000000000E+00 -0.24934812413E+04  0.24934812413E+04  0.50400001928E-02 0. -1.
    10030    2    1    2    0    0  0.00000000000E+00  0.00000000000E+00 -0.14929926863E+04  0.34939697962E+04  0.31589235153E+04 0.  0.
        2    1    3    3  502    0 -0.12299000944E+03  0.79409259911E+03  0.75750179500E+03  0.11043181461E+04  0.25500000920E-02 0.  1.
       -2    1    3    3    0  502  0.12299000944E+03 -0.79409259911E+03 -0.22504944813E+04  0.23896516501E+04  0.25500000920E-02 0. -1.
</event>
<event>
 5   0  0.1388724E-05  0.2975029E+04  0.7818609E-02  0.8250898E-01
       -2   -1    0    0    0  501  0.00000000000E+00  0.00000000000E+00  0.10971994601E+04  0.10971994601E+04  0.25500000920E-02 0.  1.
        2   -1    0    0  501    0  0.00000000000E+00  0.00000000000E+00 -0.20166797103E+04  0.20166797103E+04  0.25500000920E-02 0. -1.
    10030    2    1    2    0    0  0.00000000000E+00  0.00000000000E+00 -0.91948025020E+03  0.31138791705E+04  0.29750293373E+04 0.  0.
        4    1    3    3  502    0  0.11868852506E+04 -0.80881306021E+03 -0.54604988147E+02  0.14373094594E+04  0.12699999809E+01 0.  1.
       -4    1    3    3    0  502 -0.11868852506E+04  0.80881306021E+03 -0.86487526205E+03  0.16765697111E+04  0.12699999809E+01 0. -1.
</event>
<event>
 5   0  0.1345931E-05  0.2973615E+04  0.7818609E-02  0.8251306E-01
        2   -1    0    0  501    0  0.00000000000E+00  0.00000000000E+00  0.12045059230E+04  0.12045059230E+04  0.25500000920E-02 0.  1.
       -2   -1    0    0    0  501  0.00000000000E+00  0.00000000000E+00 -0.18352725410E+04  0.18352725410E+04  0.25500000920E-02 0. -1.
    10030    2    1    2    0    0  0.00000000000E+00  0.00000000000E+00 -0.63076661807E+03  0.30397784640E+04  0.29736150699E+04 0.  0.
        2    1    3    3  502    0 -0.90231940443E+03  0.63139651896E+03  0.70571860918E+03  0.13080063559E+04  0.25500000920E-02 0.  1.
       -2    1    3    3    0  502  0.90231940443E+03 -0.63139651896E+03 -0.13364852272E+04  0.17317721081E+04  0.25500000920E-02 0. -1.
</event>
<event>
 5   0  0.1423692E-05  0.2990971E+04  0.7818609E-02  0.8246314E-01
       -2   -1    0    0    0  501  0.00000000000E+00  0.00000000000E+00  0.13761190613E+04  0.13761190613E+04  0.25500000920E-02 0. -1.
        2   -1    0    0  501    0  0.00000000000E+00  0.00000000000E+00 -0.16252055753E+04  0.16252055753E+04  0.25500000920E-02 0.  1.
    10030    2    1    2    0    0  0.00000000000E+00  0.00000000000E+00 -0.24908651399E+03  0.30013246365E+04  0.29909706589E+04 0.  0.
        3    1    3    3  502    0  0.71982519429E+03  0.75323015449E+03 -0.12010909443E+04  0.15900073719E+04  0.10100000352E+00 0.  1.
       -3    1    3    3    0  502 -0.71982519429E+03 -0.75323015449E+03  0.95200443031E+03  0.14113172647E+04  0.10100000352E+00 0. -1.
</event>
<event>
 5   0  0.5392262E-06  0.2127359E+04  0.7818609E-02  0.8549286E-01
        1   -1    0    0  501    0  0.00000000000E+00  0.00000000000E+00  0.22023945861E+04  0.22023945861E+04  0.50400001928E-02 0. -1.
       -1   -1    0    0    0  501  0.00000000000E+00  0.00000000000E+00 -0.51371989513E+03  0.51371989516E+03  0.50400001928E-02 0.  1.
    10030    2    1    2    0    0  0.00000000000E+00  0.00000000000E+00  0.16886746909E+04  0.27161144812E+04  0.21273588469E+04 0.  0.
        2    1    3    3  502    0 -0.62763731249E+03 -0.12266191392E+03  0.19295329383E+04  0.20327498374E+04  0.25500000920E-02 0. -1.
       -2    1    3    3    0  502  0.62763731249E+03  0.12266191392E+03 -0.24085824740E+03  0.68336464388E+03  0.25500000920E-02 0.  1.
</event>
<event>
 5   0  0.1388724E-05  0.2863245E+04  0.7818609E-02  0.8283898E-01
       -2   -1    0    0    0  501  0.00000000000E+00  0.00000000000E+00  0.14364524106E+04  0.14364524106E+04  0.25500000920E-02 0.  1.
        2   -1    0    0  501    0  0.00000000000E+00  0.00000000000E+00 -0.14268091054E+04  0.14268091054E+04  0.25500000920E-02 0. -1.
    10030    2    1    2    0    0  0.00000000000E+00  0.00000000000E+00  0.96433051941E+01  0.28632615160E+04  0.28632452769E+04 0.  0.
        4    1    3    3  502    0  0.13272188833E+02  0.20786410001E+03 -0.14115754976E+04  0.14268604113E+04  0.12699999809E+01 0. -1.
       -4    1    3    3    0  502 -0.13272188833E+02 -0.20786410001E+03  0.14212188028E+04  0.14364011047E+04  0.12699999809E+01 0.  1.
</event>
<event>
 5   0  0.1423692E-05  0.2983854E+04  0.7818609E-02  0.8248357E-01
        2   -1    0    0  501    0  0.00000000000E+00  0.00000000000E+00  0.14716739178E+04  0.14716739178E+04  0.25500000920E-02 0.  1.
       -2   -1    0    0    0  501  0.00000000000E+00  0.00000000000E+00 -0.15124589106E+04  0.15124589106E+04  0.25500000920E-02 0. -1.
    10030    2    1    2    0    0  0.00000000000E+00  0.00000000000E+00 -0.40784992773E+02  0.29841328285E+04  0.29838541054E+04 0.  0.
        3    1    3    3  502    0 -0.41493333999E+03 -0.79024510016E+03  0.11752062407E+04  0.14757258260E+04  0.10100000352E+00 0.  1.
       -3    1    3    3    0  502  0.41493333999E+03  0.79024510016E+03 -0.12159912335E+04  0.15084070025E+04  0.10100000352E+00 0. -1.
</event>
<event>
 5   0  0.5522695E-06  0.3102572E+04  0.7818609E-02  0.8215032E-01
       -1   -1    0    0    0  501  0.00000000000E+00  0.00000000000E+00  0.18100413397E+04  0.18100413397E+04  0.50400001928E-02 0.  1.
        1   -1    0    0  501    0  0.00000000000E+00  0.00000000000E+00 -0.13295214938E+04  0.13295214938E+04  0.50400001928E-02 0. -1.
    10030    2    1    2    0    0  0.00000000000E+00  0.00000000000E+00  0.48051984591E+03  0.31395628334E+04  0.31025723944E+04 0.  0.
        3    1    3    3  502    0  0.53055547637E+03  0.62275237628E+03  0.15739949842E+04  0.17739137116E+04  0.10100000352E+00 0.  1.
       -3    1    3    3    0  502 -0.53055547637E+03 -0.62275237628E+03 -0.10934751383E+04  0.13656491218E+04  0.10100000352E+00 0. -1.
</event>
<event>
 5   0  0.1480547E-05  0.2996401E+04  0.7818609E-02  0.8244759E-01
       -2   -1    0    0    0  501  0.00000000000E+00  0.00000000000E+00  0.13865870436E+04  0.13865870436E+04  0.25500000920E-02 0.  1.
        2   -1    0    0  501    0  0.00000000000E+00  0.00000000000E+00 -0.16187982031E+04  0.16187982031E+04  0.25500000920E-02 0. -1.
    10030    2    1    2    0    0  0.00000000000E+00  0.00000000000E+00 -0.23221115947E+03  0.30053852468E+04  0.29964009176E+04 0.  0.
        1    1    3    3  502    0 -0.80029262342E+03  0.91972248615E+03 -0.98949020957E+03  0.15701747067E+04  0.50400001928E-02 0. -1.
       -1    1    3    3    0  502  0.80029262342E+03 -0.91972248615E+03  0.75727905010E+03  0.14352105401E+04  0.50400001928E-02 0.  1.
</event>
<event>
 5   0  0.5392262E-06  0.2948809E+04  0.7818609E-02  0.8258502E-01
       -1   -1    0    0    0  501  0.00000000000E+00  0.00000000000E+00  0.12214442987E+04  0.12214442988E+04  0.50400001928E-02 0.  1.
        1   -1    0    0  501    0  0.00000000000E+00  0.00000000000E+00 -0.17797526613E+04  0.17797526613E+04  0.50400001928E-02 0. -1.
    10030    2    1    2    0    0  0.00000000000E+00  0.00000000000E+00 -0.55830836254E+03  0.30011969601E+04  0.29488090758E+04 0.  0.
        2    1    3    3  502    0  0.44221208598E+03 -0.12077657623E+04  0.45449829271E+03  0.13641181634E+04  0.25500000920E-02 0.  1.
       -2    1    3    3    0  502 -0.44221208598E+03  0.12077657623E+04 -0.10128066553E+04  0.16370787967E+04  0.25500000920E-02 0. -1.
</event>
<event>
 5   0  0.5730920E-06  0.2994845E+04  0.7818609E-02  0.8245205E-01
        1   -1    0    0  501    0  0.00000000000E+00  0.00000000000E+00  0.17403104165E+04  0.17403104165E+04  0.50400001928E-02 0. -1.
       -1   -1    0    0    0  501  0.00000000000E+00  0.00000000000E+00 -0.12884331675E+04  0.12884331675E+04  0.50400001928E-02 0.  1.
    10030    2    1    2    0    0  0.00000000000E+00  0.00000000000E+00  0.45187724906E+03  0.30287435840E+04  0.29948446787E+04 0.  0.
        1    1    3    3  502    0 -0.93327665987E+02  0.11729057683E+04  0.11626274002E+04  0.16541222646E+04  0.50400001928E-02 0. -1.
       -1    1    3    3    0  502  0.93327665987E+02 -0.11729057683E+04 -0.71075015112E+03  0.13746213194E+04  0.50400001928E-02 0.  1.
</event>
<event>
 5   0  0.1388724E-05  0.2987782E+04  0.7818609E-02  0.8247228E-01
       -2   -1    0    0    0  501  0.00000000000E+00  0.00000000000E+00  0.11516086811E+04  0.11516086811E+04  0.25500000920E-02 0.  1.
        2   -1    0    0  501    0  0.00000000000E+00  0.00000000000E+00 -0.19379065233E+04  0.19379065234E+04  0.25500000920E-02 0. -1.
    10030    2    1    2    0    0  0.00000000000E+00  0.00000000000E+00 -0.78629784228E+03  0.30895152044E+04  0.29877817694E+04 0.  0.
        4    1    3    3  502    0 -0.86067662029E+03  0.12088618493E+04 -0.57104500573E+03  0.15900330899E+04  0.12699999809E+01 0.  1.
       -4    1    3    3    0  502  0.86067662029E+03 -0.12088618493E+04 -0.21525283654E+03  0.14994821146E+04  0.12699999809E+01 0. -1.
</event>
<event>
 5   0  0.1388724E-05  0.1849926E+04  0.7818609E-02  0.8680191E-01
       -2   -1    0    0    0  501  0.00000000000E+00  0.00000000000E+00  0.75261815080E+03  0.75261815081E+03  0.25500000920E-02 0. -1.
        2   -1    0    0  501    0  0.00000000000E+00  0.00000000000E+00 -0.11367736956E+04  0.11367736956E+04  0.25500000920E-02 0.  1.
    10030    2    1    2    0    0  0.00000000000E+00  0.00000000000E+00 -0.38415554483E+03  0.18893918464E+04  0.18499259625E+04 0.  0.
        4    1    3    3  502    0  0.16464176494E+03 -0.75186327702E+03  0.33184714207E+03  0.83817029099E+03  0.12699999809E+01 0. -1.
       -4    1    3    3    0  502 -0.16464176494E+03  0.75186327702E+03 -0.71600268690E+03  0.10512215555E+04  0.12699999809E+01 0.  1.
</event>
<event>
 5   0  0.1388724E-05  0.3009198E+04  0.7818609E-02  0.8241109E-01
        2   -1    0    0  501    0  0.00000000000E+00  0.00000000000E+00  0.19288970119E+04  0.19288970119E+04  0.25500000920E-02 0.  1.
       -2   -1    0    0    0  501  0.00000000000E+00  0.00000000000E+00 -0.11736333332E+04  0.11736333332E+04  0.25500000920E-02 0. -1.
    10030    2    1    2    0    0  0.00000000000E+00  0.00000000000E+00  0.75526367873E+03  0.31025303451E+04  0.30091977864E+04 0.  0.
        4    1    3    3  502    0  0.27546911166E+02  0.12278672990E+04 -0.51846219817E+03  0.13331247504E+04  0.12699999809E+01 0. -1.
       -4    1    3    3    0  502 -0.27546911166E+02 -0.12278672990E+04  0.12737258769E+04  0.17694055947E+04  0.12699999809E+01 0.  1.
</event>
<event>
 5   0  0.5730920E-06  0.2602886E+04  0.7818609E-02  0.8367221E-01
       -1   -1    0    0    0  501  0.00000000000E+00  0.00000000000E+00  0.13450544125E+04  0.13450544125E+04  0.50400001928E-02 0. -1.
        1   -1    0    0  501    0  0.00000000000E+00  0.00000000000E+00 -0.12592460691E+04  0.12592460691E+04  0.50400001928E-02 0.  1.
    10030    2    1    2    0    0  0.00000000000E+00  0.00000000000E+00  0.85808343394E+02  0.26043004817E+04  0.26028864607E+04 0.  0.
        1    1    3    3  502    0  0.84142480188E+03  0.98004294622E+03  0.20197043603E+03  0.13073912692E+04  0.50400001928E-02 0.  1.
       -1    1    3    3    0  502 -0.84142480188E+03 -0.98004294622E+03 -0.11616209264E+03  0.12969092125E+04  0.50400001928E-02 0. -1.
</event>
<event>
 5   0  0.1423692E-05  0.2012831E+04  0.7818609E-02  0.8600645E-01
       -2   -1    0    0    0  501  0.00000000000E+00  0.00000000000E+00  0.72624350995E+03  0.72624350995E+03  0.25500000920E-02 0. -1.
        2   -1    0    0  501    0  0.00000000000E+00  0.00000000000E+00 -0.13946731346E+04  0.13946731346E+04  0.25500000920E-02 0.  1.
    10030    2    1    2    0    0  0.00000000000E+00  0.00000000000E+00 -0.66842962464E+03  0.21209166445E+04  0.20128311529E+04 0.  0.
        3    1    3    3  502    0 -0.13943494038E+03  0.52503741501E+03  0.55848957589E+03  0.77911296122E+03  0.10100000352E+00 0. -1.
       -3    1    3    3    0  502  0.13943494038E+03 -0.52503741501E+03 -0.12269192005E+04  0.13418036833E+04  0.10100000352E+00 0.  1.
</event>
<event>
 5   0  0.1480547E-05  0.2525309E+04  0.7818609E-02  0.8394024E-01
       -2   -1    0    0    0  501  0.00000000000E+00  0.00000000000E+00  0.10005448868E+04  0.10005448868E+04  0.25500000920E-02 0.  1.
        2   -1    0    0  501    0  0.00000000000E+00  0.00000000000E+00 -0.15934281730E+04  0.15934281730E+04  0.25500000920E-02 0. -1.
    10030    2    1    2    0    0  0.00000000000E+00  0.00000000000E+00 -0.59288328623E+03  0.25939730599E+04  0.25253090196E+04 0.  0.
        1    1    3    3  502    0 -0.79213147872E+03 -0.35359185963E+03  0.64600028644E+03  0.10815802573E+04  0.50400001928E-02 0.  1.
       -1    1    3    3    0  502  0.79213147872E+03  0.35359185963E+03 -0.12388835727E+04  0.15123928026E+04  0.50400001928E-02 0. -1.
</event>
<event>
 5   0  0.5392262E-06  0.3016282E+04  0.7818609E-02  0.8239097E-01
        1   -1    0    0  501    0  0.00000000000E+00  0.00000000000E+00  0.24788972253E+04  0.24788972253E+04  0.50400001928E-02 0. -1.
       -1   -1    0    0    0  501  0.00000000000E+00  0.00000000000E+00 -0.91754050244E+03  0.91754050246E+03  0.50400001928E-02 0.  1.
    10030    2    1    2    0    0  0.00000000000E+00  0.00000000000E+00  0.15613567229E+04  0.33964377278E+04  0.30162815556E+04 0.  0.
        2    1    3    3  502    0  0.94585432948E+03  0.11580816596E+04  0.55917539026E+03  0.15963930155E+04  0.25500000920E-02 0.  1.
       -2    1    3    3    0  502 -0.94585432948E+03 -0.11580816596E+04  0.10021813326E+04  0.18000447123E+04  0.25500000920E-02 0. -1.
</event>
<event>
 5   0  0.5730920E-06  0.3017906E+04  0.7818609E-02  0.8238636E-01
       -1   -1    0    0    0  501  0.00000000000E+00  0.00000000000E+00  0.16027549924E+04  0.16027549924E+04  0.50400001928E-02 0. -1.
        1   -1    0    0  501    0  0.00000000000E+00  0.00000000000E+00 -0.14206412826E+04  0.14206412826E+04  0.50400001928E-02 0.  1.
    10030    2    1    2    0    0  0.00000000000E+00  0.00000000000E+00  0.18211370985E+03  0.30233962750E+04  0.30179064983E+04 0.  0.
        1    1    3    3  502    0 -0.10622117149E+04  0.85717667699E+03  0.73557333920E+03  0.15505204676E+04  0.50400001928E-02 0.  1.
       -1    1    3    3    0  502  0.10622117149E+04 -0.85717667699E+03 -0.55345962935E+03  0.14728758075E+04  0.50400001928E-02 0. -1.
</event>
<event>
 5   0  0.5426670E-06  0.1564597E+04  0.7818609E-02  0.8842597E-01
        1   -1    0    0  501    0  0.00000000000E+00  0.00000000000E+00  0.12682004334E+04  0.12682004334E+04  0.50400001928E-02 0. -1.
       -1   -1    0    0    0  501  0.00000000000E+00  0.00000000000E+00 -0.48256661434E+03  0.48256661436E+03  0.50400001928E-02 0.  1.
    10030    2    1    2    0    0  0.00000000000E+00  0.00000000000E+00  0.78563381910E+03  0.17507670478E+04  0.15645973150E+04 0.  0.
        2    1    3    3  502    0  0.34460452432E+03  0.31618389248E+03  0.10945457835E+04  0.11902751801E+04  0.25500000920E-02 0. -1.
       -2    1    3    3    0  502 -0.34460452432E+03 -0.31618389248E+03 -0.30891196442E+03  0.56049186775E+03  0.25500000920E-02 0.  1.
</event>
<event>
 5   0  0.1423692E-05  0.2770675E+04  0.7818609E-02  0.8312431E-01
       -2   -1    0    0    0  501  0.00000000000E+00  0.00000000000E+00  0.77460314376E+03  0.77460314377E+03  0.25500000920E-02 0. -1.
        2   -1    0    0  501    0  0.00000000000E+00  0.00000000000E+00 -0.24776043756E+04  0.24776043756E+04  0.25500000920E-02 0.  1.
    10030    2    1    2    0    0  0.00000000000E+00  0.00000000000E+00 -0.17030012318E+04  0.32522075194E+04  0.27706751079E+04 0.  0.
        3    1    3    3  502    0 -0.11478794985E+04  0.69827163405E+03 -0.45526922581E+03  0.14186192922E+04  0.10100000352E+00 0. -1.
       -3    1    3    3    0  502  0.11478794985E+04 -0.69827163405E+03 -0.12477320060E+04  0.18335882272E+04  0.10100000352E+00 0.  1.
</event>
<event>
 5   0  0.5392262E-06  0.2919197E+04  0.7818609E-02  0.8267189E-01
        1   -1    0    0  501    0  0.00000000000E+00  0.00000000000E+00  0.23735211619E+04  0.23735211620E+04  0.50400001928E-02 0. -1.
       -1   -1    0    0    0  501  0.00000000000E+00  0.00000000000E+00 -0.89758131262E+03  0.89758131264E+03  0.50400001928E-02 0.  1.
    10030    2    1    2    0    0  0.00000000000E+00  0.00000000000E+00  0.14759398493E+04  0.32711024746E+04  0.29191973144E+04 0.  0.
        2    1    3    3  502    0  0.12139074146E+04  0.80268684642E+02 -0.16573287595E+03  0.12277954468E+04  0.25500000920E-02 0.  1.
       -2    1    3    3    0  502 -0.12139074146E+04 -0.80268684642E+02  0.16416727253E+04  0.20433070278E+04  0.25500000920E-02 0. -1.
</event>
<event>
 5   0  0.1345931E-05  0.3067746E+04  0.7818609E-02  0.8224646E-01
       -2   -1    0    0    0  501  0.00000000000E+00  0.00000000000E+00  0.15640979400E+04  0.15640979400E+04  0.25500000920E-02 0.  1.
        2   -1    0    0  501    0  0.00000000000E+00  0.00000000000E+00 -0.15042323235E+04  0.15042323235E+04  0.25500000920E-02 0. -1.
    10030    2    1    2    0    0  0.00000000000E+00  0.00000000000E+00  0.59865616458E+02  0.30683302635E+04  0.30677461945E+04 0.  0.
        2    1    3    3  502    0  0.50072436873E+03  0.17507895600E+03  0.14694389610E+04  0.15622510664E+04  0.25500000920E-02 0.  1.
       -2    1    3    3    0  502 -0.50072436873E+03 -0.17507895600E+03 -0.14095733446E+04  0.15060791971E+04  0.25500000920E-02 0. -1.
</event>
<event>
 5   0  0.5522695E-06  0.3284735E+04  0.7818609E-02  0.8166791E-01
        1   -1    0    0  501    0  0.00000000000E+00  0.00000000000E+00  0.15392743754E+04  0.15392743754E+04  0.50400001928E-02 0.  1.
       -1   -1    0    0    0  501  0.00000000000E+00  0.00000000000E+00 -0.17523650912E+04  0.17523650912E+04  0.50400001928E-02 0. -1.
    10030    2    1    2    0    0  0.00000000000E+00  0.00000000000E+00 -0.21309071584E+03  0.32916394667E+04  0.32847348029E+04 0.  0.
        3    1    3    3  502    0  0.61680337802E+03 -0.71505719779E+03  0.12400118923E+04  0.15586477173E+04  0.10100000352E+00 0.  1.
       -3    1    3    3    0  502 -0.61680337802E+03  0.71505719779E+03 -0.14531026082E+04  0.17329917494E+04  0.10100000352E+00 0. -1.
</event>
<event>
 5   0  0.5730920E-06  0.2320333E+04  0.7818609E-02  0.8469947E-01
        1   -1    0    0  501    0  0.00000000000E+00  0.00000000000E+00  0.24801998412E+04  0.24801998412E+04  0.50400001928E-02 0.  1.
       -1   -1    0    0    0  501  0.00000000000E+00  0.00000000000E+00 -0.54269263134E+03  0.54269263136E+03  0.50400001928E-02 0. -1.
    10030    2    1    2    0    0  0.00000000000E+00  0.00000000000E+00  0.19375072099E+04  0.30228924726E+04  0.23203328883E+04 0.  0.
        1    1    3    3  502    0  0.91323381010E+03  0.46464228754E+03  0.16776617120E+04  0.19658172009E+04  0.50400001928E-02 0.  1.
       -1    1    3    3    0  502 -0.91323381010E+03 -0.46464228754E+03  0.25984549786E+03  0.10570752717E+04  0.50400001928E-02 0. -1.
</event>
<event>
 5   0  0.1388724E-05  0.2991915E+04  0.7818609E-02  0.8246043E-01
       -2   -1    0    0    0  501  0.00000000000E+00  0.00000000000E+00  0.85744710349E+03  0.85744710349E+03  0.25500000920E-02 0. -1.
        2   -1    0    0  501    0  0.00000000000E+00  0.00000000000E+00 -0.26099432604E+04  0.26099432604E+04  0.25500000920E-02 0.  1.
    10030    2    1    2    0    0  0.00000000000E+00  0.00000000000E+00 -0.17524961569E+04  0.34673903638E+04  0.29919146304E+04 0.  0.
        4    1    3    3  502    0 -0.13359076569E+04 -0.66820241448E+03 -0.97141329357E+03  0.17817937968E+04  0.12699999809E+01 0. -1.
       -4    1    3    3    0  502  0.13359076569E+04  0.66820241448E+03 -0.78108286329E+03  0.16855965670E+04  0.12699999809E+01 0.  1.
</event>
<event>
 5   0  0.1523029E-05  0.2917151E+04  0.7818609E-02  0.8267793E-01
       -2   -1    0    0    0  501  0.00000000000E+00  0.00000000000E+00  0.86288403174E+03  0.86288403174E+03  0.25500000920E-02 0.  1.
        2   -1    0    0  501    0  0.00000000000E+00  0.00000000000E+00 -0.24655016248E+04  0.24655016248E+04  0.25500000920E-02 0. -1.
    10030    2    1    2    0    0  0.00000000000E+00  0.00000000000E+00 -0.16026175931E+04  0.33283856566E+04  0.29171506525E+04 0.  0.
        5    1    3    3  502    0  0.62501057995E+03  0.12321126838E+04 -0.26775364470E+03  0.14072860388E+04  0.46999998093E+01 0.  1.
       -5    1    3    3    0  502 -0.62501057995E+03 -0.12321126838E+04 -0.13348639484E+04  0.19210996178E+04  0.46999998093E+01 0. -1.
</event>
<event>
 5   0  0.5392262E-06  0.2990351E+04  0.7818609E-02  0.8246492E-01
       -1   -1    0    0    0  501  0.00000000000E+00  0.00000000000E+00  0.93322050602E+03  0.93322050603E+03  0.50400001928E-02 0.  1.
        1   -1    0    0  501    0  0.00000000000E+00  0.00000000000E+00 -0.23955206888E+04  0.23955206888E+04  0.50400001928E-02 0. -1.
    10030    2    1    2    0    0  0.00000000000E+00  0.00000000000E+00 -0.14623001827E+04  0.33287411948E+04  0.29903505008E+04 0.  0.
        2    1    3    3  502    0 -0.19074431684E+03 -0.96068364200E+03  0.52640277394E+03  0.11119336018E+04  0.25500000920E-02 0.  1.
       -2    1    3    3    0  502  0.19074431684E+03  0.96068364200E+03 -0.19887029567E+04  0.22168075930E+04  0.25500000920E-02 0. -1.
</event>
<event>
 5   0  0.5392262E-06  0.3070702E+04  0.7818609E-02  0.8223825E-01
        1   -1    0    0  501    0  0.00000000000E+00  0.00000000000E+00  0.16805297254E+04  0.16805297254E+04  0.50400001928E-02 0.  1.
       -1   -1    0    0    0  501  0.00000000000E+00  0.00000000000E+00 -0.14027141624E+04  0.14027141624E+04  0.50400001928E-02 0. -1.
    10030    2    1    2    0    0  0.00000000000E+00  0.00000000000E+00  0.27781556302E+03  0.30832438879E+04  0.30707020997E+04 0.  0.
        2    1    3    3  502    0 -0.10058424055E+01 -0.15351830436E+04  0.16169092021E+03  0.15436748177E+04  0.25500000920E-02 0. -1.
       -2    1    3    3    0  502  0.10058424055E+01  0.15351830436E+04  0.11612464281E+03  0.15395690702E+04  0.25500000920E-02 0.  1.
</event>
<event>
 5   0  0.5730920E-06  0.3058313E+04  0.7818609E-02  0.8227273E-01
        1   -1    0    0  501    0  0.00000000000E+00  0.00000000000E+00  0.14084946174E+04  0.14084946174E+04  0.50400001928E-02 0.  1.
       -1   -1    0    0    0  501  0.00000000000E+00  0.00000000000E+00 -0.16601550536E+04  0.16601550536E+04  0.50400001928E-02 0. -1.
    10030    2    1    2    0    0  0.00000000000E+00  0.00000000000E+00 -0.25166043622E+03  0.30686496711E+04  0.30583129056E+04 0.  0.
        1    1    3    3  502    0  0.29790018361E+03  0.14990534583E+04 -0.17512535204E+03  0.15383675371E+04  0.50400001928E-02 0.  1.
       -1    1    3    3    0  502 -0.29790018361E+03 -0.14990534583E+04 -0.76535084180E+02  0.15302821339E+04  0.50400001928E-02 0. -1.
</event>
<event>
 5   0  0.7032692E-06  0.3084083E+04  0.7818609E-02  0.8220120E-01
       -1   -1    0    0    0  501  0.00000000000E+00  0.00000000000E+00  0.13716339417E+04  0.13716339417E+04  0.50400001928E-02 0. -1.
        1   -1    0    0  501    0  0.00000000000E+00  0.00000000000E+00 -0.17336201644E+04  0.17336201644E+04  0.50400001928E-02 0.  1.
    10030    2    1    2    0    0  0.00000000000E+00  0.00000000000E+00 -0.36198622273E+03  0.31052541061E+04  0.30840831762E+04 0.  0.
        5    1    3    3  502    0  0.25103605456E+03 -0.47035107247E+03  0.12758745020E+04  0.13827968278E+04  0.46999998093E+01 0. -1.
       -5    1    3    3    0  502 -0.25103605456E+03  0.47035107247E+03 -0.16378607247E+04  0.17224572783E+04  0.46999998093E+01 0.  1.
</event>
<event>
 5   0  0.5522695E-06  0.2340468E+04  0.7818609E-02  0.8462134E-01
       -1   -1    0    0    0  501  0.00000000000E+00  0.00000000000E+00  0.57593064953E+03  0.57593064956E+03  0.50400001928E-02 0. -1.
        1   -1    0    0  501    0  0.00000000000E+00  0.00000000000E+00 -0.23778003008E+04  0.23778003008E+04  0.50400001928E-02 0.  1.
    10030    2    1    2    0    0  0.00000000000E+00  0.00000000000E+00 -0.18018696512E+04  0.29537309503E+04  0.23404683905E+04 0.  0.
        3    1    3    3  502    0  0.18605948810E+01  0.11691603860E+04 -0.96414443954E+03  0.15154253464E+04  0.10100000352E+00 0. -1.
       -3    1    3    3    0  502 -0.18605948810E+01 -0.11691603860E+04 -0.83772521171E+03  0.14383056040E+04  0.10100000352E+00 0.  1.
</event>
<event>
 5   0  0.1480547E-05  0.2950069E+04  0.7818609E-02  0.8258135E-01
        2   -1    0    0  501    0  0.00000000000E+00  0.00000000000E+00  0.19632411644E+04  0.19632411644E+04  0.25500000920E-02 0.  1.
       -2   -1    0    0    0  501  0.00000000000E+00  0.00000000000E+00 -0.11082317596E+04  0.11082317596E+04  0.25500000920E-02 0. -1.
    10030    2    1    2    0    0  0.00000000000E+00  0.00000000000E+00  0.85500940478E+03  0.30714729240E+04  0.29500686163E+04 0.  0.
        1    1    3    3  502    0  0.42684840436E+03 -0.10334338371E+04 -0.57413709990E+03  0.12569082964E+04  0.50400001928E-02 0. -1.
       -1    1    3    3    0  502 -0.42684840436E+03  0.10334338371E+04  0.14291465047E+04  0.18145646276E+04  0.50400001928E-02 0.  1.
</event>
<event>
 5   0  0.7032692E-06  0.3035415E+04  0.7818609E-02  0.8233690E-01
       -1   -1    0    0    0  501  0.00000000000E+00  0.00000000000E+00  0.12118200765E+04  0.12118200765E+04  0.50400001928E-02 0. -1.
        1   -1    0    0  501    0  0.00000000000E+00  0.00000000000E+00 -0.19008067563E+04  0.19008067563E+04  0.50400001928E-02 0.  1.
    10030    2    1    2    0    0  0.00000000000E+00  0.00000000000E+00 -0.68898667977E+03  0.31126268328E+04  0.30354148242E+04 0.  0.
        5    1    3    3  502    0 -0.81388325305E+03  0.13753553447E+03 -0.16505039667E+04  0.18454016926E+04  0.46999998093E+01 0.  1.
       -5    1    3    3    0  502  0.81388325305E+03 -0.13753553447E+03  0.96151728695E+03  0.12672251402E+04  0.46999998093E+01 0. -1.
</event>
<event>
 5   0  0.5730920E-06  0.2962625E+04  0.7818609E-02  0.8254485E-01
       -1   -1    0    0    0  501  0.00000000000E+00  0.00000000000E+00  0.17148994005E+04  0.17148994005E+04  0.50400001928E-02 0. -1.
        1   -1    0    0  501    0  0.00000000000E+00  0.00000000000E+00 -0.12795422650E+04  0.12795422650E+04  0.50400001928E-02 0.  1.
    10030    2    1    2    0    0  0.00000000000E+00  0.00000000000E+00  0.43535713549E+03  0.29944416655E+04  0.29626246898E+04 0.  0.
        1    1    3    3  502    0 -0.13923009420E+04  0.50573292245E+03  0.21332402109E+03  0.14965877321E+04  0.50400001928E-02 0.  1.
       -1    1    3    3    0  502  0.13923009420E+04 -0.50573292245E+03  0.22203311440E+03  0.14978539334E+04  0.50400001928E-02 0. -1.
</event>
<event>
 5   0  0.5730920E-06  0.2952602E+04  0.7818609E-02  0.8257397E-01
       -1   -1    0    0    0  501  0.00000000000E+00  0.00000000000E+00  0.10570240743E+04  0.10570240743E+04  0.50400001928E-02 0.  1.
        1   -1    0    0  501    0  0.00000000000E+00  0.00000000000E+00 -0.20618876955E+04  0.20618876955E+04  0.50400001928E-02 0. -1.
    10030    2    1    2    0    0  0.00000000000E+00  0.00000000000E+00 -0.10048636212E+04  0.31189117699E+04  0.29526021965E+04 0.  0.
        1    1    3    3  502    0  0.68162852505E+03  0.50691782780E+03 -0.17778696820E+04  0.19703816221E+04  0.50400001928E-02 0. -1.
       -1    1    3    3    0  502 -0.68162852505E+03 -0.50691782780E+03  0.77300606084E+03  0.11485301478E+04  0.50400001928E-02 0.  1.
</event>
<event>
 5   0  0.5329891E-06  0.2534729E+04  0.7818609E-02  0.8390717E-01
       -1   -1    0    0    0  501  0.00000000000E+00  0.00000000000E+00  0.18668139786E+04  0.18668139786E+04  0.50400001928E-02 0.  1.
        1   -1    0    0  501    0  0.00000000000E+00  0.00000000000E+00 -0.86040313313E+03  0.86040313315E+03  0.50400001928E-02 0. -1.
    10030    2    1    2    0    0  0.00000000000E+00  0.00000000000E+00  0.10064108455E+04  0.27272171117E+04  0.25347288582E+04 0.  0.
        4    1    3    3  502    0  0.11806214676E+04  0.15778477985E+03  0.96903653342E+03  0.15355118048E+04  0.12699999809E+01 0.  1.
       -4    1    3    3    0  502 -0.11806214676E+04 -0.15778477985E+03  0.37374312037E+02  0.11917053070E+04  0.12699999809E+01 0. -1.
</event>
<event>
 5   0  0.5522695E-06  0.2211514E+04  0.7818609E-02  0.8513651E-01
        1   -1    0    0  501    0  0.00000000000E+00  0.00000000000E+00  0.10536667732E+04  0.10536667732E+04  0.50400001928E-02 0.  1.
       -1   -1    0    0    0  501  0.00000000000E+00  0.00000000000E+00 -0.11604222175E+04  0.11604222175E+04  0.50400001928E-02 0. -1.
    10030    2    1    2    0    0  0.00000000000E+00  0.00000000000E+00 -0.10675544426E+03  0.22140889907E+04  0.22115138105E+04 0.  0.
        3    1    3    3  502    0 -0.89702436446E+03  0.25133119817E+03 -0.64978797805E+03  0.11358012626E+04  0.10100000352E+00 0. -1.
       -3    1    3    3    0  502  0.89702436446E+03 -0.25133119817E+03  0.54303253379E+03  0.10782877281E+04  0.10100000352E+00 0.  1.
</event>
<event>
 5   0  0.1480547E-05  0.2938208E+04  0.7818609E-02  0.8261599E-01
        2   -1    0    0  501    0  0.00000000000E+00  0.00000000000E+00  0.19327749527E+04  0.19327749527E+04  0.25500000920E-02 0. -1.
       -2   -1    0    0    0  501  0.00000000000E+00  0.00000000000E+00 -0.11166673084E+04  0.11166673084E+04  0.25500000920E-02 0.  1.
    10030    2    1    2    0    0  0.00000000000E+00  0.00000000000E+00  0.81610764433E+03  0.30494422611E+04  0.29382080281E+04 0.  0.
        1    1    3    3  502    0  0.97446859620E+03 -0.10965260042E+04  0.32562228480E+03  0.15026603725E+04  0.50400001928E-02 0.  1.
       -1    1    3    3    0  502 -0.97446859620E+03  0.10965260042E+04  0.49048535953E+03  0.15467818885E+04  0.50400001928E-02 0. -1.
</event>
<event>
 5   0  0.1423692E-05  0.2993382E+04  0.7818609E-02  0.8245623E-01
       -2   -1    0    0    0  501  0.00000000000E+00  0.00000000000E+00  0.99111305107E+03  0.99111305107E+03  0.25500000920E-02 0.  1.
        2   -1    0    0  501    0  0.00000000000E+00  0.00000000000E+00 -0.22601697623E+04  0.22601697623E+04  0.25500000920E-02 0. -1.
    10030    2    1    2    0    0  0.00000000000E+00  0.00000000000E+00 -0.12690567113E+04  0.32512828134E+04  0.29933818661E+04 0.  0.
        3    1    3    3  502    0 -0.27070880112E+03 -0.47540782632E+00  0.96430081825E+03  0.10015785338E+04  0.10100000352E+00 0.  1.
       -3    1    3    3    0  502  0.27070880112E+03  0.47540782632E+00 -0.22333575295E+04  0.22497042797E+04  0.10100000352E+00 0. -1.
</event>
<event>
 5   0  0.5522695E-06  0.1925813E+04  0.7818609E-02  0.8642113E-01
       -1   -1    0    0    0  501  0.00000000000E+00  0.00000000000E+00  0.82873573780E+03  0.82873573782E+03  0.50400001928E-02 0. -1.
        1   -1    0    0  501    0  0.00000000000E+00  0.00000000000E+00 -0.11187991778E+04  0.11187991778E+04  0.50400001928E-02 0.  1.
    10030    2    1    2    0    0  0.00000000000E+00  0.00000000000E+00 -0.29006343996E+03  0.19475349156E+04  0.19258129318E+04 0.  0.
        3    1    3    3  502    0  0.89012874084E+03 -0.77309417991E+02  0.21802029792E+03  0.91969493958E+03  0.10100000352E+00 0. -1.
       -3    1    3    3    0  502 -0.89012874084E+03  0.77309417991E+02 -0.50808373788E+03  0.10278399760E+04  0.10100000352E+00 0.  1.
</event>
<event>
 5   0  0.1523029E-05  0.3066194E+04  0.7818609E-02  0.8225077E-01
       -2   -1    0    0    0  501  0.00000000000E+00  0.00000000000E+00  0.10185661582E+04  0.10185661582E+04  0.25500000920E-02 0. -1.
        2   -1    0    0  501    0  0.00000000000E+00  0.00000000000E+00 -0.23075442958E+04  0.23075442958E+04  0.25500000920E-02 0.  1.
    10030    2    1    2    0    0  0.00000000000E+00  0.00000000000E+00 -0.12889781376E+04  0.33261104540E+04  0.30661940762E+04 0.  0.
        5    1    3    3  502    0  0.12584313630E+04  0.18442884499E+03 -0.15730286099E+04  0.20228951015E+04  0.46999998093E+01 0.  1.
       -5    1    3    3    0  502 -0.12584313630E+04 -0.18442884499E+03  0.28405047232E+03  0.13032153525E+04  0.46999998093E+01 0. -1.
</event>
<event>
 5   0  0.5329891E-06  0.2977629E+04  0.7818609E-02  0.8250148E-01
       -1   -1    0    0    0  501  0.00000000000E+00  0.00000000000E+00  0.89991931910E+03  0.89991931911E+03  0.50400001928E-02 0.  1.
        1   -1    0    0  501    0  0.00000000000E+00  0.00000000000E+00 -0.24630754704E+04  0.24630754704E+04  0.50400001928E-02 0. -1.
    10030    2    1    2    0    0  0.00000000000E+00  0.00000000000E+00 -0.15631561513E+04  0.33629947895E+04  0.29776293928E+04 0.  0.
        4    1    3    3  502    0 -0.34066926123E+03  0.93750858022E+03  0.46671980570E+03  0.11012751125E+04  0.12699999809E+01 0.  1.
       -4    1    3    3    0  502  0.34066926123E+03 -0.93750858022E+03 -0.20298759570E+04  0.22617196770E+04  0.12699999809E+01 0. -1.
</event>
<event>
 5   0  0.5392262E-06  0.2659798E+04  0.7818609E-02  0.8348168E-01
        1   -1    0    0  501    0  0.00000000000E+00  0.00000000000E+00  0.19252243583E+04  0.19252243584E+04  0.50400001928E-02 0.  1.
       -1   -1    0    0    0  501  0.00000000000E+00  0.00000000000E+00 -0.91866244750E+03  0.91866244752E+03  0.50400001928E-02 0. -1.
    10030    2    1    2    0    0  0.00000000000E+00  0.00000000000E+00  0.10065619108E+04  0.28438868059E+04  0.26597979781E+04 0.  0.
        2    1    3    3  502    0 -0.13277566386E+04  0.42066254118E+01  0.42272784338E+03  0.13934325303E+04  0.25500000920E-02 0. -1.
       -2    1    3    3    0  502  0.13277566386E+04 -0.42066254118E+01  0.58383406746E+03  0.14504542755E+04  0.25500000920E-02 0.  1.
</event>
<event>
 5   0  0.5730920E-06  0.3174344E+04  0.7818609E-02  0.8195626E-01
       -1   -1    0    0    0  501  0.00000000000E+00  0.00000000000E+00  0.13012366670E+04  0.13012366671E+04  0.50400001928E-02 0. -1.
        1   -1    0    0  501    0  0.00000000000E+00  0.00000000000E+00 -0.19359390570E+04  0.19359390570E+04  0.50400001928E-02 0.  1.
    10030    2    1    2    0    0  0.00000000000E+00  0.00000000000E+00 -0.63470238993E+03  0.32371757240E+04  0.31743439550E+04 0.  0.
        1    1    3    3  502    0 -0.46194133016E+03  0.13803818936E+02  0.12311020957E+04  0.13149877216E+04  0.50400001928E-02 0. -1.
       -1    1    3    3    0  502  0.46194133016E+03 -0.13803818936E+02 -0.18658044856E+04  0.19221880024E+04  0.50400001928E-02 0.  1.
</event>
<event>
 5   0  0.7032692E-06  0.3056574E+04  0.7818609E-02  0.8227758E-01
       -1   -1    0    0    0  501  0.00000000000E+00  0.00000000000E+00  0.13022511604E+04  0.13022511605E+04  0.50400001928E-02 0.  1.
        1   -1    0    0  501    0  0.00000000000E+00  0.00000000000E+00 -0.17935565164E+04  0.17935565164E+04  0.50400001928E-02 0. -1.
    10030    2    1    2    0    0  0.00000000000E+00  0.00000000000E+00 -0.49130535590E+03  0.30958076768E+04  0.30565739348E+04 0.  0.
        5    1    3    3  502    0  0.56763435615E+03 -0.13154417120E+04  0.29319437350E+03  0.14623886934E+04  0.46999998093E+01 0.  1.
       -5    1    3    3    0  502 -0.56763435615E+03  0.13154417120E+04 -0.78449972940E+03  0.16334189834E+04  0.46999998093E+01 0. -1.
</event>
<event>
 5   0  0.1523029E-05  0.2111097E+04  0.7818609E-02  0.8556371E-01
       -2   -1    0    0    0  501  0.00000000000E+00  0.00000000000E+00  0.84844199659E+03  0.84844199659E+03  0.25500000920E-02 0.  1.
        2   -1    0    0  501    0  0.00000000000E+00  0.00000000000E+00 -0.13132099686E+04  0.13132099686E+04  0.25500000920E-02 0. -1.
    10030    2    1    2    0    0  0.00000000000E+00  0.00000000000E+00 -0.46476797202E+03  0.21616519652E+04  0.21110968597E+04 0.  0.
        5    1    3    3  502    0 -0.96230511638E+03 -0.12443770307E+01 -0.67650773731E+03  0.11763152189E+04  0.46999998093E+01 0. -1.
       -5    1    3    3    0  502  0.96230511638E+03  0.12443770307E+01  0.21173976529E+03  0.98533674634E+03  0.46999998093E+01 0.  1.
</event>
<event>
 5   0  0.1388724E-05  0.2118796E+04  0.7818609E-02  0.8553009E-01
       -2   -1    0    0    0  501  0.00000000000E+00  0.00000000000E+00  0.66759964381E+03  0.66759964382E+03  0.25500000920E-02 0.  1.
        2   -1    0    0  501    0  0.00000000000E+00  0.00000000000E+00 -0.16811331674E+04  0.16811331674E+04  0.25500000920E-02 0. -1.
    10030    2    1    2    0    0  0.00000000000E+00  0.00000000000E+00 -0.10135335235E+04  0.23487328112E+04  0.21187957936E+04 0.  0.
        4    1    3    3  502    0 -0.62434103194E+03 -0.18488569695E+03  0.41958792297E+03  0.77462254234E+03  0.12699999809E+01 0.  1.
       -4    1    3    3    0  502  0.62434103194E+03  0.18488569695E+03 -0.14331214465E+04  0.15741102688E+04  0.12699999809E+01 0. -1.
</event>
<event>
 5   0  0.7032692E-06  0.2950280E+04  0.7818609E-02  0.8258073E-01
        1   -1    0    0  501    0  0.00000000000E+00  0.00000000000E+00  0.88553754416E+03  0.88553754417E+03  0.50400001928E-02 0.  1.
       -1   -1    0    0    0  501  0.00000000000E+00  0.00000000000E+00 -0.24573067717E+04  0.24573067717E+04  0.50400001928E-02 0. -1.
    10030    2    1    2    0    0  0.00000000000E+00  0.00000000000E+00 -0.15717692275E+04  0.33428443159E+04  0.29502795826E+04 0.  0.
        5    1    3    3  502    0  0.22844018960E+03 -0.11973556956E+04  0.15542161318E+03  0.12288301550E+04  0.46999998093E+01 0.  1.
       -5    1    3    3    0  502 -0.22844018960E+03  0.11973556956E+04 -0.17271908407E+04  0.21140141609E+04  0.46999998093E+01 0. -1.
</event>
<event>
 5   0  0.1480547E-05  0.3014544E+04  0.7818609E-02  0.8239590E-01
       -2   -1    0    0    0  501  0.00000000000E+00  0.00000000000E+00  0.14580771905E+04  0.14580771905E+04  0.25500000920E-02 0. -1.
        2   -1    0    0  501    0  0.00000000000E+00  0.00000000000E+00 -0.15581268182E+04  0.15581268182E+04  0.25500000920E-02 0.  1.
    10030    2    1    2    0    0  0.00000000000E+00  0.00000000000E+00 -0.10004962778E+03  0.30162040087E+04  0.30145441934E+04 0.  0.
        1    1    3    3  502    0  0.12004227178E+04 -0.26246368113E+03 -0.92341281548E+03  0.15370729043E+04  0.50400001928E-02 0.  1.
       -1    1    3    3    0  502 -0.12004227178E+04  0.26246368113E+03  0.82336318771E+03  0.14791311044E+04  0.50400001928E-02 0. -1.
</event>
<event>
 5   0  0.1388724E-05  0.2992135E+04  0.7818609E-02  0.8245980E-01
        2   -1    0    0  501    0  0.00000000000E+00  0.00000000000E+00  0.18251791086E+04  0.18251791086E+04  0.25500000920E-02 0.  1.
       -2   -1    0    0    0  501  0.00000000000E+00  0.00000000000E+00 -0.12263008538E+04  0.12263008538E+04  0.25500000920E-02 0. -1.
    10030    2    1    2    0    0  0.00000000000E+00  0.00000000000E+00  0.59887825479E+03  0.30514799623E+04  0.29921354910E+04 0.  0.
        4    1    3    3  502    0 -0.10057143438E+04  0.10169109468E+04 -0.14818282180E+03  0.14378904606E+04  0.12699999809E+01 0. -1.
       -4    1    3    3    0  502  0.10057143438E+04 -0.10169109468E+04  0.74706107658E+03  0.16135895017E+04  0.12699999809E+01 0.  1.
</event>
<event>
 5   0  0.1388724E-05  0.2994418E+04  0.7818609E-02  0.8245327E-01
        2   -1    0    0  501    0  0.00000000000E+00  0.00000000000E+00  0.12839874378E+04  0.12839874378E+04  0.25500000920E-02 0. -1.
       -2   -1    0    0    0  501  0.00000000000E+00  0.00000000000E+00 -0.17458384807E+04  0.17458384807E+04  0.25500000920E-02 0.  1.
    10030    2    1    2    0    0  0.00000000000E+00  0.00000000000E+00 -0.46185104287E+03  0.30298259186E+04  0.29944179252E+04 0.  0.
        4    1    3    3  502    0 -0.27449860374E+03 -0.13869253645E+04  0.26756796584E+03  0.14389251820E+04  0.12699999809E+01 0.  1.
       -4    1    3    3    0  502  0.27449860374E+03  0.13869253645E+04 -0.72941900871E+03  0.15909007365E+04  0.12699999809E+01 0. -1.
</event>
<event>
 5   0  0.5329891E-06  0.1639879E+04  0.7818609E-02  0.8796416E-01
       -1   -1    0    0    0  501  0.00000000000E+00  0.00000000000E+00  0.49729724434E+03  0.49729724437E+03  0.50400001928E-02 0. -1.
        1   -1    0    0  501    0  0.00000000000E+00  0.00000000000E+00 -0.13519095434E+04  0.13519095435E+04  0.50400001928E-02 0.  1.
    10030    2    1    2    0    0  0.00000000000E+00  0.00000000000E+00 -0.85461229910E+03  0.18492067878E+04  0.16398791304E+04 0.  0.
        4    1    3    3  502    0 -0.56196274664E+03  0.53883035453E+03 -0.71735296390E+03  0.10586487459E+04  0.12699999809E+01 0.  1.
       -4    1    3    3    0  502  0.56196274664E+03 -0.53883035453E+03 -0.13725933521E+03  0.79055804188E+03  0.12699999809E+01 0. -1.
</event>
<event>
 5   0  0.5522695E-06  0.2989806E+04  0.7818609E-02  0.8246648E-01
        1   -1    0    0  501    0  0.00000000000E+00  0.00000000000E+00  0.15563458537E+04  0.15563458537E+04  0.50400001928E-02 0. -1.
       -1   -1    0    0    0  501  0.00000000000E+00  0.00000000000E+00 -0.14358858229E+04  0.14358858229E+04  0.50400001928E-02 0.  1.
    10030    2    1    2    0    0  0.00000000000E+00  0.00000000000E+00  0.12046003075E+03  0.29922316766E+04  0.29898059783E+04 0.  0.
        3    1    3    3  502    0  0.28424733098E+03 -0.96284046562E+03  0.11687733043E+04  0.15407431176E+04  0.10100000352E+00 0. -1.
       -3    1    3    3    0  502 -0.28424733098E+03  0.96284046562E+03 -0.10483132735E+04  0.14514885591E+04  0.10100000352E+00 0.  1.
</event>
<event>
 5   0  0.5522695E-06  0.1891835E+04  0.7818609E-02  0.8658931E-01
        1   -1    0    0  501    0  0.00000000000E+00  0.00000000000E+00  0.13051508949E+04  0.13051508949E+04  0.50400001928E-02 0.  1.
       -1   -1    0    0    0  501  0.00000000000E+00  0.00000000000E+00 -0.68556062524E+03  0.68556062526E+03  0.50400001928E-02 0. -1.
    10030    2    1    2    0    0  0.00000000000E+00  0.00000000000E+00  0.61959026968E+03  0.19907115202E+04  0.18918351552E+04 0.  0.
        3    1    3    3  502    0  0.20127350770E+03  0.80951466456E+03  0.77912768673E+03  0.11414311103E+04  0.10100000352E+00 0.  1.
       -3    1    3    3    0  502 -0.20127350770E+03 -0.80951466456E+03 -0.15953741705E+03  0.84928040993E+03  0.10100000352E+00 0. -1.
</event>
<event>
 5   0  0.1388724E-05  0.3006440E+04  0.7818609E-02  0.8241894E-01
        2   -1    0    0  501    0  0.00000000000E+00  0.00000000000E+00  0.88629248948E+03  0.88629248949E+03  0.25500000920E-02 0.  1.
       -2   -1    0    0    0  501  0.00000000000E+00  0.00000000000E+00 -0.25495767206E+04  0.25495767206E+04  0.25500000920E-02 0. -1.
    10030    2    1    2    0    0  0.00000000000E+00  0.00000000000E+00 -0.16632842311E+04  0.34358692101E+04  0.30064402198E+04 0.  0.
        4    1    3    3  502    0 -0.10585028852E+04 -0.10345873047E+04 -0.53172684547E+03  0.15727473733E+04  0.12699999809E+01 0.  1.
       -4    1    3    3    0  502  0.10585028852E+04  0.10345873047E+04 -0.11315573857E+04  0.18631218369E+04  0.12699999809E+01 0. -1.
</event>
<event>
 5   0  0.5329891E-06  0.3007929E+04  0.7818609E-02  0.8241470E-01
        1   -1    0    0  501    0  0.00000000000E+00  0.00000000000E+00  0.15411362847E+04  0.15411362847E+04  0.50400001928E-02 0. -1.
       -1   -1    0    0    0  501  0.00000000000E+00  0.00000000000E+00 -0.14676897539E+04  0.14676897540E+04  0.50400001928E-02 0.  1.
    10030    2    1    2    0    0  0.00000000000E+00  0.00000000000E+00  0.73446530728E+02  0.30088260386E+04  0.30079294769E+04 0.  0.
        4    1    3    3  502    0 -0.94471008552E+03 -0.10952153397E+03  0.12021611837E+04  0.15328617800E+04  0.12699999809E+01 0. -1.
       -4    1    3    3    0  502  0.94471008552E+03  0.10952153397E+03 -0.11287146530E+04  0.14759642586E+04  0.12699999809E+01 0.  1.
</event>
<event>
 5   0  0.1480547E-05  0.1878233E+04  0.7818609E-02  0.8665768E-01
       -2   -1    0    0    0  501  0.00000000000E+00  0.00000000000E+00  0.68878009802E+03  0.68878009803E+03  0.25500000920E-02 0. -1.
        2   -1    0    0  501    0  0.00000000000E+00  0.00000000000E+00 -0.12804369835E+04  0.12804369835E+04  0.25500000920E-02 0.  1.
    10030    2    1    2    0    0  0.00000000000E+00  0.00000000000E+00 -0.59165688545E+03  0.19692170815E+04  0.18782326917E+04 0.  0.
        1    1    3    3  502    0  0.65936940779E+03  0.66006567707E+03 -0.40818692407E+03  0.10183669668E+04  0.50400001928E-02 0. -1.
       -1    1    3    3    0  502 -0.65936940779E+03 -0.66006567707E+03 -0.18346996138E+03  0.95085011475E+03  0.50400001928E-02 0.  1.
</event>
<event>
 5   0  0.7032692E-06  0.2845968E+04  0.7818609E-02  0.8289137E-01
        1   -1    0    0  501    0  0.00000000000E+00  0.00000000000E+00  0.25155130757E+04  0.25155130757E+04  0.50400001928E-02 0. -1.
       -1   -1    0    0    0  501  0.00000000000E+00  0.00000000000E+00 -0.80495866666E+03  0.80495866668E+03  0.50400001928E-02 0.  1.
    10030    2    1    2    0    0  0.00000000000E+00  0.00000000000E+00  0.17105544090E+04  0.33204717423E+04  0.28459684126E+04 0.  0.
        5    1    3    3  502    0  0.42376555951E+03 -0.48536980568E+03 -0.62499744503E+03  0.89766641576E+03  0.46999998093E+01 0.  1.
       -5    1    3    3    0  502 -0.42376555951E+03  0.48536980568E+03  0.23355518540E+04  0.24228053266E+04  0.46999998093E+01 0. -1.
</event>
<event>
 5   0  0.1423692E-05  0.2941450E+04  0.7818609E-02  0.8260651E-01
       -2   -1    0    0    0  501  0.00000000000E+00  0.00000000000E+00  0.96177709900E+03  0.96177709900E+03  0.25500000920E-02 0. -1.
        2   -1    0    0  501    0  0.00000000000E+00  0.00000000000E+00 -0.22489958316E+04  0.22489958316E+04  0.25500000920E-02 0.  1.
    10030    2    1    2    0    0  0.00000000000E+00  0.00000000000E+00 -0.12872187326E+04  0.32107729306E+04  0.29414504494E+04 0.  0.
        3    1    3    3  502    0 -0.44789428236E+03  0.13882523503E+04 -0.84834270441E+03  0.16874653272E+04  0.10100000352E+00 0. -1.
       -3    1    3    3    0  502  0.44789428236E+03 -0.13882523503E+04 -0.43887602823E+03  0.15233076034E+04  0.10100000352E+00 0.  1.
</event>
<event>
 5   0  0.1480547E-05  0.2863742E+04  0.7818609E-02  0.8283748E-01
        2   -1    0    0  501    0  0.00000000000E+00  0.00000000000E+00  0.18227169023E+04  0.18227169023E+04  0.25500000920E-02 0.  1.
       -2   -1    0    0    0  501  0.00000000000E+00  0.00000000000E+00 -0.11248341175E+04  0.11248341175E+04  0.25500000920E-02 0. -1.
    10030    2    1    2    0    0  0.00000000000E+00  0.00000000000E+00  0.69788278477E+03  0.29475510197E+04  0.28637417189E+04 0.  0.
        1    1    3    3  502    0  0.10529196370E+04 -0.41429685690E+03  0.12521022243E+04  0.16876141821E+04  0.50400001928E-02 0.  1.
       -1    1    3    3    0  502 -0.10529196370E+04  0.41429685690E+03 -0.55421943956E+03  0.12599368376E+04  0.50400001928E-02 0. -1.
</event>
<event>
 5   0  0.7032692E-06  0.2984979E+04  0.7818609E-02  0.8248033E-01
        1   -1    0    0  501    0  0.00000000000E+00  0.00000000000E+00  0.22562237286E+04  0.22562237286E+04  0.50400001928E-02 0. -1.
       -1   -1    0    0    0  501  0.00000000000E+00  0.00000000000E+00 -0.98728011499E+03  0.98728011501E+03  0.50400001928E-02 0.  1.
    10030    2    1    2    0    0  0.00000000000E+00  0.00000000000E+00  0.12689436136E+04  0.32435038436E+04  0.29849789428E+04 0.  0.
        5    1    3    3  502    0  0.19592849446E+03 -0.83099845391E+03 -0.69570594885E+03  0.11013515618E+04  0.46999998093E+01 0.  1.
       -5    1    3    3    0  502 -0.19592849446E+03  0.83099845391E+03  0.19646495624E+04  0.21421522818E+04  0.46999998093E+01 0. -1.
</event>
<event>
 5   0  0.5392262E-06  0.2945272E+04  0.7818609E-02  0.8259534E-01
       -1   -1    0    0    0  501  0.00000000000E+00  0.00000000000E+00  0.14611793720E+04  0.14611793720E+04  0.50400001928E-02 0.  1.
        1   -1    0    0  501    0  0.00000000000E+00  0.00000000000E+00 -0.14841824041E+04  0.14841824041E+04  0.50400001928E-02 0. -1.
    10030    2    1    2    0    0  0.00000000000E+00  0.00000000000E+00 -0.23003032136E+02  0.29453617761E+04  0.29452719489E+04 0.  0.
        2    1    3    3  502    0  0.86294784998E+03  0.10069160363E+04 -0.65190984879E+03  0.14776824242E+04  0.25500000920E-02 0. -1.
       -2    1    3    3    0  502 -0.86294784998E+03 -0.10069160363E+04  0.62890681666E+03  0.14676793519E+04  0.25500000920E-02 0.  1.
</event>
<event>
 5   0  0.1345931E-05  0.2629084E+04  0.7818609E-02  0.8358389E-01
        2   -1    0    0  501    0  0.00000000000E+00  0.00000000000E+00  0.13623293010E+04  0.13623293010E+04  0.25500000920E-02 0. -1.
       -2   -1    0    0    0  501  0.00000000000E+00  0.00000000000E+00 -0.12684312338E+04  0.12684312338E+04  0.25500000920E-02 0.  1.
    10030    2    1    2    0    0  0.00000000000E+00  0.00000000000E+00  0.93898067232E+02  0.26307605347E+04  0.26290842786E+04 0.  0.
        2    1    3    3  502    0  0.25170881757E+03 -0.32636371433E+03  0.12960038615E+04  0.13599619891E+04  0.25500000920E-02 0. -1.
       -2    1    3    3    0  502 -0.25170881757E+03  0.32636371433E+03 -0.12021057943E+04  0.12707985456E+04  0.25500000920E-02 0.  1.
</event>
<event>
 5   0  0.1345931E-05  0.2984776E+04  0.7818609E-02  0.8248092E-01
       -2   -1    0    0    0  501  0.00000000000E+00  0.00000000000E+00  0.15807927848E+04  0.15807927848E+04  0.25500000920E-02 0.  1.
        2   -1    0    0  501    0  0.00000000000E+00  0.00000000000E+00 -0.14089267805E+04  0.14089267805E+04  0.25500000920E-02 0. -1.
    10030    2    1    2    0    0  0.00000000000E+00  0.00000000000E+00  0.17186600435E+03  0.29897195653E+04  0.29847755620E+04 0.  0.
        2    1    3    3  502    0 -0.30685277572E+03 -0.49489813579E+03  0.14623045837E+04  0.15739814123E+04  0.25500000920E-02 0.  1.
       -2    1    3    3    0  502  0.30685277572E+03  0.49489813579E+03 -0.12904385794E+04  0.14157381530E+04  0.25500000920E-02 0. -1.
</event>
<event>
 5   0  0.5522695E-06  0.2988330E+04  0.7818609E-02  0.8247071E-01
       -1   -1    0    0    0  501  0.00000000000E+00  0.00000000000E+00  0.92413239399E+03  0.92413239400E+03  0.50400001928E-02 0.  1.
        1   -1    0    0  501    0  0.00000000000E+00  0.00000000000E+00 -0.24158114009E+04  0.24158114009E+04  0.50400001928E-02 0. -1.
    10030    2    1    2    0    0  0.00000000000E+00  0.00000000000E+00 -0.14916790069E+04  0.33399437949E+04  0.29883303521E+04 0.  0.
        3    1    3    3  502    0  0.85685831403E+03  0.77406106516E+03 -0.18056478065E+04  0.21433013587E+04  0.10100000352E+00 0. -1.
       -3    1    3    3    0  502 -0.85685831403E+03 -0.77406106516E+03  0.31396879955E+03  0.11966424362E+04  0.10100000352E+00 0.  1.
</event>
<event>
 5   0  0.5392262E-06  0.2898366E+04  0.7818609E-02  0.8273364E-01
        1   -1    0    0  501    0  0.00000000000E+00  0.00000000000E+00  0.11757738147E+04  0.11757738147E+04  0.50400001928E-02 0. -1.
       -1   -1    0    0    0  501  0.00000000000E+00  0.00000000000E+00 -0.17861698672E+04  0.17861698672E+04  0.50400001928E-02 0.  1.
    10030    2    1    2    0    0  0.00000000000E+00  0.00000000000E+00 -0.61039605255E+03  0.29619436819E+04  0.28983662698E+04 0.  0.
        2    1    3    3  502    0  0.10031611690E+04  0.98263607088E+03 -0.67113913868E+03  0.15563848246E+04  0.25500000920E-02 0.  1.
       -2    1    3    3    0  502 -0.10031611690E+04 -0.98263607088E+03  0.60743086129E+02  0.14055588573E+04  0.25500000920E-02 0. -1.
</event>
<event>
 5   0  0.1480547E-05  0.3035669E+04  0.7818609E-02  0.8233618E-01
       -2   -1    0    0    0  501  0.00000000000E+00  0.00000000000E+00  0.12990150639E+04  0.12990150639E+04  0.25500000920E-02 0.  1.
        2   -1    0    0  501    0  0.00000000000E+00  0.00000000000E+00 -0.17735137908E+04  0.17735137908E+04  0.25500000920E-02 0. -1.
    10030    2    1    2    0    0  0.00000000000E+00  0.00000000000E+00 -0.47449872694E+03  0.30725288547E+04  0.30356687107E+04 0.  0.
        1    1    3    3  502    0 -0.14052183564E+04  0.54000005319E+03 -0.43346522131E+03  0.15665665593E+04  0.50400001928E-02 0.  1.
       -1    1    3    3    0  502  0.14052183564E+04 -0.54000005319E+03 -0.41033505632E+02  0.15059622954E+04  0.50400001928E-02 0. -1.
</event>
<event>
 5   0  0.5329891E-06  0.3006514E+04  0.7818609E-02  0.8241873E-01
        1   -1    0    0  501    0  0.00000000000E+00  0.00000000000E+00  0.23166409772E+04  0.23166409773E+04  0.50400001928E-02 0. -1.
       -1   -1    0    0    0  501  0.00000000000E+00  0.00000000000E+00 -0.97545600219E+03  0.97545600220E+03  0.50400001928E-02 0.  1.
    10030    2    1    2    0    0  0.00000000000E+00  0.00000000000E+00  0.13411849751E+04  0.32920969795E+04  0.30065138258E+04 0.  0.
        4    1    3    3  502    0  0.51751181602E+03 -0.12860453301E+04  0.33945005270E+02  0.13866812709E+04  0.12699999809E+01 0. -1.
       -4    1    3    3    0  502 -0.51751181602E+03  0.12860453301E+04  0.13072399698E+04  0.19054157085E+04  0.12699999809E+01 0.  1.
</event>
<event>
 5   0  0.1480547E-05  0.2939458E+04  0.7818609E-02  0.8261234E-01
        2   -1    0    0  501    0  0.00000000000E+00  0.00000000000E+00  0.13171787335E+04  0.13171787335E+04  0.25500000920E-02 0. -1.
       -2   -1    0    0    0  501  0.00000000000E+00  0.00000000000E+00 -0.16399467827E+04  0.16399467827E+04  0.25500000920E-02 0.  1.
    10030    2    1    2    0    0  0.00000000000E+00  0.00000000000E+00 -0.32276804920E+03  0.29571255162E+04  0.29394577910E+04 0.  0.
        1    1    3    3  502    0  0.80993025676E+03 -0.11420267734E+04  0.28839478688E+03  0.14294697356E+04  0.50400001928E-02 0. -1.
       -1    1    3    3    0  502 -0.80993025676E+03  0.11420267734E+04 -0.61116283608E+03  0.15276557806E+04  0.50400001928E-02 0.  1.
</event>
<event>
 5   0  0.5730920E-06  0.1520479E+04  0.7818609E-02  0.8870948E-01
       -1   -1    0    0    0  501  0.00000000000E+00  0.00000000000E+00  0.77587776140E+03  0.77587776142E+03  0.50400001928E-02 0.  1.
        1   -1    0    0  501    0  0.00000000000E+00  0.00000000000E+00 -0.74491607828E+03  0.74491607830E+03  0.50400001928E-02 0. -1.
    10030    2    1    2    0    0  0.00000000000E+00  0.00000000000E+00  0.30961683119E+02  0.15207938397E+04  0.15204786342E+04 0.  0.
        1    1    3    3  502    0  0.53919236614E+03  0.20997950923E+03 -0.47771773761E+03  0.75035594144E+03  0.50400001928E-02 0. -1.
       -1    1    3    3    0  502 -0.53919236614E+03 -0.20997950923E+03  0.50867942073E+03  0.77043789828E+03  0.50400001928E-02 0.  1.
</event>
<event>
 5   0  0.1388724E-05  0.2926963E+04  0.7818609E-02  0.8264900E-01
       -2   -1    0    0    0  501  0.00000000000E+00  0.00000000000E+00  0.13569678180E+04  0.13569678180E+04  0.25500000920E-02 0. -1.
        2   -1    0    0  501    0  0.00000000000E+00  0.00000000000E+00 -0.15783562936E+04  0.15783562936E+04  0.25500000920E-02 0.  1.
    10030    2    1    2    0    0  0.00000000000E+00  0.00000000000E+00 -0.22138847558E+03  0.29353241117E+04  0.29269634066E+04 0.  0.
        4    1    3    3  502    0 -0.12350493888E+04  0.77324003765E+03 -0.24720777150E+03  0.14779582010E+04  0.12699999809E+01 0.  1.
       -4    1    3    3    0  502  0.12350493888E+04 -0.77324003765E+03  0.25819295911E+02  0.14573659107E+04  0.12699999809E+01 0. -1.
</event>
<event>
 5   0  0.1423692E-05  0.3049299E+04  0.7818609E-02  0.8229792E-01
        2   -1    0    0  501    0  0.00000000000E+00  0.00000000000E+00  0.15724284059E+04  0.15724284059E+04  0.25500000920E-02 0.  1.
       -2   -1    0    0    0  501  0.00000000000E+00  0.00000000000E+00 -0.14783222171E+04  0.14783222171E+04  0.25500000920E-02 0. -1.
    10030    2    1    2    0    0  0.00000000000E+00  0.00000000000E+00  0.94106188856E+02  0.30507506230E+04  0.30492988357E+04 0.  0.
        3    1    3    3  502    0 -0.12266144977E+04  0.85859884365E+03  0.33490649503E+03  0.15342546956E+04  0.10100000352E+00 0.  1.
       -3    1    3    3    0  502  0.12266144977E+04 -0.85859884365E+03 -0.24080030617E+03  0.15164959274E+04  0.10100000352E+00 0. -1.
</event>
<event>
 5   0  0.1345931E-05  0.2959415E+04  0.7818609E-02  0.8255416E-01
        2   -1    0    0  501    0  0.00000000000E+00  0.00000000000E+00  0.87578974541E+03  0.87578974542E+03  0.25500000920E-02 0. -1.
       -2   -1    0    0    0  501  0.00000000000E+00  0.00000000000E+00 -0.25000690615E+04  0.25000690615E+04  0.25500000920E-02 0.  1.
    10030    2    1    2    0    0  0.00000000000E+00  0.00000000000E+00 -0.16242793161E+04  0.33758588069E+04  0.29594153794E+04 0.  0.
        2    1    3    3  502    0 -0.14778651446E+02 -0.40532455800E+03 -0.24354214281E+04  0.24689641428E+04  0.25500000920E-02 0.  1.
       -2    1    3    3    0  502  0.14778651446E+02  0.40532455800E+03  0.81114211205E+03  0.90689466411E+03  0.25500000920E-02 0. -1.
</event>
<event>
 5   0  0.1480547E-05  0.1548846E+04  0.7818609E-02  0.8852605E-01
       -2   -1    0    0    0  501  0.00000000000E+00  0.00000000000E+00  0.90029135370E+03  0.90029135371E+03  0.25500000920E-02 0.  1.
        2   -1    0    0  501    0  0.00000000000E+00  0.00000000000E+00 -0.66615225232E+03  0.66615225232E+03  0.25500000920E-02 0. -1.
    10030    2    1    2    0    0  0.00000000000E+00  0.00000000000E+00  0.23413910139E+03  0.15664436060E+04  0.15488461680E+04 0.  0.
        1    1    3    3  502    0 -0.55739654016E+02  0.49531327260E+03  0.71649990760E+03  0.87281972060E+03  0.50400001928E-02 0.  1.
       -1    1    3    3    0  502  0.55739654016E+02 -0.49531327260E+03 -0.48236080621E+03  0.69362388543E+03  0.50400001928E-02 0. -1.
</event>
<event>
 5   0  0.5392262E-06  0.2969090E+04  0.7818609E-02  0.8252613E-01
       -1   -1    0    0    0  501  0.00000000000E+00  0.00000000000E+00  0.96560540871E+03  0.96560540872E+03  0.50400001928E-02 0. -1.
        1   -1    0    0  501    0  0.00000000000E+00  0.00000000000E+00 -0.22823744856E+04  0.22823744856E+04  0.50400001928E-02 0.  1.
    10030    2    1    2    0    0  0.00000000000E+00  0.00000000000E+00 -0.13167690769E+04  0.32479798943E+04  0.29690895224E+04 0.  0.
        2    1    3    3  502    0  0.54915080101E+03 -0.11751721029E+04  0.13142859719E+03  0.13037904547E+04  0.25500000920E-02 0. -1.
       -2    1    3    3    0  502 -0.54915080101E+03  0.11751721029E+04 -0.14481976740E+04  0.19441894395E+04  0.25500000920E-02 0.  1.
</event>
<event>
 5   0  0.1345931E-05  0.1680733E+04  0.7818609E-02  0.8772430E-01
        2   -1    0    0  501    0  0.00000000000E+00  0.00000000000E+00  0.86718261892E+03  0.86718261892E+03  0.25500000920E-02 0.  1.
       -2   -1    0    0    0  501  0.00000000000E+00  0.00000000000E+00 -0.81437923751E+03  0.81437923752E+03  0.25500000920E-02 0. -1.
    10030    2    1    2    0    0  0.00000000000E+00  0.00000000000E+00  0.52803381407E+02  0.16815618564E+04  0.16807326022E+04 0.  0.
        2    1    3    3  502    0  0.93158932301E+02  0.12434803224E+03 -0.79988380583E+03  0.81483441423E+03  0.25500000920E-02 0. -1.
       -2    1    3    3    0  502 -0.93158932301E+02 -0.12434803224E+03  0.85268718723E+03  0.86672744220E+03  0.25500000920E-02 0.  1.
</event>
<event>
 5   0  0.5522695E-06  0.2976270E+04  0.7818609E-02  0.8250540E-01
       -1   -1    0    0    0  501  0.00000000000E+00  0.00000000000E+00  0.12799740404E+04  0.12799740404E+04  0.50400001928E-02 0.  1.
        1   -1    0    0  501    0  0.00000000000E+00  0.00000000000E+00 -0.17301494949E+04  0.17301494949E+04  0.50400001928E-02 0. -1.
    10030    2    1    2    0    0  0.00000000000E+00  0.00000000000E+00 -0.45017545455E+03  0.30101235353E+04  0.29762704443E+04 0.  0.
        3    1    3    3  502    0 -0.56358795700E+02  0.12353224424E+04  0.61218642846E+03  0.13798442245E+04  0.10100000352E+00 0.  1.
       -3    1    3    3    0  502  0.56358795700E+02 -0.12353224424E+04 -0.10623618830E+04  0.16302793108E+04  0.10100000352E+00 0. -1.
</event>
<event>
 5   0  0.5329891E-06  0.3054182E+04  0.7818609E-02  0.8228426E-01
       -1   -1    0    0    0  501  0.00000000000E+00  0.00000000000E+00  0.11078937240E+04  0.11078937240E+04  0.50400001928E-02 0.  1.
        1   -1    0    0  501    0  0.00000000000E+00  0.00000000000E+00 -0.21049015270E+04  0.21049015270E+04  0.50400001928E-02 0. -1.
    10030    2    1    2    0    0  0.00000000000E+00  0.00000000000E+00 -0.99700780296E+03  0.32127952510E+04  0.30541821762E+04 0.  0.
        4    1    3    3  502    0 -0.12749589651E+03 -0.11347292128E+04 -0.15651349866E+04  0.19373989597E+04  0.12699999809E+01 0. -1.
       -4    1    3    3    0  502  0.12749589651E+03  0.11347292128E+04  0.56812718366E+03  0.12753962912E+04  0.12699999809E+01 0.  1.
</event>
<event>
 5   0  0.5392262E-06  0.1542281E+04  0.7818609E-02  0.8856813E-01
       -1   -1    0    0    0  501  0.00000000000E+00  0.00000000000E+00  0.41226203389E+03  0.41226203392E+03  0.50400001928E-02 0. -1.
        1   -1    0    0  501    0  0.00000000000E+00  0.00000000000E+00 -0.14424263289E+04  0.14424263289E+04  0.50400001928E-02 0.  1.
    10030    2    1    2    0    0  0.00000000000E+00  0.00000000000E+00 -0.10301642950E+04  0.18546883628E+04  0.15422809240E+04 0.  0.
        2    1    3    3  502    0  0.70103523837E+03  0.31463635517E+03 -0.43704365302E+03  0.88399864032E+03  0.25500000920E-02 0.  1.
       -2    1    3    3    0  502 -0.70103523837E+03 -0.31463635517E+03 -0.59312064201E+03  0.97068972253E+03  0.25500000920E-02 0. -1.
</event>
<event>
 5   0  0.7032692E-06  0.2902873E+04  0.7818609E-02  0.8272023E-01
       -1   -1    0    0    0  501  0.00000000000E+00  0.00000000000E+00  0.99028797737E+03  0.99028797738E+03  0.50400001928E-02 0.  1.
        1   -1    0    0  501    0  0.00000000000E+00  0.00000000000E+00 -0.21273292091E+04  0.21273292091E+04  0.50400001928E-02 0. -1.
    10030    2    1    2    0    0  0.00000000000E+00  0.00000000000E+00 -0.11370412318E+04  0.31176171865E+04  0.29028734314E+04 0.  0.
        5    1    3    3  502    0  0.64346854792E+03 -0.10854632060E+04 -0.13387677624E+04  0.18397291527E+04  0.46999998093E+01 0. -1.
       -5    1    3    3    0  502 -0.64346854792E+03  0.10854632060E+04  0.20172653063E+03  0.12778880338E+04  0.46999998093E+01 0.  1.
</event>
<event>
 5   0  0.1480547E-05  0.2994809E+04  0.7818609E-02  0.8245215E-01
       -2   -1    0    0    0  501  0.00000000000E+00  0.00000000000E+00  0.11462528465E+04  0.11462528465E+04  0.25500000920E-02 0. -1.
        2   -1    0    0  501    0  0.00000000000E+00  0.00000000000E+00 -0.19561302375E+04  0.19561302375E+04  0.25500000920E-02 0.  1.
    10030    2    1    2    0    0  0.00000000000E+00  0.00000000000E+00 -0.80987739105E+03  0.31023830840E+04  0.29948087437E+04 0.  0.
        1    1    3    3  502    0 -0.10566624675E+04 -0.48013610705E+03  0.57517196475E+03  0.12953335635E+04  0.50400001928E-02 0. -1.
       -1    1    3    3    0  502  0.10566624675E+04  0.48013610705E+03 -0.13850493558E+04  0.18070495205E+04  0.50400001928E-02 0.  1.
</event>
<event>
 5   0  0.1388724E-05  0.2916214E+04  0.7818609E-02  0.8268070E-01
       -2   -1    0    0    0  501  0.00000000000E+00  0.00000000000E+00  0.16310206591E+04  0.16310206591E+04  0.25500000920E-02 0.  1.
        2   -1    0    0  501    0  0.00000000000E+00  0.00000000000E+00 -0.13035245665E+04  0.13035245665E+04  0.25500000920E-02 0. -1.
    10030    2    1    2    0    0  0.00000000000E+00  0.00000000000E+00  0.32749609258E+03  0.29345452256E+04  0.29162136393E+04 0.  0.
        4    1    3    3  502    0 -0.93854271084E+03  0.40610092394E+03  0.12096533192E+04  0.15839959426E+04  0.12699999809E+01 0.  1.
       -4    1    3    3    0  502  0.93854271084E+03 -0.40610092394E+03 -0.88215722662E+03  0.13505492830E+04  0.12699999809E+01 0. -1.
</event>
<event>
 5   0  0.1423692E-05  0.2990466E+04  0.7818609E-02  0.8246459E-01
        2   -1    0    0  501    0  0.00000000000E+00  0.00000000000E+00  0.18584005509E+04  0.18584005509E+04  0.25500000920E-02 0. -1.
       -2   -1    0    0    0  501  0.00000000000E+00  0.00000000000E+00 -0.12030350465E+04  0.12030350465E+04  0.25500000920E-02 0.  1.
    10030    2    1    2    0    0  0.00000000000E+00  0.00000000000E+00  0.65536550436E+03  0.30614355974E+04  0.29904655111E+04 0.  0.
        3    1    3    3  502    0 -0.22288081895E+03  0.14111007133E+04 -0.12419949437E+03  0.14339827778E+04  0.10100000352E+00 0.  1.
       -3    1    3    3    0  502  0.22288081895E+03 -0.14111007133E+04  0.77956499873E+03  0.16274528196E+04  0.10100000352E+00 0. -1.
</event>
<event>
 5   0  0.5392262E-06  0.3016142E+04  0.7818609E-02  0.8239136E-01
        1   -1    0    0  501    0  0.00000000000E+00  0.00000000000E+00  0.23830317482E+04  0.23830317482E+04  0.50400001928E-02 0.  1.
       -1   -1    0    0    0  501  0.00000000000E+00  0.00000000000E+00 -0.95436364606E+03  0.95436364607E+03  0.50400001928E-02 0. -1.
    10030    2    1    2    0    0  0.00000000000E+00  0.00000000000E+00  0.14286681022E+04  0.33373953943E+04  0.30161424820E+04 0.  0.
        2    1    3    3  502    0  0.11860749388E+04  0.56396607129E+02 -0.31437894860E+03  0.12283275056E+04  0.25500000920E-02 0. -1.
       -2    1    3    3    0  502 -0.11860749388E+04 -0.56396607129E+02  0.17430470508E+04  0.21090678887E+04  0.25500000920E-02 0.  1.
</event>
<event>
 5   0  0.5392262E-06  0.2902271E+04  0.7818609E-02  0.8272202E-01
       -1   -1    0    0    0  501  0.00000000000E+00  0.00000000000E+00  0.11819548076E+04  0.11819548077E+04  0.50400001928E-02 0. -1.
        1   -1    0    0  501    0  0.00000000000E+00  0.00000000000E+00 -0.17816199653E+04  0.17816199653E+04  0.50400001928E-02 0.  1.
    10030    2    1    2    0    0  0.00000000000E+00  0.00000000000E+00 -0.59966515769E+03  0.29635747730E+04  0.29022710304E+04 0.  0.
        2    1    3    3  502    0 -0.28179628953E+03  0.13934903762E+04 -0.28812090956E+01  0.14217006994E+04  0.25500000920E-02 0. -1.
       -2    1    3    3    0  502  0.28179628953E+03 -0.13934903762E+04 -0.59678394859E+03  0.15418740736E+04  0.25500000920E-02 0.  1.
</event>
<event>
 5   0  0.5329891E-06  0.2984317E+04  0.7818609E-02  0.8248223E-01
       -1   -1    0    0    0  501  0.00000000000E+00  0.00000000000E+00  0.87333699221E+03  0.87333699222E+03  0.50400001928E-02 0. -1.
        1   -1    0    0  501    0  0.00000000000E+00  0.00000000000E+00 -0.25494597139E+04  0.25494597139E+04  0.50400001928E-02 0.  1.
    10030    2    1    2    0    0  0.00000000000E+00  0.00000000000E+00 -0.16761227217E+04  0.34227967061E+04  0.29843173278E+04 0.  0.
        4    1    3    3  502    0  0.92274784091E+03 -0.19238677519E+03  0.48864202219E+03  0.10617197784E+04  0.12699999809E+01 0. -1.
       -4    1    3    3    0  502 -0.92274784091E+03  0.19238677519E+03 -0.21647647439E+04  0.23610769277E+04  0.12699999809E+01 0.  1.
</event>
<event>
 5   0  0.5730920E-06  0.2590851E+04  0.7818609E-02  0.8371316E-01
        1   -1    0    0  501    0  0.00000000000E+00  0.00000000000E+00  0.16539601342E+04  0.16539601342E+04  0.50400001928E-02 0.  1.
       -1   -1    0    0    0  501  0.00000000000E+00  0.00000000000E+00 -0.10146115102E+04  0.10146115102E+04  0.50400001928E-02 0. -1.
    10030    2    1    2    0    0  0.00000000000E+00  0.00000000000E+00  0.63934862409E+03  0.26685716444E+04  0.25908508174E+04 0.  0.
        1    1    3    3  502    0  0.10389503835E+04  0.56606985390E+03 -0.22366707100E+03  0.12041096036E+04  0.50400001928E-02 0.  1.
       -1    1    3    3    0  502 -0.10389503835E+04 -0.56606985390E+03  0.86301569509E+03  0.14644620408E+04  0.50400001928E-02 0. -1.
</event>
<event>
 5   0  0.1388724E-05  0.3018751E+04  0.7818609E-02  0.8238397E-01
       -2   -1    0    0    0  501  0.00000000000E+00  0.00000000000E+00  0.11699285692E+04  0.11699285692E+04  0.25500000920E-02 0. -1.
        2   -1    0    0  501    0  0.00000000000E+00  0.00000000000E+00 -0.19473108235E+04  0.19473108235E+04  0.25500000920E-02 0.  1.
    10030    2    1    2    0    0  0.00000000000E+00  0.00000000000E+00 -0.77738225425E+03  0.31172393927E+04  0.30187511097E+04 0.  0.
        4    1    3    3  502    0 -0.37907607657E+03  0.13480235846E+04  0.19302330516E+03  0.14135508005E+04  0.12699999809E+01 0. -1.
       -4    1    3    3    0  502  0.37907607657E+03 -0.13480235846E+04 -0.97040555942E+03  0.17036885922E+04  0.12699999809E+01 0.  1.
</event>
<event>
 5   0  0.1523029E-05  0.2837476E+04  0.7818609E-02  0.8291727E-01
        2   -1    0    0  501    0  0.00000000000E+00  0.00000000000E+00  0.12898119165E+04  0.12898119165E+04  0.25500000920E-02 0.  1.
       -2   -1    0    0    0  501  0.00000000000E+00  0.00000000000E+00 -0.15605515420E+04  0.15605515420E+04  0.25500000920E-02 0. -1.
    10030    2    1    2    0    0  0.00000000000E+00  0.00000000000E+00 -0.27073962545E+03  0.28503634585E+04  0.28374763260E+04 0.  0.
        5    1    3    3  502    0 -0.13768993436E+04 -0.34192994625E+03 -0.13005478356E+03  0.14246768852E+04  0.46999998093E+01 0. -1.
       -5    1    3    3    0  502  0.13768993436E+04  0.34192994625E+03 -0.14068484189E+03  0.14256865733E+04  0.46999998093E+01 0.  1.
</event>
<event>
 5   0  0.7032692E-06  0.2572231E+04  0.7818609E-02  0.8377695E-01
       -1   -1    0    0    0  501  0.00000000000E+00  0.00000000000E+00  0.11295206954E+04  0.11295206954E+04  0.50400001928E-02 0. -1.
        1   -1    0    0  501    0  0.00000000000E+00  0.00000000000E+00 -0.14644201407E+04  0.14644201407E+04  0.50400001928E-02 0.  1.
    10030    2    1    2    0    0  0.00000000000E+00  0.00000000000E+00 -0.33489944533E+03  0.25939408362E+04  0.25722308261E+04 0.  0.
        5    1    3    3  502    0  0.12375036402E+04  0.34965591366E+03 -0.14737572399E+03  0.12943786970E+04  0.46999998093E+01 0. -1.
       -5    1    3    3    0  502 -0.12375036402E+04 -0.34965591366E+03 -0.18752372135E+03  0.12995621391E+04  0.46999998093E+01 0.  1.
</event>
<event>
 5   0  0.1480547E-05  0.2787936E+04  0.7818609E-02  0.8307024E-01
       -2   -1    0    0    0  501  0.00000000000E+00  0.00000000000E+00  0.11809470637E+04  0.11809470637E+04  0.25500000920E-02 0. -1.
        2   -1    0    0  501    0  0.00000000000E+00  0.00000000000E+00 -0.16454138666E+04  0.16454138666E+04  0.25500000920E-02 0.  1.
    10030    2    1    2    0    0  0.00000000000E+00  0.00000000000E+00 -0.46446680290E+03  0.28263609304E+04  0.27879359207E+04 0.  0.
        1    1    3    3  502    0 -0.10761341557E+04 -0.51756510427E+03 -0.96131742773E+03  0.15329936579E+04  0.50400001928E-02 0.  1.
       -1    1    3    3    0  502  0.10761341557E+04  0.51756510427E+03  0.49685062482E+03  0.12933672725E+04  0.50400001928E-02 0. -1.
</event>
<event>
 5   0  0.1345931E-05  0.3008621E+04  0.7818609E-02  0.8241273E-01
       -2   -1    0    0    0  501  0.00000000000E+00  0.00000000000E+00  0.11860339539E+04  0.11860339539E+04  0.25500000920E-02 0.  1.
        2   -1    0    0  501    0  0.00000000000E+00  0.00000000000E+00 -0.19079975090E+04  0.19079975090E+04  0.25500000920E-02 0. -1.
    10030    2    1    2    0    0  0.00000000000E+00  0.00000000000E+00 -0.72196355508E+03  0.30940314629E+04  0.30086208333E+04 0.  0.
        2    1    3    3  502    0  0.14976234627E+04 -0.92947414141E+02 -0.25101355083E+03  0.15213556653E+04  0.25500000920E-02 0. -1.
       -2    1    3    3    0  502 -0.14976234627E+04  0.92947414141E+02 -0.47095000425E+03  0.15726757976E+04  0.25500000920E-02 0.  1.
</event>
<event>
 5   0  0.1345931E-05  0.3052926E+04  0.7818609E-02  0.8228777E-01
       -2   -1    0    0    0  501  0.00000000000E+00  0.00000000000E+00  0.11108608853E+04  0.11108608853E+04  0.25500000920E-02 0.  1.
        2   -1    0    0  501    0  0.00000000000E+00  0.00000000000E+00 -0.20975524058E+04  0.20975524058E+04  0.25500000920E-02 0. -1.
    10030    2    1    2    0    0  0.00000000000E+00  0.00000000000E+00 -0.98669152049E+03  0.32084132911E+04  0.30529257590E+04 0.  0.
        2    1    3    3  502    0 -0.50615452711E+03  0.77283279997E+03  0.78370839993E+03  0.12114709234E+04  0.25500000920E-02 0. -1.
       -2    1    3    3    0  502  0.50615452711E+03 -0.77283279997E+03 -0.17703999204E+04  0.19969423678E+04  0.25500000920E-02 0.  1.
</event>
<event>
 5   0  0.5329891E-06  0.3144487E+04  0.7818609E-02  0.8203634E-01
        1   -1    0    0  501    0  0.00000000000E+00  0.00000000000E+00  0.17833834023E+04  0.17833834023E+04  0.50400001928E-02 0. -1.
       -1   -1    0    0    0  501  0.00000000000E+00  0.00000000000E+00 -0.13861011606E+04  0.13861011606E+04  0.50400001928E-02 0.  1.
    10030    2    1    2    0    0  0.00000000000E+00  0.00000000000E+00  0.39728224173E+03  0.31694845629E+04  0.31444871147E+04 0.  0.
        4    1    3    3  502    0 -0.56025033085E+03  0.23910328511E+03 -0.12623286864E+04  0.14016155463E+04  0.12699999809E+01 0.  1.
       -4    1    3    3    0  502  0.56025033085E+03 -0.23910328511E+03  0.16596109281E+04  0.17678690166E+04  0.12699999809E+01 0. -1.
</event>
<event>
 5   0  0.5730920E-06  0.2178208E+04  0.7818609E-02  0.8527554E-01
       -1   -1    0    0    0  501  0.00000000000E+00  0.00000000000E+00  0.43930661874E+03  0.43930661877E+03  0.50400001928E-02 0.  1.
        1   -1    0    0  501    0  0.00000000000E+00  0.00000000000E+00 -0.27000439294E+04  0.27000439294E+04  0.50400001928E-02 0. -1.
    10030    2    1    2    0    0  0.00000000000E+00  0.00000000000E+00 -0.22607373106E+04  0.31393505481E+04  0.21782076752E+04 0.  0.
        1    1    3    3  502    0 -0.32410107259E+03  0.90708201279E+03 -0.39786573348E+03  0.10421786915E+04  0.50400001928E-02 0.  1.
       -1    1    3    3    0  502  0.32410107259E+03 -0.90708201279E+03 -0.18628715771E+04  0.20971718566E+04  0.50400001928E-02 0. -1.
</event>
<event>
 5   0  0.1523029E-05  0.2976836E+04  0.7818609E-02  0.8250377E-01
        2   -1    0    0  501    0  0.00000000000E+00  0.00000000000E+00  0.17874346126E+04  0.17874346126E+04  0.25500000920E-02 0. -1.
       -2   -1    0    0    0  501  0.00000000000E+00  0.00000000000E+00 -0.12394229043E+04  0.12394229043E+04  0.25500000920E-02 0.  1.
    10030    2    1    2    0    0  0.00000000000E+00  0.00000000000E+00  0.54801170829E+03  0.30268575170E+04  0.29768355003E+04 0.  0.
        5    1    3    3  502    0 -0.86996047191E+03  0.37977365185E+03  0.14397020973E+04  0.17244777378E+04  0.46999998093E+01 0. -1.
       -5    1    3    3    0  502  0.86996047191E+03 -0.37977365185E+03 -0.89169038898E+03  0.13023797791E+04  0.46999998093E+01 0.  1.
</event>
<event>
 5   0  0.7032692E-06  0.3033214E+04  0.7818609E-02  0.8234310E-01
       -1   -1    0    0    0  501  0.00000000000E+00  0.00000000000E+00  0.12845850948E+04  0.12845850948E+04  0.50400001928E-02 0. -1.
        1   -1    0    0  501    0  0.00000000000E+00  0.00000000000E+00 -0.17905362180E+04  0.17905362180E+04  0.50400001928E-02 0.  1.
    10030    2    1    2    0    0  0.00000000000E+00  0.00000000000E+00 -0.50595112318E+03  0.30751213129E+04  0.30332135681E+04 0.  0.
        5    1    3    3  502    0 -0.11337456752E+04 -0.17738641412E+03 -0.12582544686E+04  0.17029596571E+04  0.46999998093E+01 0.  1.
       -5    1    3    3    0  502  0.11337456752E+04  0.17738641412E+03  0.75230334547E+03  0.13721616557E+04  0.46999998093E+01 0. -1.
</event>
<event>
 5   0  0.1345931E-05  0.2959643E+04  0.7818609E-02  0.8255350E-01
        2   -1    0    0  501    0  0.00000000000E+00  0.00000000000E+00  0.22275839131E+04  0.22275839131E+04  0.25500000920E-02 0. -1.
       -2   -1    0    0    0  501  0.00000000000E+00  0.00000000000E+00 -0.98307003209E+03  0.98307003210E+03  0.25500000920E-02 0.  1.
    10030    2    1    2    0    0  0.00000000000E+00  0.00000000000E+00  0.12445138810E+04  0.32106539452E+04  0.29596425385E+04 0.  0.
        2    1    3    3  502    0  0.83506101299E+03  0.12068182642E+04  0.41604639107E+03  0.15253956267E+04  0.25500000920E-02 0.  1.
       -2    1    3    3    0  502 -0.83506101299E+03 -0.12068182642E+04  0.82846748992E+03  0.16852583185E+04  0.25500000920E-02 0. -1.
</event>
<event>
 5   0  0.1388724E-05  0.2911275E+04  0.7818609E-02  0.8269531E-01
       -2   -1    0    0    0  501  0.00000000000E+00  0.00000000000E+00  0.16368814310E+04  0.16368814310E+04  0.25500000920E-02 0.  1.
        2   -1    0    0  501    0  0.00000000000E+00  0.00000000000E+00 -0.12944615100E+04  0.12944615100E+04  0.25500000920E-02 0. -1.
    10030    2    1    2    0    0  0.00000000000E+00  0.00000000000E+00  0.34241992097E+03  0.29313429410E+04  0.29112746410E+04 0.  0.
        4    1    3    3  502    0 -0.88831087765E+03 -0.13694860541E+03 -0.98168386587E+03  0.13309981072E+04  0.12699999809E+01 0. -1.
       -4    1    3    3    0  502  0.88831087765E+03  0.13694860541E+03  0.13241037868E+04  0.16003448338E+04  0.12699999809E+01 0.  1.
</event>
<event>
 5   0  0.5329891E-06  0.2955122E+04  0.7818609E-02  0.8256663E-01
       -1   -1    0    0    0  501  0.00000000000E+00  0.00000000000E+00  0.10080467103E+04  0.10080467103E+04  0.50400001928E-02 0.  1.
        1   -1    0    0  501    0  0.00000000000E+00  0.00000000000E+00 -0.21657598303E+04  0.21657598303E+04  0.50400001928E-02 0. -1.
    10030    2    1    2    0    0  0.00000000000E+00  0.00000000000E+00 -0.11577131199E+04  0.31738065406E+04  0.29551223814E+04 0.  0.
        4    1    3    3  502    0  0.28790910173E+03 -0.14176341849E+04 -0.90214200908E+03  0.17048284813E+04  0.12699999809E+01 0. -1.
       -4    1    3    3    0  502 -0.28790910173E+03  0.14176341849E+04 -0.25557111085E+03  0.14689780593E+04  0.12699999809E+01 0.  1.
</event>
<event>
 5   0  0.1523029E-05  0.2964137E+04  0.7818609E-02  0.8254046E-01
       -2   -1    0    0    0  501  0.00000000000E+00  0.00000000000E+00  0.11395126125E+04  0.11395126125E+04  0.25500000920E-02 0.  1.
        2   -1    0    0  501    0  0.00000000000E+00  0.00000000000E+00 -0.19276025866E+04  0.19276025866E+04  0.25500000920E-02 0. -1.
    10030    2    1    2    0    0  0.00000000000E+00  0.00000000000E+00 -0.78808997411E+03  0.30671151991E+04  0.29641372838E+04 0.  0.
        5    1    3    3  502    0 -0.72807875853E+03  0.70340828228E+03 -0.15140650627E+04  0.18213448312E+04  0.46999998093E+01 0. -1.
       -5    1    3    3    0  502  0.72807875853E+03 -0.70340828228E+03  0.72597508856E+03  0.12457703679E+04  0.46999998093E+01 0.  1.
</event>
<event>
 5   0  0.1423692E-05  0.2915946E+04  0.7818609E-02  0.8268149E-01
        2   -1    0    0  501    0  0.00000000000E+00  0.00000000000E+00  0.23527839186E+04  0.23527839186E+04  0.25500000920E-02 0. -1.
       -2   -1    0    0    0  501  0.00000000000E+00  0.00000000000E+00 -0.90347677159E+03  0.90347677159E+03  0.25500000920E-02 0.  1.
    10030    2    1    2    0    0  0.00000000000E+00  0.00000000000E+00  0.14493071470E+04  0.32562606902E+04  0.29159462403E+04 0.  0.
        3    1    3    3  502    0 -0.74251413565E+03  0.30696886364E+03  0.20832465395E+04  0.22328173413E+04  0.10100000352E+00 0. -1.
       -3    1    3    3    0  502  0.74251413565E+03 -0.30696886364E+03 -0.63393939250E+03  0.10234433489E+04  0.10100000352E+00 0.  1.
</event>
<event>
 5   0  0.1388724E-05  0.3004147E+04  0.7818609E-02  0.8242548E-01
        2   -1    0    0  501    0  0.00000000000E+00  0.00000000000E+00  0.18455416113E+04  0.18455416113E+04  0.25500000920E-02 0.  1.
       -2   -1    0    0    0  501  0.00000000000E+00  0.00000000000E+00 -0.12225271606E+04  0.12225271606E+04  0.25500000920E-02 0. -1.
    10030    2    1    2    0    0  0.00000000000E+00  0.00000000000E+00  0.62301445077E+03  0.30680687719E+04  0.30041469643E+04 0.  0.
        4    1    3    3  502    0 -0.20979001308E+02 -0.49854363588E+03  0.17584230628E+04  0.18278509666E+04  0.12699999809E+01 0.  1.
       -4    1    3    3    0  502  0.20979001308E+02  0.49854363588E+03 -0.11354086121E+04  0.12402178053E+04  0.12699999809E+01 0. -1.
</event>
<event>
 5   0  0.5392262E-06  0.2892328E+04  0.7818609E-02  0.8275164E-01
        1   -1    0    0  501    0  0.00000000000E+00  0.00000000000E+00  0.18304800598E+04  0.18304800598E+04  0.50400001928E-02 0.  1.
       -1   -1    0    0    0  501  0.00000000000E+00  0.00000000000E+00 -0.11425364093E+04  0.11425364093E+04  0.50400001928E-02 0. -1.
    10030    2    1    2    0    0  0.00000000000E+00  0.00000000000E+00  0.68794365047E+03  0.29730164692E+04  0.28923278617E+04 0.  0.
        2    1    3    3  502    0  0.35784202293E+03 -0.10901488423E+04 -0.56087849506E+03  0.12771296324E+04  0.25500000920E-02 0. -1.
       -2    1    3    3    0  502 -0.35784202293E+03  0.10901488423E+04  0.12488221455E+04  0.16958868367E+04  0.25500000920E-02 0.  1.
</event>
<event>
 5   0  0.1423692E-05  0.2002329E+04  0.7818609E-02  0.8605533E-01
       -2   -1    0    0    0  501  0.00000000000E+00  0.00000000000E+00  0.78271240470E+03  0.78271240471E+03  0.25500000920E-02 0.  1.
        2   -1    0    0  501    0  0.00000000000E+00  0.00000000000E+00 -0.12805855441E+04  0.12805855441E+04  0.25500000920E-02 0. -1.
    10030    2    1    2    0    0  0.00000000000E+00  0.00000000000E+00 -0.49787313941E+03  0.20632979488E+04  0.20023288348E+04 0.  0.
        3    1    3    3  502    0  0.48663370751E+03  0.47602326986E+02  0.65130792268E+03  0.81442026446E+03  0.10100000352E+00 0.  1.
       -3    1    3    3    0  502 -0.48663370751E+03 -0.47602326986E+02 -0.11491810621E+04  0.12488776844E+04  0.10100000352E+00 0. -1.
</event>
<event>
 5   0  0.5522695E-06  0.3046716E+04  0.7818609E-02  0.8230515E-01
       -1   -1    0    0    0  501  0.00000000000E+00  0.00000000000E+00  0.90123647576E+03  0.90123647577E+03  0.50400001928E-02 0.  1.
        1   -1    0    0  501    0  0.00000000000E+00  0.00000000000E+00 -0.25749280508E+04  0.25749280508E+04  0.50400001928E-02 0. -1.
    10030    2    1    2    0    0  0.00000000000E+00  0.00000000000E+00 -0.16736915750E+04  0.34761645265E+04  0.30467156624E+04 0.  0.
        3    1    3    3  502    0 -0.12091515891E+04 -0.16199754050E+03 -0.18777618966E+04  0.22392589219E+04  0.10100000352E+00 0. -1.
       -3    1    3    3    0  502  0.12091515891E+04  0.16199754050E+03  0.20407032164E+03  0.12369056047E+04  0.10100000352E+00 0.  1.
</event>
<event>
 5   0  0.1388724E-05  0.3026249E+04  0.7818609E-02  0.8236275E-01
       -2   -1    0    0    0  501  0.00000000000E+00  0.00000000000E+00  0.79479018422E+03  0.79479018422E+03  0.25500000920E-02 0.  1.
        2   -1    0    0  501    0  0.00000000000E+00  0.00000000000E+00 -0.28806912068E+04  0.28806912068E+04  0.25500000920E-02 0. -1.
    10030    2    1    2    0    0  0.00000000000E+00  0.00000000000E+00 -0.20859010226E+04  0.36754813910E+04  0.30262485654E+04 0.  0.
        4    1    3    3  502    0  0.13840240449E+03 -0.93784151849E+03 -0.24752982234E+04  0.26506234827E+04  0.12699999809E+01 0. -1.
       -4    1    3    3    0  502 -0.13840240449E+03  0.93784151849E+03  0.38939720080E+03  0.10248579083E+04  0.12699999809E+01 0.  1.
</event>
<event>
 5   0  0.5730920E-06  0.2913501E+04  0.7818609E-02  0.8268872E-01
        1   -1    0    0  501    0  0.00000000000E+00  0.00000000000E+00  0.16539727430E+04  0.16539727430E+04  0.50400001928E-02 0. -1.
       -1   -1    0    0    0  501  0.00000000000E+00  0.00000000000E+00 -0.12830450615E+04  0.12830450615E+04  0.50400001928E-02 0.  1.
    10030    2    1    2    0    0  0.00000000000E+00  0.00000000000E+00  0.37092768148E+03  0.29370178045E+04  0.29135006846E+04 0.  0.
        1    1    3    3  502    0 -0.91485330838E+03 -0.54768865290E+03 -0.81512147351E+03  0.13421409959E+04  0.50400001928E-02 0.  1.
       -1    1    3    3    0  502  0.91485330838E+03  0.54768865290E+03  0.11860491550E+04  0.15948768085E+04  0.50400001928E-02 0. -1.
</event>
<event>
 5   0  0.1523029E-05  0.2967402E+04  0.7818609E-02  0.8253101E-01
        2   -1    0    0  501    0  0.00000000000E+00  0.00000000000E+00  0.12288400900E+04  0.12288400900E+04  0.25500000920E-02 0.  1.
       -2   -1    0    0    0  501  0.00000000000E+00  0.00000000000E+00 -0.17914203289E+04  0.17914203289E+04  0.25500000920E-02 0. -1.
    10030    2    1    2    0    0  0.00000000000E+00  0.00000000000E+00 -0.56258023891E+03  0.30202604188E+04  0.29674023105E+04 0.  0.
        5    1    3    3  502    0 -0.11325096904E+04 -0.54845274105E+03 -0.10814027048E+04  0.16591662086E+04  0.46999998093E+01 0. -1.
       -5    1    3    3    0  502  0.11325096904E+04  0.54845274105E+03  0.51882246589E+03  0.13610942102E+04  0.46999998093E+01 0.  1.
</event>
<event>
 5   0  0.7032692E-06  0.2928620E+04  0.7818609E-02  0.8264413E-01
       -1   -1    0    0    0  501  0.00000000000E+00  0.00000000000E+00  0.13735892844E+04  0.13735892844E+04  0.50400001928E-02 0.  1.
        1   -1    0    0  501    0  0.00000000000E+00  0.00000000000E+00 -0.15610229294E+04  0.15610229294E+04  0.50400001928E-02 0. -1.
    10030    2    1    2    0    0  0.00000000000E+00  0.00000000000E+00 -0.18743364498E+03  0.29346122138E+04  0.29286204046E+04 0.  0.
        5    1    3    3  502    0 -0.39034784501E+03 -0.60189770402E+03 -0.13728589902E+04  0.15490049010E+04  0.46999998093E+01 0. -1.
       -5    1    3    3    0  502  0.39034784501E+03  0.60189770402E+03  0.11854253453E+04  0.13856073128E+04  0.46999998093E+01 0.  1.
</event>
<event>
 5   0  0.7032692E-06  0.2999282E+04  0.7818609E-02  0.8243936E-01
       -1   -1    0    0    0  501  0.00000000000E+00  0.00000000000E+00  0.89127487356E+03  0.89127487357E+03  0.50400001928E-02 0.  1.
        1   -1    0    0  501    0  0.00000000000E+00  0.00000000000E+00 -0.25232657579E+04  0.25232657580E+04  0.50400001928E-02 0. -1.
    10030    2    1    2    0    0  0.00000000000E+00  0.00000000000E+00 -0.16319908844E+04  0.34145406315E+04  0.29992821604E+04 0.  0.
        5    1    3    3  502    0 -0.14819478987E+04  0.18709033547E+03 -0.66441052369E+03  0.16348198072E+04  0.46999998093E+01 0.  1.
       -5    1    3    3    0  502  0.14819478987E+04 -0.18709033547E+03 -0.96758036070E+03  0.17797208243E+04  0.46999998093E+01 0. -1.
</event>
<event>
 5   0  0.1523029E-05  0.3022715E+04  0.7818609E-02  0.8237274E-01
        2   -1    0    0  501    0  0.00000000000E+00  0.00000000000E+00  0.19623756677E+04  0.19623756677E+04  0.25500000920E-02 0.  1.
       -2   -1    0    0    0  501  0.00000000000E+00  0.00000000000E+00 -0.11639984031E+04  0.11639984031E+04  0.25500000920E-02 0. -1.
    10030    2    1    2    0    0  0.00000000000E+00  0.00000000000E+00  0.79837726454E+03  0.31263740708E+04  0.30227154306E+04 0.  0.
        5    1    3    3  502    0 -0.13811725296E+04  0.14912959597E+03  0.10148345535E+04  0.17204035729E+04  0.46999998093E+01 0.  1.
       -5    1    3    3    0  502  0.13811725296E+04 -0.14912959597E+03 -0.21645728892E+03  0.14059704979E+04  0.46999998093E+01 0. -1.
</event>
<event>
 5   0  0.5329891E-06  0.2928212E+04  0.7818609E-02  0.8264533E-01
       -1   -1    0    0    0  501  0.00000000000E+00  0.00000000000E+00  0.16307195477E+04  0.16307195477E+04  0.50400001928E-02 0. -1.
        1   -1    0    0  501    0  0.00000000000E+00  0.00000000000E+00 -0.13145154263E+04  0.13145154263E+04  0.50400001928E-02 0.  1.
    10030    2    1    2    0    0  0.00000000000E+00  0.00000000000E+00  0.31620412143E+03  0.29452349740E+04  0.29282117420E+04 0.  0.
        4    1    3    3  502    0 -0.89713576124E+03  0.45317594462E+03 -0.91269184467E+03  0.13576557101E+04  0.12699999809E+01 0.  1.
       -4    1    3    3    0  502  0.89713576124E+03 -0.45317594462E+03  0.12288959661E+04  0.15875792639E+04  0.12699999809E+01 0. -1.
</event>
<event>
 5   0  0.5329891E-06  0.3090528E+04  0.7818609E-02  0.8218342E-01
       -1   -1    0    0    0  501  0.00000000000E+00  0.00000000000E+00  0.13890674633E+04  0.13890674633E+04  0.50400001928E-02 0.  1.
        1   -1    0    0  501    0  0.00000000000E+00  0.00000000000E+00 -0.17190238736E+04  0.17190238736E+04  0.50400001928E-02 0. -1.
    10030    2    1    2    0    0  0.00000000000E+00  0.00000000000E+00 -0.32995641029E+03  0.31080913369E+04  0.30905275482E+04 0.  0.
        4    1    3    3  502    0  0.66797631950E+03 -0.72660429770E+03  0.10307668887E+04  0.14271048176E+04  0.12699999809E+01 0.  1.
       -4    1    3    3    0  502 -0.66797631950E+03  0.72660429770E+03 -0.13607232990E+04  0.16809865193E+04  0.12699999809E+01 0. -1.
</event>
<event>
 5   0  0.7032692E-06  0.2950983E+04  0.7818609E-02  0.8257868E-01
       -1   -1    0    0    0  501  0.00000000000E+00  0.00000000000E+00  0.13989538037E+04  0.13989538037E+04  0.50400001928E-02 0. -1.
        1   -1    0    0  501    0  0.00000000000E+00  0.00000000000E+00 -0.15562170728E+04  0.15562170728E+04  0.50400001928E-02 0.  1.
    10030    2    1    2    0    0  0.00000000000E+00  0.00000000000E+00 -0.15726326916E+03  0.29551708765E+04  0.29509834248E+04 0.  0.
        5    1    3    3  502    0 -0.11421428041E+04 -0.19680660686E+03  0.83580741306E+03  0.14289223727E+04  0.46999998093E+01 0. -1.
       -5    1    3    3    0  502  0.11421428041E+04  0.19680660686E+03 -0.99307068222E+03  0.15262485038E+04  0.46999998093E+01 0.  1.
</event>
<event>
 5   0  0.5329891E-06  0.2992419E+04  0.7818609E-02  0.8245899E-01
       -1   -1    0    0    0  501  0.00000000000E+00  0.00000000000E+00  0.11031429176E+04  0.11031429176E+04  0.50400001928E-02 0.  1.
        1   -1    0    0  501    0  0.00000000000E+00  0.00000000000E+00 -0.20293317202E+04  0.20293317202E+04  0.50400001928E-02 0. -1.
    10030    2    1    2    0    0  0.00000000000E+00  0.00000000000E+00 -0.92618880257E+03  0.31324746379E+04  0.29924190313E+04 0.  0.
        4    1    3    3  502    0 -0.57243371510E+03  0.11682303846E+04 -0.12367372068E+04  0.17949827635E+04  0.12699999809E+01 0. -1.
       -4    1    3    3    0  502  0.57243371510E+03 -0.11682303846E+04  0.31054840419E+03  0.13374918744E+04  0.12699999809E+01 0.  1.
</event>
<event>
 5   0  0.5329891E-06  0.2849414E+04  0.7818609E-02  0.8288089E-01
        1   -1    0    0  501    0  0.00000000000E+00  0.00000000000E+00  0.21889884489E+04  0.21889884489E+04  0.50400001928E-02 0.  1.
       -1   -1    0    0    0  501  0.00000000000E+00  0.00000000000E+00 -0.92727288794E+03  0.92727288795E+03  0.50400001928E-02 0. -1.
    10030    2    1    2    0    0  0.00000000000E+00  0.00000000000E+00  0.12617155609E+04  0.31162613368E+04  0.28494137226E+04 0.  0.
        4    1    3    3  502    0  0.48328212287E+03  0.12709757788E+03 -0.82828308407E+03  0.96735199635E+03  0.12699999809E+01 0. -1.
       -4    1    3    3    0  502 -0.48328212287E+03 -0.12709757788E+03  0.20899986450E+04  0.21489093405E+04  0.12699999809E+01 0.  1.
</event>
<event>
 5   0  0.5329891E-06  0.1977136E+04  0.7818609E-02  0.8617385E-01
        1   -1    0    0  501    0  0.00000000000E+00  0.00000000000E+00  0.11799590685E+04  0.11799590685E+04  0.50400001928E-02 0.  1.
       -1   -1    0    0    0  501  0.00000000000E+00  0.00000000000E+00 -0.82822092850E+03  0.82822092852E+03  0.50400001928E-02 0. -1.
    10030    2    1    2    0    0  0.00000000000E+00  0.00000000000E+00  0.35173814003E+03  0.20081799971E+04  0.19771361059E+04 0.  0.
        4    1    3    3  502    0 -0.46744520322E+03 -0.57411700790E+03  0.84125029147E+03  0.11206333132E+04  0.12699999809E+01 0.  1.
       -4    1    3    3    0  502  0.46744520322E+03  0.57411700790E+03 -0.48951215145E+03  0.88754668389E+03  0.12699999809E+01 0. -1.
</event>
<event>
 5   0  0.5730920E-06  0.1548832E+04  0.7818609E-02  0.8852614E-01
       -1   -1    0    0    0  501  0.00000000000E+00  0.00000000000E+00  0.51363921543E+03  0.51363921545E+03  0.50400001928E-02 0. -1.
        1   -1    0    0  501    0  0.00000000000E+00  0.00000000000E+00 -0.11675896582E+04  0.11675896582E+04  0.50400001928E-02 0.  1.
    10030    2    1    2    0    0  0.00000000000E+00  0.00000000000E+00 -0.65395044276E+03  0.16812288737E+04  0.15488316061E+04 0.  0.
        1    1    3    3  502    0 -0.56703819645E+03 -0.48893778811E+03 -0.11225996414E+03  0.75709627952E+03  0.50400001928E-02 0. -1.
       -1    1    3    3    0  502  0.56703819645E+03  0.48893778811E+03 -0.54169047863E+03  0.92413259414E+03  0.50400001928E-02 0.  1.
</event>
<event>
 5   0  0.1345931E-05  0.3260434E+04  0.7818609E-02  0.8173037E-01
        2   -1    0    0  501    0  0.00000000000E+00  0.00000000000E+00  0.18332858799E+04  0.18332858799E+04  0.25500000920E-02 0. -1.
       -2   -1    0    0    0  501  0.00000000000E+00  0.00000000000E+00 -0.14496417007E+04  0.14496417007E+04  0.25500000920E-02 0.  1.
    10030    2    1    2    0    0  0.00000000000E+00  0.00000000000E+00  0.38364417925E+03  0.32829275806E+04  0.32604341188E+04 0.  0.
        2    1    3    3  502    0  0.29331158462E+03  0.15895702305E+04 -0.21399204814E+02  0.16165466678E+04  0.25500000920E-02 0. -1.
       -2    1    3    3    0  502 -0.29331158462E+03 -0.15895702305E+04  0.40504338407E+03  0.16663809127E+04  0.25500000920E-02 0.  1.
</event>
<event>
 5   0  0.5730920E-06  0.3067034E+04  0.7818609E-02  0.8224844E-01
       -1   -1    0    0    0  501  0.00000000000E+00  0.00000000000E+00  0.20269307575E+04  0.20269307575E+04  0.50400001928E-02 0.  1.
        1   -1    0    0  501    0  0.00000000000E+00  0.00000000000E+00 -0.11602144127E+04  0.11602144127E+04  0.50400001928E-02 0. -1.
    10030    2    1    2    0    0  0.00000000000E+00  0.00000000000E+00  0.86671634481E+03  0.31871451702E+04  0.30670339277E+04 0.  0.
        1    1    3    3  502    0 -0.41422825513E+03  0.14225603684E+04  0.84433490000E+03  0.17053341234E+04  0.50400001928E-02 0.  1.
       -1    1    3    3    0  502  0.41422825513E+03 -0.14225603684E+04  0.22381444809E+02  0.14818110468E+04  0.50400001928E-02 0. -1.
</event>
<event>
 5   0  0.5329891E-06  0.1569329E+04  0.7818609E-02  0.8839615E-01
       -1   -1    0    0    0  501  0.00000000000E+00  0.00000000000E+00  0.29060202218E+04  0.29060202218E+04  0.50400001928E-02 0.  1.
        1   -1    0    0  501    0  0.00000000000E+00  0.00000000000E+00 -0.21186984425E+03  0.21186984431E+03  0.50400001928E-02 0. -1.
    10030    2    1    2    0    0  0.00000000000E+00  0.00000000000E+00  0.26941503775E+04  0.31178900661E+04  0.15693285849E+04 0.  0.
        4    1    3    3  502    0  0.47860064224E+03  0.51055530925E+03  0.20522267040E+04  0.21682622895E+04  0.12699999809E+01 0. -1.
       -4    1    3    3    0  502 -0.47860064224E+03 -0.51055530925E+03  0.64192367353E+03  0.94962777660E+03  0.12699999809E+01 0.  1.
</event>
<event>
 5   0  0.1523029E-05  0.2560379E+04  0.7818609E-02  0.8381786E-01
       -2   -1    0    0    0  501  0.00000000000E+00  0.00000000000E+00  0.13591224669E+04  0.13591224669E+04  0.25500000920E-02 0. -1.
        2   -1    0    0  501    0  0.00000000000E+00  0.00000000000E+00 -0.12058403491E+04  0.12058403491E+04  0.25500000920E-02 0.  1.
    10030    2    1    2    0    0  0.00000000000E+00  0.00000000000E+00  0.15328211773E+03  0.25649628160E+04  0.25603786517E+04 0.  0.
        5    1    3    3  502    0 -0.88124790607E+03 -0.13378281872E+03 -0.84389854502E+03  0.12274699829E+04  0.46999998093E+01 0.  1.
       -5    1    3    3    0  502  0.88124790607E+03  0.13378281872E+03  0.99718066275E+03  0.13374928331E+04  0.46999998093E+01 0. -1.
</event>
<event>
 5   0  0.4806125E-06  0.3027401E+04  0.7818609E-02  0.8235949E-01
       -4   -1    0    0    0  501  0.00000000000E+00  0.00000000000E+00  0.19405268730E+04  0.19405272886E+04  0.12699999809E+01 0. -1.
        4   -1    0    0  501    0  0.00000000000E+00  0.00000000000E+00 -0.11807552612E+04  0.11807559442E+04  0.12699999809E+01 0.  1.
    10030    2    1    2    0    0  0.00000000000E+00  0.00000000000E+00  0.75977161179E+03  0.31212832328E+04  0.30274008848E+04 0.  0.
        4    1    3    3  502    0  0.83352349967E+02  0.15061968226E+04  0.25065553800E+03  0.15291848464E+04  0.12699999809E+01 0.  1.
       -4    1    3    3    0  502 -0.83352349967E+02 -0.15061968226E+04  0.50911607379E+03  0.15920983865E+04  0.12699999809E+01 0. -1.
</event>
<event>
 5   0  0.5522695E-06  0.2401492E+04  0.7818609E-02  0.8438945E-01
        1   -1    0    0  501    0  0.00000000000E+00  0.00000000000E+00  0.13564011734E+04  0.13564011734E+04  0.50400001928E-02 0. -1.
       -1   -1    0    0    0  501  0.00000000000E+00  0.00000000000E+00 -0.10629531201E+04  0.10629531201E+04  0.50400001928E-02 0.  1.
    10030    2    1    2    0    0  0.00000000000E+00  0.00000000000E+00  0.29344805327E+03  0.24193542935E+04  0.24014919191E+04 0.  0.
        3    1    3    3  502    0  0.22615150707E+03 -0.14288222044E+03 -0.10325513730E+04  0.10666406055E+04  0.10100000352E+00 0.  1.
       -3    1    3    3    0  502 -0.22615150707E+03  0.14288222044E+03  0.13259994263E+04  0.13527136880E+04  0.10100000352E+00 0. -1.
</event>
<event>
 5   0  0.5329891E-06  0.2916243E+04  0.7818609E-02  0.8268061E-01
        1   -1    0    0  501    0  0.00000000000E+00  0.00000000000E+00  0.22904142899E+04  0.22904142899E+04  0.50400001928E-02 0. -1.
       -1   -1    0    0    0  501  0.00000000000E+00  0.00000000000E+00 -0.92826826570E+03  0.92826826571E+03  0.50400001928E-02 0.  1.
    10030    2    1    2    0    0  0.00000000000E+00  0.00000000000E+00  0.13621460242E+04  0.32186825556E+04  0.29162434059E+04 0.  0.
        4    1    3    3  502    0  0.98419857001E+03 -0.83626723551E+03 -0.65973413629E+02  0.12931913310E+04  0.12699999809E+01 0.  1.
       -4    1    3    3    0  502 -0.98419857001E+03  0.83626723551E+03  0.14281194378E+04  0.19254912246E+04  0.12699999809E+01 0. -1.
</event>
<event>
 5   0  0.5329891E-06  0.3030137E+04  0.7818609E-02  0.8235177E-01
        1   -1    0    0  501    0  0.00000000000E+00  0.00000000000E+00  0.16608761712E+04  0.16608761712E+04  0.50400001928E-02 0. -1.
       -1   -1    0    0    0  501  0.00000000000E+00  0.00000000000E+00 -0.13820610482E+04  0.13820610482E+04  0.50400001928E-02 0.  1.
    10030    2    1    2    0    0  0.00000000000E+00  0.00000000000E+00  0.27881512303E+03  0.30429372195E+04  0.30301368036E+04 0.  0.
        4    1    3    3  502    0 -0.29678999060E+03  0.97791629158E+03 -0.98381013500E+03  0.14185515734E+04  0.12699999809E+01 0. -1.
       -4    1    3    3    0  502  0.29678999060E+03 -0.97791629158E+03  0.12626252580E+04  0.16243856460E+04  0.12699999809E+01 0.  1.
</event>
<event>
 5   0  0.1388724E-05  0.3048115E+04  0.7818609E-02  0.8230123E-01
        2   -1    0    0  501    0  0.00000000000E+00  0.00000000000E+00  0.21352488309E+04  0.21352488309E+04  0.25500000920E-02 0.  1.
       -2   -1    0    0    0  501  0.00000000000E+00  0.00000000000E+00 -0.10878126266E+04  0.10878126266E+04  0.25500000920E-02 0. -1.
    10030    2    1    2    0    0  0.00000000000E+00  0.00000000000E+00  0.10474362043E+04  0.32230614575E+04  0.30481145905E+04 0.  0.
        4    1    3    3  502    0 -0.11304771393E+04 -0.10195034574E+04  0.60129923333E+03  0.16367431817E+04  0.12699999809E+01 0.  1.
       -4    1    3    3    0  502  0.11304771393E+04  0.10195034574E+04  0.44613697095E+03  0.15863182757E+04  0.12699999809E+01 0. -1.
</event>
<event>
 5   0  0.5522695E-06  0.2825466E+04  0.7818609E-02  0.8295405E-01
        1   -1    0    0  501    0  0.00000000000E+00  0.00000000000E+00  0.14131658725E+04  0.14131658725E+04  0.50400001928E-02 0.  1.
       -1   -1    0    0    0  501  0.00000000000E+00  0.00000000000E+00 -0.14123006579E+04  0.14123006579E+04  0.50400001928E-02 0. -1.
    10030    2    1    2    0    0  0.00000000000E+00  0.00000000000E+00  0.86521467687E+00  0.28254665304E+04  0.28254663979E+04 0.  0.
        3    1    3    3  502    0 -0.13049492873E+04 -0.54039019293E+03  0.30447244279E+02  0.14127424563E+04  0.10100000352E+00 0.  1.
       -3    1    3    3    0  502  0.13049492873E+04  0.54039019293E+03 -0.29582029602E+02  0.14127240741E+04  0.10100000352E+00 0. -1.
</event>
<event>
 5   0  0.1345931E-05  0.3001048E+04  0.7818609E-02  0.8243432E-01
       -2   -1    0    0    0  501  0.00000000000E+00  0.00000000000E+00  0.23904696177E+04  0.23904696177E+04  0.25500000920E-02 0.  1.
        2   -1    0    0  501    0  0.00000000000E+00  0.00000000000E+00 -0.94189517982E+03  0.94189517983E+03  0.25500000920E-02 0. -1.
    10030    2    1    2    0    0  0.00000000000E+00  0.00000000000E+00  0.14485744379E+04  0.33323647975E+04  0.30010476907E+04 0.  0.
        2    1    3    3  502    0  0.14381924983E+04 -0.22389836354E+03  0.11293074816E+04  0.18422441552E+04  0.25500000920E-02 0.  1.
       -2    1    3    3    0  502 -0.14381924983E+04  0.22389836354E+03  0.31926695629E+03  0.14901206423E+04  0.25500000920E-02 0. -1.
</event>
<event>
 5   0  0.1523029E-05  0.2973029E+04  0.7818609E-02  0.8251475E-01
       -2   -1    0    0    0  501  0.00000000000E+00  0.00000000000E+00  0.12331928034E+04  0.12331928034E+04  0.25500000920E-02 0.  1.
        2   -1    0    0  501    0  0.00000000000E+00  0.00000000000E+00 -0.17918735113E+04  0.17918735113E+04  0.25500000920E-02 0. -1.
    10030    2    1    2    0    0  0.00000000000E+00  0.00000000000E+00 -0.55868070788E+03  0.30250663147E+04  0.29730291077E+04 0.  0.
        5    1    3    3  502    0  0.27626100502E+03  0.62824441430E+03  0.10623339325E+04  0.12647476670E+04  0.46999998093E+01 0.  1.
       -5    1    3    3    0  502 -0.27626100502E+03 -0.62824441430E+03 -0.16210146404E+04  0.17603186477E+04  0.46999998093E+01 0. -1.
</event>
<event>
 5   0  0.1423692E-05  0.2898215E+04  0.7818609E-02  0.8273409E-01
        2   -1    0    0  501    0  0.00000000000E+00  0.00000000000E+00  0.20681249198E+04  0.20681249198E+04  0.25500000920E-02 0. -1.
       -2   -1    0    0    0  501  0.00000000000E+00  0.00000000000E+00 -0.10153700809E+04  0.10153700809E+04  0.25500000920E-02 0.  1.
    10030    2    1    2    0    0  0.00000000000E+00  0.00000000000E+00  0.10527548389E+04  0.30834950007E+04  0.28982147382E+04 0.  0.
        3    1    3    3  502    0 -0.97446890279E+03 -0.84860236956E+03 -0.17144696472E+03  0.13034990203E+04  0.10100000352E+00 0.  1.
       -3    1    3    3    0  502  0.97446890279E+03  0.84860236956E+03  0.12242018036E+04  0.17799959804E+04  0.10100000352E+00 0. -1.
</event>
<event>
 5   0  0.5392262E-06  0.2447508E+04  0.7818609E-02  0.8421928E-01
       -1   -1    0    0    0  501  0.00000000000E+00  0.00000000000E+00  0.13507338812E+04  0.13507338812E+04  0.50400001928E-02 0.  1.
        1   -1    0    0  501    0  0.00000000000E+00  0.00000000000E+00 -0.11087116266E+04  0.11087116266E+04  0.50400001928E-02 0. -1.
    10030    2    1    2    0    0  0.00000000000E+00  0.00000000000E+00  0.24202225457E+03  0.24594455078E+04  0.24475084135E+04 0.  0.
        2    1    3    3  502    0 -0.11317900217E+02  0.11967459195E+04 -0.13566660023E+03  0.12044643279E+04  0.25500000920E-02 0.  1.
       -2    1    3    3    0  502  0.11317900217E+02 -0.11967459195E+04  0.37768885480E+03  0.12549811799E+04  0.25500000920E-02 0. -1.
</event>
<event>
 5   0  0.1423692E-05  0.2859979E+04  0.7818609E-02  0.8284885E-01
        2   -1    0    0  501    0  0.00000000000E+00  0.00000000000E+00  0.22808502701E+04  0.22808502701E+04  0.25500000920E-02 0. -1.
       -2   -1    0    0    0  501  0.00000000000E+00  0.00000000000E+00 -0.89653851940E+03  0.89653851940E+03  0.25500000920E-02 0.  1.
    10030    2    1    2    0    0  0.00000000000E+00  0.00000000000E+00  0.13843117507E+04  0.31773887895E+04  0.28599791077E+04 0.  0.
        3    1    3    3  502    0 -0.11422623554E+04  0.49215658332E+03  0.14760793021E+04  0.19302309467E+04  0.10100000352E+00 0. -1.
       -3    1    3    3    0  502  0.11422623554E+04 -0.49215658332E+03 -0.91767551470E+02  0.12471578428E+04  0.10100000352E+00 0.  1.
</event>
<event>
 5   0  0.7032692E-06  0.1826172E+04  0.7818609E-02  0.8692504E-01
        1   -1    0    0  501    0  0.00000000000E+00  0.00000000000E+00  0.17811063713E+04  0.17811063713E+04  0.50400001928E-02 0.  1.
       -1   -1    0    0    0  501  0.00000000000E+00  0.00000000000E+00 -0.46809467387E+03  0.46809467389E+03  0.50400001928E-02 0. -1.
    10030    2    1    2    0    0  0.00000000000E+00  0.00000000000E+00  0.13130116974E+04  0.22492010452E+04  0.18261723972E+04 0.  0.
        5    1    3    3  502    0  0.62854644387E+03 -0.15877899784E+03  0.14484303401E+04  0.15869007349E+04  0.46999998093E+01 0.  1.
       -5    1    3    3    0  502 -0.62854644387E+03  0.15877899784E+03 -0.13541864267E+03  0.66230031031E+03  0.46999998093E+01 0. -1.
</event>
<event>
 5   0  0.5522695E-06  0.3036399E+04  0.7818609E-02  0.8233413E-01
        1   -1    0    0  501    0  0.00000000000E+00  0.00000000000E+00  0.19198463838E+04  0.19198463838E+04  0.50400001928E-02 0. -1.
       -1   -1    0    0    0  501  0.00000000000E+00  0.00000000000E+00 -0.12005801006E+04  0.12005801006E+04  0.50400001928E-02 0.  1.
    10030    2    1    2    0    0  0.00000000000E+00  0.00000000000E+00  0.71926628320E+03  0.31204264844E+04  0.30363987647E+04 0.  0.
        3    1    3    3  502    0  0.30608673035E+02  0.56519959180E+03 -0.10880892244E+04  0.12265095352E+04  0.10100000352E+00 0.  1.
       -3    1    3    3    0  502 -0.30608673035E+02 -0.56519959180E+03  0.18073555076E+04  0.18939169492E+04  0.10100000352E+00 0. -1.
</event>
<event>
 5   0  0.5329891E-06  0.2907376E+04  0.7818609E-02  0.8270686E-01
       -1   -1    0    0    0  501  0.00000000000E+00  0.00000000000E+00  0.12560734141E+04  0.12560734141E+04  0.50400001928E-02 0.  1.
        1   -1    0    0  501    0  0.00000000000E+00  0.00000000000E+00 -0.16823933092E+04  0.16823933092E+04  0.50400001928E-02 0. -1.
    10030    2    1    2    0    0  0.00000000000E+00  0.00000000000E+00 -0.42631989509E+03  0.29384667233E+04  0.29073764859E+04 0.  0.
        4    1    3    3  502    0 -0.13971052202E+04  0.14708412638E+03 -0.59088246068E+03  0.15240342620E+04  0.12699999809E+01 0. -1.
       -4    1    3    3    0  502  0.13971052202E+04 -0.14708412638E+03  0.16456256559E+03  0.14144324613E+04  0.12699999809E+01 0.  1.
</event>
<event>
 5   0  0.1388724E-05  0.2006263E+04  0.7818609E-02  0.8603698E-01
        2   -1    0    0  501    0  0.00000000000E+00  0.00000000000E+00  0.71073804483E+03  0.71073804484E+03  0.25500000920E-02 0.  1.
       -2   -1    0    0    0  501  0.00000000000E+00  0.00000000000E+00 -0.14158132259E+04  0.14158132259E+04  0.25500000920E-02 0. -1.
    10030    2    1    2    0    0  0.00000000000E+00  0.00000000000E+00 -0.70507518104E+03  0.21265512707E+04  0.20062625192E+04 0.  0.
        4    1    3    3  502    0  0.48937393166E+03 -0.87105916000E+03 -0.44757856496E+03  0.10947872350E+04  0.12699999809E+01 0. -1.
       -4    1    3    3    0  502 -0.48937393166E+03  0.87105916000E+03 -0.25749661608E+03  0.10317640357E+04  0.12699999809E+01 0.  1.
</event>
<event>
 5   0  0.5329891E-06  0.2851609E+04  0.7818609E-02  0.8287423E-01
       -1   -1    0    0    0  501  0.00000000000E+00  0.00000000000E+00  0.84323979712E+03  0.84323979713E+03  0.50400001928E-02 0.  1.
        1   -1    0    0  501    0  0.00000000000E+00  0.00000000000E+00 -0.24108425383E+04  0.24108425383E+04  0.50400001928E-02 0. -1.
    10030    2    1    2    0    0  0.00000000000E+00  0.00000000000E+00 -0.15676027412E+04  0.32540823354E+04  0.28516089303E+04 0.  0.
        4    1    3    3  502    0  0.83319861510E+03  0.99622298708E+03 -0.11233378748E+03  0.13035722707E+04  0.12699999809E+01 0.  1.
       -4    1    3    3    0  502 -0.83319861510E+03 -0.99622298708E+03 -0.14552689537E+04  0.19505100647E+04  0.12699999809E+01 0. -1.
</event>
<event>
 5   0  0.1523029E-05  0.3062939E+04  0.7818609E-02  0.8225983E-01
        2   -1    0    0  501    0  0.00000000000E+00  0.00000000000E+00  0.17627331627E+04  0.17627331627E+04  0.25500000920E-02 0. -1.
       -2   -1    0    0    0  501  0.00000000000E+00  0.00000000000E+00 -0.13305471001E+04  0.13305471001E+04  0.25500000920E-02 0.  1.
    10030    2    1    2    0    0  0.00000000000E+00  0.00000000000E+00  0.43218606264E+03  0.30932802628E+04  0.30629394365E+04 0.  0.
        5    1    3    3  502    0  0.37866470493E+03  0.76854604688E+03  0.14980479709E+04  0.17257519515E+04  0.46999998093E+01 0. -1.
       -5    1    3    3    0  502 -0.37866470493E+03 -0.76854604688E+03 -0.10658619082E+04  0.13675283114E+04  0.46999998093E+01 0.  1.
</event>
<event>
 5   0  0.5522695E-06  0.3011530E+04  0.7818609E-02  0.8240446E-01
        1   -1    0    0  501    0  0.00000000000E+00  0.00000000000E+00  0.15397541244E+04  0.15397541244E+04  0.50400001928E-02 0. -1.
       -1   -1    0    0    0  501  0.00000000000E+00  0.00000000000E+00 -0.14725262861E+04  0.14725262861E+04  0.50400001928E-02 0.  1.
    10030    2    1    2    0    0  0.00000000000E+00  0.00000000000E+00  0.67227838323E+02  0.30122804105E+04  0.30115301242E+04 0.  0.
        3    1    3    3  502    0 -0.30517938760E+03 -0.51964123075E+03  0.14138732655E+04  0.15369447252E+04  0.10100000352E+00 0. -1.
       -3    1    3    3    0  502  0.30517938760E+03  0.51964123075E+03 -0.13466454272E+04  0.14753356852E+04  0.10100000352E+00 0.  1.
</event>
<event>
 5   0  0.1345931E-05  0.2239984E+04  0.7818609E-02  0.8501968E-01
        2   -1    0    0  501    0  0.00000000000E+00  0.00000000000E+00  0.11004824007E+04  0.11004824007E+04  0.25500000920E-02 0.  1.
       -2   -1    0    0    0  501  0.00000000000E+00  0.00000000000E+00 -0.11398479020E+04  0.11398479020E+04  0.25500000920E-02 0. -1.
    10030    2    1    2    0    0  0.00000000000E+00  0.00000000000E+00 -0.39365501314E+02  0.22403303027E+04  0.22399844246E+04 0.  0.
        2    1    3    3  502    0  0.46135300295E+03  0.19470771572E+03 -0.10216482356E+04  0.11377709810E+04  0.25500000920E-02 0. -1.
       -2    1    3    3    0  502 -0.46135300295E+03 -0.19470771572E+03  0.98228273428E+03  0.11025593217E+04  0.25500000920E-02 0.  1.
</event>
<event>
 5   0  0.1388724E-05  0.1521560E+04  0.7818609E-02  0.8870241E-01
        2   -1    0    0  501    0  0.00000000000E+00  0.00000000000E+00  0.16193034628E+04  0.16193034628E+04  0.25500000920E-02 0. -1.
       -2   -1    0    0    0  501  0.00000000000E+00  0.00000000000E+00 -0.35742910762E+03  0.35742910763E+03  0.25500000920E-02 0.  1.
    10030    2    1    2    0    0  0.00000000000E+00  0.00000000000E+00  0.12618743552E+04  0.19767325704E+04  0.15215599780E+04 0.  0.
        4    1    3    3  502    0 -0.56761905099E+03  0.45247692652E+03  0.33509098734E+03  0.79950881095E+03  0.12699999809E+01 0.  1.
       -4    1    3    3    0  502  0.56761905099E+03 -0.45247692652E+03  0.92678336784E+03  0.11772237595E+04  0.12699999809E+01 0. -1.
</event>
<event>
 5   0  0.1345931E-05  0.2958388E+04  0.7818609E-02  0.8255714E-01
       -2   -1    0    0    0  501  0.00000000000E+00  0.00000000000E+00  0.10995578545E+04  0.10995578545E+04  0.25500000920E-02 0. -1.
        2   -1    0    0  501    0  0.00000000000E+00  0.00000000000E+00 -0.19899040181E+04  0.19899040181E+04  0.25500000920E-02 0.  1.
    10030    2    1    2    0    0  0.00000000000E+00  0.00000000000E+00 -0.89034616360E+03  0.30894618727E+04  0.29583877994E+04 0.  0.
        2    1    3    3  502    0 -0.11584554305E+04  0.86045765765E+03 -0.78454555583E+03  0.16425340466E+04  0.25500000920E-02 0.  1.
       -2    1    3    3    0  502  0.11584554305E+04 -0.86045765765E+03 -0.10580060777E+03  0.14469278261E+04  0.25500000920E-02 0. -1.
</event>
<event>
 5   0  0.5329891E-06  0.3003712E+04  0.7818609E-02  0.8242672E-01
       -1   -1    0    0    0  501  0.00000000000E+00  0.00000000000E+00  0.13407863580E+04  0.13407863580E+04  0.50400001928E-02 0. -1.
        1   -1    0    0  501    0  0.00000000000E+00  0.00000000000E+00 -0.16822750887E+04  0.16822750888E+04  0.50400001928E-02 0.  1.
    10030    2    1    2    0    0  0.00000000000E+00  0.00000000000E+00 -0.34148873076E+03  0.30230614468E+04  0.30037120297E+04 0.  0.
        4    1    3    3  502    0  0.14917883800E+04 -0.41163123577E+02 -0.34048102163E+03  0.15307043844E+04  0.12699999809E+01 0.  1.
       -4    1    3    3    0  502 -0.14917883800E+04  0.41163123577E+02 -0.10077091273E+01  0.14923570624E+04  0.12699999809E+01 0. -1.
</event>
<event>
 5   0  0.1523029E-05  0.2892075E+04  0.7818609E-02  0.8275239E-01
        2   -1    0    0  501    0  0.00000000000E+00  0.00000000000E+00  0.23500451421E+04  0.23500451421E+04  0.25500000920E-02 0.  1.
       -2   -1    0    0    0  501  0.00000000000E+00  0.00000000000E+00 -0.88978081124E+03  0.88978081125E+03  0.25500000920E-02 0. -1.
    10030    2    1    2    0    0  0.00000000000E+00  0.00000000000E+00  0.14602643309E+04  0.32398259534E+04  0.28920754299E+04 0.  0.
        5    1    3    3  502    0 -0.38495587234E+03  0.75889793050E+03 -0.57958703571E+03  0.10295923050E+04  0.46999998093E+01 0. -1.
       -5    1    3    3    0  502  0.38495587234E+03 -0.75889793050E+03  0.20398513666E+04  0.22102336484E+04  0.46999998093E+01 0.  1.
</event>
<event>
 5   0  0.5392262E-06  0.2936161E+04  0.7818609E-02  0.8262199E-01
        1   -1    0    0  501    0  0.00000000000E+00  0.00000000000E+00  0.13672453316E+04  0.13672453316E+04  0.50400001928E-02 0. -1.
       -1   -1    0    0    0  501  0.00000000000E+00  0.00000000000E+00 -0.15763519521E+04  0.15763519521E+04  0.50400001928E-02 0.  1.
    10030    2    1    2    0    0  0.00000000000E+00  0.00000000000E+00 -0.20910662048E+03  0.29435972837E+04  0.29361606546E+04 0.  0.
        2    1    3    3  502    0  0.41524627016E+03 -0.72349419684E+03  0.11065571231E+04  0.13857640436E+04  0.25500000920E-02 0. -1.
       -2    1    3    3    0  502 -0.41524627016E+03  0.72349419684E+03 -0.13156637436E+04  0.15578332401E+04  0.25500000920E-02 0.  1.
</event>
<event>
 5   0  0.5730920E-06  0.1496305E+04  0.7818609E-02  0.8886914E-01
        1   -1    0    0  501    0  0.00000000000E+00  0.00000000000E+00  0.20724893232E+04  0.20724893232E+04  0.50400001928E-02 0.  1.
       -1   -1    0    0    0  501  0.00000000000E+00  0.00000000000E+00 -0.27007707600E+03  0.27007707604E+03  0.50400001928E-02 0. -1.
    10030    2    1    2    0    0  0.00000000000E+00  0.00000000000E+00  0.18024122472E+04  0.23425663993E+04  0.14963045900E+04 0.  0.
        1    1    3    3  502    0  0.51403566179E+03 -0.35106942771E+03  0.25144933490E+03  0.67134877129E+03  0.50400001928E-02 0. -1.
       -1    1    3    3    0  502 -0.51403566179E+03  0.35106942771E+03  0.15509629123E+04  0.16712176280E+04  0.50400001928E-02 0.  1.
</event>
<event>
 5   0  0.7032692E-06  0.2999046E+04  0.7818609E-02  0.8244003E-01
        1   -1    0    0  501    0  0.00000000000E+00  0.00000000000E+00  0.17150653781E+04  0.17150653781E+04  0.50400001928E-02 0. -1.
       -1   -1    0    0    0  501  0.00000000000E+00  0.00000000000E+00 -0.13110693062E+04  0.13110693062E+04  0.50400001928E-02 0.  1.
    10030    2    1    2    0    0  0.00000000000E+00  0.00000000000E+00  0.40399607186E+03  0.30261346843E+04  0.29990462319E+04 0.  0.
        5    1    3    3  502    0  0.82620885463E+03  0.21654816010E+03 -0.10416249514E+04  0.13470407590E+04  0.46999998093E+01 0.  1.
       -5    1    3    3    0  502 -0.82620885463E+03 -0.21654816010E+03  0.14456210232E+04  0.16790939253E+04  0.46999998093E+01 0. -1.
</event>
<event>
 5   0  0.5329891E-06  0.2999806E+04  0.7818609E-02  0.8243786E-01
        1   -1    0    0  501    0  0.00000000000E+00  0.00000000000E+00  0.16160108565E+04  0.16160108566E+04  0.50400001928E-02 0.  1.
       -1   -1    0    0    0  501  0.00000000000E+00  0.00000000000E+00 -0.13921376206E+04  0.13921376206E+04  0.50400001928E-02 0. -1.
    10030    2    1    2    0    0  0.00000000000E+00  0.00000000000E+00  0.22387323595E+03  0.30081484772E+04  0.29998063329E+04 0.  0.
        4    1    3    3  502    0 -0.54629861304E+02  0.86643813323E+03 -0.11145789698E+04  0.14127941652E+04  0.12699999809E+01 0. -1.
       -4    1    3    3    0  502  0.54629861304E+02 -0.86643813323E+03  0.13384522058E+04  0.15953543119E+04  0.12699999809E+01 0.  1.
</event>
<event>
 5   0  0.1480547E-05  0.2930366E+04  0.7818609E-02  0.8263899E-01
        2   -1    0    0  501    0  0.00000000000E+00  0.00000000000E+00  0.23948355731E+04  0.23948355731E+04  0.25500000920E-02 0. -1.
       -2   -1    0    0    0  501  0.00000000000E+00  0.00000000000E+00 -0.89641306055E+03  0.89641306055E+03  0.25500000920E-02 0.  1.
    10030    2    1    2    0    0  0.00000000000E+00  0.00000000000E+00  0.14984225126E+04  0.32912486337E+04  0.29303664519E+04 0.  0.
        1    1    3    3  502    0 -0.35511814672E+02  0.12962888668E+04  0.15152111708E+04  0.19943647629E+04  0.50400001928E-02 0. -1.
       -1    1    3    3    0  502  0.35511814672E+02 -0.12962888668E+04 -0.16788658246E+02  0.12968838708E+04  0.50400001928E-02 0.  1.
</event>
<event>
 5   0  0.5730920E-06  0.2891779E+04  0.7818609E-02  0.8275328E-01
       -1   -1    0    0    0  501  0.00000000000E+00  0.00000000000E+00  0.10590209731E+04  0.10590209731E+04  0.50400001928E-02 0. -1.
        1   -1    0    0  501    0  0.00000000000E+00  0.00000000000E+00 -0.19740838531E+04  0.19740838531E+04  0.50400001928E-02 0.  1.
    10030    2    1    2    0    0  0.00000000000E+00  0.00000000000E+00 -0.91506288003E+03  0.30331048262E+04  0.28917788318E+04 0.  0.
        1    1    3    3  502    0  0.28060988999E+03 -0.54845019609E+03  0.91446992419E+03  0.11026308404E+04  0.50400001928E-02 0. -1.
       -1    1    3    3    0  502 -0.28060988999E+03  0.54845019609E+03 -0.18295328042E+04  0.19304739858E+04  0.50400001928E-02 0.  1.
</event>
<event>
 5   0  0.1423692E-05  0.3053148E+04  0.7818609E-02  0.8228715E-01
        2   -1    0    0  501    0  0.00000000000E+00  0.00000000000E+00  0.22264693837E+04  0.22264693837E+04  0.25500000920E-02 0. -1.
       -2   -1    0    0    0  501  0.00000000000E+00  0.00000000000E+00 -0.10466918791E+04  0.10466918791E+04  0.25500000920E-02 0.  1.
    10030    2    1    2    0    0  0.00000000000E+00  0.00000000000E+00  0.11797775046E+04  0.32731612628E+04  0.30531475058E+04 0.  0.
        3    1    3    3  502    0  0.62021174451E+03 -0.41384208724E+03  0.20179852712E+04  0.21513234174E+04  0.10100000352E+00 0. -1.
       -3    1    3    3    0  502 -0.62021174451E+03  0.41384208724E+03 -0.83820776664E+03  0.11218378454E+04  0.10100000352E+00 0.  1.
</event>
<event>
 5   0  0.1480547E-05  0.2602621E+04  0.7818609E-02  0.8367312E-01
       -2   -1    0    0    0  501  0.00000000000E+00  0.00000000000E+00  0.67530041852E+03  0.67530041853E+03  0.25500000920E-02 0.  1.
        2   -1    0    0  501    0  0.00000000000E+00  0.00000000000E+00 -0.25076373316E+04  0.25076373316E+04  0.25500000920E-02 0. -1.
    10030    2    1    2    0    0  0.00000000000E+00  0.00000000000E+00 -0.18323369131E+04  0.31829377501E+04  0.26026206328E+04 0.  0.
        1    1    3    3  502    0 -0.72842692776E+03 -0.72311418400E+03 -0.18944779307E+04  0.21546569430E+04  0.50400001928E-02 0.  1.
       -1    1    3    3    0  502  0.72842692776E+03  0.72311418400E+03  0.62141017616E+02  0.10282808071E+04  0.50400001928E-02 0. -1.
</event>
<event>
 5   0  0.1480547E-05  0.1856454E+04  0.7818609E-02  0.8676841E-01
       -2   -1    0    0    0  501  0.00000000000E+00  0.00000000000E+00  0.78525366594E+03  0.78525366595E+03  0.25500000920E-02 0.  1.
        2   -1    0    0  501    0  0.00000000000E+00  0.00000000000E+00 -0.10972321782E+04  0.10972321782E+04  0.25500000920E-02 0. -1.
    10030    2    1    2    0    0  0.00000000000E+00  0.00000000000E+00 -0.31197851224E+03  0.18824858441E+04  0.18564542443E+04 0.  0.
        1    1    3    3  502    0  0.33901422145E+03  0.16817707813E+03  0.70347543049E+03  0.79880651805E+03  0.50400001928E-02 0.  1.
       -1    1    3    3    0  502 -0.33901422145E+03 -0.16817707813E+03 -0.10154539427E+04  0.10836793261E+04  0.50400001928E-02 0. -1.
</event>
<event>
 5   0  0.1523029E-05  0.3371746E+04  0.7818609E-02  0.8144876E-01
        2   -1    0    0  501    0  0.00000000000E+00  0.00000000000E+00  0.16928255693E+04  0.16928255693E+04  0.25500000920E-02 0.  1.
       -2   -1    0    0    0  501  0.00000000000E+00  0.00000000000E+00 -0.16789485453E+04  0.16789485453E+04  0.25500000920E-02 0. -1.
    10030    2    1    2    0    0  0.00000000000E+00  0.00000000000E+00  0.13877024016E+02  0.33717741146E+04  0.33717455580E+04 0.  0.
        5    1    3    3  502    0 -0.47451540470E+01  0.47361440583E+03 -0.16110405230E+04  0.16792280306E+04  0.46999998093E+01 0. -1.
       -5    1    3    3    0  502  0.47451540470E+01 -0.47361440583E+03  0.16249175470E+04  0.16925460840E+04  0.46999998093E+01 0.  1.
</event>
<event>
 5   0  0.7032692E-06  0.1636128E+04  0.7818609E-02  0.8798655E-01
        1   -1    0    0  501    0  0.00000000000E+00  0.00000000000E+00  0.13881482786E+04  0.13881482786E+04  0.50400001928E-02 0.  1.
       -1   -1    0    0    0  501  0.00000000000E+00  0.00000000000E+00 -0.48210192232E+03  0.48210192235E+03  0.50400001928E-02 0. -1.
    10030    2    1    2    0    0  0.00000000000E+00  0.00000000000E+00  0.90604635628E+03  0.18702502010E+04  0.16361283001E+04 0.  0.
        5    1    3    3  502    0 -0.55356713677E+03 -0.26106975529E+03 -0.16742885490E+03  0.63454590338E+03  0.46999998093E+01 0. -1.
       -5    1    3    3    0  502  0.55356713677E+03  0.26106975529E+03  0.10734752112E+04  0.12357042976E+04  0.46999998093E+01 0.  1.
</event>
<event>
 5   0  0.1423692E-05  0.2956644E+04  0.7818609E-02  0.8256221E-01
        2   -1    0    0  501    0  0.00000000000E+00  0.00000000000E+00  0.18342577001E+04  0.18342577001E+04  0.25500000920E-02 0. -1.
       -2   -1    0    0    0  501  0.00000000000E+00  0.00000000000E+00 -0.11914551428E+04  0.11914551428E+04  0.25500000920E-02 0.  1.
    10030    2    1    2    0    0  0.00000000000E+00  0.00000000000E+00  0.64280255726E+03  0.30257128430E+04  0.29566438880E+04 0.  0.
        3    1    3    3  502    0 -0.11601417325E+04 -0.44233339290E+03 -0.49974474716E+03  0.13384066992E+04  0.10100000352E+00 0.  1.
       -3    1    3    3    0  502  0.11601417325E+04  0.44233339290E+03  0.11425473044E+04  0.16873061438E+04  0.10100000352E+00 0. -1.
</event>
<event>
 5   0  0.5392262E-06  0.1561587E+04  0.7818609E-02  0.8844501E-01
        1   -1    0    0  501    0  0.00000000000E+00  0.00000000000E+00  0.48284992258E+03  0.48284992261E+03  0.50400001928E-02 0.  1.
       -1   -1    0    0    0  501  0.00000000000E+00  0.00000000000E+00 -0.12625832997E+04  0.12625832997E+04  0.50400001928E-02 0. -1.
    10030    2    1    2    0    0  0.00000000000E+00  0.00000000000E+00 -0.77973337708E+03  0.17454332223E+04  0.15615866912E+04 0.  0.
        2    1    3    3  502    0 -0.41049928689E+03  0.21699874849E+03  0.31176204180E+03  0.55927961889E+03  0.25500000920E-02 0.  1.
       -2    1    3    3    0  502  0.41049928689E+03 -0.21699874849E+03 -0.10914954189E+04  0.11861536034E+04  0.25500000920E-02 0. -1.
</event>
<event>
 5   0  0.5730920E-06  0.2994187E+04  0.7818609E-02  0.8245393E-01
       -1   -1    0    0    0  501  0.00000000000E+00  0.00000000000E+00  0.11058501208E+04  0.11058501209E+04  0.50400001928E-02 0. -1.
        1   -1    0    0  501    0  0.00000000000E+00  0.00000000000E+00 -0.20267564829E+04  0.20267564829E+04  0.50400001928E-02 0.  1.
    10030    2    1    2    0    0  0.00000000000E+00  0.00000000000E+00 -0.92090636207E+03  0.31326066038E+04  0.29941869692E+04 0.  0.
        1    1    3    3  502    0  0.33738202497E+03 -0.14370288169E+04 -0.19908326379E+03  0.14894672193E+04  0.50400001928E-02 0. -1.
       -1    1    3    3    0  502 -0.33738202497E+03  0.14370288169E+04 -0.72182309828E+03  0.16431393845E+04  0.50400001928E-02 0.  1.
</event>
<event>
 5   0  0.5522695E-06  0.2946958E+04  0.7818609E-02  0.8259042E-01
       -1   -1    0    0    0  501  0.00000000000E+00  0.00000000000E+00  0.15025197389E+04  0.15025197389E+04  0.50400001928E-02 0. -1.
        1   -1    0    0  501    0  0.00000000000E+00  0.00000000000E+00 -0.14449996833E+04  0.14449996833E+04  0.50400001928E-02 0.  1.
    10030    2    1    2    0    0  0.00000000000E+00  0.00000000000E+00  0.57520055615E+02  0.29475194223E+04  0.29469581245E+04 0.  0.
        3    1    3    3  502    0  0.72536334160E+01  0.12930648357E+04 -0.67782427958E+03  0.14599709068E+04  0.10100000352E+00 0.  1.
       -3    1    3    3    0  502 -0.72536334160E+01 -0.12930648357E+04  0.73534433519E+03  0.14875485155E+04  0.10100000352E+00 0. -1.
</event>
<event>
 5   0  0.5522695E-06  0.2005837E+04  0.7818609E-02  0.8603897E-01
       -1   -1    0    0    0  501  0.00000000000E+00  0.00000000000E+00  0.11211936543E+04  0.11211936543E+04  0.50400001928E-02 0. -1.
        1   -1    0    0  501    0  0.00000000000E+00  0.00000000000E+00 -0.89711982112E+03  0.89711982114E+03  0.50400001928E-02 0.  1.
    10030    2    1    2    0    0  0.00000000000E+00  0.00000000000E+00  0.22407383313E+03  0.20183134754E+04  0.20058365343E+04 0.  0.
        3    1    3    3  502    0  0.99769129868E+03  0.99670776611E+02  0.89028787323E+02  0.10066023675E+04  0.10100000352E+00 0. -1.
       -3    1    3    3    0  502 -0.99769129868E+03 -0.99670776611E+02  0.13504504581E+03  0.10117111079E+04  0.10100000352E+00 0.  1.
</event>
<event>
 5   0  0.1345931E-05  0.1899851E+04  0.7818609E-02  0.8654930E-01
        2   -1    0    0  501    0  0.00000000000E+00  0.00000000000E+00  0.85873277228E+03  0.85873277229E+03  0.25500000920E-02 0. -1.
       -2   -1    0    0    0  501  0.00000000000E+00  0.00000000000E+00 -0.10508026740E+04  0.10508026741E+04  0.25500000920E-02 0.  1.
    10030    2    1    2    0    0  0.00000000000E+00  0.00000000000E+00 -0.19206990176E+03  0.19095354463E+04  0.18998512504E+04 0.  0.
        2    1    3    3  502    0 -0.82022363288E+03 -0.43055227614E+03  0.11531439631E+03  0.93350922890E+03  0.25500000920E-02 0. -1.
       -2    1    3    3    0  502  0.82022363288E+03  0.43055227614E+03 -0.30738429807E+03  0.97602621744E+03  0.25500000920E-02 0.  1.
</event>
<event>
 5   0  0.7032692E-06  0.3102069E+04  0.7818609E-02  0.8215170E-01
        1   -1    0    0  501    0  0.00000000000E+00  0.00000000000E+00  0.15608321050E+04  0.15608321050E+04  0.50400001928E-02 0. -1.
       -1   -1    0    0    0  501  0.00000000000E+00  0.00000000000E+00 -0.15412979560E+04  0.15412979560E+04  0.50400001928E-02 0.  1.
    10030    2    1    2    0    0  0.00000000000E+00  0.00000000000E+00  0.19534149021E+02  0.31021300610E+04  0.31020685570E+04 0.  0.
        5    1    3    3  502    0 -0.43615919725E+03 -0.36315695388E+03  0.14532524559E+04  0.15601546747E+04  0.46999998093E+01 0. -1.
       -5    1    3    3    0  502  0.43615919725E+03  0.36315695388E+03 -0.14337183069E+04  0.15419753863E+04  0.46999998093E+01 0.  1.
</event>
<event>
 5   0  0.1523029E-05  0.2898654E+04  0.7818609E-02  0.8273278E-01
       -2   -1    0    0    0  501  0.00000000000E+00  0.00000000000E+00  0.12529858711E+04  0.12529858711E+04  0.25500000920E-02 0.  1.
        2   -1    0    0  501    0  0.00000000000E+00  0.00000000000E+00 -0.16764344413E+04  0.16764344413E+04  0.25500000920E-02 0. -1.
    10030    2    1    2    0    0  0.00000000000E+00  0.00000000000E+00 -0.42344857020E+03  0.29294203125E+04  0.28986539420E+04 0.  0.
        5    1    3    3  502    0  0.10013048362E+03  0.77821333692E+03 -0.14432164438E+04  0.16427227110E+04  0.46999998093E+01 0. -1.
       -5    1    3    3    0  502 -0.10013048362E+03 -0.77821333692E+03  0.10197678736E+04  0.12866976015E+04  0.46999998093E+01 0.  1.
</event>
<event>
 5   0  0.5392262E-06  0.3052593E+04  0.7818609E-02  0.8228870E-01
       -1   -1    0    0    0  501  0.00000000000E+00  0.00000000000E+00  0.10556857335E+04  0.10556857335E+04  0.50400001928E-02 0.  1.
        1   -1    0    0  501    0  0.00000000000E+00  0.00000000000E+00 -0.22066987121E+04  0.22066987121E+04  0.50400001928E-02 0. -1.
    10030    2    1    2    0    0  0.00000000000E+00  0.00000000000E+00 -0.11510129786E+04  0.32623844457E+04  0.30525925694E+04 0.  0.
        2    1    3    3  502    0  0.90007207244E+03  0.17144940418E+02  0.74174159802E+03  0.11664494343E+04  0.25500000920E-02 0.  1.
       -2    1    3    3    0  502 -0.90007207244E+03 -0.17144940418E+02 -0.18927545766E+04  0.20959350114E+04  0.25500000920E-02 0. -1.
</event>
<event>
 5   0  0.4806125E-06  0.1586466E+04  0.7818609E-02  0.8828906E-01
       -4   -1    0    0    0  501  0.00000000000E+00  0.00000000000E+00  0.85601013520E+03  0.85601107731E+03  0.12699999809E+01 0.  1.
        4   -1    0    0  501    0  0.00000000000E+00  0.00000000000E+00 -0.73505801319E+03  0.73505911031E+03  0.12699999809E+01 0. -1.
    10030    2    1    2    0    0  0.00000000000E+00  0.00000000000E+00  0.12095212202E+03  0.15910701876E+04  0.15864661755E+04 0.  0.
        3    1    3    3  502    0  0.75608666768E+03 -0.84494086083E+02 -0.16470263583E+03  0.77841715556E+03  0.10100000352E+00 0. -1.
       -3    1    3    3    0  502 -0.75608666768E+03  0.84494086083E+02  0.28565475785E+03  0.81265303205E+03  0.10100000352E+00 0.  1.
</event>
<event>
 5   0  0.5730920E-06  0.2865903E+04  0.7818609E-02  0.8283095E-01
       -1   -1    0    0    0  501  0.00000000000E+00  0.00000000000E+00  0.10744432388E+04  0.10744432388E+04  0.50400001928E-02 0.  1.
        1   -1    0    0  501    0  0.00000000000E+00  0.00000000000E+00 -0.19110833311E+04  0.19110833311E+04  0.50400001928E-02 0. -1.
    10030    2    1    2    0    0  0.00000000000E+00  0.00000000000E+00 -0.83664009225E+03  0.29855265699E+04  0.28659033926E+04 0.  0.
        1    1    3    3  502    0 -0.64696354396E+03  0.58720742292E+03 -0.16014984644E+04  0.18243277436E+04  0.50400001928E-02 0. -1.
       -1    1    3    3    0  502  0.64696354396E+03 -0.58720742292E+03  0.76485837214E+03  0.11611988263E+04  0.50400001928E-02 0.  1.
</event>
<event>
 5   0  0.5392262E-06  0.2656793E+04  0.7818609E-02  0.8349162E-01
        1   -1    0    0  501    0  0.00000000000E+00  0.00000000000E+00  0.16393257443E+04  0.16393257443E+04  0.50400001928E-02 0. -1.
       -1   -1    0    0    0  501  0.00000000000E+00  0.00000000000E+00 -0.10764407574E+04  0.10764407574E+04  0.50400001928E-02 0.  1.
    10030    2    1    2    0    0  0.00000000000E+00  0.00000000000E+00  0.56288498691E+03  0.27157665017E+04  0.26567928379E+04 0.  0.
        2    1    3    3  502    0 -0.58646414898E+03  0.11774257283E+04  0.91948223663E+02  0.13186076064E+04  0.25500000920E-02 0.  1.
       -2    1    3    3    0  502  0.58646414898E+03 -0.11774257283E+04  0.47093676325E+03  0.13971588953E+04  0.25500000920E-02 0. -1.
</event>
<event>
 5   0  0.1480547E-05  0.2945771E+04  0.7818609E-02  0.8259388E-01
       -2   -1    0    0    0  501  0.00000000000E+00  0.00000000000E+00  0.11960642443E+04  0.11960642443E+04  0.25500000920E-02 0.  1.
        2   -1    0    0  501    0  0.00000000000E+00  0.00000000000E+00 -0.18137747088E+04  0.18137747088E+04  0.25500000920E-02 0. -1.
    10030    2    1    2    0    0  0.00000000000E+00  0.00000000000E+00 -0.61771046447E+03  0.30098389531E+04  0.29457705793E+04 0.  0.
        1    1    3    3  502    0  0.63125268584E+03 -0.11994494423E+04  0.28007679397E+03  0.13840527188E+04  0.50400001928E-02 0.  1.
       -1    1    3    3    0  502 -0.63125268584E+03  0.11994494423E+04 -0.89778725844E+03  0.16257862342E+04  0.50400001928E-02 0. -1.
</event>
<event>
 5   0  0.1480547E-05  0.3009268E+04  0.7818609E-02  0.8241089E-01
        2   -1    0    0  501    0  0.00000000000E+00  0.00000000000E+00  0.11861916973E+04  0.11861916974E+04  0.25500000920E-02 0.  1.
       -2   -1    0    0    0  501  0.00000000000E+00  0.00000000000E+00 -0.19085642555E+04  0.19085642555E+04  0.25500000920E-02 0. -1.
    10030    2    1    2    0    0  0.00000000000E+00  0.00000000000E+00 -0.72237255816E+03  0.30947559529E+04  0.30092677340E+04 0.  0.
        1    1    3    3  502    0  0.13981879772E+04  0.55520945725E+03 -0.38908464274E+03  0.15538899640E+04  0.50400001928E-02 0. -1.
       -1    1    3    3    0  502 -0.13981879772E+04 -0.55520945725E+03 -0.33328791542E+03  0.15408659888E+04  0.50400001928E-02 0.  1.
</event>
<event>
 5   0  0.5329891E-06  0.2737866E+04  0.7818609E-02  0.8322822E-01
        1   -1    0    0  501    0  0.00000000000E+00  0.00000000000E+00  0.15382115476E+04  0.15382115476E+04  0.50400001928E-02 0. -1.
       -1   -1    0    0    0  501  0.00000000000E+00  0.00000000000E+00 -0.12182831880E+04  0.12182831880E+04  0.50400001928E-02 0.  1.
    10030    2    1    2    0    0  0.00000000000E+00  0.00000000000E+00  0.31992835958E+03  0.27564947356E+04  0.27378657879E+04 0.  0.
        4    1    3    3  502    0  0.10412304371E+03  0.10374106294E+04  0.10530813459E+04  0.14819056503E+04  0.12699999809E+01 0. -1.
       -4    1    3    3    0  502 -0.10412304371E+03 -0.10374106294E+04 -0.73315298631E+03  0.12745890854E+04  0.12699999809E+01 0.  1.
</event>
<event>
 5   0  0.1523029E-05  0.2938254E+04  0.7818609E-02  0.8261586E-01
       -2   -1    0    0    0  501  0.00000000000E+00  0.00000000000E+00  0.10561394578E+04  0.10561394578E+04  0.25500000920E-02 0.  1.
        2   -1    0    0  501    0  0.00000000000E+00  0.00000000000E+00 -0.20436070262E+04  0.20436070262E+04  0.25500000920E-02 0. -1.
    10030    2    1    2    0    0  0.00000000000E+00  0.00000000000E+00 -0.98746756839E+03  0.30997464840E+04  0.29382539146E+04 0.  0.
        5    1    3    3  502    0 -0.46635039995E+03  0.77415202090E+03  0.72816458531E+03  0.11606204376E+04  0.46999998093E+01 0.  1.
       -5    1    3    3    0  502  0.46635039995E+03 -0.77415202090E+03 -0.17156321537E+04  0.19391260464E+04  0.46999998093E+01 0. -1.
</event>
<event>
 5   0  0.7032692E-06  0.2638035E+04  0.7818609E-02  0.8355395E-01
       -1   -1    0    0    0  501  0.00000000000E+00  0.00000000000E+00  0.11113124462E+04  0.11113124462E+04  0.50400001928E-02 0.  1.
        1   -1    0    0  501    0  0.00000000000E+00  0.00000000000E+00 -0.15655432882E+04  0.15655432882E+04  0.50400001928E-02 0. -1.
    10030    2    1    2    0    0  0.00000000000E+00  0.00000000000E+00 -0.45423084199E+03  0.26768557344E+04  0.26380354367E+04 0.  0.
        5    1    3    3  502    0 -0.93606974045E+02 -0.40737640526E+03  0.10423209173E+04  0.11230194948E+04  0.46999998093E+01 0.  1.
       -5    1    3    3    0  502  0.93606974045E+02  0.40737640526E+03 -0.14965517593E+04  0.15538362396E+04  0.46999998093E+01 0. -1.
</event>
<event>
 5   0  0.5392262E-06  0.2911224E+04  0.7818609E-02  0.8269546E-01
        1   -1    0    0  501    0  0.00000000000E+00  0.00000000000E+00  0.17714970178E+04  0.17714970178E+04  0.50400001928E-02 0. -1.
       -1   -1    0    0    0  501  0.00000000000E+00  0.00000000000E+00 -0.11960537897E+04  0.11960537897E+04  0.50400001928E-02 0.  1.
    10030    2    1    2    0    0  0.00000000000E+00  0.00000000000E+00  0.57544322813E+03  0.29675508076E+04  0.29112236064E+04 0.  0.
        2    1    3    3  502    0  0.13669736756E+04 -0.53844616067E+02 -0.21918200606E+03  0.13854807917E+04  0.25500000920E-02 0. -1.
       -2    1    3    3    0  502 -0.13669736756E+04  0.53844616067E+02  0.79462523419E+03  0.15820700159E+04  0.25500000920E-02 0.  1.
</event>
<event>
 5   0  0.1523029E-05  0.3009424E+04  0.7818609E-02  0.8241045E-01
        2   -1    0    0  501    0  0.00000000000E+00  0.00000000000E+00  0.20493915637E+04  0.20493915637E+04  0.25500000920E-02 0. -1.
       -2   -1    0    0    0  501  0.00000000000E+00  0.00000000000E+00 -0.11047953403E+04  0.11047953403E+04  0.25500000920E-02 0.  1.
    10030    2    1    2    0    0  0.00000000000E+00  0.00000000000E+00  0.94459622335E+03  0.31541869040E+04  0.30094240313E+04 0.  0.
        5    1    3    3  502    0 -0.24039814521E+03  0.49924167661E+02 -0.10836506771E+04  0.11111276122E+04  0.46999998093E+01 0.  1.
       -5    1    3    3    0  502  0.24039814521E+03 -0.49924167661E+02  0.20282469004E+04  0.20430592918E+04  0.46999998093E+01 0. -1.
</event>
<event>
 5   0  0.1480547E-05  0.2893414E+04  0.7818609E-02  0.8274840E-01
        2   -1    0    0  501    0  0.00000000000E+00  0.00000000000E+00  0.18860013657E+04  0.18860013657E+04  0.25500000920E-02 0. -1.
       -2   -1    0    0    0  501  0.00000000000E+00  0.00000000000E+00 -0.11097346240E+04  0.11097346240E+04  0.25500000920E-02 0.  1.
    10030    2    1    2    0    0  0.00000000000E+00  0.00000000000E+00  0.77626674175E+03  0.29957359897E+04  0.28934139119E+04 0.  0.
        1    1    3    3  502    0  0.12582765166E+04  0.11794439789E+02  0.11272135196E+04  0.16893813127E+04  0.50400001928E-02 0. -1.
       -1    1    3    3    0  502 -0.12582765166E+04 -0.11794439789E+02 -0.35094677783E+03  0.13063546769E+04  0.50400001928E-02 0.  1.
</event>
<event>
 5   0  0.5392262E-06  0.2979070E+04  0.7818609E-02  0.8249733E-01
        1   -1    0    0  501    0  0.00000000000E+00  0.00000000000E+00  0.24953861955E+04  0.24953861955E+04  0.50400001928E-02 0.  1.
       -1   -1    0    0    0  501  0.00000000000E+00  0.00000000000E+00 -0.88912669792E+03  0.88912669794E+03  0.50400001928E-02 0. -1.
    10030    2    1    2    0    0  0.00000000000E+00  0.00000000000E+00  0.16062594976E+04  0.33845128935E+04  0.29790699811E+04 0.  0.
        2    1    3    3  502    0  0.10404018180E+03  0.84137940611E+03 -0.58828586779E+03  0.10319030607E+04  0.25500000920E-02 0. -1.
       -2    1    3    3    0  502 -0.10404018180E+03 -0.84137940611E+03  0.21945453654E+04  0.23526098328E+04  0.25500000920E-02 0.  1.
</event>
<event>
 5   0  0.4806125E-06  0.3000750E+04  0.7818609E-02  0.8243517E-01
        3   -1    0    0  501    0  0.00000000000E+00  0.00000000000E+00  0.19813105627E+04  0.19813105653E+04  0.10100000352E+00 0. -1.
       -3   -1    0    0    0  501  0.00000000000E+00  0.00000000000E+00 -0.11361795350E+04  0.11361795395E+04  0.10100000352E+00 0.  1.
    10030    2    1    2    0    0  0.00000000000E+00  0.00000000000E+00  0.84513102769E+03  0.31174901048E+04  0.30007495897E+04 0.  0.
        1    1    3    3  502    0  0.25035335554E+03 -0.14783952608E+04  0.36763927834E+03  0.15438549119E+04  0.50400001928E-02 0.  1.
       -1    1    3    3    0  502 -0.25035335554E+03  0.14783952608E+04  0.47749174935E+03  0.15736351930E+04  0.50400001928E-02 0. -1.
</event>
<event>
 5   0  0.5522695E-06  0.3013923E+04  0.7818609E-02  0.8239766E-01
        1   -1    0    0  501    0  0.00000000000E+00  0.00000000000E+00  0.15188822423E+04  0.15188822423E+04  0.50400001928E-02 0.  1.
       -1   -1    0    0    0  501  0.00000000000E+00  0.00000000000E+00 -0.14951340315E+04  0.14951340316E+04  0.50400001928E-02 0. -1.
    10030    2    1    2    0    0  0.00000000000E+00  0.00000000000E+00  0.23748210791E+02  0.30140162739E+04  0.30139227133E+04 0.  0.
        3    1    3    3  502    0  0.35043279016E+03 -0.30538574023E+03  0.14454000065E+04  0.15183032569E+04  0.10100000352E+00 0.  1.
       -3    1    3    3    0  502 -0.35043279016E+03  0.30538574023E+03 -0.14216517957E+04  0.14957130170E+04  0.10100000352E+00 0. -1.
</event>
<event>
 5   0  0.5522695E-06  0.3089274E+04  0.7818609E-02  0.8218688E-01
       -1   -1    0    0    0  501  0.00000000000E+00  0.00000000000E+00  0.12696981333E+04  0.12696981333E+04  0.50400001928E-02 0.  1.
        1   -1    0    0  501    0  0.00000000000E+00  0.00000000000E+00 -0.18791103157E+04  0.18791103157E+04  0.50400001928E-02 0. -1.
    10030    2    1    2    0    0  0.00000000000E+00  0.00000000000E+00 -0.60941218243E+03  0.31488084490E+04  0.30892736104E+04 0.  0.
        3    1    3    3  502    0 -0.36398832760E+03 -0.10658452360E+04 -0.13821436676E+04  0.17829286856E+04  0.10100000352E+00 0. -1.
       -3    1    3    3    0  502  0.36398832760E+03  0.10658452360E+04  0.77273148512E+03  0.13658797634E+04  0.10100000352E+00 0.  1.
</event>
<event>
 5   0  0.7032692E-06  0.3002887E+04  0.7818609E-02  0.8242907E-01
        1   -1    0    0  501    0  0.00000000000E+00  0.00000000000E+00  0.19667155915E+04  0.19667155915E+04  0.50400001928E-02 0.  1.
       -1   -1    0    0    0  501  0.00000000000E+00  0.00000000000E+00 -0.11462422215E+04  0.11462422215E+04  0.50400001928E-02 0. -1.
    10030    2    1    2    0    0  0.00000000000E+00  0.00000000000E+00  0.82047337001E+03  0.31129578129E+04  0.30028869100E+04 0.  0.
        5    1    3    3  502    0 -0.89069815094E+03  0.25476129093E+03  0.16350979441E+04  0.18793120785E+04  0.46999998093E+01 0.  1.
       -5    1    3    3    0  502  0.89069815094E+03 -0.25476129093E+03 -0.81462457410E+03  0.12336457345E+04  0.46999998093E+01 0. -1.
</event>
<event>
 5   0  0.5329891E-06  0.3022630E+04  0.7818609E-02  0.8237298E-01
        1   -1    0    0  501    0  0.00000000000E+00  0.00000000000E+00  0.17896758043E+04  0.17896758044E+04  0.50400001928E-02 0. -1.
       -1   -1    0    0    0  501  0.00000000000E+00  0.00000000000E+00 -0.12762496639E+04  0.12762496639E+04  0.50400001928E-02 0.  1.
    10030    2    1    2    0    0  0.00000000000E+00  0.00000000000E+00  0.51342614049E+03  0.30659254682E+04  0.30226300758E+04 0.  0.
        4    1    3    3  502    0  0.12035708562E+04 -0.59879136529E+03 -0.44378571486E+03  0.14156557769E+04  0.12699999809E+01 0.  1.
       -4    1    3    3    0  502 -0.12035708562E+04  0.59879136529E+03  0.95721185535E+03  0.16502696913E+04  0.12699999809E+01 0. -1.
</event>
<event>
 5   0  0.7032692E-06  0.2413531E+04  0.7818609E-02  0.8434455E-01
       -1   -1    0    0    0  501  0.00000000000E+00  0.00000000000E+00  0.83322224732E+03  0.83322224734E+03  0.50400001928E-02 0. -1.
        1   -1    0    0  501    0  0.00000000000E+00  0.00000000000E+00 -0.17477724618E+04  0.17477724618E+04  0.50400001928E-02 0.  1.
    10030    2    1    2    0    0  0.00000000000E+00  0.00000000000E+00 -0.91455021444E+03  0.25809947091E+04  0.24135309390E+04 0.  0.
        5    1    3    3  502    0 -0.10231853336E+04 -0.63840032018E+03 -0.41193502433E+03  0.12744315399E+04  0.46999998093E+01 0.  1.
       -5    1    3    3    0  502  0.10231853336E+04  0.63840032018E+03 -0.50261519010E+03  0.13065631692E+04  0.46999998093E+01 0. -1.
</event>
<event>
 5   0  0.1388724E-05  0.2977483E+04  0.7818609E-02  0.8250190E-01
       -2   -1    0    0    0  501  0.00000000000E+00  0.00000000000E+00  0.29873474639E+04  0.29873474639E+04  0.25500000920E-02 0. -1.
        2   -1    0    0  501    0  0.00000000000E+00  0.00000000000E+00 -0.74191253469E+03  0.74191253469E+03  0.25500000920E-02 0.  1.
    10030    2    1    2    0    0  0.00000000000E+00  0.00000000000E+00  0.22454349292E+04  0.37292599986E+04  0.29774825131E+04 0.  0.
        4    1    3    3  502    0 -0.12402064722E+04 -0.80486633898E+03  0.13411930955E+04  0.19961769584E+04  0.12699999809E+01 0. -1.
       -4    1    3    3    0  502  0.12402064722E+04  0.80486633898E+03  0.90424183374E+03  0.17330830401E+04  0.12699999809E+01 0.  1.
</event>
<event>
 5   0  0.7032692E-06  0.2966444E+04  0.7818609E-02  0.8253378E-01
        1   -1    0    0  501    0  0.00000000000E+00  0.00000000000E+00  0.26206841066E+04  0.26206841066E+04  0.50400001928E-02 0. -1.
       -1   -1    0    0    0  501  0.00000000000E+00  0.00000000000E+00 -0.83945553671E+03  0.83945553673E+03  0.50400001928E-02 0.  1.
    10030    2    1    2    0    0  0.00000000000E+00  0.00000000000E+00  0.17812285699E+04  0.34601396433E+04  0.29664441901E+04 0.  0.
        5    1    3    3  502    0  0.32465118582E+03  0.33417502125E+03  0.25331047311E+04  0.25755995430E+04  0.46999998093E+01 0. -1.
       -5    1    3    3    0  502 -0.32465118582E+03 -0.33417502125E+03 -0.75187616121E+03  0.88454010032E+03  0.46999998093E+01 0.  1.
</event>
<event>
 5   0  0.1423692E-05  0.3033371E+04  0.7818609E-02  0.8234265E-01
        2   -1    0    0  501    0  0.00000000000E+00  0.00000000000E+00  0.16211497544E+04  0.16211497544E+04  0.25500000920E-02 0.  1.
       -2   -1    0    0    0  501  0.00000000000E+00  0.00000000000E+00 -0.14189526390E+04  0.14189526390E+04  0.25500000920E-02 0. -1.
    10030    2    1    2    0    0  0.00000000000E+00  0.00000000000E+00  0.20219711540E+03  0.30401023934E+04  0.30333708789E+04 0.  0.
        3    1    3    3  502    0  0.76609770076E+03  0.10663338844E+04 -0.65977066706E+03  0.14694458083E+04  0.10100000352E+00 0. -1.
       -3    1    3    3    0  502 -0.76609770076E+03 -0.10663338844E+04  0.86196778246E+03  0.15706565851E+04  0.10100000352E+00 0.  1.
</event>
<event>
 5   0  0.1423692E-05  0.3060728E+04  0.7818609E-02  0.8226599E-01
        2   -1    0    0  501    0  0.00000000000E+00  0.00000000000E+00  0.26031993563E+04  0.26031993563E+04  0.25500000920E-02 0.  1.
       -2   -1    0    0    0  501  0.00000000000E+00  0.00000000000E+00 -0.89966738020E+03  0.89966738021E+03  0.25500000920E-02 0. -1.
    10030    2    1    2    0    0  0.00000000000E+00  0.00000000000E+00  0.17035319761E+04  0.35028667365E+04  0.30607277207E+04 0.  0.
        3    1    3    3  502    0 -0.10085773704E+04  0.26937916403E+02  0.21686656341E+04  0.23918747053E+04  0.10100000352E+00 0.  1.
       -3    1    3    3    0  502  0.10085773704E+04 -0.26937916403E+02 -0.46513365795E+03  0.11109920312E+04  0.10100000352E+00 0. -1.
</event>
<event>
 5   0  0.4806125E-06  0.3120975E+04  0.7818609E-02  0.8210005E-01
        4   -1    0    0  501    0  0.00000000000E+00  0.00000000000E+00  0.21868110717E+04  0.21868114405E+04  0.12699999809E+01 0.  1.
       -4   -1    0    0    0  501  0.00000000000E+00  0.00000000000E+00 -0.11135484623E+04  0.11135491865E+04  0.12699999809E+01 0. -1.
    10030    2    1    2    0    0  0.00000000000E+00  0.00000000000E+00  0.10732626095E+04  0.33003606270E+04  0.31209754308E+04 0.  0.
        5    1    3    3  502    0 -0.52504921101E+03  0.32164809967E+03 -0.97964718625E+03  0.11570932864E+04  0.46999998093E+01 0. -1.
       -5    1    3    3    0  502  0.52504921101E+03 -0.32164809967E+03  0.20529097957E+04  0.21432673406E+04  0.46999998093E+01 0.  1.
</event>
<event>
 5   0  0.1523029E-05  0.2319492E+04  0.7818609E-02  0.8470275E-01
       -2   -1    0    0    0  501  0.00000000000E+00  0.00000000000E+00  0.92774132529E+03  0.92774132530E+03  0.25500000920E-02 0.  1.
        2   -1    0    0  501    0  0.00000000000E+00  0.00000000000E+00 -0.14497694058E+04  0.14497694058E+04  0.25500000920E-02 0. -1.
    10030    2    1    2    0    0  0.00000000000E+00  0.00000000000E+00 -0.52202808049E+03  0.23775107311E+04  0.23194921771E+04 0.  0.
        5    1    3    3  502    0  0.99192363116E+02 -0.70665110834E+03 -0.11980994901E+04  0.13945104489E+04  0.46999998093E+01 0. -1.
       -5    1    3    3    0  502 -0.99192363116E+02  0.70665110834E+03  0.67607140965E+03  0.98300028218E+03  0.46999998093E+01 0.  1.
</event>
<event>
 5   0  0.7032692E-06  0.2975544E+04  0.7818609E-02  0.8250749E-01
       -1   -1    0    0    0  501  0.00000000000E+00  0.00000000000E+00  0.20181074967E+04  0.20181074967E+04  0.50400001928E-02 0. -1.
        1   -1    0    0  501    0  0.00000000000E+00  0.00000000000E+00 -0.10968028551E+04  0.10968028551E+04  0.50400001928E-02 0.  1.
    10030    2    1    2    0    0  0.00000000000E+00  0.00000000000E+00  0.92130464161E+03  0.31149103518E+04  0.29755443632E+04 0.  0.
        5    1    3    3  502    0  0.31511000056E+03  0.40458821384E+03  0.19226525078E+04  0.19898745416E+04  0.46999998093E+01 0. -1.
       -5    1    3    3    0  502 -0.31511000056E+03 -0.40458821384E+03 -0.10013478662E+04  0.11250358103E+04  0.46999998093E+01 0.  1.
</event>
<event>
 5   0  0.5392262E-06  0.3029847E+04  0.7818609E-02  0.8235259E-01
       -1   -1    0    0    0  501  0.00000000000E+00  0.00000000000E+00  0.14509956313E+04  0.14509956313E+04  0.50400001928E-02 0.  1.
        1   -1    0    0  501    0  0.00000000000E+00  0.00000000000E+00 -0.15816683535E+04  0.15816683535E+04  0.50400001928E-02 0. -1.
    10030    2    1    2    0    0  0.00000000000E+00  0.00000000000E+00 -0.13067272229E+03  0.30326639848E+04  0.30298474358E+04 0.  0.
        2    1    3    3  502    0 -0.11069849398E+04 -0.82710943545E+03 -0.68677436466E+03  0.15431087788E+04  0.25500000920E-02 0. -1.
       -2    1    3    3    0  502  0.11069849398E+04  0.82710943545E+03  0.55610164237E+03  0.14895552060E+04  0.25500000920E-02 0.  1.
</event>
<event>
 5   0  0.1523029E-05  0.2940866E+04  0.7818609E-02  0.8260822E-01
        2   -1    0    0  501    0  0.00000000000E+00  0.00000000000E+00  0.28073729471E+04  0.28073729471E+04  0.25500000920E-02 0. -1.
       -2   -1    0    0    0  501  0.00000000000E+00  0.00000000000E+00 -0.77017652189E+03  0.77017652190E+03  0.25500000920E-02 0.  1.
    10030    2    1    2    0    0  0.00000000000E+00  0.00000000000E+00  0.20371964252E+04  0.35775494690E+04  0.29408656767E+04 0.  0.
        5    1    3    3  502    0  0.48221789750E+03 -0.53760054376E+03  0.25767583998E+04  0.26760520149E+04  0.46999998093E+01 0. -1.
       -5    1    3    3    0  502 -0.48221789750E+03  0.53760054376E+03 -0.53956197461E+03  0.90149745411E+03  0.46999998093E+01 0.  1.
</event>
<event>
 5   0  0.1480547E-05  0.2946148E+04  0.7818609E-02  0.8259278E-01
       -2   -1    0    0    0  501  0.00000000000E+00  0.00000000000E+00  0.12002012404E+04  0.12002012404E+04  0.25500000920E-02 0.  1.
        2   -1    0    0  501    0  0.00000000000E+00  0.00000000000E+00 -0.18079854974E+04  0.18079854974E+04  0.25500000920E-02 0. -1.
    10030    2    1    2    0    0  0.00000000000E+00  0.00000000000E+00 -0.60778425701E+03  0.30081867378E+04  0.29461476111E+04 0.  0.
        1    1    3    3  502    0 -0.10963672451E+04 -0.61514923997E+03 -0.10878601551E+04  0.16624889295E+04  0.50400001928E-02 0. -1.
       -1    1    3    3    0  502  0.10963672451E+04  0.61514923997E+03  0.48007589810E+03  0.13456978084E+04  0.50400001928E-02 0.  1.
</event>
<event>
 5   0  0.5392262E-06  0.2892536E+04  0.7818609E-02  0.8275102E-01
       -1   -1    0    0    0  501  0.00000000000E+00  0.00000000000E+00  0.14640261512E+04  0.14640261513E+04  0.50400001928E-02 0. -1.
        1   -1    0    0  501    0  0.00000000000E+00  0.00000000000E+00 -0.14287252146E+04  0.14287252146E+04  0.50400001928E-02 0.  1.
    10030    2    1    2    0    0  0.00000000000E+00  0.00000000000E+00  0.35300936661E+02  0.28927513658E+04  0.28925359649E+04 0.  0.
        2    1    3    3  502    0  0.13918249708E+04 -0.32836790918E+03  0.23374257332E+03  0.14490127066E+04  0.25500000920E-02 0.  1.
       -2    1    3    3    0  502 -0.13918249708E+04  0.32836790918E+03 -0.19844163666E+03  0.14437386593E+04  0.25500000920E-02 0. -1.
</event>
<event>
 5   0  0.1480547E-05  0.2943771E+04  0.7818609E-02  0.8259972E-01
        2   -1    0    0  501    0  0.00000000000E+00  0.00000000000E+00  0.15270262022E+04  0.15270262022E+04  0.25500000920E-02 0. -1.
       -2   -1    0    0    0  501  0.00000000000E+00  0.00000000000E+00 -0.14187357872E+04  0.14187357872E+04  0.25500000920E-02 0.  1.
    10030    2    1    2    0    0  0.00000000000E+00  0.00000000000E+00  0.10829041504E+03  0.29457619895E+04  0.29437708614E+04 0.  0.
        1    1    3    3  502    0  0.23865772187E+03 -0.13171122533E+04 -0.55839996393E+03  0.14503629600E+04  0.50400001928E-02 0.  1.
       -1    1    3    3    0  502 -0.23865772187E+03  0.13171122533E+04  0.66669037897E+03  0.14953990295E+04  0.50400001928E-02 0. -1.
</event>
<event>
 5   0  0.5329891E-06  0.2791043E+04  0.7818609E-02  0.8306055E-01
       -1   -1    0    0    0  501  0.00000000000E+00  0.00000000000E+00  0.27615935195E+04  0.27615935195E+04  0.50400001928E-02 0.  1.
        1   -1    0    0  501    0  0.00000000000E+00  0.00000000000E+00 -0.70520160106E+03  0.70520160108E+03  0.50400001928E-02 0. -1.
    10030    2    1    2    0    0  0.00000000000E+00  0.00000000000E+00  0.20563919185E+04  0.34667951206E+04  0.27910429387E+04 0.  0.
        4    1    3    3  502    0 -0.64170191153E+02 -0.11499716552E+04  0.49423908288E+02  0.11528213031E+04  0.12699999809E+01 0. -1.
       -4    1    3    3    0  502  0.64170191153E+02  0.11499716552E+04  0.20069680102E+04  0.23139738175E+04  0.12699999809E+01 0.  1.
</event>
<event>
 5   0  0.1423692E-05  0.2822614E+04  0.7818609E-02  0.8296282E-01
       -2   -1    0    0    0  501  0.00000000000E+00  0.00000000000E+00  0.10268821713E+04  0.10268821713E+04  0.25500000920E-02 0. -1.
        2   -1    0    0  501    0  0.00000000000E+00  0.00000000000E+00 -0.19396460615E+04  0.19396460615E+04  0.25500000920E-02 0.  1.
    10030    2    1    2    0    0  0.00000000000E+00  0.00000000000E+00 -0.91276389021E+03  0.29665282328E+04  0.28226143620E+04 0.  0.
        3    1    3    3  502    0  0.47833043546E+03 -0.63994709046E+03 -0.16790792531E+04  0.18594728911E+04  0.10100000352E+00 0.  1.
       -3    1    3    3    0  502 -0.47833043546E+03  0.63994709046E+03  0.76631536292E+03  0.11070553418E+04  0.10100000352E+00 0. -1.
</event>
<event>
 5   0  0.5329891E-06  0.3058661E+04  0.7818609E-02  0.8227175E-01
       -1   -1    0    0    0  501  0.00000000000E+00  0.00000000000E+00  0.11867992913E+04  0.11867992913E+04  0.50400001928E-02 0. -1.
        1   -1    0    0  501    0  0.00000000000E+00  0.00000000000E+00 -0.19707226843E+04  0.19707226843E+04  0.50400001928E-02 0.  1.
    10030    2    1    2    0    0  0.00000000000E+00  0.00000000000E+00 -0.78392339298E+03  0.31575219757E+04  0.30586613315E+04 0.  0.
        4    1    3    3  502    0 -0.13910809197E+04  0.24635847098E+01 -0.10479031227E+04  0.17416126900E+04  0.12699999809E+01 0.  1.
       -4    1    3    3    0  502  0.13910809197E+04 -0.24635847098E+01  0.26397972974E+03  0.14159092856E+04  0.12699999809E+01 0. -1.
</event>
<event>
 5   0  0.1423692E-05  0.2746836E+04  0.7818609E-02  0.8319966E-01
       -2   -1    0    0    0  501  0.00000000000E+00  0.00000000000E+00  0.83051167732E+03  0.83051167732E+03  0.25500000920E-02 0. -1.
        2   -1    0    0  501    0  0.00000000000E+00  0.00000000000E+00 -0.22712220351E+04  0.22712220351E+04  0.25500000920E-02 0.  1.
    10030    2    1    2    0    0  0.00000000000E+00  0.00000000000E+00 -0.14407103577E+04  0.31017337124E+04  0.27468355771E+04 0.  0.
        3    1    3    3  502    0 -0.69143430284E+03 -0.75790711689E+03  0.31073215667E+03  0.10719417318E+04  0.10100000352E+00 0. -1.
       -3    1    3    3    0  502  0.69143430284E+03  0.75790711689E+03 -0.17514425144E+04  0.20297919806E+04  0.10100000352E+00 0.  1.
</event>
<event>
 5   0  0.1388724E-05  0.1653733E+04  0.7818609E-02  0.8788201E-01
       -2   -1    0    0    0  501  0.00000000000E+00  0.00000000000E+00  0.27568500770E+03  0.27568500771E+03  0.25500000920E-02 0.  1.
        2   -1    0    0  501    0  0.00000000000E+00  0.00000000000E+00 -0.24800350820E+04  0.24800350820E+04  0.25500000920E-02 0. -1.
    10030    2    1    2    0    0  0.00000000000E+00  0.00000000000E+00 -0.22043500743E+04  0.27557200897E+04  0.16537333409E+04 0.  0.
        4    1    3    3  502    0  0.65089514779E+03  0.40911302421E+03 -0.59490797261E+03  0.97208799435E+03  0.12699999809E+01 0.  1.
       -4    1    3    3    0  502 -0.65089514779E+03 -0.40911302421E+03 -0.16094421017E+04  0.17836320954E+04  0.12699999809E+01 0. -1.
</event>
<event>
 5   0  0.1345931E-05  0.2902840E+04  0.7818609E-02  0.8272033E-01
       -2   -1    0    0    0  501  0.00000000000E+00  0.00000000000E+00  0.16675555192E+04  0.16675555192E+04  0.25500000920E-02 0. -1.
        2   -1    0    0  501    0  0.00000000000E+00  0.00000000000E+00 -0.12632984034E+04  0.12632984034E+04  0.25500000920E-02 0.  1.
    10030    2    1    2    0    0  0.00000000000E+00  0.00000000000E+00  0.40425711582E+03  0.29308539226E+04  0.29028401437E+04 0.  0.
        2    1    3    3  502    0 -0.15700646778E+03 -0.14099844361E+04  0.51153838561E+03  0.15081043270E+04  0.25500000920E-02 0. -1.
       -2    1    3    3    0  502  0.15700646778E+03  0.14099844361E+04 -0.10728126979E+03  0.14227495956E+04  0.25500000920E-02 0.  1.
</event>
<event>
 5   0  0.1345931E-05  0.2935780E+04  0.7818609E-02  0.8262311E-01
        2   -1    0    0  501    0  0.00000000000E+00  0.00000000000E+00  0.30620240307E+04  0.30620240307E+04  0.25500000920E-02 0.  1.
       -2   -1    0    0    0  501  0.00000000000E+00  0.00000000000E+00 -0.70368521126E+03  0.70368521126E+03  0.25500000920E-02 0. -1.
    10030    2    1    2    0    0  0.00000000000E+00  0.00000000000E+00  0.23583388195E+04  0.37657092420E+04  0.29357799829E+04 0.  0.
        2    1    3    3  502    0  0.87247104241E+03 -0.71908540812E+03 -0.21648920793E+02  0.11308219222E+04  0.25500000920E-02 0. -1.
       -2    1    3    3    0  502 -0.87247104241E+03  0.71908540812E+03  0.23799877402E+04  0.26348873197E+04  0.25500000920E-02 0.  1.
</event>
<event>
 5   0  0.5329891E-06  0.2591666E+04  0.7818609E-02  0.8371037E-01
        1   -1    0    0  501    0  0.00000000000E+00  0.00000000000E+00  0.21754399235E+04  0.21754399235E+04  0.50400001928E-02 0. -1.
       -1   -1    0    0    0  501  0.00000000000E+00  0.00000000000E+00 -0.77188240751E+03  0.77188240753E+03  0.50400001928E-02 0.  1.
    10030    2    1    2    0    0  0.00000000000E+00  0.00000000000E+00  0.14035575160E+04  0.29473223310E+04  0.25916664952E+04 0.  0.
        4    1    3    3  502    0 -0.33398630331E+03 -0.12497765479E+04  0.61596552021E+03  0.14327956607E+04  0.12699999809E+01 0.  1.
       -4    1    3    3    0  502  0.33398630331E+03  0.12497765479E+04  0.78759199577E+03  0.15145266703E+04  0.12699999809E+01 0. -1.
</event>
<event>
 5   0  0.1345931E-05  0.2800107E+04  0.7818609E-02  0.8303235E-01
        2   -1    0    0  501    0  0.00000000000E+00  0.00000000000E+00  0.16329712183E+04  0.16329712183E+04  0.25500000920E-02 0. -1.
       -2   -1    0    0    0  501  0.00000000000E+00  0.00000000000E+00 -0.12003577935E+04  0.12003577935E+04  0.25500000920E-02 0.  1.
    10030    2    1    2    0    0  0.00000000000E+00  0.00000000000E+00  0.43261342479E+03  0.28333290118E+04  0.28001069468E+04 0.  0.
        2    1    3    3  502    0 -0.71543195566E+03 -0.10922404979E+04  0.72759131622E+03  0.14947311838E+04  0.25500000920E-02 0.  1.
       -2    1    3    3    0  502  0.71543195566E+03  0.10922404979E+04 -0.29497789143E+03  0.13385978279E+04  0.25500000920E-02 0. -1.
</event>
<event>
 5   0  0.1523029E-05  0.2879872E+04  0.7818609E-02  0.8278892E-01
       -2   -1    0    0    0  501  0.00000000000E+00  0.00000000000E+00  0.13665689491E+04  0.13665689491E+04  0.25500000920E-02 0.  1.
        2   -1    0    0  501    0  0.00000000000E+00  0.00000000000E+00 -0.15172415219E+04  0.15172415219E+04  0.25500000920E-02 0. -1.
    10030    2    1    2    0    0  0.00000000000E+00  0.00000000000E+00 -0.15067257279E+03  0.28838104710E+04  0.28798716306E+04 0.  0.
        5    1    3    3  502    0  0.13494240964E+04 -0.18333485926E+03  0.39310263079E+03  0.14174303619E+04  0.46999998093E+01 0.  1.
       -5    1    3    3    0  502 -0.13494240964E+04  0.18333485926E+03 -0.54377520358E+03  0.14663801091E+04  0.46999998093E+01 0. -1.
</event>
<event>
 5   0  0.1523029E-05  0.1965754E+04  0.7818609E-02  0.8622801E-01
       -2   -1    0    0    0  501  0.00000000000E+00  0.00000000000E+00  0.64034957215E+03  0.64034957215E+03  0.25500000920E-02 0. -1.
        2   -1    0    0  501    0  0.00000000000E+00  0.00000000000E+00 -0.15086242880E+04  0.15086242880E+04  0.25500000920E-02 0.  1.
    10030    2    1    2    0    0  0.00000000000E+00  0.00000000000E+00 -0.86827471583E+03  0.21489738601E+04  0.19657537153E+04 0.  0.
        5    1    3    3  502    0  0.37861573305E-01  0.72588023275E+03  0.29029022584E+03  0.78178809082E+03  0.46999998093E+01 0. -1.
       -5    1    3    3    0  502 -0.37861573305E-01 -0.72588023275E+03 -0.11585649417E+04  0.13671857693E+04  0.46999998093E+01 0.  1.
</event>
<event>
 5   0  0.1423692E-05  0.2836100E+04  0.7818609E-02  0.8292147E-01
        2   -1    0    0  501    0  0.00000000000E+00  0.00000000000E+00  0.27087582400E+04  0.27087582401E+04  0.25500000920E-02 0. -1.
       -2   -1    0    0    0  501  0.00000000000E+00  0.00000000000E+00 -0.74235731964E+03  0.74235731964E+03  0.25500000920E-02 0.  1.
    10030    2    1    2    0    0  0.00000000000E+00  0.00000000000E+00  0.19664009204E+04  0.34511155597E+04  0.28361004966E+04 0.  0.
        3    1    3    3  502    0  0.62420859533E+03  0.10460509270E+04  0.99822990742E+02  0.12222207461E+04  0.10100000352E+00 0.  1.
       -3    1    3    3    0  502 -0.62420859533E+03 -0.10460509270E+04  0.18665779297E+04  0.22288948136E+04  0.10100000352E+00 0. -1.
</event>
<event>
 5   0  0.7032692E-06  0.3065071E+04  0.7818609E-02  0.8225390E-01
       -1   -1    0    0    0  501  0.00000000000E+00  0.00000000000E+00  0.13814097103E+04  0.13814097103E+04  0.50400001928E-02 0.  1.
        1   -1    0    0  501    0  0.00000000000E+00  0.00000000000E+00 -0.17001946660E+04  0.17001946660E+04  0.50400001928E-02 0. -1.
    10030    2    1    2    0    0  0.00000000000E+00  0.00000000000E+00 -0.31878495570E+03  0.30816043763E+04  0.30650712364E+04 0.  0.
        5    1    3    3  502    0  0.11238347943E+04 -0.97330877132E+02 -0.12023720907E+04  0.16486960542E+04  0.46999998093E+01 0. -1.
       -5    1    3    3    0  502 -0.11238347943E+04  0.97330877132E+02  0.88358713501E+03  0.14329083221E+04  0.46999998093E+01 0.  1.
</event>
<event>
 5   0  0.5730920E-06  0.1540930E+04  0.7818609E-02  0.8857682E-01
        1   -1    0    0  501    0  0.00000000000E+00  0.00000000000E+00  0.80591018923E+03  0.80591018925E+03  0.50400001928E-02 0. -1.
       -1   -1    0    0    0  501  0.00000000000E+00  0.00000000000E+00 -0.73657854823E+03  0.73657854825E+03  0.50400001928E-02 0.  1.
    10030    2    1    2    0    0  0.00000000000E+00  0.00000000000E+00  0.69331641003E+02  0.15424887375E+04  0.15409297936E+04 0.  0.
        1    1    3    3  502    0  0.46428860671E+03  0.14678274846E+03  0.63235201415E+03  0.79810911246E+03  0.50400001928E-02 0. -1.
       -1    1    3    3    0  502 -0.46428860671E+03 -0.14678274846E+03 -0.56302037315E+03  0.74437962504E+03  0.50400001928E-02 0.  1.
</event>
<event>
 5   0  0.1423692E-05  0.2963492E+04  0.7818609E-02  0.8254233E-01
        2   -1    0    0  501    0  0.00000000000E+00  0.00000000000E+00  0.22196778700E+04  0.22196778700E+04  0.25500000920E-02 0.  1.
       -2   -1    0    0    0  501  0.00000000000E+00  0.00000000000E+00 -0.98913964235E+03  0.98913964236E+03  0.25500000920E-02 0. -1.
    10030    2    1    2    0    0  0.00000000000E+00  0.00000000000E+00  0.12305382277E+04  0.32088175124E+04  0.29634921120E+04 0.  0.
        3    1    3    3  502    0 -0.19621493826E+03 -0.13813377429E+04  0.11555516723E+04  0.18115998287E+04  0.10100000352E+00 0.  1.
       -3    1    3    3    0  502  0.19621493826E+03  0.13813377429E+04  0.74986555409E+02  0.13972176837E+04  0.10100000352E+00 0. -1.
</event>
<event>
 5   0  0.5392262E-06  0.2708602E+04  0.7818609E-02  0.8332219E-01
        1   -1    0    0  501    0  0.00000000000E+00  0.00000000000E+00  0.18261198538E+04  0.18261198538E+04  0.50400001928E-02 0.  1.
       -1   -1    0    0    0  501  0.00000000000E+00  0.00000000000E+00 -0.10043867184E+04  0.10043867184E+04  0.50400001928E-02 0. -1.
    10030    2    1    2    0    0  0.00000000000E+00  0.00000000000E+00  0.82173313535E+03  0.28305065722E+04  0.27086015044E+04 0.  0.
        2    1    3    3  502    0  0.21597069752E+03  0.11107563076E+04  0.11884720227E+04  0.16410023357E+04  0.25500000920E-02 0.  1.
       -2    1    3    3    0  502 -0.21597069752E+03 -0.11107563076E+04 -0.36673888739E+03  0.11895042365E+04  0.25500000920E-02 0. -1.
</event>
<event>
 5   0  0.1388724E-05  0.3012561E+04  0.7818609E-02  0.8240153E-01
       -2   -1    0    0    0  501  0.00000000000E+00  0.00000000000E+00  0.93805091216E+03  0.93805091217E+03  0.25500000920E-02 0.  1.
        2   -1    0    0  501    0  0.00000000000E+00  0.00000000000E+00 -0.24187187211E+04  0.24187187211E+04  0.25500000920E-02 0. -1.
    10030    2    1    2    0    0  0.00000000000E+00  0.00000000000E+00 -0.14806678089E+04  0.33567696332E+04  0.30125612376E+04 0.  0.
        4    1    3    3  502    0 -0.92266397687E+03 -0.56672535162E+03 -0.19070597828E+04  0.21930264628E+04  0.12699999809E+01 0. -1.
       -4    1    3    3    0  502  0.92266397687E+03  0.56672535162E+03  0.42639197392E+03  0.11637431704E+04  0.12699999809E+01 0.  1.
</event>
<event>
 5   0  0.5329891E-06  0.2974215E+04  0.7818609E-02  0.8251133E-01
       -1   -1    0    0    0  501  0.00000000000E+00  0.00000000000E+00  0.17121349882E+04  0.17121349882E+04  0.50400001928E-02 0. -1.
        1   -1    0    0  501    0  0.00000000000E+00  0.00000000000E+00 -0.12916555412E+04  0.12916555412E+04  0.50400001928E-02 0.  1.
    10030    2    1    2    0    0  0.00000000000E+00  0.00000000000E+00  0.42047944699E+03  0.30037905294E+04  0.29742149518E+04 0.  0.
        4    1    3    3  502    0 -0.25227531895E+03  0.13462170303E+04  0.79526141187E+03  0.15837883240E+04  0.12699999809E+01 0. -1.
       -4    1    3    3    0  502  0.25227531895E+03 -0.13462170303E+04 -0.37478196487E+03  0.14200022054E+04  0.12699999809E+01 0.  1.
</event>
<event>
 5   0  0.1388724E-05  0.3243979E+04  0.7818609E-02  0.8177298E-01
       -2   -1    0    0    0  501  0.00000000000E+00  0.00000000000E+00  0.77168364564E+03  0.77168364564E+03  0.25500000920E-02 0.  1.
        2   -1    0    0  501    0  0.00000000000E+00  0.00000000000E+00 -0.34092329760E+04  0.34092329760E+04  0.25500000920E-02 0. -1.
    10030    2    1    2    0    0  0.00000000000E+00  0.00000000000E+00 -0.26375493304E+04  0.41809166217E+04  0.32439786262E+04 0.  0.
        4    1    3    3  502    0  0.88769123691E+03 -0.57552450425E+03  0.26580962016E+03  0.10908164622E+04  0.12699999809E+01 0.  1.
       -4    1    3    3    0  502 -0.88769123691E+03  0.57552450425E+03 -0.29033589506E+04  0.30901001595E+04  0.12699999809E+01 0. -1.
</event>
<event>
 5   0  0.1480547E-05  0.2170132E+04  0.7818609E-02  0.8530964E-01
        2   -1    0    0  501    0  0.00000000000E+00  0.00000000000E+00  0.10586907738E+04  0.10586907738E+04  0.25500000920E-02 0. -1.
       -2   -1    0    0    0  501  0.00000000000E+00  0.00000000000E+00 -0.11120985047E+04  0.11120985047E+04  0.25500000920E-02 0.  1.
    10030    2    1    2    0    0  0.00000000000E+00  0.00000000000E+00 -0.53407730883E+02  0.21707892784E+04  0.21701321862E+04 0.  0.
        1    1    3    3  502    0  0.82865292686E+03  0.18080695950E+03 -0.70367432298E+03  0.11020500817E+04  0.50400001928E-02 0.  1.
       -1    1    3    3    0  502 -0.82865292686E+03 -0.18080695950E+03  0.65026659209E+03  0.10687391967E+04  0.50400001928E-02 0. -1.
</event>
<event>
 5   0  0.1345931E-05  0.2476610E+04  0.7818609E-02  0.8411366E-01
        2   -1    0    0  501    0  0.00000000000E+00  0.00000000000E+00  0.10089707017E+04  0.10089707017E+04  0.25500000920E-02 0. -1.
       -2   -1    0    0    0  501  0.00000000000E+00  0.00000000000E+00 -0.15197663592E+04  0.15197663592E+04  0.25500000920E-02 0.  1.
    10030    2    1    2    0    0  0.00000000000E+00  0.00000000000E+00 -0.51079565754E+03  0.25287370609E+04  0.24766103690E+04 0.  0.
        2    1    3    3  502    0  0.28253204408E+03 -0.23497955034E+03  0.95201415118E+03  0.10204757170E+04  0.25500000920E-02 0. -1.
       -2    1    3    3    0  502 -0.28253204408E+03  0.23497955034E+03 -0.14628098087E+04  0.15082613439E+04  0.25500000920E-02 0.  1.
</event>
<event>
 5   0  0.5522695E-06  0.2911813E+04  0.7818609E-02  0.8269372E-01
       -1   -1    0    0    0  501  0.00000000000E+00  0.00000000000E+00  0.33809370509E+04  0.33809370509E+04  0.50400001928E-02 0. -1.
        1   -1    0    0  501    0  0.00000000000E+00  0.00000000000E+00 -0.62694542283E+03  0.62694542285E+03  0.50400001928E-02 0.  1.
    10030    2    1    2    0    0  0.00000000000E+00  0.00000000000E+00  0.27539916280E+04  0.40078824737E+04  0.29118125001E+04 0.  0.
        3    1    3    3  502    0  0.37248008682E+02 -0.13762144950E+04  0.20288870790E+04  0.24518842836E+04  0.10100000352E+00 0. -1.
       -3    1    3    3    0  502 -0.37248008682E+02  0.13762144950E+04  0.72510454906E+03  0.15559981902E+04  0.10100000352E+00 0.  1.
</event>
<event>
 5   0  0.5730920E-06  0.2891962E+04  0.7818609E-02  0.8275273E-01
       -1   -1    0    0    0  501  0.00000000000E+00  0.00000000000E+00  0.13836865474E+04  0.13836865474E+04  0.50400001928E-02 0. -1.
        1   -1    0    0  501    0  0.00000000000E+00  0.00000000000E+00 -0.15110799182E+04  0.15110799182E+04  0.50400001928E-02 0.  1.
    10030    2    1    2    0    0  0.00000000000E+00  0.00000000000E+00 -0.12739337080E+03  0.28947664657E+04  0.28919619327E+04 0.  0.
        1    1    3    3  502    0 -0.83212226410E+03  0.88143016911E+02 -0.12441046036E+04  0.14993308236E+04  0.50400001928E-02 0.  1.
       -1    1    3    3    0  502  0.83212226410E+03 -0.88143016911E+02  0.11167112328E+04  0.13954356421E+04  0.50400001928E-02 0. -1.
</event>
<event>
 5   0  0.5392262E-06  0.2150767E+04  0.7818609E-02  0.8539204E-01
       -1   -1    0    0    0  501  0.00000000000E+00  0.00000000000E+00  0.14525658403E+04  0.14525658403E+04  0.50400001928E-02 0. -1.
        1   -1    0    0  501    0  0.00000000000E+00  0.00000000000E+00 -0.79614302371E+03  0.79614302373E+03  0.50400001928E-02 0.  1.
    10030    2    1    2    0    0  0.00000000000E+00  0.00000000000E+00  0.65642281658E+03  0.22487088640E+04  0.21507674540E+04 0.  0.
        2    1    3    3  502    0 -0.33417514918E+03  0.89909203100E+03 -0.18015084274E+03  0.97595790723E+03  0.25500000920E-02 0.  1.
       -2    1    3    3    0  502  0.33417514918E+03 -0.89909203100E+03  0.83657365933E+03  0.12727509568E+04  0.25500000920E-02 0. -1.
</event>
<event>
 5   0  0.1345931E-05  0.2313968E+04  0.7818609E-02  0.8472434E-01
       -2   -1    0    0    0  501  0.00000000000E+00  0.00000000000E+00  0.77677671317E+03  0.77677671317E+03  0.25500000920E-02 0. -1.
        2   -1    0    0  501    0  0.00000000000E+00  0.00000000000E+00 -0.17232912934E+04  0.17232912934E+04  0.25500000920E-02 0.  1.
    10030    2    1    2    0    0  0.00000000000E+00  0.00000000000E+00 -0.94651458021E+03  0.25000680065E+04  0.23139684930E+04 0.  0.
        2    1    3    3  502    0  0.93740174984E+03  0.60403172710E+03 -0.14018472323E+03  0.11239342172E+04  0.25500000920E-02 0. -1.
       -2    1    3    3    0  502 -0.93740174984E+03 -0.60403172710E+03 -0.80632985698E+03  0.13761337894E+04  0.25500000920E-02 0.  1.
</event>
<event>
 5   0  0.1523029E-05  0.2938287E+04  0.7818609E-02  0.8261576E-01
       -2   -1    0    0    0  501  0.00000000000E+00  0.00000000000E+00  0.13219805946E+04  0.13219805946E+04  0.25500000920E-02 0. -1.
        2   -1    0    0  501    0  0.00000000000E+00  0.00000000000E+00 -0.16326881334E+04  0.16326881335E+04  0.25500000920E-02 0.  1.
    10030    2    1    2    0    0  0.00000000000E+00  0.00000000000E+00 -0.31070753890E+03  0.29546687280E+04  0.29382865955E+04 0.  0.
        5    1    3    3  502    0  0.67495100999E+03  0.16893694131E+03 -0.14565004916E+04  0.16141605645E+04  0.46999998093E+01 0.  1.
       -5    1    3    3    0  502 -0.67495100999E+03 -0.16893694131E+03  0.11457929527E+04  0.13405081635E+04  0.46999998093E+01 0. -1.
</event>
<event>
 5   0  0.5730920E-06  0.2943764E+04  0.7818609E-02  0.8259974E-01
       -1   -1    0    0    0  501  0.00000000000E+00  0.00000000000E+00  0.11710650496E+04  0.11710650496E+04  0.50400001928E-02 0.  1.
        1   -1    0    0  501    0  0.00000000000E+00  0.00000000000E+00 -0.18499707624E+04  0.18499707624E+04  0.50400001928E-02 0. -1.
    10030    2    1    2    0    0  0.00000000000E+00  0.00000000000E+00 -0.67890571274E+03  0.30210358120E+04  0.29437636472E+04 0.  0.
        1    1    3    3  502    0 -0.29120828985E+02 -0.56349063738E+03 -0.17345733523E+04  0.18240379480E+04  0.50400001928E-02 0. -1.
       -1    1    3    3    0  502  0.29120828985E+02  0.56349063738E+03  0.10556676396E+04  0.11969978640E+04  0.50400001928E-02 0.  1.
</event>
<event>
 5   0  0.1388724E-05  0.3032459E+04  0.7818609E-02  0.8234522E-01
        2   -1    0    0  501    0  0.00000000000E+00  0.00000000000E+00  0.22470422879E+04  0.22470422879E+04  0.25500000920E-02 0.  1.
       -2   -1    0    0    0  501  0.00000000000E+00  0.00000000000E+00 -0.10231012401E+04  0.10231012401E+04  0.25500000920E-02 0. -1.
    10030    2    1    2    0    0  0.00000000000E+00  0.00000000000E+00  0.12239410478E+04  0.32701435280E+04  0.30324589041E+04 0.  0.
        4    1    3    3  502    0  0.12042656077E+04  0.74586057848E+03  0.11950805856E+04  0.18533167229E+04  0.12699999809E+01 0.  1.
       -4    1    3    3    0  502 -0.12042656077E+04 -0.74586057848E+03  0.28860462239E+02  0.14168268051E+04  0.12699999809E+01 0. -1.
</event>
<event>
 5   0  0.5730920E-06  0.3006487E+04  0.7818609E-02  0.8241881E-01
       -1   -1    0    0    0  501  0.00000000000E+00  0.00000000000E+00  0.20472674285E+04  0.20472674285E+04  0.50400001928E-02 0. -1.
        1   -1    0    0  501    0  0.00000000000E+00  0.00000000000E+00 -0.11037837895E+04  0.11037837895E+04  0.50400001928E-02 0.  1.
    10030    2    1    2    0    0  0.00000000000E+00  0.00000000000E+00  0.94348363898E+03  0.31510512180E+04  0.30064867207E+04 0.  0.
        1    1    3    3  502    0 -0.46329255525E+03 -0.18887008835E+03  0.19574464354E+04  0.20203733441E+04  0.50400001928E-02 0. -1.
       -1    1    3    3    0  502  0.46329255525E+03  0.18887008835E+03 -0.10139627964E+04  0.11306778739E+04  0.50400001928E-02 0.  1.
</event>
<event>
 5   0  0.1523029E-05  0.3008149E+04  0.7818609E-02  0.8241408E-01
        2   -1    0    0  501    0  0.00000000000E+00  0.00000000000E+00  0.17408286276E+04  0.17408286276E+04  0.25500000920E-02 0. -1.
       -2   -1    0    0    0  501  0.00000000000E+00  0.00000000000E+00 -0.12995195449E+04  0.12995195449E+04  0.25500000920E-02 0.  1.
    10030    2    1    2    0    0  0.00000000000E+00  0.00000000000E+00  0.44130908264E+03  0.30403481725E+04  0.30081494816E+04 0.  0.
        5    1    3    3  502    0 -0.43758580480E+03  0.14961096372E+03  0.16671810938E+04  0.17301386264E+04  0.46999998093E+01 0. -1.
       -5    1    3    3    0  502  0.43758580480E+03 -0.14961096372E+03 -0.12258720111E+04  0.13102095461E+04  0.46999998093E+01 0.  1.
</event>
<event>
 5   0  0.1388724E-05  0.3120401E+04  0.7818609E-02  0.8210161E-01
        2   -1    0    0  501    0  0.00000000000E+00  0.00000000000E+00  0.11793716568E+04  0.11793716568E+04  0.25500000920E-02 0.  1.
       -2   -1    0    0    0  501  0.00000000000E+00  0.00000000000E+00 -0.20640025296E+04  0.20640025296E+04  0.25500000920E-02 0. -1.
    10030    2    1    2    0    0  0.00000000000E+00  0.00000000000E+00 -0.88463087282E+03  0.32433741864E+04  0.31204013094E+04 0.  0.
        4    1    3    3  502    0 -0.10873524952E+04  0.40786417496E+03  0.64063526515E+03  0.13263121012E+04  0.12699999809E+01 0.  1.
       -4    1    3    3    0  502  0.10873524952E+04 -0.40786417496E+03 -0.15252661380E+04  0.19170620852E+04  0.12699999809E+01 0. -1.
</event>
<event>
 5   0  0.1523029E-05  0.3044075E+04  0.7818609E-02  0.8231256E-01
       -2   -1    0    0    0  501  0.00000000000E+00  0.00000000000E+00  0.93181439826E+03  0.93181439826E+03  0.25500000920E-02 0. -1.
        2   -1    0    0  501    0  0.00000000000E+00  0.00000000000E+00 -0.24861159157E+04  0.24861159157E+04  0.25500000920E-02 0.  1.
    10030    2    1    2    0    0  0.00000000000E+00  0.00000000000E+00 -0.15543015174E+04  0.34179303139E+04  0.30440752987E+04 0.  0.
        5    1    3    3  502    0  0.45521996585E+03  0.75525352870E+03  0.61574667260E+03  0.10755459845E+04  0.46999998093E+01 0. -1.
       -5    1    3    3    0  502 -0.45521996585E+03 -0.75525352870E+03 -0.21700481900E+04  0.23423843295E+04  0.46999998093E+01 0.  1.
</event>
<event>
 5   0  0.1523029E-05  0.2922790E+04  0.7818609E-02  0.8266129E-01
        2   -1    0    0  501    0  0.00000000000E+00  0.00000000000E+00  0.16572891254E+04  0.16572891254E+04  0.25500000920E-02 0. -1.
       -2   -1    0    0    0  501  0.00000000000E+00  0.00000000000E+00 -0.12886555469E+04  0.12886555469E+04  0.25500000920E-02 0.  1.
    10030    2    1    2    0    0  0.00000000000E+00  0.00000000000E+00  0.36863357853E+03  0.29459446722E+04  0.29227896429E+04 0.  0.
        5    1    3    3  502    0 -0.12024350994E+04  0.77207322372E+03 -0.12422186071E+03  0.14343641071E+04  0.46999998093E+01 0.  1.
       -5    1    3    3    0  502  0.12024350994E+04 -0.77207322372E+03  0.49285543924E+03  0.15115805652E+04  0.46999998093E+01 0. -1.
</event>
<event>
 5   0  0.4806125E-06  0.1546816E+04  0.7818609E-02  0.8853904E-01
        4   -1    0    0  501    0  0.00000000000E+00  0.00000000000E+00  0.56607841332E+03  0.56607983794E+03  0.12699999809E+01 0. -1.
       -4   -1    0    0    0  501  0.00000000000E+00  0.00000000000E+00 -0.10566706079E+04  0.10566713711E+04  0.12699999809E+01 0.  1.
    10030    2    1    2    0    0  0.00000000000E+00  0.00000000000E+00 -0.49059219457E+03  0.16227512090E+04  0.15468163385E+04 0.  0.
        5    1    3    3  502    0 -0.55780565456E+03  0.41997589959E+03  0.10361336386E+03  0.70589285565E+03  0.46999998093E+01 0. -1.
       -5    1    3    3    0  502  0.55780565456E+03 -0.41997589959E+03 -0.59420555843E+03  0.91685835338E+03  0.46999998093E+01 0.  1.
</event>
<event>
 5   0  0.1480547E-05  0.3031198E+04  0.7818609E-02  0.8234878E-01
       -2   -1    0    0    0  501  0.00000000000E+00  0.00000000000E+00  0.17892757845E+04  0.17892757845E+04  0.25500000920E-02 0.  1.
        2   -1    0    0  501    0  0.00000000000E+00  0.00000000000E+00 -0.12837825575E+04  0.12837825576E+04  0.25500000920E-02 0. -1.
    10030    2    1    2    0    0  0.00000000000E+00  0.00000000000E+00  0.50549322694E+03  0.30730583420E+04  0.30311984711E+04 0.  0.
        1    1    3    3  502    0  0.28784494004E+03 -0.13962825575E+04  0.77422468233E+03  0.16223080930E+04  0.50400001928E-02 0.  1.
       -1    1    3    3    0  502 -0.28784494004E+03  0.13962825575E+04 -0.26873145540E+03  0.14507502490E+04  0.50400001928E-02 0. -1.
</event>
<event>
 5   0  0.5392262E-06  0.2987462E+04  0.7818609E-02  0.8247320E-01
       -1   -1    0    0    0  501  0.00000000000E+00  0.00000000000E+00  0.17691060473E+04  0.17691060473E+04  0.50400001928E-02 0. -1.
        1   -1    0    0  501    0  0.00000000000E+00  0.00000000000E+00 -0.12612200689E+04  0.12612200689E+04  0.50400001928E-02 0.  1.
    10030    2    1    2    0    0  0.00000000000E+00  0.00000000000E+00  0.50788597845E+03  0.30303261162E+04  0.29874618330E+04 0.  0.
        2    1    3    3  502    0 -0.51024940107E+03  0.58014106186E+03  0.15506884808E+04  0.17324990238E+04  0.25500000920E-02 0. -1.
       -2    1    3    3    0  502  0.51024940107E+03 -0.58014106186E+03 -0.10428025023E+04  0.12978270924E+04  0.25500000920E-02 0.  1.
</event>
<event>
 5   0  0.1388724E-05  0.3005622E+04  0.7818609E-02  0.8242127E-01
        2   -1    0    0  501    0  0.00000000000E+00  0.00000000000E+00  0.16920850282E+04  0.16920850282E+04  0.25500000920E-02 0. -1.
       -2   -1    0    0    0  501  0.00000000000E+00  0.00000000000E+00 -0.13347092385E+04  0.13347092385E+04  0.25500000920E-02 0.  1.
    10030    2    1    2    0    0  0.00000000000E+00  0.00000000000E+00  0.35737578971E+03  0.30267942667E+04  0.30056224111E+04 0.  0.
        4    1    3    3  502    0  0.14110090236E+04 -0.46243329472E+03  0.41194176148E+03  0.15409375862E+04  0.12699999809E+01 0. -1.
       -4    1    3    3    0  502 -0.14110090236E+04  0.46243329472E+03 -0.54565971775E+02  0.14858566805E+04  0.12699999809E+01 0.  1.
</event>
<event>
 5   0  0.5522695E-06  0.2457937E+04  0.7818609E-02  0.8418126E-01
       -1   -1    0    0    0  501  0.00000000000E+00  0.00000000000E+00  0.56150153793E+03  0.56150153795E+03  0.50400001928E-02 0.  1.
        1   -1    0    0  501    0  0.00000000000E+00  0.00000000000E+00 -0.26898644153E+04  0.26898644154E+04  0.50400001928E-02 0. -1.
    10030    2    1    2    0    0  0.00000000000E+00  0.00000000000E+00 -0.21283628774E+04  0.32513659533E+04  0.24579365379E+04 0.  0.
        3    1    3    3  502    0 -0.82905939250E+03 -0.77045063478E+03 -0.43057487866E+03  0.12109204735E+04  0.10100000352E+00 0.  1.
       -3    1    3    3    0  502  0.82905939250E+03  0.77045063478E+03 -0.16977879988E+04  0.20404454798E+04  0.10100000352E+00 0. -1.
</event>
<event>
 5   0  0.1423692E-05  0.2784709E+04  0.7818609E-02  0.8308031E-01
       -2   -1    0    0    0  501  0.00000000000E+00  0.00000000000E+00  0.19594540836E+04  0.19594540836E+04  0.25500000920E-02 0. -1.
        2   -1    0    0  501    0  0.00000000000E+00  0.00000000000E+00 -0.98938350993E+03  0.98938350993E+03  0.25500000920E-02 0.  1.
    10030    2    1    2    0    0  0.00000000000E+00  0.00000000000E+00  0.97007057363E+03  0.29488375935E+04  0.27847093627E+04 0.  0.
        3    1    3    3  502    0 -0.60553119255E+03 -0.52519292740E+03  0.16906251901E+04  0.18710182201E+04  0.10100000352E+00 0. -1.
       -3    1    3    3    0  502  0.60553119255E+03  0.52519292740E+03 -0.72055461650E+03  0.10778193734E+04  0.10100000352E+00 0.  1.
</event>
<event>
 5   0  0.5329891E-06  0.2950374E+04  0.7818609E-02  0.8258045E-01
       -1   -1    0    0    0  501  0.00000000000E+00  0.00000000000E+00  0.12751710156E+04  0.12751710157E+04  0.50400001928E-02 0.  1.
        1   -1    0    0  501    0  0.00000000000E+00  0.00000000000E+00 -0.17065767157E+04  0.17065767157E+04  0.50400001928E-02 0. -1.
    10030    2    1    2    0    0  0.00000000000E+00  0.00000000000E+00 -0.43140570005E+03  0.29817477314E+04  0.29503743246E+04 0.  0.
        4    1    3    3  502    0 -0.76699251080E+03  0.12475310881E+04 -0.39525529914E+03  0.15168519017E+04  0.12699999809E+01 0.  1.
       -4    1    3    3    0  502  0.76699251080E+03 -0.12475310881E+04 -0.36150400914E+02  0.14648958296E+04  0.12699999809E+01 0. -1.
</event>
<event>
 5   0  0.1480547E-05  0.2944394E+04  0.7818609E-02  0.8259790E-01
       -2   -1    0    0    0  501  0.00000000000E+00  0.00000000000E+00  0.12153930257E+04  0.12153930257E+04  0.25500000920E-02 0. -1.
        2   -1    0    0  501    0  0.00000000000E+00  0.00000000000E+00 -0.17832621120E+04  0.17832621120E+04  0.25500000920E-02 0.  1.
    10030    2    1    2    0    0  0.00000000000E+00  0.00000000000E+00 -0.56786908637E+03  0.29986551377E+04  0.29443942222E+04 0.  0.
        1    1    3    3  502    0  0.84500850102E+03  0.54843903535E+02 -0.15104190070E+04  0.17315925610E+04  0.50400001928E-02 0.  1.
       -1    1    3    3    0  502 -0.84500850102E+03 -0.54843903535E+02  0.94254992059E+03  0.12670625767E+04  0.50400001928E-02 0. -1.
</event>
<event>
 5   0  0.7032692E-06  0.2964941E+04  0.7818609E-02  0.8253814E-01
       -1   -1    0    0    0  501  0.00000000000E+00  0.00000000000E+00  0.11728193007E+04  0.11728193007E+04  0.50400001928E-02 0.  1.
        1   -1    0    0  501    0  0.00000000000E+00  0.00000000000E+00 -0.18738772020E+04  0.18738772020E+04  0.50400001928E-02 0. -1.
    10030    2    1    2    0    0  0.00000000000E+00  0.00000000000E+00 -0.70105790134E+03  0.30466965027E+04  0.29649413820E+04 0.  0.
        5    1    3    3  502    0  0.14469884433E+04  0.13746404565E+03 -0.50897585241E+02  0.14544017921E+04  0.46999998093E+01 0.  1.
       -5    1    3    3    0  502 -0.14469884433E+04 -0.13746404565E+03 -0.65016031610E+03  0.15922947106E+04  0.46999998093E+01 0. -1.
</event>
<event>
 5   0  0.5329891E-06  0.2991692E+04  0.7818609E-02  0.8246107E-01
        1   -1    0    0  501    0  0.00000000000E+00  0.00000000000E+00  0.18921045120E+04  0.18921045120E+04  0.50400001928E-02 0. -1.
       -1   -1    0    0    0  501  0.00000000000E+00  0.00000000000E+00 -0.11825751519E+04  0.11825751519E+04  0.50400001928E-02 0.  1.
    10030    2    1    2    0    0  0.00000000000E+00  0.00000000000E+00  0.70952936014E+03  0.30746796639E+04  0.29916923509E+04 0.  0.
        4    1    3    3  502    0  0.10488456563E+03 -0.53748579763E+03 -0.10758477751E+04  0.12072041265E+04  0.12699999809E+01 0.  1.
       -4    1    3    3    0  502 -0.10488456563E+03  0.53748579763E+03  0.17853771353E+04  0.18674755374E+04  0.12699999809E+01 0. -1.
</event>
<event>
 5   0  0.1423692E-05  0.2952800E+04  0.7818609E-02  0.8257339E-01
        2   -1    0    0  501    0  0.00000000000E+00  0.00000000000E+00  0.24029280120E+04  0.24029280120E+04  0.25500000920E-02 0. -1.
       -2   -1    0    0    0  501  0.00000000000E+00  0.00000000000E+00 -0.90712550968E+03  0.90712550968E+03  0.25500000920E-02 0.  1.
    10030    2    1    2    0    0  0.00000000000E+00  0.00000000000E+00  0.14958025023E+04  0.33100535217E+04  0.29528002287E+04 0.  0.
        3    1    3    3  502    0  0.18771633026E+03 -0.91020794922E+03 -0.53808320365E+03  0.10738945366E+04  0.10100000352E+00 0.  1.
       -3    1    3    3    0  502 -0.18771633026E+03  0.91020794922E+03  0.20338857060E+04  0.22361589851E+04  0.10100000352E+00 0. -1.
</event>
<event>
 5   0  0.4806125E-06  0.2931900E+04  0.7818609E-02  0.8263449E-01
       -3   -1    0    0    0  501  0.00000000000E+00  0.00000000000E+00  0.25652868869E+04  0.25652868888E+04  0.10100000352E+00 0.  1.
        3   -1    0    0  501    0  0.00000000000E+00  0.00000000000E+00 -0.83772673645E+03  0.83772674253E+03  0.10100000352E+00 0. -1.
    10030    2    1    2    0    0  0.00000000000E+00  0.00000000000E+00  0.17275601504E+04  0.34030136314E+04  0.29319000157E+04 0.  0.
        2    1    3    3  502    0  0.53463339104E+02  0.81486604881E+03 -0.54927729470E+03  0.98415982067E+03  0.25500000920E-02 0. -1.
       -2    1    3    3    0  502 -0.53463339104E+02 -0.81486604881E+03  0.22768374451E+04  0.24188538107E+04  0.25500000920E-02 0.  1.
</event>
<event>
 5   0  0.5522695E-06  0.2924384E+04  0.7818609E-02  0.8265659E-01
       -1   -1    0    0    0  501  0.00000000000E+00  0.00000000000E+00  0.22689156757E+04  0.22689156757E+04  0.50400001928E-02 0. -1.
        1   -1    0    0  501    0  0.00000000000E+00  0.00000000000E+00 -0.94230302326E+03  0.94230302328E+03  0.50400001928E-02 0.  1.
    10030    2    1    2    0    0  0.00000000000E+00  0.00000000000E+00  0.13266126524E+04  0.32112186990E+04  0.29243844486E+04 0.  0.
        3    1    3    3  502    0  0.11755142216E+04 -0.59059424819E+03  0.13641648947E+04  0.18951467282E+04  0.10100000352E+00 0. -1.
       -3    1    3    3    0  502 -0.11755142216E+04  0.59059424819E+03 -0.37552242289E+02  0.13160719708E+04  0.10100000352E+00 0.  1.
</event>
<event>
 5   0  0.5392262E-06  0.3077465E+04  0.7818609E-02  0.8221950E-01
        1   -1    0    0  501    0  0.00000000000E+00  0.00000000000E+00  0.19071136669E+04  0.19071136669E+04  0.50400001928E-02 0.  1.
       -1   -1    0    0    0  501  0.00000000000E+00  0.00000000000E+00 -0.12415081215E+04  0.12415081215E+04  0.50400001928E-02 0. -1.
    10030    2    1    2    0    0  0.00000000000E+00  0.00000000000E+00  0.66560554541E+03  0.31486217884E+04  0.30774646097E+04 0.  0.
        2    1    3    3  502    0  0.57228694150E+03 -0.71293158946E+03 -0.93352031219E+03  0.13066154629E+04  0.25500000920E-02 0. -1.
       -2    1    3    3    0  502 -0.57228694150E+03  0.71293158946E+03  0.15991258576E+04  0.18420063255E+04  0.25500000920E-02 0.  1.
</event>
<event>
 5   0  0.1345931E-05  0.3341994E+04  0.7818609E-02  0.8152292E-01
        2   -1    0    0  501    0  0.00000000000E+00  0.00000000000E+00  0.23209780174E+04  0.23209780174E+04  0.25500000920E-02 0.  1.
       -2   -1    0    0    0  501  0.00000000000E+00  0.00000000000E+00 -0.12030405803E+04  0.12030405803E+04  0.25500000920E-02 0. -1.
    10030    2    1    2    0    0  0.00000000000E+00  0.00000000000E+00  0.11179374371E+04  0.35240185977E+04  0.33419938605E+04 0.  0.
        2    1    3    3  502    0 -0.21492813976E+03 -0.68003952899E+03  0.21524278625E+04  0.22675082292E+04  0.25500000920E-02 0.  1.
       -2    1    3    3    0  502  0.21492813976E+03  0.68003952899E+03 -0.10344904253E+04  0.12565103686E+04  0.25500000920E-02 0. -1.
</event>
<event>
 5   0  0.5392262E-06  0.3015971E+04  0.7818609E-02  0.8239185E-01
        1   -1    0    0  501    0  0.00000000000E+00  0.00000000000E+00  0.12477681167E+04  0.12477681167E+04  0.50400001928E-02 0. -1.
       -1   -1    0    0    0  501  0.00000000000E+00  0.00000000000E+00 -0.18224701753E+04  0.18224701753E+04  0.50400001928E-02 0.  1.
    10030    2    1    2    0    0  0.00000000000E+00  0.00000000000E+00 -0.57470205865E+03  0.30702382920E+04  0.30159709404E+04 0.  0.
        2    1    3    3  502    0  0.12080232623E+04 -0.89571601844E+03 -0.40067700882E+03  0.15563320512E+04  0.25500000920E-02 0. -1.
       -2    1    3    3    0  502 -0.12080232623E+04  0.89571601844E+03 -0.17402504982E+03  0.15139062408E+04  0.25500000920E-02 0.  1.
</event>
<event>
 5   0  0.5392262E-06  0.3295540E+04  0.7818609E-02  0.8164031E-01
       -1   -1    0    0    0  501  0.00000000000E+00  0.00000000000E+00  0.13208627859E+04  0.13208627859E+04  0.50400001928E-02 0.  1.
        1   -1    0    0  501    0  0.00000000000E+00  0.00000000000E+00 -0.20555854624E+04  0.20555854624E+04  0.50400001928E-02 0. -1.
    10030    2    1    2    0    0  0.00000000000E+00  0.00000000000E+00 -0.73472267649E+03  0.33764482482E+04  0.32955402230E+04 0.  0.
        2    1    3    3  502    0 -0.38094851280E+03 -0.17252258778E+03 -0.20003102994E+04  0.20435574635E+04  0.25500000920E-02 0. -1.
       -2    1    3    3    0  502  0.38094851280E+03  0.17252258778E+03  0.12655876229E+04  0.13328907847E+04  0.25500000920E-02 0.  1.
</event>
<event>
 5   0  0.5522695E-06  0.3105197E+04  0.7818609E-02  0.8214313E-01
        1   -1    0    0  501    0  0.00000000000E+00  0.00000000000E+00  0.13082647150E+04  0.13082647151E+04  0.50400001928E-02 0. -1.
       -1   -1    0    0    0  501  0.00000000000E+00  0.00000000000E+00 -0.18425644678E+04  0.18425644678E+04  0.50400001928E-02 0.  1.
    10030    2    1    2    0    0  0.00000000000E+00  0.00000000000E+00 -0.53429975276E+03  0.31508291829E+04  0.31051969847E+04 0.  0.
        3    1    3    3  502    0 -0.83821445091E+03 -0.41209278104E+01 -0.15932374774E+04  0.18002850101E+04  0.10100000352E+00 0.  1.
       -3    1    3    3    0  502  0.83821445091E+03  0.41209278104E+01  0.10589377247E+04  0.13505441728E+04  0.10100000352E+00 0. -1.
</event>
<event>
 5   0  0.1480547E-05  0.2766489E+04  0.7818609E-02  0.8313748E-01
       -2   -1    0    0    0  501  0.00000000000E+00  0.00000000000E+00  0.19857031520E+04  0.19857031520E+04  0.25500000920E-02 0.  1.
        2   -1    0    0  501    0  0.00000000000E+00  0.00000000000E+00 -0.96357050024E+03  0.96357050025E+03  0.25500000920E-02 0. -1.
    10030    2    1    2    0    0  0.00000000000E+00  0.00000000000E+00  0.10221326517E+04  0.29492736522E+04  0.27664887345E+04 0.  0.
        1    1    3    3  502    0  0.93029849228E+03  0.15001162082E+03  0.15905948852E+04  0.18487700939E+04  0.50400001928E-02 0.  1.
       -1    1    3    3    0  502 -0.93029849228E+03 -0.15001162082E+03 -0.56846223345E+03  0.11005035584E+04  0.50400001928E-02 0. -1.
</event>
<event>
 5   0  0.1388724E-05  0.2939082E+04  0.7818609E-02  0.8261344E-01
        2   -1    0    0  501    0  0.00000000000E+00  0.00000000000E+00  0.22882009940E+04  0.22882009940E+04  0.25500000920E-02 0. -1.
       -2   -1    0    0    0  501  0.00000000000E+00  0.00000000000E+00 -0.94377661397E+03  0.94377661397E+03  0.25500000920E-02 0.  1.
    10030    2    1    2    0    0  0.00000000000E+00  0.00000000000E+00  0.13444243800E+04  0.32319776079E+04  0.29390818881E+04 0.  0.
        4    1    3    3  502    0  0.12098920132E+04 -0.73878693296E+03  0.24645352487E+03  0.14388835146E+04  0.12699999809E+01 0. -1.
       -4    1    3    3    0  502 -0.12098920132E+04  0.73878693296E+03  0.10979708551E+04  0.17930940933E+04  0.12699999809E+01 0.  1.
</event>
<event>
 5   0  0.5730920E-06  0.3158205E+04  0.7818609E-02  0.8199943E-01
       -1   -1    0    0    0  501  0.00000000000E+00  0.00000000000E+00  0.17092982758E+04  0.17092982758E+04  0.50400001928E-02 0. -1.
        1   -1    0    0  501    0  0.00000000000E+00  0.00000000000E+00 -0.14588232577E+04  0.14588232577E+04  0.50400001928E-02 0.  1.
    10030    2    1    2    0    0  0.00000000000E+00  0.00000000000E+00  0.25047501815E+03  0.31681215335E+04  0.31582046033E+04 0.  0.
        1    1    3    3  502    0 -0.57335688586E+03 -0.83130329190E+03  0.13430349893E+04  0.16803411155E+04  0.50400001928E-02 0. -1.
       -1    1    3    3    0  502  0.57335688586E+03  0.83130329190E+03 -0.10925599712E+04  0.14877804181E+04  0.50400001928E-02 0.  1.
</event>
<event>
 5   0  0.1480547E-05  0.2813578E+04  0.7818609E-02  0.8299065E-01
        2   -1    0    0  501    0  0.00000000000E+00  0.00000000000E+00  0.10456105467E+04  0.10456105467E+04  0.25500000920E-02 0.  1.
       -2   -1    0    0    0  501  0.00000000000E+00  0.00000000000E+00 -0.18927263443E+04  0.18927263443E+04  0.25500000920E-02 0. -1.
    10030    2    1    2    0    0  0.00000000000E+00  0.00000000000E+00 -0.84711579758E+03  0.29383368911E+04  0.28135775289E+04 0.  0.
        1    1    3    3  502    0 -0.13078526134E+04 -0.30074765151E+03 -0.86432340663E+03  0.15962401322E+04  0.50400001928E-02 0. -1.
       -1    1    3    3    0  502  0.13078526134E+04  0.30074765151E+03  0.17207609048E+02  0.13420967589E+04  0.50400001928E-02 0.  1.
</event>
<event>
 5   0  0.1388724E-05  0.2961885E+04  0.7818609E-02  0.8254699E-01
        2   -1    0    0  501    0  0.00000000000E+00  0.00000000000E+00  0.16345069120E+04  0.16345069120E+04  0.25500000920E-02 0.  1.
       -2   -1    0    0    0  501  0.00000000000E+00  0.00000000000E+00 -0.13418055255E+04  0.13418055255E+04  0.25500000920E-02 0. -1.
    10030    2    1    2    0    0  0.00000000000E+00  0.00000000000E+00  0.29270138653E+03  0.29763124375E+04  0.29618848094E+04 0.  0.
        4    1    3    3  502    0  0.88022757560E+03 -0.67229021024E+03  0.11342029118E+04  0.15853051976E+04  0.12699999809E+01 0.  1.
       -4    1    3    3    0  502 -0.88022757560E+03  0.67229021024E+03 -0.84150152522E+03  0.13910072399E+04  0.12699999809E+01 0. -1.
</event>
<event>
 5   0  0.1523029E-05  0.2942325E+04  0.7818609E-02  0.8260395E-01
        2   -1    0    0  501    0  0.00000000000E+00  0.00000000000E+00  0.13538164145E+04  0.13538164145E+04  0.25500000920E-02 0.  1.
       -2   -1    0    0    0  501  0.00000000000E+00  0.00000000000E+00 -0.15986802816E+04  0.15986802816E+04  0.25500000920E-02 0. -1.
    10030    2    1    2    0    0  0.00000000000E+00  0.00000000000E+00 -0.24486386704E+03  0.29524966961E+04  0.29423253435E+04 0.  0.
        5    1    3    3  502    0 -0.85233371384E+03  0.11260428938E+04 -0.53598787331E+03  0.15105464073E+04  0.46999998093E+01 0. -1.
       -5    1    3    3    0  502  0.85233371384E+03 -0.11260428938E+04  0.29112400627E+03  0.14419502888E+04  0.46999998093E+01 0.  1.
</event>
<event>
 5   0  0.1480547E-05  0.2921220E+04  0.7818609E-02  0.8266592E-01
       -2   -1    0    0    0  501  0.00000000000E+00  0.00000000000E+00  0.10731944992E+04  0.10731944992E+04  0.25500000920E-02 0. -1.
        2   -1    0    0  501    0  0.00000000000E+00  0.00000000000E+00 -0.19878796337E+04  0.19878796337E+04  0.25500000920E-02 0.  1.
    10030    2    1    2    0    0  0.00000000000E+00  0.00000000000E+00 -0.91468513453E+03  0.30610741329E+04  0.29212199424E+04 0.  0.
        1    1    3    3  502    0  0.76589144507E+02  0.11101004195E+04 -0.14487857809E+04  0.18267920181E+04  0.50400001928E-02 0.  1.
       -1    1    3    3    0  502 -0.76589144507E+02 -0.11101004195E+04  0.53410064633E+03  0.12342821148E+04  0.50400001928E-02 0. -1.
</event>
<event>
 5   0  0.1523029E-05  0.2447592E+04  0.7818609E-02  0.8421898E-01
        2   -1    0    0  501    0  0.00000000000E+00  0.00000000000E+00  0.94606538195E+03  0.94606538195E+03  0.25500000920E-02 0. -1.
       -2   -1    0    0    0  501  0.00000000000E+00  0.00000000000E+00 -0.15830588510E+04  0.15830588510E+04  0.25500000920E-02 0.  1.
    10030    2    1    2    0    0  0.00000000000E+00  0.00000000000E+00 -0.63699346908E+03  0.25291242330E+04  0.24475924306E+04 0.  0.
        5    1    3    3  502    0 -0.74995602059E+03 -0.39176371279E+03 -0.12321109593E+04  0.14946679716E+04  0.46999998093E+01 0.  1.
       -5    1    3    3    0  502  0.74995602059E+03  0.39176371279E+03  0.59511749020E+03  0.10344562613E+04  0.46999998093E+01 0. -1.
</event>
<event>
 5   0  0.1480547E-05  0.2958364E+04  0.7818609E-02  0.8255721E-01
       -2   -1    0    0    0  501  0.00000000000E+00  0.00000000000E+00  0.19921529232E+04  0.19921529232E+04  0.25500000920E-02 0.  1.
        2   -1    0    0  501    0  0.00000000000E+00  0.00000000000E+00 -0.10982989228E+04  0.10982989228E+04  0.25500000920E-02 0. -1.
    10030    2    1    2    0    0  0.00000000000E+00  0.00000000000E+00  0.89385400033E+03  0.30904518460E+04  0.29583640139E+04 0.  0.
        1    1    3    3  502    0 -0.43854251781E+03  0.84214754589E+02  0.19200552752E+04  0.19713000595E+04  0.50400001928E-02 0.  1.
       -1    1    3    3    0  502  0.43854251781E+03 -0.84214754589E+02 -0.10262012748E+04  0.11191517865E+04  0.50400001928E-02 0. -1.
</event>
<event>
 5   0  0.5329891E-06  0.2915353E+04  0.7818609E-02  0.8268324E-01
        1   -1    0    0  501    0  0.00000000000E+00  0.00000000000E+00  0.10415541815E+04  0.10415541815E+04  0.50400001928E-02 0. -1.
       -1   -1    0    0    0  501  0.00000000000E+00  0.00000000000E+00 -0.20400478716E+04  0.20400478716E+04  0.50400001928E-02 0.  1.
    10030    2    1    2    0    0  0.00000000000E+00  0.00000000000E+00 -0.99849369012E+03  0.30816020531E+04  0.29153527341E+04 0.  0.
        4    1    3    3  502    0  0.23607074878E+03  0.28083029711E+01 -0.20197042025E+04  0.20334561622E+04  0.12699999809E+01 0.  1.
       -4    1    3    3    0  502 -0.23607074878E+03 -0.28083029711E+01  0.10212105124E+04  0.10481458909E+04  0.12699999809E+01 0. -1.
</event>
<event>
 5   0  0.5522695E-06  0.3009677E+04  0.7818609E-02  0.8240973E-01
       -1   -1    0    0    0  501  0.00000000000E+00  0.00000000000E+00  0.14630693725E+04  0.14630693726E+04  0.50400001928E-02 0.  1.
        1   -1    0    0  501    0  0.00000000000E+00  0.00000000000E+00 -0.15478002658E+04  0.15478002658E+04  0.50400001928E-02 0. -1.
    10030    2    1    2    0    0  0.00000000000E+00  0.00000000000E+00 -0.84730893206E+02  0.30108696383E+04  0.30096771678E+04 0.  0.
        3    1    3    3  502    0  0.44971690708E+03  0.92721029051E+03 -0.11394197171E+04  0.15363077560E+04  0.10100000352E+00 0. -1.
       -3    1    3    3    0  502 -0.44971690708E+03 -0.92721029051E+03  0.10546888239E+04  0.14745618823E+04  0.10100000352E+00 0.  1.
</event>
<event>
 5   0  0.1480547E-05  0.3099272E+04  0.7818609E-02  0.8215938E-01
       -2   -1    0    0    0  501  0.00000000000E+00  0.00000000000E+00  0.10384678885E+04  0.10384678885E+04  0.25500000920E-02 0. -1.
        2   -1    0    0  501    0  0.00000000000E+00  0.00000000000E+00 -0.23124171599E+04  0.23124171599E+04  0.25500000920E-02 0.  1.
    10030    2    1    2    0    0  0.00000000000E+00  0.00000000000E+00 -0.12739492714E+04  0.33508850485E+04  0.30992715050E+04 0.  0.
        1    1    3    3  502    0  0.91425010435E+03  0.95363181600E+02 -0.19858251028E+04  0.21882524371E+04  0.50400001928E-02 0.  1.
       -1    1    3    3    0  502 -0.91425010435E+03 -0.95363181600E+02  0.71187583135E+03  0.11626326114E+04  0.50400001928E-02 0. -1.
</event>
<event>
 5   0  0.5392262E-06  0.3093799E+04  0.7818609E-02  0.8217442E-01
       -1   -1    0    0    0  501  0.00000000000E+00  0.00000000000E+00  0.94524174748E+03  0.94524174749E+03  0.50400001928E-02 0.  1.
        1   -1    0    0  501    0  0.00000000000E+00  0.00000000000E+00 -0.25315191917E+04  0.25315191917E+04  0.50400001928E-02 0. -1.
    10030    2    1    2    0    0  0.00000000000E+00  0.00000000000E+00 -0.15862774442E+04  0.34767609392E+04  0.30937987165E+04 0.  0.
        2    1    3    3  502    0  0.48605591922E+03  0.49714265473E+03 -0.23460341181E+04  0.24468913459E+04  0.25500000920E-02 0. -1.
       -2    1    3    3    0  502 -0.48605591922E+03 -0.49714265473E+03  0.75975667381E+03  0.10298695933E+04  0.25500000920E-02 0.  1.
</event>
<event>
 5   0  0.1345931E-05  0.3023595E+04  0.7818609E-02  0.8237025E-01
       -2   -1    0    0    0  501  0.00000000000E+00  0.00000000000E+00  0.17245143467E+04  0.17245143467E+04  0.25500000920E-02 0. -1.
        2   -1    0    0  501    0  0.00000000000E+00  0.00000000000E+00 -0.13253188076E+04  0.13253188077E+04  0.25500000920E-02 0.  1.
    10030    2    1    2    0    0  0.00000000000E+00  0.00000000000E+00  0.39919553902E+03  0.30498331543E+04  0.30235947465E+04 0.  0.
        2    1    3    3  502    0  0.63712588871E+03 -0.72475975513E+03 -0.97425594468E+03  0.13712697570E+04  0.25500000920E-02 0.  1.
       -2    1    3    3    0  502 -0.63712588871E+03  0.72475975513E+03  0.13734514837E+04  0.16785633973E+04  0.25500000920E-02 0. -1.
</event>
<event>
 5   0  0.5329891E-06  0.2967447E+04  0.7818609E-02  0.8253088E-01
        1   -1    0    0  501    0  0.00000000000E+00  0.00000000000E+00  0.96303466364E+03  0.96303466365E+03  0.50400001928E-02 0.  1.
       -1   -1    0    0    0  501  0.00000000000E+00  0.00000000000E+00 -0.22859364664E+04  0.22859364664E+04  0.50400001928E-02 0. -1.
    10030    2    1    2    0    0  0.00000000000E+00  0.00000000000E+00 -0.13229018028E+04  0.32489711301E+04  0.29674474257E+04 0.  0.
        4    1    3    3  502    0 -0.20447169187E+03  0.14695112713E+04 -0.67540326866E+03  0.16301666287E+04  0.12699999809E+01 0. -1.
       -4    1    3    3    0  502  0.20447169187E+03 -0.14695112713E+04 -0.64749853414E+03  0.16188045014E+04  0.12699999809E+01 0.  1.
</event>
<event>
 5   0  0.1523029E-05  0.3012330E+04  0.7818609E-02  0.8240219E-01
       -2   -1    0    0    0  501  0.00000000000E+00  0.00000000000E+00  0.13671120939E+04  0.13671120939E+04  0.25500000920E-02 0. -1.
        2   -1    0    0  501    0  0.00000000000E+00  0.00000000000E+00 -0.16593610009E+04  0.16593610009E+04  0.25500000920E-02 0.  1.
    10030    2    1    2    0    0  0.00000000000E+00  0.00000000000E+00 -0.29224890705E+03  0.30264730948E+04  0.30123296583E+04 0.  0.
        5    1    3    3  502    0 -0.44597229442E+03 -0.40381188217E+03  0.12411391679E+04  0.13792765668E+04  0.46999998093E+01 0. -1.
       -5    1    3    3    0  502  0.44597229442E+03  0.40381188217E+03 -0.15333880750E+04  0.16471965280E+04  0.46999998093E+01 0.  1.
</event>
<event>
 5   0  0.5329891E-06  0.1657963E+04  0.7818609E-02  0.8785709E-01
        1   -1    0    0  501    0  0.00000000000E+00  0.00000000000E+00  0.10290898556E+04  0.10290898556E+04  0.50400001928E-02 0. -1.
       -1   -1    0    0    0  501  0.00000000000E+00  0.00000000000E+00 -0.66778467673E+03  0.66778467675E+03  0.50400001928E-02 0.  1.
    10030    2    1    2    0    0  0.00000000000E+00  0.00000000000E+00  0.36130517883E+03  0.16968745323E+04  0.16579631317E+04 0.  0.
        4    1    3    3  502    0  0.91608390107E+02 -0.22139193722E+03  0.99287879327E+03  0.10213796542E+04  0.12699999809E+01 0. -1.
       -4    1    3    3    0  502 -0.91608390107E+02  0.22139193722E+03 -0.63157361444E+03  0.67549487811E+03  0.12699999809E+01 0.  1.
</event>
<event>
 5   0  0.1480547E-05  0.2873969E+04  0.7818609E-02  0.8280665E-01
        2   -1    0    0  501    0  0.00000000000E+00  0.00000000000E+00  0.17821173116E+04  0.17821173116E+04  0.25500000920E-02 0.  1.
       -2   -1    0    0    0  501  0.00000000000E+00  0.00000000000E+00 -0.11586920162E+04  0.11586920162E+04  0.25500000920E-02 0. -1.
    10030    2    1    2    0    0  0.00000000000E+00  0.00000000000E+00  0.62342529541E+03  0.29408093278E+04  0.28739694507E+04 0.  0.
        1    1    3    3  502    0  0.12481066102E+04  0.85050215209E+02  0.10352077676E+04  0.16237791634E+04  0.50400001928E-02 0.  1.
       -1    1    3    3    0  502 -0.12481066102E+04 -0.85050215209E+02 -0.41178247218E+03  0.13170301644E+04  0.50400001928E-02 0. -1.
</event>
<event>
 5   0  0.5392262E-06  0.2955786E+04  0.7818609E-02  0.8256470E-01
       -1   -1    0    0    0  501  0.00000000000E+00  0.00000000000E+00  0.10751301190E+04  0.10751301190E+04  0.50400001928E-02 0. -1.
        1   -1    0    0  501    0  0.00000000000E+00  0.00000000000E+00 -0.20315383022E+04  0.20315383022E+04  0.50400001928E-02 0.  1.
    10030    2    1    2    0    0  0.00000000000E+00  0.00000000000E+00 -0.95640818314E+03  0.31066684212E+04  0.29557862011E+04 0.  0.
        2    1    3    3  502    0  0.99537405348E+03  0.59883676931E+03  0.48210556009E+03  0.12576966064E+04  0.25500000920E-02 0. -1.
       -2    1    3    3    0  502 -0.99537405348E+03 -0.59883676931E+03 -0.14385137432E+04  0.18489718148E+04  0.25500000920E-02 0.  1.
</event>
<event>
 5   0  0.5392262E-06  0.3026912E+04  0.7818609E-02  0.8236088E-01
        1   -1    0    0  501    0  0.00000000000E+00  0.00000000000E+00  0.25558435710E+04  0.25558435710E+04  0.50400001928E-02 0.  1.
       -1   -1    0    0    0  501  0.00000000000E+00  0.00000000000E+00 -0.89620063984E+03  0.89620063985E+03  0.50400001928E-02 0. -1.
    10030    2    1    2    0    0  0.00000000000E+00  0.00000000000E+00  0.16596429312E+04  0.34520442109E+04  0.30269117223E+04 0.  0.
        2    1    3    3  502    0  0.56285519537E+03 -0.13985635483E+04  0.67782595232E+03  0.16529470624E+04  0.25500000920E-02 0. -1.
       -2    1    3    3    0  502 -0.56285519537E+03  0.13985635483E+04  0.98181697886E+03  0.17990971484E+04  0.25500000920E-02 0.  1.
</event>
<event>
 5   0  0.5522695E-06  0.2456415E+04  0.7818609E-02  0.8418680E-01
        1   -1    0    0  501    0  0.00000000000E+00  0.00000000000E+00  0.13781784531E+04  0.13781784531E+04  0.50400001928E-02 0. -1.
       -1   -1    0    0    0  501  0.00000000000E+00  0.00000000000E+00 -0.10945556816E+04  0.10945556816E+04  0.50400001928E-02 0.  1.
    10030    2    1    2    0    0  0.00000000000E+00  0.00000000000E+00  0.28362277153E+03  0.24727341347E+04  0.24564145058E+04 0.  0.
        3    1    3    3  502    0 -0.47327715056E+03  0.11320439063E+04  0.86874284175E+02  0.12300657781E+04  0.10100000352E+00 0.  1.
       -3    1    3    3    0  502  0.47327715056E+03 -0.11320439063E+04  0.19674848736E+03  0.12426683566E+04  0.10100000352E+00 0. -1.
</event>
<event>
 5   0  0.7032692E-06  0.3044884E+04  0.7818609E-02  0.8231029E-01
       -1   -1    0    0    0  501  0.00000000000E+00  0.00000000000E+00  0.98534317375E+03  0.98534317376E+03  0.50400001928E-02 0. -1.
        1   -1    0    0  501    0  0.00000000000E+00  0.00000000000E+00 -0.23523077469E+04  0.23523077469E+04  0.50400001928E-02 0.  1.
    10030    2    1    2    0    0  0.00000000000E+00  0.00000000000E+00 -0.13669645732E+04  0.33376509207E+04  0.30448844845E+04 0.  0.
        5    1    3    3  502    0 -0.44406113660E+03  0.64304849224E+03 -0.21156715593E+04  0.22553912950E+04  0.46999998093E+01 0.  1.
       -5    1    3    3    0  502  0.44406113660E+03 -0.64304849224E+03  0.74870698614E+03  0.10822596257E+04  0.46999998093E+01 0. -1.
</event>
<event>
 5   0  0.5329891E-06  0.2623171E+04  0.7818609E-02  0.8360373E-01
        1   -1    0    0  501    0  0.00000000000E+00  0.00000000000E+00  0.19479394424E+04  0.19479394424E+04  0.50400001928E-02 0.  1.
       -1   -1    0    0    0  501  0.00000000000E+00  0.00000000000E+00 -0.88311607155E+03  0.88311607156E+03  0.50400001928E-02 0. -1.
    10030    2    1    2    0    0  0.00000000000E+00  0.00000000000E+00  0.10648233708E+04  0.28310555139E+04  0.26231710794E+04 0.  0.
        4    1    3    3  502    0  0.96038063475E+03 -0.76608236558E+03  0.10282111729E+04  0.16020090460E+04  0.12699999809E+01 0.  1.
       -4    1    3    3    0  502 -0.96038063475E+03  0.76608236558E+03  0.36612197948E+02  0.12290464680E+04  0.12699999809E+01 0. -1.
</event>
<event>
 5   0  0.1388724E-05  0.2991971E+04  0.7818609E-02  0.8246027E-01
        2   -1    0    0  501    0  0.00000000000E+00  0.00000000000E+00  0.14915428899E+04  0.14915428899E+04  0.25500000920E-02 0. -1.
       -2   -1    0    0    0  501  0.00000000000E+00  0.00000000000E+00 -0.15004415506E+04  0.15004415506E+04  0.25500000920E-02 0.  1.
    10030    2    1    2    0    0  0.00000000000E+00  0.00000000000E+00 -0.88986607122E+01  0.29919844405E+04  0.29919712074E+04 0.  0.
        4    1    3    3  502    0  0.17030991654E+03  0.14610662210E+04 -0.27694153304E+03  0.14968026575E+04  0.12699999809E+01 0.  1.
       -4    1    3    3    0  502 -0.17030991654E+03 -0.14610662210E+04  0.26804287233E+03  0.14951817830E+04  0.12699999809E+01 0. -1.
</event>
<event>
 5   0  0.1480547E-05  0.2964141E+04  0.7818609E-02  0.8254045E-01
        2   -1    0    0  501    0  0.00000000000E+00  0.00000000000E+00  0.13130172223E+04  0.13130172223E+04  0.25500000920E-02 0. -1.
       -2   -1    0    0    0  501  0.00000000000E+00  0.00000000000E+00 -0.16728895203E+04  0.16728895203E+04  0.25500000920E-02 0.  1.
    10030    2    1    2    0    0  0.00000000000E+00  0.00000000000E+00 -0.35987229798E+03  0.29859067426E+04  0.29641408544E+04 0.  0.
        1    1    3    3  502    0  0.84886643477E+03  0.92457305098E+03 -0.97383701928E+03  0.15886371804E+04  0.50400001928E-02 0.  1.
       -1    1    3    3    0  502 -0.84886643477E+03 -0.92457305098E+03  0.61396472129E+03  0.13972695623E+04  0.50400001928E-02 0. -1.
</event>
<event>
 5   0  0.1523029E-05  0.3029369E+04  0.7818609E-02  0.8235394E-01
        2   -1    0    0  501    0  0.00000000000E+00  0.00000000000E+00  0.27310450502E+04  0.27310450502E+04  0.25500000920E-02 0. -1.
       -2   -1    0    0    0  501  0.00000000000E+00  0.00000000000E+00 -0.84006984425E+03  0.84006984426E+03  0.25500000920E-02 0.  1.
    10030    2    1    2    0    0  0.00000000000E+00  0.00000000000E+00  0.18909752060E+04  0.35711148945E+04  0.30293686405E+04 0.  0.
        5    1    3    3  502    0  0.10763450547E+04  0.92369225095E+03  0.15720677661E+04  0.21173439028E+04  0.46999998093E+01 0. -1.
       -5    1    3    3    0  502 -0.10763450547E+04 -0.92369225095E+03  0.31890743980E+03  0.14537709917E+04  0.46999998093E+01 0.  1.
</event>
<event>
 5   0  0.1345931E-05  0.2954838E+04  0.7818609E-02  0.8256746E-01
        2   -1    0    0  501    0  0.00000000000E+00  0.00000000000E+00  0.18043411040E+04  0.18043411040E+04  0.25500000920E-02 0.  1.
       -2   -1    0    0    0  501  0.00000000000E+00  0.00000000000E+00 -0.12097308457E+04  0.12097308457E+04  0.25500000920E-02 0. -1.
    10030    2    1    2    0    0  0.00000000000E+00  0.00000000000E+00  0.59461025837E+03  0.30140719497E+04  0.29548381273E+04 0.  0.
        2    1    3    3  502    0 -0.71657627039E+03 -0.39200016627E+03  0.15530901156E+04  0.17547747972E+04  0.25500000920E-02 0.  1.
       -2    1    3    3    0  502  0.71657627039E+03  0.39200016627E+03 -0.95847985721E+03  0.12592971525E+04  0.25500000920E-02 0. -1.
</event>
<event>
 5   0  0.5392262E-06  0.2787690E+04  0.7818609E-02  0.8307100E-01
        1   -1    0    0  501    0  0.00000000000E+00  0.00000000000E+00  0.12332462592E+04  0.12332462592E+04  0.50400001928E-02 0.  1.
       -1   -1    0    0    0  501  0.00000000000E+00  0.00000000000E+00 -0.15753577697E+04  0.15753577698E+04  0.50400001928E-02 0. -1.
    10030    2    1    2    0    0  0.00000000000E+00  0.00000000000E+00 -0.34211151058E+03  0.28086040289E+04  0.27876901380E+04 0.  0.
        2    1    3    3  502    0 -0.10401333039E+04  0.31240419971E+03 -0.10512981792E+04  0.15115229193E+04  0.25500000920E-02 0. -1.
       -2    1    3    3    0  502  0.10401333039E+04 -0.31240419971E+03  0.70918666866E+03  0.12970811096E+04  0.25500000920E-02 0.  1.
</event>
<event>
 5   0  0.5730920E-06  0.2951346E+04  0.7818609E-02  0.8257763E-01
        1   -1    0    0  501    0  0.00000000000E+00  0.00000000000E+00  0.21564741313E+04  0.21564741313E+04  0.50400001928E-02 0. -1.
       -1   -1    0    0    0  501  0.00000000000E+00  0.00000000000E+00 -0.10098011998E+04  0.10098011998E+04  0.50400001928E-02 0.  1.
    10030    2    1    2    0    0  0.00000000000E+00  0.00000000000E+00  0.11466729316E+04  0.31662753311E+04  0.29513455678E+04 0.  0.
        1    1    3    3  502    0 -0.47565112352E+03 -0.13930547127E+04  0.46202743194E+03  0.15428268768E+04  0.50400001928E-02 0. -1.
       -1    1    3    3    0  502  0.47565112352E+03  0.13930547127E+04  0.68464549962E+03  0.16234484544E+04  0.50400001928E-02 0.  1.
</event>
<event>
 5   0  0.1523029E-05  0.3045328E+04  0.7818609E-02  0.8230904E-01
        2   -1    0    0  501    0  0.00000000000E+00  0.00000000000E+00  0.14324815472E+04  0.14324815472E+04  0.25500000920E-02 0. -1.
       -2   -1    0    0    0  501  0.00000000000E+00  0.00000000000E+00 -0.16185242560E+04  0.16185242560E+04  0.25500000920E-02 0.  1.
    10030    2    1    2    0    0  0.00000000000E+00  0.00000000000E+00 -0.18604270877E+03  0.30510058032E+04  0.30453283110E+04 0.  0.
        5    1    3    3  502    0  0.64688364317E+03  0.49293233707E+02 -0.14731220206E+04  0.16096579911E+04  0.46999998093E+01 0.  1.
       -5    1    3    3    0  502 -0.64688364317E+03 -0.49293233707E+02  0.12870793118E+04  0.14413478121E+04  0.46999998093E+01 0. -1.
</event>
<event>
 5   0  0.1480547E-05  0.2895086E+04  0.7818609E-02  0.8274341E-01
        2   -1    0    0  501    0  0.00000000000E+00  0.00000000000E+00  0.17547891259E+04  0.17547891259E+04  0.25500000920E-02 0. -1.
       -2   -1    0    0    0  501  0.00000000000E+00  0.00000000000E+00 -0.11940926938E+04  0.11940926938E+04  0.25500000920E-02 0.  1.
    10030    2    1    2    0    0  0.00000000000E+00  0.00000000000E+00  0.56069643217E+03  0.29488818197E+04  0.28950860950E+04 0.  0.
        1    1    3    3  502    0  0.11314737059E+04 -0.40186658381E+03 -0.54316196823E+03  0.13178597884E+04  0.50400001928E-02 0.  1.
       -1    1    3    3    0  502 -0.11314737059E+04  0.40186658381E+03  0.11038584004E+04  0.16310220312E+04  0.50400001928E-02 0. -1.
</event>
<event>
 5   0  0.4806125E-06  0.2640452E+04  0.7818609E-02  0.8354589E-01
        3   -1    0    0  501    0  0.00000000000E+00  0.00000000000E+00  0.13892039963E+04  0.13892039999E+04  0.10100000352E+00 0. -1.
       -3   -1    0    0    0  501  0.00000000000E+00  0.00000000000E+00 -0.12546727645E+04  0.12546727686E+04  0.10100000352E+00 0.  1.
    10030    2    1    2    0    0  0.00000000000E+00  0.00000000000E+00  0.13453123179E+03  0.26438767685E+04  0.26404518012E+04 0.  0.
        2    1    3    3  502    0  0.15384037284E+03 -0.53900360716E+03  0.12641422717E+04  0.13828403494E+04  0.25500000920E-02 0. -1.
       -2    1    3    3    0  502 -0.15384037284E+03  0.53900360716E+03 -0.11296110399E+04  0.12610364191E+04  0.25500000920E-02 0.  1.
</event>
<event>
 5   0  0.5522695E-06  0.2305769E+04  0.7818609E-02  0.8475650E-01
       -1   -1    0    0    0  501  0.00000000000E+00  0.00000000000E+00  0.79284317642E+03  0.79284317644E+03  0.50400001928E-02 0. -1.
        1   -1    0    0  501    0  0.00000000000E+00  0.00000000000E+00 -0.16764254967E+04  0.16764254967E+04  0.50400001928E-02 0.  1.
    10030    2    1    2    0    0  0.00000000000E+00  0.00000000000E+00 -0.88358232024E+03  0.24692686731E+04  0.23057688660E+04 0.  0.
        3    1    3    3  502    0  0.20292001273E+03 -0.23493135690E+03  0.74724256722E+03  0.80916051466E+03  0.10100000352E+00 0. -1.
       -3    1    3    3    0  502 -0.20292001273E+03  0.23493135690E+03 -0.16308248875E+04  0.16601081585E+04  0.10100000352E+00 0.  1.
</event>
<event>
 5   0  0.1523029E-05  0.3007205E+04  0.7818609E-02  0.8241677E-01
        2   -1    0    0  501    0  0.00000000000E+00  0.00000000000E+00  0.11346913162E+04  0.11346913162E+04  0.25500000920E-02 0.  1.
       -2   -1    0    0    0  501  0.00000000000E+00  0.00000000000E+00 -0.19924536515E+04  0.19924536515E+04  0.25500000920E-02 0. -1.
    10030    2    1    2    0    0  0.00000000000E+00  0.00000000000E+00 -0.85776233538E+03  0.31271449677E+04  0.30072045865E+04 0.  0.
        5    1    3    3  502    0  0.12376833073E+03  0.72498089759E+03  0.93486752771E+03  0.11895021168E+04  0.46999998093E+01 0.  1.
       -5    1    3    3    0  502 -0.12376833073E+03 -0.72498089759E+03 -0.17926298631E+04  0.19376428509E+04  0.46999998093E+01 0. -1.
</event>
<event>
 5   0  0.5522695E-06  0.2984486E+04  0.7818609E-02  0.8248175E-01
       -1   -1    0    0    0  501  0.00000000000E+00  0.00000000000E+00  0.13487927619E+04  0.13487927619E+04  0.50400001928E-02 0. -1.
        1   -1    0    0  501    0  0.00000000000E+00  0.00000000000E+00 -0.16509501766E+04  0.16509501766E+04  0.50400001928E-02 0.  1.
    10030    2    1    2    0    0  0.00000000000E+00  0.00000000000E+00 -0.30215741472E+03  0.29997429385E+04  0.29844863199E+04 0.  0.
        3    1    3    3  502    0 -0.62067150988E+03  0.35756763899E+02 -0.15145819044E+04  0.16372141047E+04  0.10100000352E+00 0.  1.
       -3    1    3    3    0  502  0.62067150988E+03 -0.35756763899E+02  0.12124244897E+04  0.13625288337E+04  0.10100000352E+00 0. -1.
</event>
<event>
 5   0  0.1423692E-05  0.3003047E+04  0.7818609E-02  0.8242861E-01
        2   -1    0    0  501    0  0.00000000000E+00  0.00000000000E+00  0.19544286204E+04  0.19544286204E+04  0.25500000920E-02 0. -1.
       -2   -1    0    0    0  501  0.00000000000E+00  0.00000000000E+00 -0.11535711756E+04  0.11535711756E+04  0.25500000920E-02 0.  1.
    10030    2    1    2    0    0  0.00000000000E+00  0.00000000000E+00  0.80085744479E+03  0.31079997960E+04  0.30030468003E+04 0.  0.
        3    1    3    3  502    0  0.45403862775E+03  0.83430656582E+03 -0.80312110388E+03  0.12438738035E+04  0.10100000352E+00 0.  1.
       -3    1    3    3    0  502 -0.45403862775E+03 -0.83430656582E+03  0.16039785487E+04  0.18641259925E+04  0.10100000352E+00 0. -1.
</event>
<event>
 5   0  0.5392262E-06  0.2911503E+04  0.7818609E-02  0.8269463E-01
       -1   -1    0    0    0  501  0.00000000000E+00  0.00000000000E+00  0.25301639588E+04  0.25301639589E+04  0.50400001928E-02 0. -1.
        1   -1    0    0  501    0  0.00000000000E+00  0.00000000000E+00 -0.83757911679E+03  0.83757911681E+03  0.50400001928E-02 0.  1.
    10030    2    1    2    0    0  0.00000000000E+00  0.00000000000E+00  0.16925848421E+04  0.33677430757E+04  0.29115030441E+04 0.  0.
        2    1    3    3  502    0 -0.95475716411E+03 -0.10820939493E+04  0.62462783317E+03  0.15724657349E+04  0.25500000920E-02 0. -1.
       -2    1    3    3    0  502  0.95475716411E+03  0.10820939493E+04  0.10679570089E+04  0.17952773408E+04  0.25500000920E-02 0.  1.
</event>
<event>
 5   0  0.1480547E-05  0.2980331E+04  0.7818609E-02  0.8249370E-01
       -2   -1    0    0    0  501  0.00000000000E+00  0.00000000000E+00  0.16333088779E+04  0.16333088779E+04  0.25500000920E-02 0.  1.
        2   -1    0    0  501    0  0.00000000000E+00  0.00000000000E+00 -0.13595674392E+04  0.13595674392E+04  0.25500000920E-02 0. -1.
    10030    2    1    2    0    0  0.00000000000E+00  0.00000000000E+00  0.27374143870E+03  0.29928763170E+04  0.29803312356E+04 0.  0.
        1    1    3    3  502    0  0.48581557237E+03  0.95607829393E+03 -0.90212979946E+03  0.14014066682E+04  0.50400001928E-02 0. -1.
       -1    1    3    3    0  502 -0.48581557237E+03 -0.95607829393E+03  0.11758712382E+04  0.15914696489E+04  0.50400001928E-02 0.  1.
</event>
<event>
 5   0  0.5392262E-06  0.3041209E+04  0.7818609E-02  0.8232060E-01
        1   -1    0    0  501    0  0.00000000000E+00  0.00000000000E+00  0.18013115032E+04  0.18013115033E+04  0.50400001928E-02 0. -1.
       -1   -1    0    0    0  501  0.00000000000E+00  0.00000000000E+00 -0.12836415278E+04  0.12836415278E+04  0.50400001928E-02 0.  1.
    10030    2    1    2    0    0  0.00000000000E+00  0.00000000000E+00  0.51766997541E+03  0.30849530311E+04  0.30412091346E+04 0.  0.
        2    1    3    3  502    0  0.44539991839E+03 -0.96623459299E+03 -0.84318350755E+03  0.13575525048E+04  0.25500000920E-02 0.  1.
       -2    1    3    3    0  502 -0.44539991839E+03  0.96623459299E+03  0.13608534830E+04  0.17274005263E+04  0.25500000920E-02 0. -1.
</event>
<event>
 5   0  0.1388724E-05  0.2992552E+04  0.7818609E-02  0.8245861E-01
        2   -1    0    0  501    0  0.00000000000E+00  0.00000000000E+00  0.11247482086E+04  0.11247482086E+04  0.25500000920E-02 0. -1.
       -2   -1    0    0    0  501  0.00000000000E+00  0.00000000000E+00 -0.19905272119E+04  0.19905272119E+04  0.25500000920E-02 0.  1.
    10030    2    1    2    0    0  0.00000000000E+00  0.00000000000E+00 -0.86577900327E+03  0.31152754205E+04  0.29925520318E+04 0.  0.
        4    1    3    3  502    0  0.88872645074E+03  0.11802939241E+04 -0.18673562771E+03  0.14892280749E+04  0.12699999809E+01 0.  1.
       -4    1    3    3    0  502 -0.88872645074E+03 -0.11802939241E+04 -0.67904337556E+03  0.16260473456E+04  0.12699999809E+01 0. -1.
</event>
<event>
 5   0  0.5329891E-06  0.2979309E+04  0.7818609E-02  0.8249664E-01
       -1   -1    0    0    0  501  0.00000000000E+00  0.00000000000E+00  0.15680815293E+04  0.15680815293E+04  0.50400001928E-02 0.  1.
        1   -1    0    0  501    0  0.00000000000E+00  0.00000000000E+00 -0.14151499096E+04  0.14151499096E+04  0.50400001928E-02 0. -1.
    10030    2    1    2    0    0  0.00000000000E+00  0.00000000000E+00  0.15293161964E+03  0.29832314389E+04  0.29793089363E+04 0.  0.
        4    1    3    3  502    0 -0.12476619432E+02  0.72197735778E+03  0.13811247741E+04  0.15584974256E+04  0.12699999809E+01 0.  1.
       -4    1    3    3    0  502  0.12476619432E+02 -0.72197735778E+03 -0.12281931544E+04  0.14247340133E+04  0.12699999809E+01 0. -1.
</event>
<event>
 5   0  0.5392262E-06  0.1765315E+04  0.7818609E-02  0.8724965E-01
       -1   -1    0    0    0  501  0.00000000000E+00  0.00000000000E+00  0.12876120702E+04  0.12876120702E+04  0.50400001928E-02 0. -1.
        1   -1    0    0  501    0  0.00000000000E+00  0.00000000000E+00 -0.60506136453E+03  0.60506136455E+03  0.50400001928E-02 0.  1.
    10030    2    1    2    0    0  0.00000000000E+00  0.00000000000E+00  0.68255070570E+03  0.18926734348E+04  0.17653150611E+04 0.  0.
        2    1    3    3  502    0 -0.26426141906E+03  0.55071582538E+03  0.10243942687E+04  0.11926884068E+04  0.25500000920E-02 0. -1.
       -2    1    3    3    0  502  0.26426141906E+03 -0.55071582538E+03 -0.34184356297E+03  0.69998502804E+03  0.25500000920E-02 0.  1.
</event>
<event>
 5   0  0.7032692E-06  0.2781648E+04  0.7818609E-02  0.8308989E-01
        1   -1    0    0  501    0  0.00000000000E+00  0.00000000000E+00  0.26425857156E+04  0.26425857156E+04  0.50400001928E-02 0.  1.
       -1   -1    0    0    0  501  0.00000000000E+00  0.00000000000E+00 -0.73200712428E+03  0.73200712430E+03  0.50400001928E-02 0. -1.
    10030    2    1    2    0    0  0.00000000000E+00  0.00000000000E+00  0.19105785913E+04  0.33745928399E+04  0.27816481232E+04 0.  0.
        5    1    3    3  502    0 -0.88102019335E+02  0.12620887054E+04  0.25444253647E+03  0.12905010501E+04  0.46999998093E+01 0. -1.
       -5    1    3    3    0  502  0.88102019335E+02 -0.12620887054E+04  0.16561360549E+04  0.20840917898E+04  0.46999998093E+01 0.  1.
</event>
<event>
 5   0  0.5392262E-06  0.3018265E+04  0.7818609E-02  0.8238534E-01
       -1   -1    0    0    0  501  0.00000000000E+00  0.00000000000E+00  0.16282380043E+04  0.16282380043E+04  0.50400001928E-02 0. -1.
        1   -1    0    0  501    0  0.00000000000E+00  0.00000000000E+00 -0.13987397299E+04  0.13987397299E+04  0.50400001928E-02 0.  1.
    10030    2    1    2    0    0  0.00000000000E+00  0.00000000000E+00  0.22949827434E+03  0.30269777342E+04  0.30182651881E+04 0.  0.
        2    1    3    3  502    0  0.17756129172E+03  0.15597930270E+03 -0.13800645812E+04  0.14001556354E+04  0.25500000920E-02 0.  1.
       -2    1    3    3    0  502 -0.17756129172E+03 -0.15597930270E+03  0.16095628555E+04  0.16268220988E+04  0.25500000920E-02 0. -1.
</event>
<event>
 5   0  0.5522695E-06  0.2494820E+04  0.7818609E-02  0.8404833E-01
        1   -1    0    0  501    0  0.00000000000E+00  0.00000000000E+00  0.13669558923E+04  0.13669558923E+04  0.50400001928E-02 0.  1.
       -1   -1    0    0    0  501  0.00000000000E+00  0.00000000000E+00 -0.11383191645E+04  0.11383191645E+04  0.50400001928E-02 0. -1.
    10030    2    1    2    0    0  0.00000000000E+00  0.00000000000E+00  0.22863672777E+03  0.25052750569E+04  0.24948203056E+04 0.  0.
        3    1    3    3  502    0  0.20080880997E+03  0.12553165294E+03 -0.11155382834E+04  0.11403981962E+04  0.10100000352E+00 0. -1.
       -3    1    3    3    0  502 -0.20080880997E+03 -0.12553165294E+03  0.13441750111E+04  0.13648768607E+04  0.10100000352E+00 0.  1.
</event>
<event>
 5   0  0.7032692E-06  0.2912255E+04  0.7818609E-02  0.8269240E-01
       -1   -1    0    0    0  501  0.00000000000E+00  0.00000000000E+00  0.81285535292E+03  0.81285535294E+03  0.50400001928E-02 0. -1.
        1   -1    0    0  501    0  0.00000000000E+00  0.00000000000E+00 -0.26084686612E+04  0.26084686612E+04  0.50400001928E-02 0.  1.
    10030    2    1    2    0    0  0.00000000000E+00  0.00000000000E+00 -0.17956133083E+04  0.34213240142E+04  0.29122552871E+04 0.  0.
        5    1    3    3  502    0  0.94311432271E+02  0.14529378132E+04 -0.87543326143E+03  0.16989197805E+04  0.46999998093E+01 0. -1.
       -5    1    3    3    0  502 -0.94311432271E+02 -0.14529378132E+04 -0.92018004687E+03  0.17224042336E+04  0.46999998093E+01 0.  1.
</event>
<event>
 5   0  0.7032692E-06  0.2305738E+04  0.7818609E-02  0.8475662E-01
        1   -1    0    0  501    0  0.00000000000E+00  0.00000000000E+00  0.14645673531E+04  0.14645673531E+04  0.50400001928E-02 0.  1.
       -1   -1    0    0    0  501  0.00000000000E+00  0.00000000000E+00 -0.90750825179E+03  0.90750825181E+03  0.50400001928E-02 0. -1.
    10030    2    1    2    0    0  0.00000000000E+00  0.00000000000E+00  0.55705910126E+03  0.23720756049E+04  0.23057380235E+04 0.  0.
        5    1    3    3  502    0  0.10861695163E+04 -0.86408709038E+01  0.67596801345E+03  0.12793723962E+04  0.46999998093E+01 0.  1.
       -5    1    3    3    0  502 -0.10861695163E+04  0.86408709038E+01 -0.11890891219E+03  0.10927032087E+04  0.46999998093E+01 0. -1.
</event>
<event>
 5   0  0.7032692E-06  0.2817200E+04  0.7818609E-02  0.8297948E-01
        1   -1    0    0  501    0  0.00000000000E+00  0.00000000000E+00  0.14685611321E+04  0.14685611321E+04  0.50400001928E-02 0.  1.
       -1   -1    0    0    0  501  0.00000000000E+00  0.00000000000E+00 -0.13510866655E+04  0.13510866655E+04  0.50400001928E-02 0. -1.
    10030    2    1    2    0    0  0.00000000000E+00  0.00000000000E+00  0.11747446664E+03  0.28196477976E+04  0.28171995762E+04 0.  0.
        5    1    3    3  502    0 -0.12288551091E+03  0.10526069434E+04  0.98747091219E+03  0.14485175589E+04  0.46999998093E+01 0.  1.
       -5    1    3    3    0  502  0.12288551091E+03 -0.10526069434E+04 -0.86999644555E+03  0.13711302387E+04  0.46999998093E+01 0. -1.
</event>
<event>
 5   0  0.1388724E-05  0.2750668E+04  0.7818609E-02  0.8318750E-01
        2   -1    0    0  501    0  0.00000000000E+00  0.00000000000E+00  0.16801040018E+04  0.16801040018E+04  0.25500000920E-02 0.  1.
       -2   -1    0    0    0  501  0.00000000000E+00  0.00000000000E+00 -0.11258492026E+04  0.11258492026E+04  0.25500000920E-02 0. -1.
    10030    2    1    2    0    0  0.00000000000E+00  0.00000000000E+00  0.55425479920E+03  0.28059532044E+04  0.27506681011E+04 0.  0.
        4    1    3    3  502    0  0.78247063016E+03  0.29080736060E+03 -0.83787041140E+03  0.11827331260E+04  0.12699999809E+01 0. -1.
       -4    1    3    3    0  502 -0.78247063016E+03 -0.29080736060E+03  0.13921252106E+04  0.16232200784E+04  0.12699999809E+01 0.  1.
</event>
<event>
 5   0  0.5329891E-06  0.3099585E+04  0.7818609E-02  0.8215852E-01
       -1   -1    0    0    0  501  0.00000000000E+00  0.00000000000E+00  0.12807563447E+04  0.12807563447E+04  0.50400001928E-02 0. -1.
        1   -1    0    0  501    0  0.00000000000E+00  0.00000000000E+00 -0.18753430140E+04  0.18753430140E+04  0.50400001928E-02 0.  1.
    10030    2    1    2    0    0  0.00000000000E+00  0.00000000000E+00 -0.59458666933E+03  0.31560993588E+04  0.30995854328E+04 0.  0.
        4    1    3    3  502    0  0.23647659964E+03  0.23280638423E+03  0.12441562877E+04  0.12876515351E+04  0.12699999809E+01 0. -1.
       -4    1    3    3    0  502 -0.23647659964E+03 -0.23280638423E+03 -0.18387429570E+04  0.18684478236E+04  0.12699999809E+01 0.  1.
</event>
<event>
 5   0  0.1423692E-05  0.2906541E+04  0.7818609E-02  0.8270934E-01
       -2   -1    0    0    0  501  0.00000000000E+00  0.00000000000E+00  0.92001361740E+03  0.92001361740E+03  0.25500000920E-02 0.  1.
        2   -1    0    0  501    0  0.00000000000E+00  0.00000000000E+00 -0.22956128846E+04  0.22956128846E+04  0.25500000920E-02 0. -1.
    10030    2    1    2    0    0  0.00000000000E+00  0.00000000000E+00 -0.13755992672E+04  0.32156265020E+04  0.29065409779E+04 0.  0.
        3    1    3    3  502    0  0.22446030211E+03  0.28578481174E+03 -0.22445362222E+04  0.22737630151E+04  0.10100000352E+00 0. -1.
       -3    1    3    3    0  502 -0.22446030211E+03 -0.28578481174E+03  0.86893695504E+03  0.94186348686E+03  0.10100000352E+00 0.  1.
</event>
<event>
 5   0  0.1480547E-05  0.2956598E+04  0.7818609E-02  0.8256234E-01
       -2   -1    0    0    0  501  0.00000000000E+00  0.00000000000E+00  0.18593353555E+04  0.18593353555E+04  0.25500000920E-02 0. -1.
        2   -1    0    0  501    0  0.00000000000E+00  0.00000000000E+00 -0.11753489140E+04  0.11753489140E+04  0.25500000920E-02 0.  1.
    10030    2    1    2    0    0  0.00000000000E+00  0.00000000000E+00  0.68398644154E+03  0.30346842695E+04  0.29565979035E+04 0.  0.
        1    1    3    3  502    0 -0.88036092941E+03 -0.58547065922E+03 -0.71852147241E+03  0.12783130936E+04  0.50400001928E-02 0.  1.
       -1    1    3    3    0  502  0.88036092941E+03  0.58547065922E+03  0.14025079140E+04  0.17563711759E+04  0.50400001928E-02 0. -1.
</event>
<event>
 5   0  0.5329891E-06  0.2885472E+04  0.7818609E-02  0.8277213E-01
        1   -1    0    0  501    0  0.00000000000E+00  0.00000000000E+00  0.16497690971E+04  0.16497690971E+04  0.50400001928E-02 0. -1.
       -1   -1    0    0    0  501  0.00000000000E+00  0.00000000000E+00 -0.12616841486E+04  0.12616841486E+04  0.50400001928E-02 0.  1.
    10030    2    1    2    0    0  0.00000000000E+00  0.00000000000E+00  0.38808494855E+03  0.29114532457E+04  0.28854722447E+04 0.  0.
        4    1    3    3  502    0  0.40861689965E+03  0.18160227027E+03  0.15780852176E+04  0.16402139258E+04  0.12699999809E+01 0. -1.
       -4    1    3    3    0  502 -0.40861689965E+03 -0.18160227027E+03 -0.11900002691E+04  0.12712393200E+04  0.12699999809E+01 0.  1.
</event>
<event>
 5   0  0.1480547E-05  0.1650873E+04  0.7818609E-02  0.8789890E-01
       -2   -1    0    0    0  501  0.00000000000E+00  0.00000000000E+00  0.58851267629E+03  0.58851267630E+03  0.25500000920E-02 0.  1.
        2   -1    0    0  501    0  0.00000000000E+00  0.00000000000E+00 -0.11577419477E+04  0.11577419477E+04  0.25500000920E-02 0. -1.
    10030    2    1    2    0    0  0.00000000000E+00  0.00000000000E+00 -0.56922927142E+03  0.17462546240E+04  0.16508734804E+04 0.  0.
        1    1    3    3  502    0  0.22334822602E+03 -0.23158979396E+02  0.55558533343E+03  0.59924605225E+03  0.50400001928E-02 0.  1.
       -1    1    3    3    0  502 -0.22334822602E+03  0.23158979396E+02 -0.11248146048E+04  0.11470085718E+04  0.50400001928E-02 0. -1.
</event>
<event>
 5   0  0.1480547E-05  0.3019957E+04  0.7818609E-02  0.8238055E-01
       -2   -1    0    0    0  501  0.00000000000E+00  0.00000000000E+00  0.10419122659E+04  0.10419122659E+04  0.25500000920E-02 0. -1.
        2   -1    0    0  501    0  0.00000000000E+00  0.00000000000E+00 -0.21883179605E+04  0.21883179605E+04  0.25500000920E-02 0.  1.
    10030    2    1    2    0    0  0.00000000000E+00  0.00000000000E+00 -0.11464056946E+04  0.32302302264E+04  0.30199571684E+04 0.  0.
        1    1    3    3  502    0 -0.87496378336E+03  0.95527885202E+03  0.25664914952E+03  0.13206014135E+04  0.50400001928E-02 0. -1.
       -1    1    3    3    0  502  0.87496378336E+03 -0.95527885202E+03 -0.14030548442E+04  0.19096288129E+04  0.50400001928E-02 0.  1.
</event>
<event>
 5   0  0.5392262E-06  0.3079609E+04  0.7818609E-02  0.8221356E-01
        1   -1    0    0  501    0  0.00000000000E+00  0.00000000000E+00  0.25547321003E+04  0.25547321003E+04  0.50400001928E-02 0. -1.
       -1   -1    0    0    0  501  0.00000000000E+00  0.00000000000E+00 -0.92808095138E+03  0.92808095139E+03  0.50400001928E-02 0.  1.
    10030    2    1    2    0    0  0.00000000000E+00  0.00000000000E+00  0.16266511489E+04  0.34828130517E+04  0.30796091948E+04 0.  0.
        2    1    3    3  502    0  0.36445006415E+03  0.14713779767E+04  0.50730334665E+03  0.15984785532E+04  0.25500000920E-02 0.  1.
       -2    1    3    3    0  502 -0.36445006415E+03 -0.14713779767E+04  0.11193478023E+04  0.18843344985E+04  0.25500000920E-02 0. -1.
</event>
<event>
 5   0  0.1480547E-05  0.3064443E+04  0.7818609E-02  0.8225564E-01
       -2   -1    0    0    0  501  0.00000000000E+00  0.00000000000E+00  0.19951739092E+04  0.19951739092E+04  0.25500000920E-02 0.  1.
        2   -1    0    0  501    0  0.00000000000E+00  0.00000000000E+00 -0.11766907694E+04  0.11766907694E+04  0.25500000920E-02 0. -1.
    10030    2    1    2    0    0  0.00000000000E+00  0.00000000000E+00  0.81848313984E+03  0.31718646786E+04  0.30644429982E+04 0.  0.
        1    1    3    3  502    0  0.33316816632E+03 -0.13836914048E+04  0.99667454976E+03  0.17375163564E+04  0.50400001928E-02 0.  1.
       -1    1    3    3    0  502 -0.33316816632E+03  0.13836914048E+04 -0.17819140992E+03  0.14343483222E+04  0.50400001928E-02 0. -1.
</event>
<event>
 5   0  0.5329891E-06  0.2859482E+04  0.7818609E-02  0.8285036E-01
        1   -1    0    0  501    0  0.00000000000E+00  0.00000000000E+00  0.13711878458E+04  0.13711878458E+04  0.50400001928E-02 0.  1.
       -1   -1    0    0    0  501  0.00000000000E+00  0.00000000000E+00 -0.14907949118E+04  0.14907949118E+04  0.50400001928E-02 0. -1.
    10030    2    1    2    0    0  0.00000000000E+00  0.00000000000E+00 -0.11960706599E+03  0.28619827576E+04  0.28594823753E+04 0.  0.
        4    1    3    3  502    0  0.13676520956E+04  0.21161341750E+03 -0.41915195880E+03  0.14460091530E+04  0.12699999809E+01 0. -1.
       -4    1    3    3    0  502 -0.13676520956E+04 -0.21161341750E+03  0.29954489282E+03  0.14159736046E+04  0.12699999809E+01 0.  1.
</event>
<event>
 5   0  0.5392262E-06  0.2898420E+04  0.7818609E-02  0.8273348E-01
       -1   -1    0    0    0  501  0.00000000000E+00  0.00000000000E+00  0.10502085763E+04  0.10502085763E+04  0.50400001928E-02 0. -1.
        1   -1    0    0  501    0  0.00000000000E+00  0.00000000000E+00 -0.19998028434E+04  0.19998028434E+04  0.50400001928E-02 0.  1.
    10030    2    1    2    0    0  0.00000000000E+00  0.00000000000E+00 -0.94959426707E+03  0.30500114197E+04  0.28984203264E+04 0.  0.
        2    1    3    3  502    0  0.12346323036E+04 -0.20763239563E+03  0.29329771858E+03  0.12858661239E+04  0.25500000920E-02 0. -1.
       -2    1    3    3    0  502 -0.12346323036E+04  0.20763239563E+03 -0.12428919856E+04  0.17641452958E+04  0.25500000920E-02 0.  1.
</event>
<event>
 5   0  0.5329891E-06  0.2698981E+04  0.7818609E-02  0.8335336E-01
       -1   -1    0    0    0  501  0.00000000000E+00  0.00000000000E+00  0.18775130538E+04  0.18775130538E+04  0.50400001928E-02 0.  1.
        1   -1    0    0  501    0  0.00000000000E+00  0.00000000000E+00 -0.96996607499E+03  0.96996607501E+03  0.50400001928E-02 0. -1.
    10030    2    1    2    0    0  0.00000000000E+00  0.00000000000E+00  0.90754697876E+03  0.28474791288E+04  0.26989805242E+04 0.  0.
        4    1    3    3  502    0 -0.59014897176E+03 -0.15026006037E+03  0.17243037109E+04  0.18286822564E+04  0.12699999809E+01 0.  1.
       -4    1    3    3    0  502  0.59014897176E+03  0.15026006037E+03 -0.81675673217E+03  0.10187968723E+04  0.12699999809E+01 0. -1.
</event>
<event>
 5   0  0.1480547E-05  0.3065588E+04  0.7818609E-02  0.8225246E-01
       -2   -1    0    0    0  501  0.00000000000E+00  0.00000000000E+00  0.14986434851E+04  0.14986434851E+04  0.25500000920E-02 0.  1.
        2   -1    0    0  501    0  0.00000000000E+00  0.00000000000E+00 -0.15677226678E+04  0.15677226678E+04  0.25500000920E-02 0. -1.
    10030    2    1    2    0    0  0.00000000000E+00  0.00000000000E+00 -0.69079182629E+02  0.30663661529E+04  0.30655879453E+04 0.  0.
        1    1    3    3  502    0  0.10619061106E+04 -0.77385074063E+03 -0.82402304917E+03  0.15509685819E+04  0.50400001928E-02 0. -1.
       -1    1    3    3    0  502 -0.10619061106E+04  0.77385074063E+03  0.75494386654E+03  0.15153975710E+04  0.50400001928E-02 0.  1.
</event>
<event>
 5   0  0.5730920E-06  0.2610372E+04  0.7818609E-02  0.8364686E-01
       -1   -1    0    0    0  501  0.00000000000E+00  0.00000000000E+00  0.10542978035E+04  0.10542978035E+04  0.50400001928E-02 0. -1.
        1   -1    0    0  501    0  0.00000000000E+00  0.00000000000E+00 -0.16157777283E+04  0.16157777283E+04  0.50400001928E-02 0.  1.
    10030    2    1    2    0    0  0.00000000000E+00  0.00000000000E+00 -0.56147992478E+03  0.26700755318E+04  0.26103723182E+04 0.  0.
        1    1    3    3  502    0  0.12164478422E+04 -0.58322167230E+02 -0.76090606305E+03  0.14360100504E+04  0.50400001928E-02 0. -1.
       -1    1    3    3    0  502 -0.12164478422E+04  0.58322167230E+02  0.19942613827E+03  0.12340654815E+04  0.50400001928E-02 0.  1.
</event>
<event>
 5   0  0.5329891E-06  0.2989902E+04  0.7818609E-02  0.8246620E-01
        1   -1    0    0  501    0  0.00000000000E+00  0.00000000000E+00  0.24501605181E+04  0.24501605181E+04  0.50400001928E-02 0. -1.
       -1   -1    0    0    0  501  0.00000000000E+00  0.00000000000E+00 -0.91213548665E+03  0.91213548666E+03  0.50400001928E-02 0.  1.
    10030    2    1    2    0    0  0.00000000000E+00  0.00000000000E+00  0.15380250314E+04  0.33622960047E+04  0.29899019091E+04 0.  0.
        4    1    3    3  502    0  0.69551683400E+02 -0.12927013850E+04  0.16097691744E+04  0.20657378138E+04  0.12699999809E+01 0. -1.
       -4    1    3    3    0  502 -0.69551683400E+02  0.12927013850E+04 -0.71744142994E+02  0.12965581909E+04  0.12699999809E+01 0.  1.
</event>
<event>
 5   0  0.1345931E-05  0.2850518E+04  0.7818609E-02  0.8287754E-01
        2   -1    0    0  501    0  0.00000000000E+00  0.00000000000E+00  0.12267700734E+04  0.12267700734E+04  0.25500000920E-02 0. -1.
       -2   -1    0    0    0  501  0.00000000000E+00  0.00000000000E+00 -0.16558631858E+04  0.16558631858E+04  0.25500000920E-02 0.  1.
    10030    2    1    2    0    0  0.00000000000E+00  0.00000000000E+00 -0.42909311236E+03  0.28826332592E+04  0.28505181298E+04 0.  0.
        2    1    3    3  502    0  0.11223000210E+04  0.82271325957E+03 -0.52615605354E+03  0.14877011250E+04  0.25500000920E-02 0.  1.
       -2    1    3    3    0  502 -0.11223000210E+04 -0.82271325957E+03  0.97062941176E+02  0.13949321343E+04  0.25500000920E-02 0. -1.
</event>
<event>
 5   0  0.1345931E-05  0.1984135E+04  0.7818609E-02  0.8614074E-01
       -2   -1    0    0    0  501  0.00000000000E+00  0.00000000000E+00  0.12166093138E+04  0.12166093138E+04  0.25500000920E-02 0.  1.
        2   -1    0    0  501    0  0.00000000000E+00  0.00000000000E+00 -0.80896815510E+03  0.80896815510E+03  0.25500000920E-02 0. -1.
    10030    2    1    2    0    0  0.00000000000E+00  0.00000000000E+00  0.40764115867E+03  0.20255774689E+04  0.19841352696E+04 0.  0.
        2    1    3    3  502    0 -0.59418034177E+03  0.39011351489E+03  0.91034456855E+03  0.11549744874E+04  0.25500000920E-02 0.  1.
       -2    1    3    3    0  502  0.59418034177E+03 -0.39011351489E+03 -0.50270340988E+03  0.87060298148E+03  0.25500000920E-02 0. -1.
</event>
<event>
 5   0  0.1523029E-05  0.2976269E+04  0.7818609E-02  0.8250540E-01
        2   -1    0    0  501    0  0.00000000000E+00  0.00000000000E+00  0.24169894989E+04  0.24169894989E+04  0.25500000920E-02 0. -1.
       -2   -1    0    0    0  501  0.00000000000E+00  0.00000000000E+00 -0.91624078198E+03  0.91624078199E+03  0.25500000920E-02 0.  1.
    10030    2    1    2    0    0  0.00000000000E+00  0.00000000000E+00  0.15007487169E+04  0.33332302809E+04  0.29762690393E+04 0.  0.
        5    1    3    3  502    0  0.77879802411E+03  0.75231448717E+03 -0.39284853026E+03  0.11518921424E+04  0.46999998093E+01 0.  1.
       -5    1    3    3    0  502 -0.77879802411E+03 -0.75231448717E+03  0.18935972472E+04  0.21813381385E+04  0.46999998093E+01 0. -1.
</event>
<event>
 5   0  0.1480547E-05  0.3017092E+04  0.7818609E-02  0.8238867E-01
        2   -1    0    0  501    0  0.00000000000E+00  0.00000000000E+00  0.17569120766E+04  0.17569120766E+04  0.25500000920E-02 0. -1.
       -2   -1    0    0    0  501  0.00000000000E+00  0.00000000000E+00 -0.12952902397E+04  0.12952902397E+04  0.25500000920E-02 0.  1.
    10030    2    1    2    0    0  0.00000000000E+00  0.00000000000E+00  0.46162183693E+03  0.30522023162E+04  0.30170920203E+04 0.  0.
        1    1    3    3  502    0  0.73606631796E+03 -0.10154289145E+04  0.10789113792E+04  0.16543697498E+04  0.50400001928E-02 0. -1.
       -1    1    3    3    0  502 -0.73606631796E+03  0.10154289145E+04 -0.61728954230E+03  0.13978325665E+04  0.50400001928E-02 0.  1.
</event>
<event>
 5   0  0.5522695E-06  0.3089177E+04  0.7818609E-02  0.8218715E-01
        1   -1    0    0  501    0  0.00000000000E+00  0.00000000000E+00  0.31677538638E+04  0.31677538638E+04  0.50400001928E-02 0.  1.
       -1   -1    0    0    0  501  0.00000000000E+00  0.00000000000E+00 -0.75313708649E+03  0.75313708651E+03  0.50400001928E-02 0. -1.
    10030    2    1    2    0    0  0.00000000000E+00  0.00000000000E+00  0.24146167773E+04  0.39208909503E+04  0.30891765348E+04 0.  0.
        3    1    3    3  502    0 -0.25519973713E+03  0.11858270702E+04  0.24210316676E+04  0.27078971716E+04  0.10100000352E+00 0.  1.
       -3    1    3    3    0  502  0.25519973713E+03 -0.11858270702E+04 -0.64148903146E+01  0.12129937787E+04  0.10100000352E+00 0. -1.
</event>
<event>
 5   0  0.1388724E-05  0.2812339E+04  0.7818609E-02  0.8299448E-01
       -2   -1    0    0    0  501  0.00000000000E+00  0.00000000000E+00  0.13379576304E+04  0.13379576304E+04  0.25500000920E-02 0. -1.
        2   -1    0    0  501    0  0.00000000000E+00  0.00000000000E+00 -0.14778587646E+04  0.14778587646E+04  0.25500000920E-02 0.  1.
    10030    2    1    2    0    0  0.00000000000E+00  0.00000000000E+00 -0.13990113425E+03  0.28158163950E+04  0.28123388208E+04 0.  0.
        4    1    3    3  502    0  0.11114033738E+04  0.64272309734E+03 -0.64424535830E+03  0.14364414829E+04  0.12699999809E+01 0.  1.
       -4    1    3    3    0  502 -0.11114033738E+04 -0.64272309734E+03  0.50434422406E+03  0.13793749122E+04  0.12699999809E+01 0. -1.
</event>
<event>
 5   0  0.1523029E-05  0.2065821E+04  0.7818609E-02  0.8576451E-01
       -2   -1    0    0    0  501  0.00000000000E+00  0.00000000000E+00  0.43906380766E+03  0.43906380766E+03  0.25500000920E-02 0.  1.
        2   -1    0    0  501    0  0.00000000000E+00  0.00000000000E+00 -0.24299520024E+04  0.24299520024E+04  0.25500000920E-02 0. -1.
    10030    2    1    2    0    0  0.00000000000E+00  0.00000000000E+00 -0.19908881947E+04  0.28690158100E+04  0.20658208815E+04 0.  0.
        5    1    3    3  502    0 -0.96126272417E+03 -0.34295005858E+03 -0.12160893554E+04  0.15876196578E+04  0.46999998093E+01 0.  1.
       -5    1    3    3    0  502  0.96126272417E+03  0.34295005858E+03 -0.77479883934E+03  0.12813961522E+04  0.46999998093E+01 0. -1.
</event>
<event>
 5   0  0.1480547E-05  0.3055397E+04  0.7818609E-02  0.8228087E-01
       -2   -1    0    0    0  501  0.00000000000E+00  0.00000000000E+00  0.14870244233E+04  0.14870244233E+04  0.25500000920E-02 0.  1.
        2   -1    0    0  501    0  0.00000000000E+00  0.00000000000E+00 -0.15694847364E+04  0.15694847364E+04  0.25500000920E-02 0. -1.
    10030    2    1    2    0    0  0.00000000000E+00  0.00000000000E+00 -0.82460313144E+02  0.30565091597E+04  0.30553966257E+04 0.  0.
        1    1    3    3  502    0 -0.14254547691E+04  0.26469030226E+03 -0.52294456947E+03  0.15412505564E+04  0.50400001928E-02 0. -1.
       -1    1    3    3    0  502  0.14254547691E+04 -0.26469030226E+03  0.44048425632E+03  0.15152586033E+04  0.50400001928E-02 0.  1.
</event>
<event>
 5   0  0.5730920E-06  0.2940717E+04  0.7818609E-02  0.8260865E-01
        1   -1    0    0  501    0  0.00000000000E+00  0.00000000000E+00  0.24290597835E+04  0.24290597835E+04  0.50400001928E-02 0. -1.
       -1   -1    0    0    0  501  0.00000000000E+00  0.00000000000E+00 -0.89003772911E+03  0.89003772912E+03  0.50400001928E-02 0.  1.
    10030    2    1    2    0    0  0.00000000000E+00  0.00000000000E+00  0.15390220544E+04  0.33190975126E+04  0.29407174999E+04 0.  0.
        1    1    3    3  502    0 -0.88491968865E+03 -0.78772199281E+03  0.17524038189E+04  0.21153032733E+04  0.50400001928E-02 0. -1.
       -1    1    3    3    0  502  0.88491968865E+03  0.78772199281E+03 -0.21338176451E+03  0.12037942394E+04  0.50400001928E-02 0.  1.
</event>
<event>
 5   0  0.5392262E-06  0.3005662E+04  0.7818609E-02  0.8242116E-01
        1   -1    0    0  501    0  0.00000000000E+00  0.00000000000E+00  0.22519753338E+04  0.22519753338E+04  0.50400001928E-02 0.  1.
       -1   -1    0    0    0  501  0.00000000000E+00  0.00000000000E+00 -0.10028977794E+04  0.10028977794E+04  0.50400001928E-02 0. -1.
    10030    2    1    2    0    0  0.00000000000E+00  0.00000000000E+00  0.12490775544E+04  0.32548731132E+04  0.30056620312E+04 0.  0.
        2    1    3    3  502    0  0.24969143311E+03 -0.12516983265E+04  0.14836700868E+04  0.19571334749E+04  0.25500000920E-02 0.  1.
       -2    1    3    3    0  502 -0.24969143311E+03  0.12516983265E+04 -0.23459253237E+03  0.12977396382E+04  0.25500000920E-02 0. -1.
</event>
<event>
 5   0  0.5392262E-06  0.3018400E+04  0.7818609E-02  0.8238496E-01
        1   -1    0    0  501    0  0.00000000000E+00  0.00000000000E+00  0.21241981719E+04  0.21241981719E+04  0.50400001928E-02 0.  1.
       -1   -1    0    0    0  501  0.00000000000E+00  0.00000000000E+00 -0.10722564903E+04  0.10722564903E+04  0.50400001928E-02 0. -1.
    10030    2    1    2    0    0  0.00000000000E+00  0.00000000000E+00  0.10519416816E+04  0.31964546621E+04  0.30184004217E+04 0.  0.
        2    1    3    3  502    0 -0.81308290707E+03  0.11171416023E+04  0.11688883937E+04  0.18098091751E+04  0.25500000920E-02 0.  1.
       -2    1    3    3    0  502  0.81308290707E+03 -0.11171416023E+04 -0.11694671209E+03  0.13866454871E+04  0.25500000920E-02 0. -1.
</event>
<event>
 5   0  0.1345931E-05  0.2910974E+04  0.7818609E-02  0.8269620E-01
       -2   -1    0    0    0  501  0.00000000000E+00  0.00000000000E+00  0.94045822293E+03  0.94045822294E+03  0.25500000920E-02 0.  1.
        2   -1    0    0  501    0  0.00000000000E+00  0.00000000000E+00 -0.22525642831E+04  0.22525642831E+04  0.25500000920E-02 0. -1.
    10030    2    1    2    0    0  0.00000000000E+00  0.00000000000E+00 -0.13121060602E+04  0.31930225061E+04  0.29109741344E+04 0.  0.
        2    1    3    3  502    0 -0.14288837077E+04 -0.24852484129E+03 -0.52184911344E+03  0.15413629501E+04  0.25500000920E-02 0.  1.
       -2    1    3    3    0  502  0.14288837077E+04  0.24852484129E+03 -0.79025694676E+03  0.16516595559E+04  0.25500000920E-02 0. -1.
</event>
<event>
 5   0  0.1388724E-05  0.3018906E+04  0.7818609E-02  0.8238353E-01
        2   -1    0    0  501    0  0.00000000000E+00  0.00000000000E+00  0.23341114764E+04  0.23341114764E+04  0.25500000920E-02 0.  1.
       -2   -1    0    0    0  501  0.00000000000E+00  0.00000000000E+00 -0.97615237259E+03  0.97615237259E+03  0.25500000920E-02 0. -1.
    10030    2    1    2    0    0  0.00000000000E+00  0.00000000000E+00  0.13579591038E+04  0.33102638490E+04  0.30189060639E+04 0.  0.
        4    1    3    3  502    0 -0.83286494700E+03 -0.48494650106E+03  0.19528260842E+04  0.21776979719E+04  0.12699999809E+01 0.  1.
       -4    1    3    3    0  502  0.83286494700E+03  0.48494650106E+03 -0.59486698034E+03  0.11325658771E+04  0.12699999809E+01 0. -1.
</event>
<event>
 5   0  0.1523029E-05  0.3085799E+04  0.7818609E-02  0.8219646E-01
       -2   -1    0    0    0  501  0.00000000000E+00  0.00000000000E+00  0.11436300009E+04  0.11436300009E+04  0.25500000920E-02 0. -1.
        2   -1    0    0  501    0  0.00000000000E+00  0.00000000000E+00 -0.20815644738E+04  0.20815644738E+04  0.25500000920E-02 0.  1.
    10030    2    1    2    0    0  0.00000000000E+00  0.00000000000E+00 -0.93793447296E+03  0.32251944747E+04  0.30857994627E+04 0.  0.
        5    1    3    3  502    0 -0.69261727692E+03  0.43634459406E+03 -0.18358690840E+04  0.20101126039E+04  0.46999998093E+01 0.  1.
       -5    1    3    3    0  502  0.69261727692E+03 -0.43634459406E+03  0.89793461100E+03  0.12150818708E+04  0.46999998093E+01 0. -1.
</event>
<event>
 5   0  0.5329891E-06  0.2987747E+04  0.7818609E-02  0.8247238E-01
       -1   -1    0    0    0  501  0.00000000000E+00  0.00000000000E+00  0.20818572652E+04  0.20818572652E+04  0.50400001928E-02 0.  1.
        1   -1    0    0  501    0  0.00000000000E+00  0.00000000000E+00 -0.10719554180E+04  0.10719554180E+04  0.50400001928E-02 0. -1.
    10030    2    1    2    0    0  0.00000000000E+00  0.00000000000E+00  0.10099018471E+04  0.31538126832E+04  0.29877470944E+04 0.  0.
        4    1    3    3  502    0  0.12111522587E+03 -0.11197776749E+04  0.15408668558E+04  0.19086233833E+04  0.12699999809E+01 0.  1.
       -4    1    3    3    0  502 -0.12111522587E+03  0.11197776749E+04 -0.53096500868E+03  0.12451892999E+04  0.12699999809E+01 0. -1.
</event>
<event>
 5   0  0.5329891E-06  0.2968923E+04  0.7818609E-02  0.8252661E-01
        1   -1    0    0  501    0  0.00000000000E+00  0.00000000000E+00  0.19255033198E+04  0.19255033198E+04  0.50400001928E-02 0.  1.
       -1   -1    0    0    0  501  0.00000000000E+00  0.00000000000E+00 -0.11444415266E+04  0.11444415267E+04  0.50400001928E-02 0. -1.
    10030    2    1    2    0    0  0.00000000000E+00  0.00000000000E+00  0.78106179318E+03  0.30699448465E+04  0.29689230094E+04 0.  0.
        4    1    3    3  502    0 -0.24428244403E+03 -0.10080565355E+04  0.14886321294E+04  0.18143536372E+04  0.12699999809E+01 0.  1.
       -4    1    3    3    0  502  0.24428244403E+03  0.10080565355E+04 -0.70757033627E+03  0.12555912093E+04  0.12699999809E+01 0. -1.
</event>
<event>
 5   0  0.1345931E-05  0.2909332E+04  0.7818609E-02  0.8270106E-01
       -2   -1    0    0    0  501  0.00000000000E+00  0.00000000000E+00  0.18782512214E+04  0.18782512214E+04  0.25500000920E-02 0. -1.
        2   -1    0    0  501    0  0.00000000000E+00  0.00000000000E+00 -0.11266078891E+04  0.11266078891E+04  0.25500000920E-02 0.  1.
    10030    2    1    2    0    0  0.00000000000E+00  0.00000000000E+00  0.75164333234E+03  0.30048591106E+04  0.29093316372E+04 0.  0.
        2    1    3    3  502    0 -0.16503314865E+02  0.49757628895E+03 -0.10358781227E+04  0.11493032706E+04  0.25500000920E-02 0.  1.
       -2    1    3    3    0  502  0.16503314865E+02 -0.49757628895E+03  0.17875214551E+04  0.18555558399E+04  0.25500000920E-02 0. -1.
</event>
<event>
 5   0  0.1480547E-05  0.2828699E+04  0.7818609E-02  0.8294414E-01
       -2   -1    0    0    0  501  0.00000000000E+00  0.00000000000E+00  0.91253969046E+03  0.91253969046E+03  0.25500000920E-02 0. -1.
        2   -1    0    0  501    0  0.00000000000E+00  0.00000000000E+00 -0.21921061847E+04  0.21921061847E+04  0.25500000920E-02 0.  1.
    10030    2    1    2    0    0  0.00000000000E+00  0.00000000000E+00 -0.12795664942E+04  0.31046458751E+04  0.28286985695E+04 0.  0.
        1    1    3    3  502    0 -0.12513346024E+03  0.57719707242E+03 -0.20502854484E+04  0.21336553759E+04  0.50400001928E-02 0.  1.
       -1    1    3    3    0  502  0.12513346024E+03 -0.57719707242E+03  0.77071895416E+03  0.97099049924E+03  0.50400001928E-02 0. -1.
</event>
<event>
 5   0  0.1388724E-05  0.2284797E+04  0.7818609E-02  0.8483940E-01
        2   -1    0    0  501    0  0.00000000000E+00  0.00000000000E+00  0.13166859961E+04  0.13166859961E+04  0.25500000920E-02 0.  1.
       -2   -1    0    0    0  501  0.00000000000E+00  0.00000000000E+00 -0.99118108206E+03  0.99118108206E+03  0.25500000920E-02 0. -1.
    10030    2    1    2    0    0  0.00000000000E+00  0.00000000000E+00  0.32550491406E+03  0.23078670782E+04  0.22847969278E+04 0.  0.
        4    1    3    3  502    0 -0.61025490491E+03 -0.93762959428E+03  0.39641555282E+03  0.11868897204E+04  0.12699999809E+01 0. -1.
       -4    1    3    3    0  502  0.61025490491E+03  0.93762959428E+03 -0.70910638757E+02  0.11209773578E+04  0.12699999809E+01 0.  1.
</event>
<event>
 5   0  0.5392262E-06  0.3118348E+04  0.7818609E-02  0.8210720E-01
       -1   -1    0    0    0  501  0.00000000000E+00  0.00000000000E+00  0.14779576210E+04  0.14779576210E+04  0.50400001928E-02 0. -1.
        1   -1    0    0  501    0  0.00000000000E+00  0.00000000000E+00 -0.16448533790E+04  0.16448533790E+04  0.50400001928E-02 0.  1.
    10030    2    1    2    0    0  0.00000000000E+00  0.00000000000E+00 -0.16689575804E+03  0.31228110000E+04  0.31183480158E+04 0.  0.
        2    1    3    3  502    0 -0.94767450517E+02  0.92508953472E+03 -0.13367389556E+04  0.16283864874E+04  0.25500000920E-02 0.  1.
       -2    1    3    3    0  502  0.94767450517E+02 -0.92508953472E+03  0.11698431975E+04  0.14944245126E+04  0.25500000920E-02 0. -1.
</event>
<event>
 5   0  0.1523029E-05  0.2968934E+04  0.7818609E-02  0.8252658E-01
        2   -1    0    0  501    0  0.00000000000E+00  0.00000000000E+00  0.19416585520E+04  0.19416585520E+04  0.25500000920E-02 0. -1.
       -2   -1    0    0    0  501  0.00000000000E+00  0.00000000000E+00 -0.11349277502E+04  0.11349277502E+04  0.25500000920E-02 0.  1.
    10030    2    1    2    0    0  0.00000000000E+00  0.00000000000E+00  0.80673080188E+03  0.30765863022E+04  0.29689339313E+04 0.  0.
        5    1    3    3  502    0 -0.64217277016E+03  0.12107037712E+04 -0.18778468662E+03  0.13832840152E+04  0.46999998093E+01 0.  1.
       -5    1    3    3    0  502  0.64217277016E+03 -0.12107037712E+04  0.99451548850E+03  0.16933022870E+04  0.46999998093E+01 0. -1.
</event>
<event>
 5   0  0.5329891E-06  0.2634830E+04  0.7818609E-02  0.8356466E-01
       -1   -1    0    0    0  501  0.00000000000E+00  0.00000000000E+00  0.18759887999E+04  0.18759887999E+04  0.50400001928E-02 0. -1.
        1   -1    0    0  501    0  0.00000000000E+00  0.00000000000E+00 -0.92515570176E+03  0.92515570177E+03  0.50400001928E-02 0.  1.
    10030    2    1    2    0    0  0.00000000000E+00  0.00000000000E+00  0.95083309814E+03  0.28011445017E+04  0.26348295844E+04 0.  0.
        4    1    3    3  502    0  0.30600213964E+02  0.20721113552E+03 -0.90733958260E+03  0.93120328545E+03  0.12699999809E+01 0.  1.
       -4    1    3    3    0  502 -0.30600213964E+02 -0.20721113552E+03  0.18581726807E+04  0.18699412162E+04  0.12699999809E+01 0. -1.
</event>
<event>
 5   0  0.5730920E-06  0.2907814E+04  0.7818609E-02  0.8270557E-01
       -1   -1    0    0    0  501  0.00000000000E+00  0.00000000000E+00  0.16555121676E+04  0.16555121676E+04  0.50400001928E-02 0.  1.
        1   -1    0    0  501    0  0.00000000000E+00  0.00000000000E+00 -0.12768525236E+04  0.12768525236E+04  0.50400001928E-02 0. -1.
    10030    2    1    2    0    0  0.00000000000E+00  0.00000000000E+00  0.37865964400E+03  0.29323646912E+04  0.29078135353E+04 0.  0.
        1    1    3    3  502    0 -0.11543262680E+04  0.28598028511E+03  0.10328074047E+04  0.15751015814E+04  0.50400001928E-02 0.  1.
       -1    1    3    3    0  502  0.11543262680E+04 -0.28598028511E+03 -0.65414776070E+03  0.13572631098E+04  0.50400001928E-02 0. -1.
</event>
<event>
 5   0  0.5730920E-06  0.3043068E+04  0.7818609E-02  0.8231538E-01
        1   -1    0    0  501    0  0.00000000000E+00  0.00000000000E+00  0.29586461117E+04  0.29586461117E+04  0.50400001928E-02 0.  1.
       -1   -1    0    0    0  501  0.00000000000E+00  0.00000000000E+00 -0.78247464950E+03  0.78247464951E+03  0.50400001928E-02 0. -1.
    10030    2    1    2    0    0  0.00000000000E+00  0.00000000000E+00  0.21761714622E+04  0.37411207612E+04  0.30430679120E+04 0.  0.
        1    1    3    3  502    0 -0.79620243919E+03  0.12906224679E+04  0.12407526534E+04  0.19593651588E+04  0.50400001928E-02 0.  1.
       -1    1    3    3    0  502  0.79620243919E+03 -0.12906224679E+04  0.93541880880E+03  0.17817556024E+04  0.50400001928E-02 0. -1.
</event>
<event>
 5   0  0.5392262E-06  0.3018468E+04  0.7818609E-02  0.8238477E-01
        1   -1    0    0  501    0  0.00000000000E+00  0.00000000000E+00  0.17461518475E+04  0.17461518475E+04  0.50400001928E-02 0.  1.
       -1   -1    0    0    0  501  0.00000000000E+00  0.00000000000E+00 -0.13044612160E+04  0.13044612160E+04  0.50400001928E-02 0. -1.
    10030    2    1    2    0    0  0.00000000000E+00  0.00000000000E+00  0.44169063151E+03  0.30506130635E+04  0.30184680633E+04 0.  0.
        2    1    3    3  502    0  0.71635560871E+03  0.87963623408E+02  0.15604360485E+04  0.17192625217E+04  0.25500000920E-02 0.  1.
       -2    1    3    3    0  502 -0.71635560871E+03 -0.87963623408E+02 -0.11187454170E+04  0.13313505418E+04  0.25500000920E-02 0. -1.
</event>
<event>
 5   0  0.5730920E-06  0.2989156E+04  0.7818609E-02  0.8246834E-01
       -1   -1    0    0    0  501  0.00000000000E+00  0.00000000000E+00  0.87585670212E+03  0.87585670213E+03  0.50400001928E-02 0. -1.
        1   -1    0    0  501    0  0.00000000000E+00  0.00000000000E+00 -0.25503750510E+04  0.25503750510E+04  0.50400001928E-02 0.  1.
    10030    2    1    2    0    0  0.00000000000E+00  0.00000000000E+00 -0.16745183488E+04  0.34262317531E+04  0.29891557881E+04 0.  0.
        1    1    3    3  502    0  0.33375569963E+02 -0.10148852767E+04  0.41975183748E+03  0.10987709764E+04  0.50400001928E-02 0.  1.
       -1    1    3    3    0  502 -0.33375569963E+02  0.10148852767E+04 -0.20942701863E+04  0.23274607767E+04  0.50400001928E-02 0. -1.
</event>
<event>
 5   0  0.1480547E-05  0.2990305E+04  0.7818609E-02  0.8246505E-01
        2   -1    0    0  501    0  0.00000000000E+00  0.00000000000E+00  0.21763743040E+04  0.21763743040E+04  0.25500000920E-02 0. -1.
       -2   -1    0    0    0  501  0.00000000000E+00  0.00000000000E+00 -0.10271586216E+04  0.10271586216E+04  0.25500000920E-02 0.  1.
    10030    2    1    2    0    0  0.00000000000E+00  0.00000000000E+00  0.11492156825E+04  0.32035329256E+04  0.29903054226E+04 0.  0.
        1    1    3    3  502    0  0.13435887391E+04 -0.56512866996E+03  0.93133918019E+03  0.17297380675E+04  0.50400001928E-02 0. -1.
       -1    1    3    3    0  502 -0.13435887391E+04  0.56512866996E+03  0.21787650226E+03  0.14737948581E+04  0.50400001928E-02 0.  1.
</event>
<event>
 5   0  0.5522695E-06  0.2839796E+04  0.7818609E-02  0.8291019E-01
       -1   -1    0    0    0  501  0.00000000000E+00  0.00000000000E+00  0.11518354763E+04  0.11518354763E+04  0.50400001928E-02 0. -1.
        1   -1    0    0  501    0  0.00000000000E+00  0.00000000000E+00 -0.17503459862E+04  0.17503459862E+04  0.50400001928E-02 0.  1.
    10030    2    1    2    0    0  0.00000000000E+00  0.00000000000E+00 -0.59851050986E+03  0.29021814625E+04  0.28397961918E+04 0.  0.
        3    1    3    3  502    0 -0.39022404418E+03  0.96095873053E+03 -0.12902978949E+04  0.16554712786E+04  0.10100000352E+00 0.  1.
       -3    1    3    3    0  502  0.39022404418E+03 -0.96095873053E+03  0.69178738506E+03  0.12467101839E+04  0.10100000352E+00 0. -1.
</event>
<event>
 5   0  0.1388724E-05  0.2955786E+04  0.7818609E-02  0.8256470E-01
        2   -1    0    0  501    0  0.00000000000E+00  0.00000000000E+00  0.19959881276E+04  0.19959881276E+04  0.25500000920E-02 0. -1.
       -2   -1    0    0    0  501  0.00000000000E+00  0.00000000000E+00 -0.10942791391E+04  0.10942791391E+04  0.25500000920E-02 0.  1.
    10030    2    1    2    0    0  0.00000000000E+00  0.00000000000E+00  0.90170898847E+03  0.30902672667E+04  0.29557863048E+04 0.  0.
        4    1    3    3  502    0 -0.38219421459E+03  0.98524274928E+02 -0.10381583013E+04  0.11106546366E+04  0.12699999809E+01 0.  1.
       -4    1    3    3    0  502  0.38219421459E+03 -0.98524274928E+02  0.19398672897E+04  0.19796126301E+04  0.12699999809E+01 0. -1.
</event>
<event>
 5   0  0.1423692E-05  0.2978720E+04  0.7818609E-02  0.8249834E-01
       -2   -1    0    0    0  501  0.00000000000E+00  0.00000000000E+00  0.11754343562E+04  0.11754343562E+04  0.25500000920E-02 0.  1.
        2   -1    0    0  501    0  0.00000000000E+00  0.00000000000E+00 -0.18871259072E+04  0.18871259072E+04  0.25500000920E-02 0. -1.
    10030    2    1    2    0    0  0.00000000000E+00  0.00000000000E+00 -0.71169155102E+03  0.30625602634E+04  0.29787196080E+04 0.  0.
        3    1    3    3  502    0  0.11527957569E+04 -0.83728767660E+03 -0.80188118174E+03  0.16349318488E+04  0.10100000352E+00 0. -1.
       -3    1    3    3    0  502 -0.11527957569E+04  0.83728767660E+03  0.90189630726E+02  0.14276284146E+04  0.10100000352E+00 0.  1.
</event>
<event>
 5   0  0.1345931E-05  0.3024653E+04  0.7818609E-02  0.8236726E-01
       -2   -1    0    0    0  501  0.00000000000E+00  0.00000000000E+00  0.20565824086E+04  0.20565824086E+04  0.25500000920E-02 0.  1.
        2   -1    0    0  501    0  0.00000000000E+00  0.00000000000E+00 -0.11121028365E+04  0.11121028365E+04  0.25500000920E-02 0. -1.
    10030    2    1    2    0    0  0.00000000000E+00  0.00000000000E+00  0.94447957210E+03  0.31686852452E+04  0.30246527934E+04 0.  0.
        2    1    3    3  502    0 -0.50095251205E+03 -0.34509847902E+03  0.19227614840E+04  0.20166948465E+04  0.25500000920E-02 0.  1.
       -2    1    3    3    0  502  0.50095251205E+03  0.34509847902E+03 -0.97828191188E+03  0.11519903987E+04  0.25500000920E-02 0. -1.
</event>
<event>
 5   0  0.7032692E-06  0.2884041E+04  0.7818609E-02  0.8277642E-01
       -1   -1    0    0    0  501  0.00000000000E+00  0.00000000000E+00  0.15222616644E+04  0.15222616644E+04  0.50400001928E-02 0. -1.
        1   -1    0    0  501    0  0.00000000000E+00  0.00000000000E+00 -0.13660091992E+04  0.13660091992E+04  0.50400001928E-02 0.  1.
    10030    2    1    2    0    0  0.00000000000E+00  0.00000000000E+00  0.15625246517E+03  0.28882708636E+04  0.28840412183E+04 0.  0.
        5    1    3    3  502    0 -0.49564339923E+03 -0.17567526172E+03 -0.12665555645E+04  0.13713895379E+04  0.46999998093E+01 0.  1.
       -5    1    3    3    0  502  0.49564339923E+03  0.17567526172E+03  0.14228080297E+04  0.15168813257E+04  0.46999998093E+01 0. -1.
</event>
<event>
 5   0  0.5730920E-06  0.2981323E+04  0.7818609E-02  0.8249084E-01
        1   -1    0    0  501    0  0.00000000000E+00  0.00000000000E+00  0.12448006174E+04  0.12448006174E+04  0.50400001928E-02 0. -1.
       -1   -1    0    0    0  501  0.00000000000E+00  0.00000000000E+00 -0.17850820684E+04  0.17850820684E+04  0.50400001928E-02 0.  1.
    10030    2    1    2    0    0  0.00000000000E+00  0.00000000000E+00 -0.54028145097E+03  0.30298826858E+04  0.29813227003E+04 0.  0.
        1    1    3    3  502    0 -0.38790871246E+03  0.11950240034E+04 -0.10854012382E+04  0.16603166522E+04  0.50400001928E-02 0.  1.
       -1    1    3    3    0  502  0.38790871246E+03 -0.11950240034E+04  0.54511978723E+03  0.13695660336E+04  0.50400001928E-02 0. -1.
</event>
<event>
 5   0  0.1388724E-05  0.2994566E+04  0.7818609E-02  0.8245284E-01
        2   -1    0    0  501    0  0.00000000000E+00  0.00000000000E+00  0.17915706599E+04  0.17915706599E+04  0.25500000920E-02 0. -1.
       -2   -1    0    0    0  501  0.00000000000E+00  0.00000000000E+00 -0.12513354033E+04  0.12513354033E+04  0.25500000920E-02 0.  1.
    10030    2    1    2    0    0  0.00000000000E+00  0.00000000000E+00  0.54023525666E+03  0.30429060632E+04  0.29945656073E+04 0.  0.
        4    1    3    3  502    0  0.65047639679E+03 -0.88088144895E+02  0.16375660514E+04  0.17642287974E+04  0.12699999809E+01 0. -1.
       -4    1    3    3    0  502 -0.65047639679E+03  0.88088144895E+02 -0.10973307947E+04  0.12786772658E+04  0.12699999809E+01 0.  1.
</event>
<event>
 5   0  0.1388724E-05  0.3009392E+04  0.7818609E-02  0.8241054E-01
       -2   -1    0    0    0  501  0.00000000000E+00  0.00000000000E+00  0.12805157358E+04  0.12805157358E+04  0.25500000920E-02 0.  1.
        2   -1    0    0  501    0  0.00000000000E+00  0.00000000000E+00 -0.17681240841E+04  0.17681240841E+04  0.25500000920E-02 0. -1.
    10030    2    1    2    0    0  0.00000000000E+00  0.00000000000E+00 -0.48760834822E+03  0.30486398199E+04  0.30093924387E+04 0.  0.
        4    1    3    3  502    0  0.50703644266E+02 -0.93666615283E+03 -0.14356659522E+04  0.17149497604E+04  0.12699999809E+01 0. -1.
       -4    1    3    3    0  502 -0.50703644266E+02  0.93666615283E+03  0.94805760400E+03  0.13336900595E+04  0.12699999809E+01 0.  1.
</event>
<event>
 5   0  0.1523029E-05  0.3155388E+04  0.7818609E-02  0.8200699E-01
       -2   -1    0    0    0  501  0.00000000000E+00  0.00000000000E+00  0.21172258269E+04  0.21172258269E+04  0.25500000920E-02 0.  1.
        2   -1    0    0  501    0  0.00000000000E+00  0.00000000000E+00 -0.11756510931E+04  0.11756510931E+04  0.25500000920E-02 0. -1.
    10030    2    1    2    0    0  0.00000000000E+00  0.00000000000E+00  0.94157473377E+03  0.32928769199E+04  0.31553883169E+04 0.  0.
        5    1    3    3  502    0  0.10570412501E+04 -0.37146635898E+03 -0.68836458259E+03  0.13149872048E+04  0.46999998093E+01 0. -1.
       -5    1    3    3    0  502 -0.10570412501E+04  0.37146635898E+03  0.16299393164E+04  0.19778897151E+04  0.46999998093E+01 0.  1.
</event>
<event>
 5   0  0.1423692E-05  0.2938856E+04  0.7818609E-02  0.8261410E-01
        2   -1    0    0  501    0  0.00000000000E+00  0.00000000000E+00  0.19750660635E+04  0.19750660635E+04  0.25500000920E-02 0.  1.
       -2   -1    0    0    0  501  0.00000000000E+00  0.00000000000E+00 -0.10932389959E+04  0.10932389959E+04  0.25500000920E-02 0. -1.
    10030    2    1    2    0    0  0.00000000000E+00  0.00000000000E+00  0.88182706765E+03  0.30683050594E+04  0.29388564035E+04 0.  0.
        3    1    3    3  502    0  0.12763143685E+04 -0.51172251722E+03 -0.99960328725E+02  0.13787060526E+04  0.10100000352E+00 0.  1.
       -3    1    3    3    0  502 -0.12763143685E+04  0.51172251722E+03  0.98178739638E+03  0.16895990068E+04  0.10100000352E+00 0. -1.
</event>
<event>
 5   0  0.1388724E-05  0.2942559E+04  0.7818609E-02  0.8260326E-01
        2   -1    0    0  501    0  0.00000000000E+00  0.00000000000E+00  0.18136272774E+04  0.18136272774E+04  0.25500000920E-02 0. -1.
       -2   -1    0    0    0  501  0.00000000000E+00  0.00000000000E+00 -0.11935548502E+04  0.11935548502E+04  0.25500000920E-02 0.  1.
    10030    2    1    2    0    0  0.00000000000E+00  0.00000000000E+00  0.62007242721E+03  0.30071821276E+04  0.29425591810E+04 0.  0.
        4    1    3    3  502    0  0.14425781633E+04 -0.28210144145E+03  0.37506573506E+03  0.15169999667E+04  0.12699999809E+01 0. -1.
       -4    1    3    3    0  502 -0.14425781633E+04  0.28210144145E+03  0.24500669215E+03  0.14901821609E+04  0.12699999809E+01 0.  1.
</event>
<event>
 5   0  0.7032692E-06  0.3242897E+04  0.7818609E-02  0.8177579E-01
        1   -1    0    0  501    0  0.00000000000E+00  0.00000000000E+00  0.18701294347E+04  0.18701294347E+04  0.50400001928E-02 0.  1.
       -1   -1    0    0    0  501  0.00000000000E+00  0.00000000000E+00 -0.14058362431E+04  0.14058362431E+04  0.50400001928E-02 0. -1.
    10030    2    1    2    0    0  0.00000000000E+00  0.00000000000E+00  0.46429319161E+03  0.32759656779E+04  0.32428973087E+04 0.  0.
        5    1    3    3  502    0  0.10294579562E+04 -0.99603686449E+03 -0.53533771670E+03  0.15292094951E+04  0.46999998093E+01 0. -1.
       -5    1    3    3    0  502 -0.10294579562E+04  0.99603686449E+03  0.99963090831E+03  0.17467561827E+04  0.46999998093E+01 0.  1.
</event>
<event>
 5   0  0.5392262E-06  0.2953469E+04  0.7818609E-02  0.8257144E-01
       -1   -1    0    0    0  501  0.00000000000E+00  0.00000000000E+00  0.18480151914E+04  0.18480151914E+04  0.50400001928E-02 0.  1.
        1   -1    0    0  501    0  0.00000000000E+00  0.00000000000E+00 -0.11800470815E+04  0.11800470815E+04  0.50400001928E-02 0. -1.
    10030    2    1    2    0    0  0.00000000000E+00  0.00000000000E+00  0.66796810993E+03  0.30280622729E+04  0.29534691014E+04 0.  0.
        2    1    3    3  502    0  0.52948835403E+03 -0.92337156325E+03 -0.71547562826E+03  0.12825281032E+04  0.25500000920E-02 0. -1.
       -2    1    3    3    0  502 -0.52948835403E+03  0.92337156325E+03  0.13834437382E+04  0.17455341697E+04  0.25500000920E-02 0.  1.
</event>
<event>
 5   0  0.1388724E-05  0.2537736E+04  0.7818609E-02  0.8389664E-01
       -2   -1    0    0    0  501  0.00000000000E+00  0.00000000000E+00  0.83213936709E+03  0.83213936710E+03  0.25500000920E-02 0. -1.
        2   -1    0    0  501    0  0.00000000000E+00  0.00000000000E+00 -0.19348035115E+04  0.19348035115E+04  0.25500000920E-02 0.  1.
    10030    2    1    2    0    0  0.00000000000E+00  0.00000000000E+00 -0.11026641444E+04  0.27669428786E+04  0.25377361325E+04 0.  0.
        4    1    3    3  502    0  0.19597505974E+03  0.12301000107E+04 -0.28768144720E+03  0.12784031009E+04  0.12699999809E+01 0. -1.
       -4    1    3    3    0  502 -0.19597505974E+03 -0.12301000107E+04 -0.81498269723E+03  0.14885397778E+04  0.12699999809E+01 0.  1.
</event>
<event>
 5   0  0.1423692E-05  0.2847073E+04  0.7818609E-02  0.8288801E-01
       -2   -1    0    0    0  501  0.00000000000E+00  0.00000000000E+00  0.18260297410E+04  0.18260297410E+04  0.25500000920E-02 0. -1.
        2   -1    0    0  501    0  0.00000000000E+00  0.00000000000E+00 -0.11097609301E+04  0.11097609301E+04  0.25500000920E-02 0.  1.
    10030    2    1    2    0    0  0.00000000000E+00  0.00000000000E+00  0.71626881096E+03  0.29357906711E+04  0.28470732086E+04 0.  0.
        3    1    3    3  502    0  0.29696472300E+03  0.10679783268E+04 -0.56283184629E+03  0.12431996825E+04  0.10100000352E+00 0.  1.
       -3    1    3    3    0  502 -0.29696472300E+03 -0.10679783268E+04  0.12791006573E+04  0.16925909886E+04  0.10100000352E+00 0. -1.
</event>
<event>
 5   0  0.1345931E-05  0.2779948E+04  0.7818609E-02  0.8309521E-01
       -2   -1    0    0    0  501  0.00000000000E+00  0.00000000000E+00  0.10562097408E+04  0.10562097408E+04  0.25500000920E-02 0. -1.
        2   -1    0    0  501    0  0.00000000000E+00  0.00000000000E+00 -0.18292088392E+04  0.18292088392E+04  0.25500000920E-02 0.  1.
    10030    2    1    2    0    0  0.00000000000E+00  0.00000000000E+00 -0.77299909841E+03  0.28854185801E+04  0.27799483405E+04 0.  0.
        2    1    3    3  502    0 -0.12858739786E+04  0.50483741693E+03 -0.22672598491E+03  0.13999062035E+04  0.25500000920E-02 0. -1.
       -2    1    3    3    0  502  0.12858739786E+04 -0.50483741693E+03 -0.54627311350E+03  0.14855123766E+04  0.25500000920E-02 0.  1.
</event>
<event>
 5   0  0.1388724E-05  0.3052311E+04  0.7818609E-02  0.8228949E-01
        2   -1    0    0  501    0  0.00000000000E+00  0.00000000000E+00  0.15120307099E+04  0.15120307099E+04  0.25500000920E-02 0. -1.
       -2   -1    0    0    0  501  0.00000000000E+00  0.00000000000E+00 -0.15404118605E+04  0.15404118605E+04  0.25500000920E-02 0.  1.
    10030    2    1    2    0    0  0.00000000000E+00  0.00000000000E+00 -0.28381150619E+02  0.30524425704E+04  0.30523106257E+04 0.  0.
        4    1    3    3  502    0 -0.45711722216E+03 -0.87915801604E+03 -0.11749618430E+04  0.15370139614E+04  0.12699999809E+01 0.  1.
       -4    1    3    3    0  502  0.45711722216E+03  0.87915801604E+03  0.11465806924E+04  0.15154286090E+04  0.12699999809E+01 0. -1.
</event>
<event>
 5   0  0.5730920E-06  0.3055362E+04  0.7818609E-02  0.8228096E-01
       -1   -1    0    0    0  501  0.00000000000E+00  0.00000000000E+00  0.17431425230E+04  0.17431425230E+04  0.50400001928E-02 0. -1.
        1   -1    0    0  501    0  0.00000000000E+00  0.00000000000E+00 -0.13388519969E+04  0.13388519969E+04  0.50400001928E-02 0.  1.
    10030    2    1    2    0    0  0.00000000000E+00  0.00000000000E+00  0.40429052610E+03  0.30819945199E+04  0.30553623993E+04 0.  0.
        1    1    3    3  502    0 -0.68488533307E+03  0.13621935443E+04  0.29874363535E+03  0.15536688616E+04  0.50400001928E-02 0. -1.
       -1    1    3    3    0  502  0.68488533307E+03 -0.13621935443E+04  0.10554689075E+03  0.15283256583E+04  0.50400001928E-02 0.  1.
</event>
<event>
 5   0  0.1345931E-05  0.2973129E+04  0.7818609E-02  0.8251446E-01
       -2   -1    0    0    0  501  0.00000000000E+00  0.00000000000E+00  0.16689089746E+04  0.16689089746E+04  0.25500000920E-02 0. -1.
        2   -1    0    0  501    0  0.00000000000E+00  0.00000000000E+00 -0.13241426139E+04  0.13241426139E+04  0.25500000920E-02 0.  1.
    10030    2    1    2    0    0  0.00000000000E+00  0.00000000000E+00  0.34476636066E+03  0.29930515885E+04  0.29731286497E+04 0.  0.
        2    1    3    3  502    0  0.66232141318E+03 -0.13256333796E+04  0.29107139453E+03  0.15101973607E+04  0.25500000920E-02 0. -1.
       -2    1    3    3    0  502 -0.66232141318E+03  0.13256333796E+04  0.53694966132E+02  0.14828542278E+04  0.25500000920E-02 0.  1.
</event>
<event>
 5   0  0.7032692E-06  0.2968364E+04  0.7818609E-02  0.8252823E-01
       -1   -1    0    0    0  501  0.00000000000E+00  0.00000000000E+00  0.16927908566E+04  0.16927908566E+04  0.50400001928E-02 0. -1.
        1   -1    0    0  501    0  0.00000000000E+00  0.00000000000E+00 -0.13012805009E+04  0.13012805009E+04  0.50400001928E-02 0.  1.
    10030    2    1    2    0    0  0.00000000000E+00  0.00000000000E+00  0.39151035567E+03  0.29940713575E+04  0.29683636798E+04 0.  0.
        5    1    3    3  502    0 -0.11550720919E+04 -0.89303592601E+03  0.46465156052E+03  0.15321970713E+04  0.46999998093E+01 0.  1.
       -5    1    3    3    0  502  0.11550720919E+04  0.89303592601E+03 -0.73141204851E+02  0.14618742862E+04  0.46999998093E+01 0. -1.
</event>
<event>
 5   0  0.5522695E-06  0.2958926E+04  0.7818609E-02  0.8255558E-01
        1   -1    0    0  501    0  0.00000000000E+00  0.00000000000E+00  0.26846827627E+04  0.26846827627E+04  0.50400001928E-02 0.  1.
       -1   -1    0    0    0  501  0.00000000000E+00  0.00000000000E+00 -0.81529597495E+03  0.81529597496E+03  0.50400001928E-02 0. -1.
    10030    2    1    2    0    0  0.00000000000E+00  0.00000000000E+00  0.18693867877E+04  0.34999787376E+04  0.29589261907E+04 0.  0.
        3    1    3    3  502    0  0.30812773823E+02  0.14157415239E+04  0.42794341436E+03  0.14793272342E+04  0.10100000352E+00 0. -1.
       -3    1    3    3    0  502 -0.30812773823E+02 -0.14157415239E+04  0.14414433734E+04  0.20206515035E+04  0.10100000352E+00 0.  1.
</event>
<event>
 5   0  0.1523029E-05  0.3229700E+04  0.7818609E-02  0.8181017E-01
       -2   -1    0    0    0  501  0.00000000000E+00  0.00000000000E+00  0.17122224374E+04  0.17122224374E+04  0.25500000920E-02 0. -1.
        2   -1    0    0  501    0  0.00000000000E+00  0.00000000000E+00 -0.15230150352E+04  0.15230150352E+04  0.25500000920E-02 0.  1.
    10030    2    1    2    0    0  0.00000000000E+00  0.00000000000E+00  0.18920740213E+03  0.32352374726E+04  0.32296999958E+04 0.  0.
        5    1    3    3  502    0  0.22120322827E+03  0.25253582171E+03  0.16768730183E+04  0.17101550863E+04  0.46999998093E+01 0. -1.
       -5    1    3    3    0  502 -0.22120322827E+03 -0.25253582171E+03 -0.14876656162E+04  0.15250823863E+04  0.46999998093E+01 0.  1.
</event>
<event>
 5   0  0.7032692E-06  0.1991980E+04  0.7818609E-02  0.8610380E-01
       -1   -1    0    0    0  501  0.00000000000E+00  0.00000000000E+00  0.66669662198E+03  0.66669662200E+03  0.50400001928E-02 0.  1.
        1   -1    0    0  501    0  0.00000000000E+00  0.00000000000E+00 -0.14879265177E+04  0.14879265177E+04  0.50400001928E-02 0. -1.
    10030    2    1    2    0    0  0.00000000000E+00  0.00000000000E+00 -0.82122989569E+03  0.21546231397E+04  0.19919795010E+04 0.  0.
        5    1    3    3  502    0  0.35053725349E+03 -0.78187796653E+03  0.13854336599E+03  0.86800108000E+03  0.46999998093E+01 0.  1.
       -5    1    3    3    0  502 -0.35053725349E+03  0.78187796653E+03 -0.95977326168E+03  0.12866220597E+04  0.46999998093E+01 0. -1.
</event>
<event>
 5   0  0.1423692E-05  0.2994202E+04  0.7818609E-02  0.8245388E-01
       -2   -1    0    0    0  501  0.00000000000E+00  0.00000000000E+00  0.98299594714E+03  0.98299594714E+03  0.25500000920E-02 0. -1.
        2   -1    0    0  501    0  0.00000000000E+00  0.00000000000E+00 -0.22800820831E+04  0.22800820831E+04  0.25500000920E-02 0.  1.
    10030    2    1    2    0    0  0.00000000000E+00  0.00000000000E+00 -0.12970861359E+04  0.32630780302E+04  0.29942020285E+04 0.  0.
        3    1    3    3  502    0  0.56358078554E+03 -0.13245310956E+04 -0.10969599011E+04  0.18097864404E+04  0.10100000352E+00 0.  1.
       -3    1    3    3    0  502 -0.56358078554E+03  0.13245310956E+04 -0.20012623481E+03  0.14532915898E+04  0.10100000352E+00 0. -1.
</event>
<event>
 5   0  0.5730920E-06  0.2768235E+04  0.7818609E-02  0.8313199E-01
        1   -1    0    0  501    0  0.00000000000E+00  0.00000000000E+00  0.11543080853E+04  0.11543080853E+04  0.50400001928E-02 0.  1.
       -1   -1    0    0    0  501  0.00000000000E+00  0.00000000000E+00 -0.16596787769E+04  0.16596787769E+04  0.50400001928E-02 0. -1.
    10030    2    1    2    0    0  0.00000000000E+00  0.00000000000E+00 -0.50537069153E+03  0.28139868622E+04  0.27682345502E+04 0.  0.
        1    1    3    3  502    0  0.87087420528E+03 -0.32813872229E+03 -0.12941593000E+04  0.15940342519E+04  0.50400001928E-02 0. -1.
       -1    1    3    3    0  502 -0.87087420528E+03  0.32813872229E+03  0.78878860846E+03  0.12199526103E+04  0.50400001928E-02 0.  1.
</event>
<event>
 5   0  0.7032692E-06  0.2142688E+04  0.7818609E-02  0.8542669E-01
       -1   -1    0    0    0  501  0.00000000000E+00  0.00000000000E+00  0.77668441250E+03  0.77668441252E+03  0.50400001928E-02 0.  1.
        1   -1    0    0  501    0  0.00000000000E+00  0.00000000000E+00 -0.14777919035E+04  0.14777919035E+04  0.50400001928E-02 0. -1.
    10030    2    1    2    0    0  0.00000000000E+00  0.00000000000E+00 -0.70110749098E+03  0.22544763160E+04  0.21426879720E+04 0.  0.
        5    1    3    3  502    0  0.74425118047E+03 -0.11319745327E+03  0.45146940997E+03  0.87782128090E+03  0.46999998093E+01 0.  1.
       -5    1    3    3    0  502 -0.74425118047E+03  0.11319745327E+03 -0.11525769010E+04  0.13766550351E+04  0.46999998093E+01 0. -1.
</event>
<event>
 5   0  0.1423692E-05  0.2906100E+04  0.7818609E-02  0.8271065E-01
        2   -1    0    0  501    0  0.00000000000E+00  0.00000000000E+00  0.19994195255E+04  0.19994195255E+04  0.25500000920E-02 0.  1.
       -2   -1    0    0    0  501  0.00000000000E+00  0.00000000000E+00 -0.10559832858E+04  0.10559832858E+04  0.25500000920E-02 0. -1.
    10030    2    1    2    0    0  0.00000000000E+00  0.00000000000E+00  0.94343623970E+03  0.30554028112E+04  0.29060995166E+04 0.  0.
        3    1    3    3  502    0 -0.10180769180E+04 -0.23356550315E+03 -0.59028604558E+03  0.11997795969E+04  0.10100000352E+00 0. -1.
       -3    1    3    3    0  502  0.10180769180E+04  0.23356550315E+03  0.15337222853E+04  0.18556232144E+04  0.10100000352E+00 0.  1.
</event>
<event>
 5   0  0.1523029E-05  0.2950807E+04  0.7818609E-02  0.8257920E-01
       -2   -1    0    0    0  501  0.00000000000E+00  0.00000000000E+00  0.18985689253E+04  0.18985689253E+04  0.25500000920E-02 0.  1.
        2   -1    0    0  501    0  0.00000000000E+00  0.00000000000E+00 -0.11465556076E+04  0.11465556076E+04  0.25500000920E-02 0. -1.
    10030    2    1    2    0    0  0.00000000000E+00  0.00000000000E+00  0.75201331764E+03  0.30451245329E+04  0.29508065661E+04 0.  0.
        5    1    3    3  502    0  0.38714865788E+03 -0.10131985959E+04 -0.65613080952E+03  0.12676692026E+04  0.46999998093E+01 0. -1.
       -5    1    3    3    0  502 -0.38714865788E+03  0.10131985959E+04  0.14081441272E+04  0.17774553302E+04  0.46999998093E+01 0.  1.
</event>
<event>
 5   0  0.1523029E-05  0.3025908E+04  0.7818609E-02  0.8236371E-01
        2   -1    0    0  501    0  0.00000000000E+00  0.00000000000E+00  0.20512905534E+04  0.20512905535E+04  0.25500000920E-02 0. -1.
       -2   -1    0    0    0  501  0.00000000000E+00  0.00000000000E+00 -0.11158972865E+04  0.11158972865E+04  0.25500000920E-02 0.  1.
    10030    2    1    2    0    0  0.00000000000E+00  0.00000000000E+00  0.93539326693E+03  0.31671878400E+04  0.30259078390E+04 0.  0.
        5    1    3    3  502    0 -0.46116785677E+03 -0.42066351049E+03 -0.97482839415E+03  0.11575603955E+04  0.46999998093E+01 0.  1.
       -5    1    3    3    0  502  0.46116785677E+03  0.42066351049E+03  0.19102216611E+04  0.20096274445E+04  0.46999998093E+01 0. -1.
</event>
<event>
 5   0  0.5329891E-06  0.3016427E+04  0.7818609E-02  0.8239056E-01
        1   -1    0    0  501    0  0.00000000000E+00  0.00000000000E+00  0.17050175311E+04  0.17050175311E+04  0.50400001928E-02 0. -1.
       -1   -1    0    0    0  501  0.00000000000E+00  0.00000000000E+00 -0.13341256959E+04  0.13341256959E+04  0.50400001928E-02 0.  1.
    10030    2    1    2    0    0  0.00000000000E+00  0.00000000000E+00  0.37089183515E+03  0.30391432270E+04  0.30164268267E+04 0.  0.
        4    1    3    3  502    0 -0.14001377528E+04  0.50522086408E+03  0.43032409762E+03  0.15494561273E+04  0.12699999809E+01 0. -1.
       -4    1    3    3    0  502  0.14001377528E+04 -0.50522086408E+03 -0.59432262474E+02  0.14896870998E+04  0.12699999809E+01 0.  1.
</event>
<event>
 5   0  0.4806125E-06  0.2809046E+04  0.7818609E-02  0.8300465E-01
        3   -1    0    0  501    0  0.00000000000E+00  0.00000000000E+00  0.11050035499E+04  0.11050035545E+04  0.10100000352E+00 0. -1.
       -3   -1    0    0    0  501  0.00000000000E+00  0.00000000000E+00 -0.17852298874E+04  0.17852298902E+04  0.10100000352E+00 0.  1.
    10030    2    1    2    0    0  0.00000000000E+00  0.00000000000E+00 -0.68022633749E+03  0.28902334448E+04  0.28090463675E+04 0.  0.
        3    1    3    3  502    0  0.68589336587E+03  0.47375789733E+03 -0.15031771474E+04  0.17188478121E+04  0.10100000352E+00 0.  1.
       -3    1    3    3    0  502 -0.68589336587E+03 -0.47375789733E+03  0.82295080990E+03  0.11713856326E+04  0.10100000352E+00 0. -1.
</event>
<event>
 5   0  0.5329891E-06  0.3035554E+04  0.7818609E-02  0.8233651E-01
        1   -1    0    0  501    0  0.00000000000E+00  0.00000000000E+00  0.18572230484E+04  0.18572230484E+04  0.50400001928E-02 0. -1.
       -1   -1    0    0    0  501  0.00000000000E+00  0.00000000000E+00 -0.12403713926E+04  0.12403713926E+04  0.50400001928E-02 0.  1.
    10030    2    1    2    0    0  0.00000000000E+00  0.00000000000E+00  0.61685165585E+03  0.30975944410E+04  0.30355535502E+04 0.  0.
        4    1    3    3  502    0  0.76727463340E+03  0.97247040415E+03 -0.58656042917E+03  0.13705706111E+04  0.12699999809E+01 0.  1.
       -4    1    3    3    0  502 -0.76727463340E+03 -0.97247040415E+03  0.12034120850E+04  0.17270238300E+04  0.12699999809E+01 0. -1.
</event>
<event>
 5   0  0.5522695E-06  0.2955675E+04  0.7818609E-02  0.8256503E-01
        1   -1    0    0  501    0  0.00000000000E+00  0.00000000000E+00  0.19727597839E+04  0.19727597839E+04  0.50400001928E-02 0. -1.
       -1   -1    0    0    0  501  0.00000000000E+00  0.00000000000E+00 -0.11070801719E+04  0.11070801719E+04  0.50400001928E-02 0.  1.
    10030    2    1    2    0    0  0.00000000000E+00  0.00000000000E+00  0.86567961200E+03  0.30798399558E+04  0.29556747052E+04 0.  0.
        3    1    3    3  502    0 -0.80761074862E+03 -0.82176182309E+03  0.13971772171E+04  0.18109753729E+04  0.10100000352E+00 0. -1.
       -3    1    3    3    0  502  0.80761074862E+03  0.82176182309E+03 -0.53149760511E+03  0.12688645829E+04  0.10100000352E+00 0.  1.
</event>
<event>
 5   0  0.5329891E-06  0.3032130E+04  0.7818609E-02  0.8234615E-01
        1   -1    0    0  501    0  0.00000000000E+00  0.00000000000E+00  0.19857208487E+04  0.19857208487E+04  0.50400001928E-02 0. -1.
       -1   -1    0    0    0  501  0.00000000000E+00  0.00000000000E+00 -0.11574901829E+04  0.11574901829E+04  0.50400001928E-02 0.  1.
    10030    2    1    2    0    0  0.00000000000E+00  0.00000000000E+00  0.82823066582E+03  0.31432110316E+04  0.30321295410E+04 0.  0.
        4    1    3    3  502    0 -0.56728133478E+03 -0.51922265034E+03  0.17685216579E+04  0.19284892379E+04  0.12699999809E+01 0. -1.
       -4    1    3    3    0  502  0.56728133478E+03  0.51922265034E+03 -0.94029099207E+03  0.12147217937E+04  0.12699999809E+01 0.  1.
</event>
<event>
 5   0  0.1423692E-05  0.2569854E+04  0.7818609E-02  0.8378514E-01
        2   -1    0    0  501    0  0.00000000000E+00  0.00000000000E+00  0.16850488500E+04  0.16850488500E+04  0.25500000920E-02 0. -1.
       -2   -1    0    0    0  501  0.00000000000E+00  0.00000000000E+00 -0.97981603935E+03  0.97981603936E+03  0.25500000920E-02 0.  1.
    10030    2    1    2    0    0  0.00000000000E+00  0.00000000000E+00  0.70523281062E+03  0.26648648893E+04  0.25698543852E+04 0.  0.
        3    1    3    3  502    0  0.12071346263E+03 -0.12785355002E+04  0.39677134930E+03  0.13441176582E+04  0.10100000352E+00 0. -1.
       -3    1    3    3    0  502 -0.12071346263E+03  0.12785355002E+04  0.30846146132E+03  0.13207472311E+04  0.10100000352E+00 0.  1.
</event>
<event>
 5   0  0.1523029E-05  0.2897264E+04  0.7818609E-02  0.8273692E-01
        2   -1    0    0  501    0  0.00000000000E+00  0.00000000000E+00  0.21691023238E+04  0.21691023238E+04  0.25500000920E-02 0. -1.
       -2   -1    0    0    0  501  0.00000000000E+00  0.00000000000E+00 -0.96746661029E+03  0.96746661029E+03  0.25500000920E-02 0.  1.
    10030    2    1    2    0    0  0.00000000000E+00  0.00000000000E+00  0.12016357136E+04  0.31365689341E+04  0.28972635866E+04 0.  0.
        5    1    3    3  502    0 -0.10308679112E+04  0.95670451422E+03  0.97668301559E+03  0.17122803453E+04  0.46999998093E+01 0. -1.
       -5    1    3    3    0  502  0.10308679112E+04 -0.95670451422E+03  0.22495269797E+03  0.14242885888E+04  0.46999998093E+01 0.  1.
</event>
<event>
 5   0  0.1523029E-05  0.2617031E+04  0.7818609E-02  0.8362439E-01
       -2   -1    0    0    0  501  0.00000000000E+00  0.00000000000E+00  0.10961461429E+04  0.10961461429E+04  0.25500000920E-02 0. -1.
        2   -1    0    0  501    0  0.00000000000E+00  0.00000000000E+00 -0.15620295666E+04  0.15620295666E+04  0.25500000920E-02 0.  1.
    10030    2    1    2    0    0  0.00000000000E+00  0.00000000000E+00 -0.46588342368E+03  0.26581757096E+04  0.26170309013E+04 0.  0.
        5    1    3    3  502    0  0.34848401707E+03 -0.81748078684E+03 -0.12084973742E+04  0.15000679786E+04  0.46999998093E+01 0.  1.
       -5    1    3    3    0  502 -0.34848401707E+03  0.81748078684E+03  0.74261395052E+03  0.11581077310E+04  0.46999998093E+01 0. -1.
</event>
<event>
 5   0  0.5730920E-06  0.2971799E+04  0.7818609E-02  0.8251830E-01
       -1   -1    0    0    0  501  0.00000000000E+00  0.00000000000E+00  0.17598982642E+04  0.17598982643E+04  0.50400001928E-02 0. -1.
        1   -1    0    0  501    0  0.00000000000E+00  0.00000000000E+00 -0.12545595972E+04  0.12545595972E+04  0.50400001928E-02 0.  1.
    10030    2    1    2    0    0  0.00000000000E+00  0.00000000000E+00  0.50533866703E+03  0.30144578615E+04  0.29717989552E+04 0.  0.
        1    1    3    3  502    0 -0.19339700392E+03  0.93923356007E+03 -0.89867233866E+03  0.13142199412E+04  0.50400001928E-02 0.  1.
       -1    1    3    3    0  502  0.19339700392E+03 -0.93923356007E+03  0.14040110057E+04  0.17002379203E+04  0.50400001928E-02 0. -1.
</event>
<event>
 5   0  0.1480547E-05  0.3012973E+04  0.7818609E-02  0.8240036E-01
       -2   -1    0    0    0  501  0.00000000000E+00  0.00000000000E+00  0.14340481394E+04  0.14340481394E+04  0.25500000920E-02 0.  1.
        2   -1    0    0  501    0  0.00000000000E+00  0.00000000000E+00 -0.15825841533E+04  0.15825841533E+04  0.25500000920E-02 0. -1.
    10030    2    1    2    0    0  0.00000000000E+00  0.00000000000E+00 -0.14853601392E+03  0.30166322927E+04  0.30129731897E+04 0.  0.
        1    1    3    3  502    0 -0.12250839864E+04  0.85013647388E+03 -0.28886230225E+03  0.15188825589E+04  0.50400001928E-02 0. -1.
       -1    1    3    3    0  502  0.12250839864E+04 -0.85013647388E+03  0.14032628832E+03  0.14977497338E+04  0.50400001928E-02 0.  1.
</event>
<event>
 5   0  0.1480547E-05  0.3080945E+04  0.7818609E-02  0.8220987E-01
        2   -1    0    0  501    0  0.00000000000E+00  0.00000000000E+00  0.96782977900E+03  0.96782977900E+03  0.25500000920E-02 0.  1.
       -2   -1    0    0    0  501  0.00000000000E+00  0.00000000000E+00 -0.24519347409E+04  0.24519347409E+04  0.25500000920E-02 0. -1.
    10030    2    1    2    0    0  0.00000000000E+00  0.00000000000E+00 -0.14841049619E+04  0.34197645199E+04  0.30809449579E+04 0.  0.
        1    1    3    3  502    0 -0.48083671800E+03 -0.12300132243E+04  0.13820477223E+03  0.13278693612E+04  0.50400001928E-02 0.  1.
       -1    1    3    3    0  502  0.48083671800E+03  0.12300132243E+04 -0.16223097341E+04  0.20918951586E+04  0.50400001928E-02 0. -1.
</event>
<event>
 5   0  0.5522695E-06  0.3071710E+04  0.7818609E-02  0.8223545E-01
        1   -1    0    0  501    0  0.00000000000E+00  0.00000000000E+00  0.20990648115E+04  0.20990648115E+04  0.50400001928E-02 0.  1.
       -1   -1    0    0    0  501  0.00000000000E+00  0.00000000000E+00 -0.11237624067E+04  0.11237624067E+04  0.50400001928E-02 0. -1.
    10030    2    1    2    0    0  0.00000000000E+00  0.00000000000E+00  0.97530240483E+03  0.32228272182E+04  0.30717097026E+04 0.  0.
        3    1    3    3  502    0  0.43312522926E+03 -0.14477580576E+04  0.19983982390E+03  0.15243151981E+04  0.10100000352E+00 0. -1.
       -3    1    3    3    0  502 -0.43312522926E+03  0.14477580576E+04  0.77546258093E+03  0.16985120201E+04  0.10100000352E+00 0.  1.
</event>
<event>
 5   0  0.1388724E-05  0.2942817E+04  0.7818609E-02  0.8260251E-01
       -2   -1    0    0    0  501  0.00000000000E+00  0.00000000000E+00  0.26400697842E+04  0.26400697842E+04  0.25500000920E-02 0.  1.
        2   -1    0    0  501    0  0.00000000000E+00  0.00000000000E+00 -0.82007057309E+03  0.82007057309E+03  0.25500000920E-02 0. -1.
    10030    2    1    2    0    0  0.00000000000E+00  0.00000000000E+00  0.18199992111E+04  0.34601403573E+04  0.29428173854E+04 0.  0.
        4    1    3    3  502    0 -0.72317173021E+03  0.12754975127E+04  0.76517818284E+03  0.16538955592E+04  0.12699999809E+01 0.  1.
       -4    1    3    3    0  502  0.72317173021E+03 -0.12754975127E+04  0.10548210283E+04  0.18062447981E+04  0.12699999809E+01 0. -1.
</event>
<event>
 5   0  0.5392262E-06  0.2964718E+04  0.7818609E-02  0.8253878E-01
        1   -1    0    0  501    0  0.00000000000E+00  0.00000000000E+00  0.20743415398E+04  0.20743415398E+04  0.50400001928E-02 0. -1.
       -1   -1    0    0    0  501  0.00000000000E+00  0.00000000000E+00 -0.10593182014E+04  0.10593182014E+04  0.50400001928E-02 0.  1.
    10030    2    1    2    0    0  0.00000000000E+00  0.00000000000E+00  0.10150233384E+04  0.31336597412E+04  0.29647176925E+04 0.  0.
        2    1    3    3  502    0  0.87667801439E+03 -0.96251018384E+03 -0.24167881276E+03  0.13241596745E+04  0.25500000920E-02 0.  1.
       -2    1    3    3    0  502 -0.87667801439E+03  0.96251018384E+03  0.12567021512E+04  0.18095000668E+04  0.25500000920E-02 0. -1.
</event>
<event>
 5   0  0.1345931E-05  0.2934385E+04  0.7818609E-02  0.8262720E-01
       -2   -1    0    0    0  501  0.00000000000E+00  0.00000000000E+00  0.79477781224E+03  0.79477781224E+03  0.25500000920E-02 0. -1.
        2   -1    0    0  501    0  0.00000000000E+00  0.00000000000E+00 -0.27084982943E+04  0.27084982943E+04  0.25500000920E-02 0.  1.
    10030    2    1    2    0    0  0.00000000000E+00  0.00000000000E+00 -0.19137204821E+04  0.35032761066E+04  0.29343853522E+04 0.  0.
        2    1    3    3  502    0  0.16046443539E+03 -0.70443549542E+03 -0.24814081625E+04  0.25844466857E+04  0.25500000920E-02 0.  1.
       -2    1    3    3    0  502 -0.16046443539E+03  0.70443549542E+03  0.56768768040E+03  0.91882942090E+03  0.25500000920E-02 0. -1.
</event>
<event>
 5   0  0.5730920E-06  0.2141041E+04  0.7818609E-02  0.8543377E-01
        1   -1    0    0  501    0  0.00000000000E+00  0.00000000000E+00  0.13605203834E+04  0.13605203835E+04  0.50400001928E-02 0.  1.
       -1   -1    0    0    0  501  0.00000000000E+00  0.00000000000E+00 -0.84233489012E+03  0.84233489013E+03  0.50400001928E-02 0. -1.
    10030    2    1    2    0    0  0.00000000000E+00  0.00000000000E+00  0.51818549333E+03  0.22028552736E+04  0.21410406701E+04 0.  0.
        1    1    3    3  502    0  0.10286511198E+04 -0.28834544175E+03  0.32998464902E+03  0.11181037915E+04  0.50400001928E-02 0. -1.
       -1    1    3    3    0  502 -0.10286511198E+04  0.28834544175E+03  0.18820084431E+03  0.10847514821E+04  0.50400001928E-02 0.  1.
</event>
<event>
 5   0  0.1345931E-05  0.1897820E+04  0.7818609E-02  0.8655942E-01
        2   -1    0    0  501    0  0.00000000000E+00  0.00000000000E+00  0.25115453999E+04  0.25115453999E+04  0.25500000920E-02 0.  1.
       -2   -1    0    0    0  501  0.00000000000E+00  0.00000000000E+00 -0.35851647675E+03  0.35851647676E+03  0.25500000920E-02 0. -1.
    10030    2    1    2    0    0  0.00000000000E+00  0.00000000000E+00  0.21530289232E+04  0.28700618767E+04  0.18978202317E+04 0.  0.
        2    1    3    3  502    0 -0.36315741489E+03  0.38795479945E+02 -0.24796663177E+03  0.44144744617E+03  0.25500000920E-02 0. -1.
       -2    1    3    3    0  502  0.36315741489E+03 -0.38795479945E+02  0.24009955550E+04  0.24286144305E+04  0.25500000920E-02 0.  1.
</event>
<event>
 5   0  0.1523029E-05  0.1958711E+04  0.7818609E-02  0.8626172E-01
       -2   -1    0    0    0  501  0.00000000000E+00  0.00000000000E+00  0.13701817856E+04  0.13701817856E+04  0.25500000920E-02 0.  1.
        2   -1    0    0  501    0  0.00000000000E+00  0.00000000000E+00 -0.70000728030E+03  0.70000728031E+03  0.25500000920E-02 0. -1.
    10030    2    1    2    0    0  0.00000000000E+00  0.00000000000E+00  0.67017450533E+03  0.20701890660E+04  0.19587110305E+04 0.  0.
        5    1    3    3  502    0  0.22185163192E+03 -0.88656597158E+03  0.70711161463E+03  0.11555285778E+04  0.46999998093E+01 0.  1.
       -5    1    3    3    0  502 -0.22185163192E+03  0.88656597158E+03 -0.36937109292E+02  0.91466048816E+03  0.46999998093E+01 0. -1.
</event>
<event>
 5   0  0.1523029E-05  0.2947398E+04  0.7818609E-02  0.8258913E-01
       -2   -1    0    0    0  501  0.00000000000E+00  0.00000000000E+00  0.10486939042E+04  0.10486939042E+04  0.25500000920E-02 0.  1.
        2   -1    0    0  501    0  0.00000000000E+00  0.00000000000E+00 -0.20709459664E+04  0.20709459664E+04  0.25500000920E-02 0. -1.
    10030    2    1    2    0    0  0.00000000000E+00  0.00000000000E+00 -0.10222520622E+04  0.31196398707E+04  0.29473977750E+04 0.  0.
        5    1    3    3  502    0  0.52493063410E+03  0.89778208641E+03  0.59401853763E+03  0.11976831628E+04  0.46999998093E+01 0.  1.
       -5    1    3    3    0  502 -0.52493063410E+03 -0.89778208641E+03 -0.16162705998E+04  0.19219567079E+04  0.46999998093E+01 0. -1.
</event>
<event>
 5   0  0.1523029E-05  0.2623715E+04  0.7818609E-02  0.8360190E-01
       -2   -1    0    0    0  501  0.00000000000E+00  0.00000000000E+00  0.21508578059E+04  0.21508578059E+04  0.25500000920E-02 0.  1.
        2   -1    0    0  501    0  0.00000000000E+00  0.00000000000E+00 -0.80013203615E+03  0.80013203615E+03  0.25500000920E-02 0. -1.
    10030    2    1    2    0    0  0.00000000000E+00  0.00000000000E+00  0.13507257697E+04  0.29509898420E+04  0.26237151032E+04 0.  0.
        5    1    3    3  502    0 -0.10157627019E+04  0.82893554718E+03  0.62456088848E+03  0.14522418536E+04  0.46999998093E+01 0. -1.
       -5    1    3    3    0  502  0.10157627019E+04 -0.82893554718E+03  0.72616488123E+03  0.14987479884E+04  0.46999998093E+01 0.  1.
</event>
<event>
 5   0  0.5730920E-06  0.2946922E+04  0.7818609E-02  0.8259052E-01
        1   -1    0    0  501    0  0.00000000000E+00  0.00000000000E+00  0.22688029352E+04  0.22688029352E+04  0.50400001928E-02 0.  1.
       -1   -1    0    0    0  501  0.00000000000E+00  0.00000000000E+00 -0.95693052768E+03  0.95693052769E+03  0.50400001928E-02 0. -1.
    10030    2    1    2    0    0  0.00000000000E+00  0.00000000000E+00  0.13118724075E+04  0.32257334629E+04  0.29469216413E+04 0.  0.
        1    1    3    3  502    0  0.46546986417E+03 -0.70135780404E+03  0.19797017376E+04  0.21512284708E+04  0.50400001928E-02 0.  1.
       -1    1    3    3    0  502 -0.46546986417E+03  0.70135780404E+03 -0.66782933012E+03  0.10745049920E+04  0.50400001928E-02 0. -1.
</event>
<event>
 5   0  0.5522695E-06  0.2996470E+04  0.7818609E-02  0.8244740E-01
        1   -1    0    0  501    0  0.00000000000E+00  0.00000000000E+00  0.22946714865E+04  0.22946714865E+04  0.50400001928E-02 0. -1.
       -1   -1    0    0    0  501  0.00000000000E+00  0.00000000000E+00 -0.97822652087E+03  0.97822652089E+03  0.50400001928E-02 0.  1.
    10030    2    1    2    0    0  0.00000000000E+00  0.00000000000E+00  0.13164449657E+04  0.32728980074E+04  0.29964702600E+04 0.  0.
        3    1    3    3  502    0 -0.79979380868E+03  0.66827860875E+03 -0.51737773672E+03  0.11635919250E+04  0.10100000352E+00 0.  1.
       -3    1    3    3    0  502  0.79979380868E+03 -0.66827860875E+03  0.18338227024E+04  0.21093060824E+04  0.10100000352E+00 0. -1.
</event>
<event>
 5   0  0.5522695E-06  0.2943521E+04  0.7818609E-02  0.8260045E-01
       -1   -1    0    0    0  501  0.00000000000E+00  0.00000000000E+00  0.12795413356E+04  0.12795413356E+04  0.50400001928E-02 0.  1.
        1   -1    0    0  501    0  0.00000000000E+00  0.00000000000E+00 -0.16928561120E+04  0.16928561120E+04  0.50400001928E-02 0. -1.
    10030    2    1    2    0    0  0.00000000000E+00  0.00000000000E+00 -0.41331477640E+03  0.29723974476E+04  0.29435212726E+04 0.  0.
        3    1    3    3  502    0 -0.25827274329E+03  0.13895431656E+04  0.20791157848E+03  0.14285525029E+04  0.10100000352E+00 0.  1.
       -3    1    3    3    0  502  0.25827274329E+03 -0.13895431656E+04 -0.62122635488E+03  0.15438449447E+04  0.10100000352E+00 0. -1.
</event>
<event>
 5   0  0.1480547E-05  0.1521342E+04  0.7818609E-02  0.8870384E-01
        2   -1    0    0  501    0  0.00000000000E+00  0.00000000000E+00  0.13629258055E+04  0.13629258055E+04  0.25500000920E-02 0. -1.
       -2   -1    0    0    0  501  0.00000000000E+00  0.00000000000E+00 -0.42454254790E+03  0.42454254791E+03  0.25500000920E-02 0.  1.
    10030    2    1    2    0    0  0.00000000000E+00  0.00000000000E+00  0.93838325755E+03  0.17874683534E+04  0.15213415055E+04 0.  0.
        1    1    3    3  502    0 -0.45582799968E+03  0.26239957053E+03  0.11148547525E+04  0.12326937248E+04  0.50400001928E-02 0. -1.
       -1    1    3    3    0  502  0.45582799968E+03 -0.26239957053E+03 -0.17647149500E+03  0.55477462854E+03  0.50400001928E-02 0.  1.
</event>
<event>
 5   0  0.1095816E-05  0.1480492E+04  0.7818609E-02  0.8897530E-01
        1   -1    0    0  501    0  0.00000000000E+00  0.00000000000E+00  0.11984473841E+04  0.11984473841E+04  0.50400001928E-02 0. -1.
       -1   -1    0    0    0  501  0.00000000000E+00  0.00000000000E+00 -0.45722843826E+03  0.45722843829E+03  0.50400001928E-02 0.  1.
    10030    2    1    2    0    0  0.00000000000E+00  0.00000000000E+00  0.74121894579E+03  0.16556758224E+04  0.14804921152E+04 0.  0.
        5    1    3    3  502    0  0.29108587930E+03 -0.12393457003E+03  0.11190135783E+04  0.11628861703E+04  0.46999998093E+01 0. -1.
       -5    1    3    3    0  502 -0.29108587930E+03  0.12393457003E+03 -0.37779463250E+03  0.49278965201E+03  0.46999998093E+01 0.  1.
</event>
<event>
 5   0  0.1480547E-05  0.1652021E+04  0.7818609E-02  0.8789212E-01
       -2   -1    0    0    0  501  0.00000000000E+00  0.00000000000E+00  0.73420709905E+03  0.73420709905E+03  0.25500000920E-02 0.  1.
        2   -1    0    0  501    0  0.00000000000E+00  0.00000000000E+00 -0.92929324635E+03  0.92929324635E+03  0.25500000920E-02 0. -1.
    10030    2    1    2    0    0  0.00000000000E+00  0.00000000000E+00 -0.19508614730E+03  0.16635003454E+04  0.16520214267E+04 0.  0.
        1    1    3    3  502    0  0.80239750097E+03 -0.19275887504E+03 -0.61293419245E+02  0.82749901313E+03  0.50400001928E-02 0.  1.
       -1    1    3    3    0  502 -0.80239750097E+03  0.19275887504E+03 -0.13379272806E+03  0.83600133228E+03  0.50400001928E-02 0. -1.
</event>
<event>
 5   0  0.1423692E-05  0.2999261E+04  0.7818609E-02  0.8243942E-01
       -2   -1    0    0    0  501  0.00000000000E+00  0.00000000000E+00  0.32036058565E+04  0.32036058565E+04  0.25500000920E-02 0. -1.
        2   -1    0    0  501    0  0.00000000000E+00  0.00000000000E+00 -0.70198747423E+03  0.70198747423E+03  0.25500000920E-02 0.  1.
    10030    2    1    2    0    0  0.00000000000E+00  0.00000000000E+00  0.25016183822E+04  0.39055933307E+04  0.29992606980E+04 0.  0.
        3    1    3    3  502    0 -0.58619339840E+03 -0.10235654773E+04  0.24567074820E+04  0.27252010291E+04  0.10100000352E+00 0. -1.
       -3    1    3    3    0  502  0.58619339840E+03  0.10235654773E+04  0.44910900251E+02  0.11803923016E+04  0.10100000352E+00 0.  1.
</event>
<event>
 5   0  0.1345931E-05  0.2982462E+04  0.7818609E-02  0.8248757E-01
       -2   -1    0    0    0  501  0.00000000000E+00  0.00000000000E+00  0.10734821022E+04  0.10734821022E+04  0.25500000920E-02 0.  1.
        2   -1    0    0  501    0  0.00000000000E+00  0.00000000000E+00 -0.20715478974E+04  0.20715478974E+04  0.25500000920E-02 0. -1.
    10030    2    1    2    0    0  0.00000000000E+00  0.00000000000E+00 -0.99806579518E+03  0.31450299997E+04  0.29824617965E+04 0.  0.
        2    1    3    3  502    0 -0.10297695454E+04 -0.77891095333E+02 -0.16334391498E+04  0.19325154063E+04  0.25500000920E-02 0. -1.
       -2    1    3    3    0  502  0.10297695454E+04  0.77891095333E+02  0.63537335460E+03  0.12125145934E+04  0.25500000920E-02 0.  1.
</event>
<event>
 5   0  0.5392262E-06  0.2984218E+04  0.7818609E-02  0.8248252E-01
        1   -1    0    0  501    0  0.00000000000E+00  0.00000000000E+00  0.27664751926E+04  0.27664751926E+04  0.50400001928E-02 0. -1.
       -1   -1    0    0    0  501  0.00000000000E+00  0.00000000000E+00 -0.80477490586E+03  0.80477490588E+03  0.50400001928E-02 0.  1.
    10030    2    1    2    0    0  0.00000000000E+00  0.00000000000E+00  0.19617002868E+04  0.35712500985E+04  0.29842183652E+04 0.  0.
        2    1    3    3  502    0  0.13181945128E+04  0.29217998319E+03  0.17409120120E+04  0.22031297170E+04  0.25500000920E-02 0. -1.
       -2    1    3    3    0  502 -0.13181945128E+04 -0.29217998319E+03  0.22078827477E+03  0.13681203816E+04  0.25500000920E-02 0.  1.
</event>
<event>
 5   0  0.1523029E-05  0.3032913E+04  0.7818609E-02  0.8234394E-01
        2   -1    0    0  501    0  0.00000000000E+00  0.00000000000E+00  0.19289805312E+04  0.19289805312E+04  0.25500000920E-02 0. -1.
       -2   -1    0    0    0  501  0.00000000000E+00  0.00000000000E+00 -0.11921535930E+04  0.11921535930E+04  0.25500000920E-02 0.  1.
    10030    2    1    2    0    0  0.00000000000E+00  0.00000000000E+00  0.73682693824E+03  0.31211341242E+04  0.30329134977E+04 0.  0.
        5    1    3    3  502    0 -0.36601459362E+03 -0.16517259169E+03 -0.11364387961E+04  0.12053065565E+04  0.46999998093E+01 0.  1.
       -5    1    3    3    0  502  0.36601459362E+03  0.16517259169E+03  0.18732657343E+04  0.19158275677E+04  0.46999998093E+01 0. -1.
</event>
<event>
 5   0  0.1523029E-05  0.2990412E+04  0.7818609E-02  0.8246474E-01
       -2   -1    0    0    0  501  0.00000000000E+00  0.00000000000E+00  0.15887480021E+04  0.15887480021E+04  0.25500000920E-02 0.  1.
        2   -1    0    0  501    0  0.00000000000E+00  0.00000000000E+00 -0.14071713356E+04  0.14071713356E+04  0.25500000920E-02 0. -1.
    10030    2    1    2    0    0  0.00000000000E+00  0.00000000000E+00  0.18157666653E+03  0.29959193378E+04  0.29904117764E+04 0.  0.
        5    1    3    3  502    0  0.34497021447E+03  0.14317920200E+04 -0.16772900439E+03  0.14822914512E+04  0.46999998093E+01 0. -1.
       -5    1    3    3    0  502 -0.34497021447E+03 -0.14317920200E+04  0.34930567092E+03  0.15136278866E+04  0.46999998093E+01 0.  1.
</event>
<event>
 5   0  0.1480547E-05  0.2919806E+04  0.7818609E-02  0.8267009E-01
       -2   -1    0    0    0  501  0.00000000000E+00  0.00000000000E+00  0.14319297957E+04  0.14319297957E+04  0.25500000920E-02 0.  1.
        2   -1    0    0  501    0  0.00000000000E+00  0.00000000000E+00 -0.14884223691E+04  0.14884223691E+04  0.25500000920E-02 0. -1.
    10030    2    1    2    0    0  0.00000000000E+00  0.00000000000E+00 -0.56492573479E+02  0.29203521648E+04  0.29198057051E+04 0.  0.
        1    1    3    3  502    0  0.22515742169E+03 -0.33550474917E+03  0.13748908322E+04  0.14330331824E+04  0.50400001928E-02 0.  1.
       -1    1    3    3    0  502 -0.22515742169E+03  0.33550474917E+03 -0.14313834057E+04  0.14873189824E+04  0.50400001928E-02 0. -1.
</event>
<event>
 5   0  0.1345931E-05  0.2929097E+04  0.7818609E-02  0.8264272E-01
       -2   -1    0    0    0  501  0.00000000000E+00  0.00000000000E+00  0.97551923936E+03  0.97551923937E+03  0.25500000920E-02 0. -1.
        2   -1    0    0  501    0  0.00000000000E+00  0.00000000000E+00 -0.21987292429E+04  0.21987292429E+04  0.25500000920E-02 0.  1.
    10030    2    1    2    0    0  0.00000000000E+00  0.00000000000E+00 -0.12232100035E+04  0.31742484822E+04  0.29290972525E+04 0.  0.
        2    1    3    3  502    0 -0.90886153175E+03  0.45159074463E+02  0.63197191901E+03  0.11079066442E+04  0.25500000920E-02 0. -1.
       -2    1    3    3    0  502  0.90886153175E+03 -0.45159074463E+02 -0.18551819225E+04  0.20663418380E+04  0.25500000920E-02 0.  1.
</event>
<event>
 5   0  0.5392262E-06  0.2979273E+04  0.7818609E-02  0.8249675E-01
        1   -1    0    0  501    0  0.00000000000E+00  0.00000000000E+00  0.26976005447E+04  0.26976005448E+04  0.50400001928E-02 0. -1.
       -1   -1    0    0    0  501  0.00000000000E+00  0.00000000000E+00 -0.82258902387E+03  0.82258902389E+03  0.50400001928E-02 0.  1.
    10030    2    1    2    0    0  0.00000000000E+00  0.00000000000E+00  0.18750115209E+04  0.35201895686E+04  0.29792727965E+04 0.  0.
        2    1    3    3  502    0 -0.63599344230E+03 -0.17611258757E+03  0.25154583712E+04  0.26005834191E+04  0.25500000920E-02 0. -1.
       -2    1    3    3    0  502  0.63599344230E+03  0.17611258757E+03 -0.64044685037E+03  0.91960614956E+03  0.25500000920E-02 0.  1.
</event>
<event>
 5   0  0.5392262E-06  0.3036634E+04  0.7818609E-02  0.8233347E-01
       -1   -1    0    0    0  501  0.00000000000E+00  0.00000000000E+00  0.28743281952E+04  0.28743281952E+04  0.50400001928E-02 0.  1.
        1   -1    0    0  501    0  0.00000000000E+00  0.00000000000E+00 -0.80202620674E+03  0.80202620675E+03  0.50400001928E-02 0. -1.
    10030    2    1    2    0    0  0.00000000000E+00  0.00000000000E+00  0.20723019884E+04  0.36763544019E+04  0.30366340177E+04 0.  0.
        2    1    3    3  502    0 -0.13182276383E+04  0.74630901664E+03  0.11607103022E+04  0.19083892843E+04  0.25500000920E-02 0. -1.
       -2    1    3    3    0  502  0.13182276383E+04 -0.74630901664E+03  0.91159168626E+03  0.17679651176E+04  0.25500000920E-02 0.  1.
</event>
<event>
 5   0  0.1523029E-05  0.2775813E+04  0.7818609E-02  0.8310817E-01
       -2   -1    0    0    0  501  0.00000000000E+00  0.00000000000E+00  0.11365341714E+04  0.11365341714E+04  0.25500000920E-02 0. -1.
        2   -1    0    0  501    0  0.00000000000E+00  0.00000000000E+00 -0.16948758646E+04  0.16948758646E+04  0.25500000920E-02 0.  1.
    10030    2    1    2    0    0  0.00000000000E+00  0.00000000000E+00 -0.55834169320E+03  0.28314100360E+04  0.27758129162E+04 0.  0.
        5    1    3    3  502    0 -0.10857653543E+04 -0.37703015724E+03  0.51437255041E+03  0.12592217258E+04  0.46999998093E+01 0. -1.
       -5    1    3    3    0  502  0.10857653543E+04  0.37703015724E+03 -0.10727142436E+04  0.15721883102E+04  0.46999998093E+01 0.  1.
</event>
<event>
 5   0  0.1423692E-05  0.2278872E+04  0.7818609E-02  0.8486299E-01
        2   -1    0    0  501    0  0.00000000000E+00  0.00000000000E+00  0.21616112747E+04  0.21616112747E+04  0.25500000920E-02 0. -1.
       -2   -1    0    0    0  501  0.00000000000E+00  0.00000000000E+00 -0.60062336134E+03  0.60062336134E+03  0.25500000920E-02 0.  1.
    10030    2    1    2    0    0  0.00000000000E+00  0.00000000000E+00  0.15609879134E+04  0.27622346360E+04  0.22788718522E+04 0.  0.
        3    1    3    3  502    0 -0.44138982508E+03 -0.54590626456E+02 -0.49106787281E+03  0.66253511612E+03  0.10100000352E+00 0.  1.
       -3    1    3    3    0  502  0.44138982508E+03  0.54590626456E+02  0.20520557862E+04  0.20996995199E+04  0.10100000352E+00 0. -1.
</event>
<event>
 5   0  0.5392262E-06  0.3038718E+04  0.7818609E-02  0.8232760E-01
       -1   -1    0    0    0  501  0.00000000000E+00  0.00000000000E+00  0.16685680852E+04  0.16685680852E+04  0.50400001928E-02 0. -1.
        1   -1    0    0  501    0  0.00000000000E+00  0.00000000000E+00 -0.13834925853E+04  0.13834925853E+04  0.50400001928E-02 0.  1.
    10030    2    1    2    0    0  0.00000000000E+00  0.00000000000E+00  0.28507549993E+03  0.30520606705E+04  0.30387178703E+04 0.  0.
        2    1    3    3  502    0  0.23863416549E+03 -0.75927541775E+03 -0.11573653679E+04  0.14046138330E+04  0.25500000920E-02 0.  1.
       -2    1    3    3    0  502 -0.23863416549E+03  0.75927541775E+03  0.14424408679E+04  0.16474468375E+04  0.25500000920E-02 0. -1.
</event>
<event>
 5   0  0.1345931E-05  0.2988236E+04  0.7818609E-02  0.8247098E-01
       -2   -1    0    0    0  501  0.00000000000E+00  0.00000000000E+00  0.13764195635E+04  0.13764195635E+04  0.25500000920E-02 0.  1.
        2   -1    0    0  501    0  0.00000000000E+00  0.00000000000E+00 -0.16218810897E+04  0.16218810897E+04  0.25500000920E-02 0. -1.
    10030    2    1    2    0    0  0.00000000000E+00  0.00000000000E+00 -0.24546152617E+03  0.29983006531E+04  0.29882361764E+04 0.  0.
        2    1    3    3  502    0 -0.94679296569E+03  0.95976795752E+03 -0.76896319179E+03  0.15520553606E+04  0.25500000920E-02 0. -1.
       -2    1    3    3    0  502  0.94679296569E+03 -0.95976795752E+03  0.52350166562E+03  0.14462452925E+04  0.25500000920E-02 0.  1.
</event>
<event>
 5   0  0.5329891E-06  0.2960977E+04  0.7818609E-02  0.8254963E-01
        1   -1    0    0  501    0  0.00000000000E+00  0.00000000000E+00  0.13149999012E+04  0.13149999012E+04  0.50400001928E-02 0. -1.
       -1   -1    0    0    0  501  0.00000000000E+00  0.00000000000E+00 -0.16668036342E+04  0.16668036342E+04  0.50400001928E-02 0.  1.
    10030    2    1    2    0    0  0.00000000000E+00  0.00000000000E+00 -0.35180373302E+03  0.29818035354E+04  0.29609772808E+04 0.  0.
        4    1    3    3  502    0 -0.13719910700E+04  0.40491547454E+03  0.20826390599E+03  0.14455765304E+04  0.12699999809E+01 0. -1.
       -4    1    3    3    0  502  0.13719910700E+04 -0.40491547454E+03 -0.56006763901E+03  0.15362270050E+04  0.12699999809E+01 0.  1.
</event>
<event>
 5   0  0.5522695E-06  0.1917542E+04  0.7818609E-02  0.8646173E-01
        1   -1    0    0  501    0  0.00000000000E+00  0.00000000000E+00  0.23917423742E+04  0.23917423743E+04  0.50400001928E-02 0.  1.
       -1   -1    0    0    0  501  0.00000000000E+00  0.00000000000E+00 -0.38433987090E+03  0.38433987093E+03  0.50400001928E-02 0. -1.
    10030    2    1    2    0    0  0.00000000000E+00  0.00000000000E+00  0.20074025034E+04  0.27760822452E+04  0.19175421303E+04 0.  0.
        3    1    3    3  502    0  0.80565774831E+02 -0.43526893695E+03  0.22349456307E+04  0.22783616644E+04  0.10100000352E+00 0.  1.
       -3    1    3    3    0  502 -0.80565774831E+02  0.43526893695E+03 -0.22754312732E+03  0.49772058078E+03  0.10100000352E+00 0. -1.
</event>
<event>
 5   0  0.1480547E-05  0.1683319E+04  0.7818609E-02  0.8770935E-01
       -2   -1    0    0    0  501  0.00000000000E+00  0.00000000000E+00  0.59322305865E+03  0.59322305866E+03  0.25500000920E-02 0. -1.
        2   -1    0    0  501    0  0.00000000000E+00  0.00000000000E+00 -0.11941394966E+04  0.11941394966E+04  0.25500000920E-02 0.  1.
    10030    2    1    2    0    0  0.00000000000E+00  0.00000000000E+00 -0.60091643796E+03  0.17873625553E+04  0.16833194404E+04 0.  0.
        1    1    3    3  502    0 -0.12558697389E+03 -0.70196436627E+03  0.17423662824E+03  0.73408750307E+03  0.50400001928E-02 0. -1.
       -1    1    3    3    0  502  0.12558697389E+03  0.70196436627E+03 -0.77515306619E+03  0.10532750522E+04  0.50400001928E-02 0.  1.
</event>
<event>
 5   0  0.5392262E-06  0.3066037E+04  0.7818609E-02  0.8225121E-01
        1   -1    0    0  501    0  0.00000000000E+00  0.00000000000E+00  0.23652166442E+04  0.23652166442E+04  0.50400001928E-02 0.  1.
       -1   -1    0    0    0  501  0.00000000000E+00  0.00000000000E+00 -0.99362780246E+03  0.99362780247E+03  0.50400001928E-02 0. -1.
    10030    2    1    2    0    0  0.00000000000E+00  0.00000000000E+00  0.13715888418E+04  0.33588444467E+04  0.30660365403E+04 0.  0.
        2    1    3    3  502    0  0.82523781775E+03 -0.14906484533E+03  0.20916707978E+04  0.22535138141E+04  0.25500000920E-02 0.  1.
       -2    1    3    3    0  502 -0.82523781775E+03  0.14906484533E+03 -0.72008195603E+03  0.11053306326E+04  0.25500000920E-02 0. -1.
</event>
<event>
 5   0  0.1480547E-05  0.3025906E+04  0.7818609E-02  0.8236372E-01
        2   -1    0    0  501    0  0.00000000000E+00  0.00000000000E+00  0.19006382976E+04  0.19006382976E+04  0.25500000920E-02 0. -1.
       -2   -1    0    0    0  501  0.00000000000E+00  0.00000000000E+00 -0.12043466146E+04  0.12043466146E+04  0.25500000920E-02 0.  1.
    10030    2    1    2    0    0  0.00000000000E+00  0.00000000000E+00  0.69629168296E+03  0.31049849122E+04  0.30259063431E+04 0.  0.
        1    1    3    3  502    0 -0.38407349712E+03  0.75977858620E+03 -0.93524011119E+03  0.12646936455E+04  0.50400001928E-02 0.  1.
       -1    1    3    3    0  502  0.38407349712E+03 -0.75977858620E+03  0.16315317942E+04  0.18402912668E+04  0.50400001928E-02 0. -1.
</event>
<event>
 5   0  0.1423692E-05  0.2725245E+04  0.7818609E-02  0.8326860E-01
        2   -1    0    0  501    0  0.00000000000E+00  0.00000000000E+00  0.16147053345E+04  0.16147053345E+04  0.25500000920E-02 0.  1.
       -2   -1    0    0    0  501  0.00000000000E+00  0.00000000000E+00 -0.11498942816E+04  0.11498942816E+04  0.25500000920E-02 0. -1.
    10030    2    1    2    0    0  0.00000000000E+00  0.00000000000E+00  0.46481105293E+03  0.27645996161E+04  0.27252452591E+04 0.  0.
        3    1    3    3  502    0  0.48144047296E+03  0.81913849713E+03  0.12232225646E+04  0.15488854894E+04  0.10100000352E+00 0.  1.
       -3    1    3    3    0  502 -0.48144047296E+03 -0.81913849713E+03 -0.75841151170E+03  0.12157141267E+04  0.10100000352E+00 0. -1.
</event>
<event>
 5   0  0.5730920E-06  0.2984925E+04  0.7818609E-02  0.8248049E-01
       -1   -1    0    0    0  501  0.00000000000E+00  0.00000000000E+00  0.24154681894E+04  0.24154681894E+04  0.50400001928E-02 0. -1.
        1   -1    0    0  501    0  0.00000000000E+00  0.00000000000E+00 -0.92215861035E+03  0.92215861036E+03  0.50400001928E-02 0.  1.
    10030    2    1    2    0    0  0.00000000000E+00  0.00000000000E+00  0.14933095790E+04  0.33376267997E+04  0.29849253183E+04 0.  0.
        1    1    3    3  502    0  0.98034149688E+03 -0.11514049305E+03  0.19983548964E+04  0.22288447850E+04  0.50400001928E-02 0. -1.
       -1    1    3    3    0  502 -0.98034149688E+03  0.11514049305E+03 -0.50504531735E+03  0.11087820148E+04  0.50400001928E-02 0.  1.
</event>
<event>
 5   0  0.5730920E-06  0.3005619E+04  0.7818609E-02  0.8242128E-01
       -1   -1    0    0    0  501  0.00000000000E+00  0.00000000000E+00  0.17254963888E+04  0.17254963888E+04  0.50400001928E-02 0.  1.
        1   -1    0    0  501    0  0.00000000000E+00  0.00000000000E+00 -0.13088622053E+04  0.13088622053E+04  0.50400001928E-02 0. -1.
    10030    2    1    2    0    0  0.00000000000E+00  0.00000000000E+00  0.41663418351E+03  0.30343585941E+04  0.30056194094E+04 0.  0.
        1    1    3    3  502    0  0.13966616717E+04 -0.42079314906E+02  0.76678139006E+03  0.15938595277E+04  0.50400001928E-02 0.  1.
       -1    1    3    3    0  502 -0.13966616717E+04  0.42079314906E+02 -0.35014720654E+03  0.14404990664E+04  0.50400001928E-02 0. -1.
</event>
<event>
 5   0  0.1480547E-05  0.1932623E+04  0.7818609E-02  0.8638786E-01
       -2   -1    0    0    0  501  0.00000000000E+00  0.00000000000E+00  0.85851878664E+03  0.85851878664E+03  0.25500000920E-02 0.  1.
        2   -1    0    0  501    0  0.00000000000E+00  0.00000000000E+00 -0.10876385588E+04  0.10876385589E+04  0.25500000920E-02 0. -1.
    10030    2    1    2    0    0  0.00000000000E+00  0.00000000000E+00 -0.22911977221E+03  0.19461573455E+04  0.19326232285E+04 0.  0.
        1    1    3    3  502    0  0.11893677538E+03 -0.95068276404E+03 -0.24119611173E+03  0.98798746891E+03  0.50400001928E-02 0. -1.
       -1    1    3    3    0  502 -0.11893677538E+03  0.95068276404E+03  0.12076339522E+02  0.95816987658E+03  0.50400001928E-02 0.  1.
</event>
<event>
 5   0  0.5392262E-06  0.1814681E+04  0.7818609E-02  0.8698531E-01
       -1   -1    0    0    0  501  0.00000000000E+00  0.00000000000E+00  0.63190817534E+03  0.63190817536E+03  0.50400001928E-02 0. -1.
        1   -1    0    0  501    0  0.00000000000E+00  0.00000000000E+00 -0.13028269119E+04  0.13028269119E+04  0.50400001928E-02 0.  1.
    10030    2    1    2    0    0  0.00000000000E+00  0.00000000000E+00 -0.67091873654E+03  0.19347350872E+04  0.18146812135E+04 0.  0.
        2    1    3    3  502    0  0.55049078475E+03 -0.51412418971E+02 -0.11024877483E+04  0.12333541973E+04  0.25500000920E-02 0.  1.
       -2    1    3    3    0  502 -0.55049078475E+03  0.51412418971E+02  0.43156901172E+03  0.70138088996E+03  0.25500000920E-02 0. -1.
</event>
<event>
 5   0  0.5730920E-06  0.3028415E+04  0.7818609E-02  0.8235663E-01
        1   -1    0    0  501    0  0.00000000000E+00  0.00000000000E+00  0.18967478153E+04  0.18967478153E+04  0.50400001928E-02 0. -1.
       -1   -1    0    0    0  501  0.00000000000E+00  0.00000000000E+00 -0.12088187282E+04  0.12088187282E+04  0.50400001928E-02 0.  1.
    10030    2    1    2    0    0  0.00000000000E+00  0.00000000000E+00  0.68792908706E+03  0.31055665435E+04  0.30284149530E+04 0.  0.
        1    1    3    3  502    0 -0.23296854438E+03  0.12774349413E+04 -0.45479489287E+03  0.13758462002E+04  0.50400001928E-02 0.  1.
       -1    1    3    3    0  502  0.23296854438E+03 -0.12774349413E+04  0.11427239799E+04  0.17297203434E+04  0.50400001928E-02 0. -1.
</event>
<event>
 5   0  0.1423692E-05  0.2980377E+04  0.7818609E-02  0.8249357E-01
        2   -1    0    0  501    0  0.00000000000E+00  0.00000000000E+00  0.77921619330E+03  0.77921619330E+03  0.25500000920E-02 0. -1.
       -2   -1    0    0    0  501  0.00000000000E+00  0.00000000000E+00 -0.28498662550E+04  0.28498662550E+04  0.25500000920E-02 0.  1.
    10030    2    1    2    0    0  0.00000000000E+00  0.00000000000E+00 -0.20706500617E+04  0.36290824483E+04  0.29803771135E+04 0.  0.
        3    1    3    3  502    0 -0.12671732350E+04 -0.53823886489E+03 -0.34090408539E+03  0.14183246063E+04  0.10100000352E+00 0. -1.
       -3    1    3    3    0  502  0.12671732350E+04  0.53823886489E+03 -0.17297459763E+04  0.22107578420E+04  0.10100000352E+00 0.  1.
</event>
<event>
 5   0  0.5329891E-06  0.3039695E+04  0.7818609E-02  0.8232486E-01
       -1   -1    0    0    0  501  0.00000000000E+00  0.00000000000E+00  0.16764786010E+04  0.16764786010E+04  0.50400001928E-02 0.  1.
        1   -1    0    0  501    0  0.00000000000E+00  0.00000000000E+00 -0.13778498428E+04  0.13778498428E+04  0.50400001928E-02 0. -1.
    10030    2    1    2    0    0  0.00000000000E+00  0.00000000000E+00  0.29862875817E+03  0.30543284438E+04  0.30396945746E+04 0.  0.
        4    1    3    3  502    0 -0.11982859029E+04 -0.89852644098E+03  0.40881200128E+03  0.15525359048E+04  0.12699999809E+01 0. -1.
       -4    1    3    3    0  502  0.11982859029E+04  0.89852644098E+03 -0.11018324311E+03  0.15017925390E+04  0.12699999809E+01 0.  1.
</event>
<event>
 5   0  0.5329891E-06  0.3067926E+04  0.7818609E-02  0.8224596E-01
        1   -1    0    0  501    0  0.00000000000E+00  0.00000000000E+00  0.13026825539E+04  0.13026825539E+04  0.50400001928E-02 0.  1.
       -1   -1    0    0    0  501  0.00000000000E+00  0.00000000000E+00 -0.18063056847E+04  0.18063056848E+04  0.50400001928E-02 0. -1.
    10030    2    1    2    0    0  0.00000000000E+00  0.00000000000E+00 -0.50362313081E+03  0.31089882387E+04  0.30679262720E+04 0.  0.
        4    1    3    3  502    0  0.35813976449E+03 -0.99104531630E+03  0.87783074439E+03  0.13715040425E+04  0.12699999809E+01 0.  1.
       -4    1    3    3    0  502 -0.35813976449E+03  0.99104531630E+03 -0.13814538752E+04  0.17374841962E+04  0.12699999809E+01 0. -1.
</event>
<event>
 5   0  0.5329891E-06  0.2812209E+04  0.7818609E-02  0.8299488E-01
        1   -1    0    0  501    0  0.00000000000E+00  0.00000000000E+00  0.21601527417E+04  0.21601527417E+04  0.50400001928E-02 0. -1.
       -1   -1    0    0    0  501  0.00000000000E+00  0.00000000000E+00 -0.91527324887E+03  0.91527324889E+03  0.50400001928E-02 0.  1.
    10030    2    1    2    0    0  0.00000000000E+00  0.00000000000E+00  0.12448794928E+04  0.30754259905E+04  0.28122091088E+04 0.  0.
        4    1    3    3  502    0  0.71157369154E+03 -0.93495304144E+03 -0.22229232522E+03  0.11957799960E+04  0.12699999809E+01 0.  1.
       -4    1    3    3    0  502 -0.71157369154E+03  0.93495304144E+03  0.14671718180E+04  0.18796459945E+04  0.12699999809E+01 0. -1.
</event>
<event>
 5   0  0.1345931E-05  0.3095457E+04  0.7818609E-02  0.8216986E-01
       -2   -1    0    0    0  501  0.00000000000E+00  0.00000000000E+00  0.95038553371E+03  0.95038553371E+03  0.25500000920E-02 0.  1.
        2   -1    0    0  501    0  0.00000000000E+00  0.00000000000E+00 -0.25205184126E+04  0.25205184126E+04  0.25500000920E-02 0. -1.
    10030    2    1    2    0    0  0.00000000000E+00  0.00000000000E+00 -0.15701328789E+04  0.34709039463E+04  0.30954574698E+04 0.  0.
        2    1    3    3  502    0  0.13605199502E+04  0.62907781407E+03 -0.12174697567E+04  0.19310582693E+04  0.25500000920E-02 0. -1.
       -2    1    3    3    0  502 -0.13605199502E+04 -0.62907781407E+03 -0.35266312220E+03  0.15398456770E+04  0.25500000920E-02 0.  1.
</event>
<event>
 5   0  0.1388724E-05  0.1593873E+04  0.7818609E-02  0.8824321E-01
       -2   -1    0    0    0  501  0.00000000000E+00  0.00000000000E+00  0.73819735881E+03  0.73819735882E+03  0.25500000920E-02 0. -1.
        2   -1    0    0  501    0  0.00000000000E+00  0.00000000000E+00 -0.86034992823E+03  0.86034992823E+03  0.25500000920E-02 0.  1.
    10030    2    1    2    0    0  0.00000000000E+00  0.00000000000E+00 -0.12215256942E+03  0.15985472871E+04  0.15938733258E+04 0.  0.
        4    1    3    3  502    0 -0.56204779443E+03  0.35024509259E+03 -0.50570134688E+03  0.83324955041E+03  0.12699999809E+01 0.  1.
       -4    1    3    3    0  502  0.56204779443E+03 -0.35024509259E+03  0.38354877747E+03  0.76529773664E+03  0.12699999809E+01 0. -1.
</event>
<event>
 5   0  0.1423692E-05  0.3048851E+04  0.7818609E-02  0.8229917E-01
       -2   -1    0    0    0  501  0.00000000000E+00  0.00000000000E+00  0.13613742007E+04  0.13613742007E+04  0.25500000920E-02 0.  1.
        2   -1    0    0  501    0  0.00000000000E+00  0.00000000000E+00 -0.17070055668E+04  0.17070055668E+04  0.25500000920E-02 0. -1.
    10030    2    1    2    0    0  0.00000000000E+00  0.00000000000E+00 -0.34563136609E+03  0.30683797676E+04  0.30488511536E+04 0.  0.
        3    1    3    3  502    0  0.11134920043E+04  0.55527966054E+03 -0.10591801404E+04  0.16340325961E+04  0.10100000352E+00 0. -1.
       -3    1    3    3    0  502 -0.11134920043E+04 -0.55527966054E+03  0.71354877429E+03  0.14343471715E+04  0.10100000352E+00 0.  1.
</event>
<event>
 5   0  0.5522695E-06  0.2752902E+04  0.7818609E-02  0.8318041E-01
       -1   -1    0    0    0  501  0.00000000000E+00  0.00000000000E+00  0.19518743322E+04  0.19518743322E+04  0.50400001928E-02 0. -1.
        1   -1    0    0  501    0  0.00000000000E+00  0.00000000000E+00 -0.97066562463E+03  0.97066562465E+03  0.50400001928E-02 0.  1.
    10030    2    1    2    0    0  0.00000000000E+00  0.00000000000E+00  0.98120870753E+03  0.29225399568E+04  0.27529019727E+04 0.  0.
        3    1    3    3  502    0 -0.75222022679E+02  0.11760498548E+04  0.12456745434E+04  0.17147759889E+04  0.10100000352E+00 0. -1.
       -3    1    3    3    0  502  0.75222022679E+02 -0.11760498548E+04 -0.26446583587E+03  0.12077639679E+04  0.10100000352E+00 0.  1.
</event>
<event>
 5   0  0.1423692E-05  0.2584558E+04  0.7818609E-02  0.8373466E-01
       -2   -1    0    0    0  501  0.00000000000E+00  0.00000000000E+00  0.12860012583E+04  0.12860012583E+04  0.25500000920E-02 0. -1.
        2   -1    0    0  501    0  0.00000000000E+00  0.00000000000E+00 -0.12985871980E+04  0.12985871980E+04  0.25500000920E-02 0.  1.
    10030    2    1    2    0    0  0.00000000000E+00  0.00000000000E+00 -0.12585939611E+02  0.25845884563E+04  0.25845578118E+04 0.  0.
        3    1    3    3  502    0  0.45096718209E+03 -0.36952512230E+03 -0.11595908870E+04  0.12979103400E+04  0.10100000352E+00 0.  1.
       -3    1    3    3    0  502 -0.45096718209E+03  0.36952512230E+03  0.11470049474E+04  0.12866781163E+04  0.10100000352E+00 0. -1.
</event>
<event>
 5   0  0.1345931E-05  0.2990856E+04  0.7818609E-02  0.8246347E-01
       -2   -1    0    0    0  501  0.00000000000E+00  0.00000000000E+00  0.97695157875E+03  0.97695157876E+03  0.25500000920E-02 0.  1.
        2   -1    0    0  501    0  0.00000000000E+00  0.00000000000E+00 -0.22890638289E+04  0.22890638289E+04  0.25500000920E-02 0. -1.
    10030    2    1    2    0    0  0.00000000000E+00  0.00000000000E+00 -0.13121122502E+04  0.32660154077E+04  0.29908557448E+04 0.  0.
        2    1    3    3  502    0 -0.45892541207E+03  0.14984870935E+03 -0.22016271498E+04  0.22539363958E+04  0.25500000920E-02 0. -1.
       -2    1    3    3    0  502  0.45892541207E+03 -0.14984870935E+03  0.88951489966E+03  0.10120790119E+04  0.25500000920E-02 0.  1.
</event>
<event>
 5   0  0.5522695E-06  0.2952452E+04  0.7818609E-02  0.8257440E-01
        1   -1    0    0  501    0  0.00000000000E+00  0.00000000000E+00  0.10920910913E+04  0.10920910913E+04  0.50400001928E-02 0.  1.
       -1   -1    0    0    0  501  0.00000000000E+00  0.00000000000E+00 -0.19954773663E+04  0.19954773663E+04  0.50400001928E-02 0. -1.
    10030    2    1    2    0    0  0.00000000000E+00  0.00000000000E+00 -0.90338627501E+03  0.30875684575E+04  0.29524518994E+04 0.  0.
        3    1    3    3  502    0 -0.73628520390E+02  0.98157061531E+03 -0.16021958302E+04  0.18804078069E+04  0.10100000352E+00 0. -1.
       -3    1    3    3    0  502  0.73628520390E+02 -0.98157061531E+03  0.69880955515E+03  0.12071606506E+04  0.10100000352E+00 0.  1.
</event>
<event>
 5   0  0.1523029E-05  0.2033485E+04  0.7818609E-02  0.8591123E-01
        2   -1    0    0  501    0  0.00000000000E+00  0.00000000000E+00  0.18212428732E+04  0.18212428732E+04  0.25500000920E-02 0.  1.
       -2   -1    0    0    0  501  0.00000000000E+00  0.00000000000E+00 -0.56761522254E+03  0.56761522254E+03  0.25500000920E-02 0. -1.
    10030    2    1    2    0    0  0.00000000000E+00  0.00000000000E+00  0.12536276507E+04  0.23888580957E+04  0.20334848696E+04 0.  0.
        5    1    3    3  502    0  0.62430027484E+03 -0.33249285184E+03  0.14848241326E+04  0.16446966664E+04  0.46999998093E+01 0.  1.
       -5    1    3    3    0  502 -0.62430027484E+03  0.33249285184E+03 -0.23119648193E+03  0.74416142936E+03  0.46999998093E+01 0. -1.
</event>
<event>
 5   0  0.4806125E-06  0.1821047E+04  0.7818609E-02  0.8695186E-01
        3   -1    0    0  501    0  0.00000000000E+00  0.00000000000E+00  0.13489305884E+04  0.13489305922E+04  0.10100000352E+00 0. -1.
       -3   -1    0    0    0  501  0.00000000000E+00  0.00000000000E+00 -0.61460034421E+03  0.61460035251E+03  0.10100000352E+00 0.  1.
    10030    2    1    2    0    0  0.00000000000E+00  0.00000000000E+00  0.73433024420E+03  0.19635309447E+04  0.18210471886E+04 0.  0.
        5    1    3    3  502    0  0.25457304092E+03 -0.44701102400E+03  0.11772152852E+04  0.12847117211E+04  0.46999998093E+01 0. -1.
       -5    1    3    3    0  502 -0.25457304092E+03  0.44701102400E+03 -0.44288504099E+03  0.67881922356E+03  0.46999998093E+01 0.  1.
</event>
<event>
 5   0  0.1523029E-05  0.2991824E+04  0.7818609E-02  0.8246070E-01
       -2   -1    0    0    0  501  0.00000000000E+00  0.00000000000E+00  0.12723793577E+04  0.12723793577E+04  0.25500000920E-02 0.  1.
        2   -1    0    0  501    0  0.00000000000E+00  0.00000000000E+00 -0.17587147402E+04  0.17587147402E+04  0.25500000920E-02 0. -1.
    10030    2    1    2    0    0  0.00000000000E+00  0.00000000000E+00 -0.48633538248E+03  0.30310940979E+04  0.29918237458E+04 0.  0.
        5    1    3    3  502    0  0.14490686694E+04 -0.37100896472E+03 -0.22613689521E+03  0.15128144783E+04  0.46999998093E+01 0. -1.
       -5    1    3    3    0  502 -0.14490686694E+04  0.37100896472E+03 -0.26019848727E+03  0.15182796196E+04  0.46999998093E+01 0.  1.
</event>
<event>
 5   0  0.1480547E-05  0.2861553E+04  0.7818609E-02  0.8284409E-01
        2   -1    0    0  501    0  0.00000000000E+00  0.00000000000E+00  0.98953858903E+03  0.98953858904E+03  0.25500000920E-02 0. -1.
       -2   -1    0    0    0  501  0.00000000000E+00  0.00000000000E+00 -0.20687642419E+04  0.20687642419E+04  0.25500000920E-02 0.  1.
    10030    2    1    2    0    0  0.00000000000E+00  0.00000000000E+00 -0.10792256529E+04  0.30583028309E+04  0.28615534585E+04 0.  0.
        1    1    3    3  502    0 -0.25139274288E+03  0.30547045929E+03 -0.20091472875E+04  0.20477263820E+04  0.50400001928E-02 0.  1.
       -1    1    3    3    0  502  0.25139274288E+03 -0.30547045929E+03  0.92992163460E+03  0.10105764490E+04  0.50400001928E-02 0. -1.
</event>
<event>
 5   0  0.1388724E-05  0.1609794E+04  0.7818609E-02  0.8814554E-01
        2   -1    0    0  501    0  0.00000000000E+00  0.00000000000E+00  0.65649684435E+03  0.65649684436E+03  0.25500000920E-02 0.  1.
       -2   -1    0    0    0  501  0.00000000000E+00  0.00000000000E+00 -0.98684259301E+03  0.98684259301E+03  0.25500000920E-02 0. -1.
    10030    2    1    2    0    0  0.00000000000E+00  0.00000000000E+00 -0.33034574866E+03  0.16433394374E+04  0.16097938355E+04 0.  0.
        4    1    3    3  502    0  0.10343640188E+03  0.79675000031E+03 -0.11570924264E+03  0.81172648963E+03  0.12699999809E+01 0. -1.
       -4    1    3    3    0  502 -0.10343640188E+03 -0.79675000031E+03 -0.21463650602E+03  0.83161294774E+03  0.12699999809E+01 0.  1.
</event>
<event>
 5   0  0.5522695E-06  0.3020825E+04  0.7818609E-02  0.8237809E-01
        1   -1    0    0  501    0  0.00000000000E+00  0.00000000000E+00  0.22030805962E+04  0.22030805962E+04  0.50400001928E-02 0. -1.
       -1   -1    0    0    0  501  0.00000000000E+00  0.00000000000E+00 -0.10355252918E+04  0.10355252918E+04  0.50400001928E-02 0.  1.
    10030    2    1    2    0    0  0.00000000000E+00  0.00000000000E+00  0.11675553045E+04  0.32386058880E+04  0.30208248392E+04 0.  0.
        3    1    3    3  502    0  0.10476749706E+04 -0.82614176546E+03  0.13427807532E+04  0.18929324400E+04  0.10100000352E+00 0. -1.
       -3    1    3    3    0  502 -0.10476749706E+04  0.82614176546E+03 -0.17522544878E+03  0.13456734481E+04  0.10100000352E+00 0.  1.
</event>
<event>
 5   0  0.5329891E-06  0.3014113E+04  0.7818609E-02  0.8239712E-01
        1   -1    0    0  501    0  0.00000000000E+00  0.00000000000E+00  0.19329909592E+04  0.19329909592E+04  0.50400001928E-02 0. -1.
       -1   -1    0    0    0  501  0.00000000000E+00  0.00000000000E+00 -0.11749764210E+04  0.11749764210E+04  0.50400001928E-02 0.  1.
    10030    2    1    2    0    0  0.00000000000E+00  0.00000000000E+00  0.75801453818E+03  0.31079673802E+04  0.30141126715E+04 0.  0.
        4    1    3    3  502    0 -0.30531853701E+03  0.30867041659E+03  0.18671084097E+04  0.19169226019E+04  0.12699999809E+01 0. -1.
       -4    1    3    3    0  502  0.30531853701E+03 -0.30867041659E+03 -0.11090938716E+04  0.11910447783E+04  0.12699999809E+01 0.  1.
</event>
<event>
 5   0  0.1480547E-05  0.2682835E+04  0.7818609E-02  0.8340596E-01
        2   -1    0    0  501    0  0.00000000000E+00  0.00000000000E+00  0.10620406480E+04  0.10620406481E+04  0.25500000920E-02 0.  1.
       -2   -1    0    0    0  501  0.00000000000E+00  0.00000000000E+00 -0.16942859579E+04  0.16942859579E+04  0.25500000920E-02 0. -1.
    10030    2    1    2    0    0  0.00000000000E+00  0.00000000000E+00 -0.63224530989E+03  0.27563266060E+04  0.26828347372E+04 0.  0.
        1    1    3    3  502    0 -0.15972728864E+02 -0.35937706563E+03 -0.16438049187E+04  0.16827066334E+04  0.50400001928E-02 0. -1.
       -1    1    3    3    0  502  0.15972728864E+02  0.35937706563E+03  0.10115596088E+04  0.10736199726E+04  0.50400001928E-02 0.  1.
</event>
<event>
 5   0  0.5730920E-06  0.3087219E+04  0.7818609E-02  0.8219254E-01
       -1   -1    0    0    0  501  0.00000000000E+00  0.00000000000E+00  0.11024336830E+04  0.11024336830E+04  0.50400001928E-02 0.  1.
        1   -1    0    0  501    0  0.00000000000E+00  0.00000000000E+00 -0.21613370287E+04  0.21613370287E+04  0.50400001928E-02 0. -1.
    10030    2    1    2    0    0  0.00000000000E+00  0.00000000000E+00 -0.10589033456E+04  0.32637707117E+04  0.30872192930E+04 0.  0.
        1    1    3    3  502    0  0.45008546043E+03  0.46005733220E+03  0.95381756177E+03  0.11506509513E+04  0.50400001928E-02 0.  1.
       -1    1    3    3    0  502 -0.45008546043E+03 -0.46005733220E+03 -0.20127209074E+04  0.21131197604E+04  0.50400001928E-02 0. -1.
</event>
<event>
 5   0  0.1388724E-05  0.3040742E+04  0.7818609E-02  0.8232192E-01
       -2   -1    0    0    0  501  0.00000000000E+00  0.00000000000E+00  0.11626502611E+04  0.11626502611E+04  0.25500000920E-02 0.  1.
        2   -1    0    0  501    0  0.00000000000E+00  0.00000000000E+00 -0.19881536017E+04  0.19881536017E+04  0.25500000920E-02 0. -1.
    10030    2    1    2    0    0  0.00000000000E+00  0.00000000000E+00 -0.82550334060E+03  0.31508038628E+04  0.30407415570E+04 0.  0.
        4    1    3    3  502    0  0.11397649247E+04 -0.25881387539E+03 -0.14203033715E+04  0.18393781519E+04  0.12699999809E+01 0. -1.
       -4    1    3    3    0  502 -0.11397649247E+04  0.25881387539E+03  0.59480003089E+03  0.13114257109E+04  0.12699999809E+01 0.  1.
</event>
<event>
 5   0  0.1423692E-05  0.2794003E+04  0.7818609E-02  0.8305133E-01
        2   -1    0    0  501    0  0.00000000000E+00  0.00000000000E+00  0.12009223587E+04  0.12009223587E+04  0.25500000920E-02 0. -1.
       -2   -1    0    0    0  501  0.00000000000E+00  0.00000000000E+00 -0.16250952815E+04  0.16250952815E+04  0.25500000920E-02 0.  1.
    10030    2    1    2    0    0  0.00000000000E+00  0.00000000000E+00 -0.42417292283E+03  0.28260176402E+04  0.27940030484E+04 0.  0.
        3    1    3    3  502    0  0.39225596263E+03  0.28482641486E+03  0.11131256098E+04  0.12141002678E+04  0.10100000352E+00 0. -1.
       -3    1    3    3    0  502 -0.39225596263E+03 -0.28482641486E+03 -0.15372985326E+04  0.16119173724E+04  0.10100000352E+00 0.  1.
</event>
<event>
 5   0  0.1523029E-05  0.3022716E+04  0.7818609E-02  0.8237274E-01
        2   -1    0    0  501    0  0.00000000000E+00  0.00000000000E+00  0.77403365042E+03  0.77403365043E+03  0.25500000920E-02 0.  1.
       -2   -1    0    0    0  501  0.00000000000E+00  0.00000000000E+00 -0.29510392741E+04  0.29510392741E+04  0.25500000920E-02 0. -1.
    10030    2    1    2    0    0  0.00000000000E+00  0.00000000000E+00 -0.21770056237E+04  0.37250729246E+04  0.30227164617E+04 0.  0.
        5    1    3    3  502    0 -0.54136283925E+03 -0.35812001968E+03  0.59350201052E+03  0.87953987897E+03  0.46999998093E+01 0.  1.
       -5    1    3    3    0  502  0.54136283925E+03  0.35812001968E+03 -0.27705076342E+04  0.28455330456E+04  0.46999998093E+01 0. -1.
</event>
<event>
 5   0  0.5329891E-06  0.3002041E+04  0.7818609E-02  0.8243148E-01
        1   -1    0    0  501    0  0.00000000000E+00  0.00000000000E+00  0.18561351629E+04  0.18561351629E+04  0.50400001928E-02 0. -1.
       -1   -1    0    0    0  501  0.00000000000E+00  0.00000000000E+00 -0.12138458676E+04  0.12138458676E+04  0.50400001928E-02 0.  1.
    10030    2    1    2    0    0  0.00000000000E+00  0.00000000000E+00  0.64228929537E+03  0.30699810305E+04  0.30020406374E+04 0.  0.
        4    1    3    3  502    0 -0.18079680223E+03 -0.14109719888E+04  0.81108109640E+03  0.16374930823E+04  0.12699999809E+01 0.  1.
       -4    1    3    3    0  502  0.18079680223E+03  0.14109719888E+04 -0.16879180103E+03  0.14324879482E+04  0.12699999809E+01 0. -1.
</event>
<event>
 5   0  0.5329891E-06  0.3016755E+04  0.7818609E-02  0.8238963E-01
       -1   -1    0    0    0  501  0.00000000000E+00  0.00000000000E+00  0.12567028596E+04  0.12567028596E+04  0.50400001928E-02 0. -1.
        1   -1    0    0  501    0  0.00000000000E+00  0.00000000000E+00 -0.18104540647E+04  0.18104540647E+04  0.50400001928E-02 0.  1.
    10030    2    1    2    0    0  0.00000000000E+00  0.00000000000E+00 -0.55375120511E+03  0.30671569244E+04  0.30167550781E+04 0.  0.
        4    1    3    3  502    0 -0.79689201546E+03 -0.97990807895E+03  0.56148847952E+03  0.13822183811E+04  0.12699999809E+01 0. -1.
       -4    1    3    3    0  502  0.79689201546E+03  0.97990807895E+03 -0.11152396846E+04  0.16849385433E+04  0.12699999809E+01 0.  1.
</event>
<event>
 5   0  0.5730920E-06  0.3087470E+04  0.7818609E-02  0.8219185E-01
       -1   -1    0    0    0  501  0.00000000000E+00  0.00000000000E+00  0.12356695984E+04  0.12356695985E+04  0.50400001928E-02 0. -1.
        1   -1    0    0  501    0  0.00000000000E+00  0.00000000000E+00 -0.19286044658E+04  0.19286044658E+04  0.50400001928E-02 0.  1.
    10030    2    1    2    0    0  0.00000000000E+00  0.00000000000E+00 -0.69293486733E+03  0.31642740642E+04  0.30874701008E+04 0.  0.
        1    1    3    3  502    0 -0.63089564893E+03 -0.98397615388E+03  0.68702209384E+03  0.13558162666E+04  0.50400001928E-02 0. -1.
       -1    1    3    3    0  502  0.63089564893E+03  0.98397615388E+03 -0.13799569612E+04  0.18084577977E+04  0.50400001928E-02 0.  1.
</event>
<event>
 5   0  0.1523029E-05  0.2932380E+04  0.7818609E-02  0.8263308E-01
        2   -1    0    0  501    0  0.00000000000E+00  0.00000000000E+00  0.22308531825E+04  0.22308531825E+04  0.25500000920E-02 0. -1.
       -2   -1    0    0    0  501  0.00000000000E+00  0.00000000000E+00 -0.96362852187E+03  0.96362852187E+03  0.25500000920E-02 0.  1.
    10030    2    1    2    0    0  0.00000000000E+00  0.00000000000E+00  0.12672246607E+04  0.31944817044E+04  0.29323804356E+04 0.  0.
        5    1    3    3  502    0 -0.36698863915E+03  0.89439879703E+03  0.18344360967E+04  0.20735977798E+04  0.46999998093E+01 0. -1.
       -5    1    3    3    0  502  0.36698863915E+03 -0.89439879703E+03 -0.56721143602E+03  0.11208839247E+04  0.46999998093E+01 0.  1.
</event>
<event>
 5   0  0.1388724E-05  0.3074869E+04  0.7818609E-02  0.8222669E-01
       -2   -1    0    0    0  501  0.00000000000E+00  0.00000000000E+00  0.15009278419E+04  0.15009278419E+04  0.25500000920E-02 0. -1.
        2   -1    0    0  501    0  0.00000000000E+00  0.00000000000E+00 -0.15748288363E+04  0.15748288363E+04  0.25500000920E-02 0.  1.
    10030    2    1    2    0    0  0.00000000000E+00  0.00000000000E+00 -0.73900994427E+02  0.30757566781E+04  0.30748687429E+04 0.  0.
        4    1    3    3  502    0 -0.29018710166E+03 -0.36262975357E+03 -0.15029773321E+04  0.15731024651E+04  0.12699999809E+01 0.  1.
       -4    1    3    3    0  502  0.29018710166E+03  0.36262975357E+03  0.14290763377E+04  0.15026542130E+04  0.12699999809E+01 0. -1.
</event>
<event>
 5   0  0.1480547E-05  0.2947998E+04  0.7818609E-02  0.8258738E-01
       -2   -1    0    0    0  501  0.00000000000E+00  0.00000000000E+00  0.11160448926E+04  0.11160448926E+04  0.25500000920E-02 0.  1.
        2   -1    0    0  501    0  0.00000000000E+00  0.00000000000E+00 -0.19467619893E+04  0.19467619893E+04  0.25500000920E-02 0. -1.
    10030    2    1    2    0    0  0.00000000000E+00  0.00000000000E+00 -0.83071709672E+03  0.30628068819E+04  0.29479984907E+04 0.  0.
        1    1    3    3  502    0  0.22652654334E+03  0.52449786623E+03  0.99633023112E+03  0.11485147870E+04  0.50400001928E-02 0.  1.
       -1    1    3    3    0  502 -0.22652654334E+03 -0.52449786623E+03 -0.18270473278E+04  0.19142920949E+04  0.50400001928E-02 0. -1.
</event>
<event>
 5   0  0.1480547E-05  0.2416239E+04  0.7818609E-02  0.8433449E-01
        2   -1    0    0  501    0  0.00000000000E+00  0.00000000000E+00  0.21699446293E+04  0.21699446293E+04  0.25500000920E-02 0.  1.
       -2   -1    0    0    0  501  0.00000000000E+00  0.00000000000E+00 -0.67262211289E+03  0.67262211289E+03  0.25500000920E-02 0. -1.
    10030    2    1    2    0    0  0.00000000000E+00  0.00000000000E+00  0.14973225164E+04  0.28425667422E+04  0.24162390125E+04 0.  0.
        1    1    3    3  502    0  0.55311169731E+03 -0.79549156731E+03 -0.10034684574E+03  0.97406820749E+03  0.50400001928E-02 0. -1.
       -1    1    3    3    0  502 -0.55311169731E+03  0.79549156731E+03  0.15976693621E+04  0.18684985347E+04  0.50400001928E-02 0.  1.
</event>
<event>
 5   0  0.5392262E-06  0.2971372E+04  0.7818609E-02  0.8251953E-01
        1   -1    0    0  501    0  0.00000000000E+00  0.00000000000E+00  0.21200563813E+04  0.21200563814E+04  0.50400001928E-02 0.  1.
       -1   -1    0    0    0  501  0.00000000000E+00  0.00000000000E+00 -0.10411340917E+04  0.10411340917E+04  0.50400001928E-02 0. -1.
    10030    2    1    2    0    0  0.00000000000E+00  0.00000000000E+00  0.10789222897E+04  0.31611904730E+04  0.29713720567E+04 0.  0.
        2    1    3    3  502    0 -0.20215884623E+03  0.11355020945E+04  0.15357856152E+04  0.19206432937E+04  0.25500000920E-02 0.  1.
       -2    1    3    3    0  502  0.20215884623E+03 -0.11355020945E+04 -0.45686332556E+03  0.12405471793E+04  0.25500000920E-02 0. -1.
</event>
<event>
 5   0  0.7032692E-06  0.3016481E+04  0.7818609E-02  0.8239040E-01
       -1   -1    0    0    0  501  0.00000000000E+00  0.00000000000E+00  0.19399929098E+04  0.19399929098E+04  0.50400001928E-02 0.  1.
        1   -1    0    0  501    0  0.00000000000E+00  0.00000000000E+00 -0.11725764866E+04  0.11725764866E+04  0.50400001928E-02 0. -1.
    10030    2    1    2    0    0  0.00000000000E+00  0.00000000000E+00  0.76741642327E+03  0.31125693964E+04  0.30164814405E+04 0.  0.
        5    1    3    3  502    0 -0.21216461403E+03  0.11406793207E+03  0.19200081933E+04  0.19350655981E+04  0.46999998093E+01 0.  1.
       -5    1    3    3    0  502  0.21216461403E+03 -0.11406793207E+03 -0.11525917701E+04  0.11775037983E+04  0.46999998093E+01 0. -1.
</event>
<event>
 5   0  0.1523029E-05  0.2991762E+04  0.7818609E-02  0.8246087E-01
        2   -1    0    0  501    0  0.00000000000E+00  0.00000000000E+00  0.23761299404E+04  0.23761299404E+04  0.25500000920E-02 0. -1.
       -2   -1    0    0    0  501  0.00000000000E+00  0.00000000000E+00 -0.94172449428E+03  0.94172449428E+03  0.25500000920E-02 0.  1.
    10030    2    1    2    0    0  0.00000000000E+00  0.00000000000E+00  0.14344054461E+04  0.33178544347E+04  0.29917618665E+04 0.  0.
        5    1    3    3  502    0 -0.97117737810E+03  0.11368495916E+04  0.76710983223E+03  0.16805035193E+04  0.46999998093E+01 0.  1.
       -5    1    3    3    0  502  0.97117737810E+03 -0.11368495916E+04  0.66729561389E+03  0.16373509154E+04  0.46999998093E+01 0. -1.
</event>
<event>
 5   0  0.5329891E-06  0.3265755E+04  0.7818609E-02  0.8171664E-01
       -1   -1    0    0    0  501  0.00000000000E+00  0.00000000000E+00  0.19535030851E+04  0.19535030851E+04  0.50400001928E-02 0.  1.
        1   -1    0    0  501    0  0.00000000000E+00  0.00000000000E+00 -0.13648754212E+04  0.13648754212E+04  0.50400001928E-02 0. -1.
    10030    2    1    2    0    0  0.00000000000E+00  0.00000000000E+00  0.58862766390E+03  0.33183785064E+04  0.32657546425E+04 0.  0.
        4    1    3    3  502    0  0.81218174946E+03  0.70713105557E+03 -0.95290670742E+03  0.14379521306E+04  0.12699999809E+01 0. -1.
       -4    1    3    3    0  502 -0.81218174946E+03 -0.70713105557E+03  0.15415343713E+04  0.18804263758E+04  0.12699999809E+01 0.  1.
</event>
<event>
 5   0  0.1345931E-05  0.2268391E+04  0.7818609E-02  0.8490489E-01
        2   -1    0    0  501    0  0.00000000000E+00  0.00000000000E+00  0.18019974789E+04  0.18019974789E+04  0.25500000920E-02 0. -1.
       -2   -1    0    0    0  501  0.00000000000E+00  0.00000000000E+00 -0.71387402521E+03  0.71387402521E+03  0.25500000920E-02 0.  1.
    10030    2    1    2    0    0  0.00000000000E+00  0.00000000000E+00  0.10881234537E+04  0.25158715041E+04  0.22683907897E+04 0.  0.
        2    1    3    3  502    0  0.69890567084E+03  0.73679930406E+03  0.11041920321E+04  0.15001941191E+04  0.25500000920E-02 0.  1.
       -2    1    3    3    0  502 -0.69890567084E+03 -0.73679930406E+03 -0.16068578402E+02  0.10156773850E+04  0.25500000920E-02 0. -1.
</event>
<event>
 5   0  0.5730920E-06  0.2921515E+04  0.7818609E-02  0.8266505E-01
        1   -1    0    0  501    0  0.00000000000E+00  0.00000000000E+00  0.22024047895E+04  0.22024047895E+04  0.50400001928E-02 0.  1.
       -1   -1    0    0    0  501  0.00000000000E+00  0.00000000000E+00 -0.96885559939E+03  0.96885559940E+03  0.50400001928E-02 0. -1.
    10030    2    1    2    0    0  0.00000000000E+00  0.00000000000E+00  0.12335491901E+04  0.31712603889E+04  0.29215148211E+04 0.  0.
        1    1    3    3  502    0 -0.12877095743E+04  0.16713834776E+03 -0.10951221757E+03  0.13031209080E+04  0.50400001928E-02 0. -1.
       -1    1    3    3    0  502  0.12877095743E+04 -0.16713834776E+03  0.13430614076E+04  0.18681394808E+04  0.50400001928E-02 0.  1.
</event>
<event>
 5   0  0.1423692E-05  0.2989500E+04  0.7818609E-02  0.8246735E-01
       -2   -1    0    0    0  501  0.00000000000E+00  0.00000000000E+00  0.12051285232E+04  0.12051285232E+04  0.25500000920E-02 0. -1.
        2   -1    0    0  501    0  0.00000000000E+00  0.00000000000E+00 -0.18539750166E+04  0.18539750166E+04  0.25500000920E-02 0.  1.
    10030    2    1    2    0    0  0.00000000000E+00  0.00000000000E+00 -0.64884649342E+03  0.30591035398E+04  0.29895004090E+04 0.  0.
        3    1    3    3  502    0  0.11665718044E+04  0.33169689399E+03 -0.12184733144E+04  0.17191828968E+04  0.10100000352E+00 0.  1.
       -3    1    3    3    0  502 -0.11665718044E+04 -0.33169689399E+03  0.56962682103E+03  0.13399206431E+04  0.10100000352E+00 0. -1.
</event>
<event>
 5   0  0.1523029E-05  0.2945108E+04  0.7818609E-02  0.8259582E-01
       -2   -1    0    0    0  501  0.00000000000E+00  0.00000000000E+00  0.11160309670E+04  0.11160309670E+04  0.25500000920E-02 0. -1.
        2   -1    0    0  501    0  0.00000000000E+00  0.00000000000E+00 -0.19429701043E+04  0.19429701043E+04  0.25500000920E-02 0.  1.
    10030    2    1    2    0    0  0.00000000000E+00  0.00000000000E+00 -0.82693913723E+03  0.30590010713E+04  0.29451076751E+04 0.  0.
        5    1    3    3  502    0  0.44930715871E+03 -0.10728935032E+04  0.52445494240E+03  0.12759515934E+04  0.46999998093E+01 0. -1.
       -5    1    3    3    0  502 -0.44930715871E+03  0.10728935032E+04 -0.13513940796E+04  0.17830494779E+04  0.46999998093E+01 0.  1.
</event>
<event>
 5   0  0.5730920E-06  0.3258763E+04  0.7818609E-02  0.8173468E-01
       -1   -1    0    0    0  501  0.00000000000E+00  0.00000000000E+00  0.20382570790E+04  0.20382570790E+04  0.50400001928E-02 0.  1.
        1   -1    0    0  501    0  0.00000000000E+00  0.00000000000E+00 -0.13025262866E+04  0.13025262867E+04  0.50400001928E-02 0. -1.
    10030    2    1    2    0    0  0.00000000000E+00  0.00000000000E+00  0.73573079232E+03  0.33407833656E+04  0.32587626022E+04 0.  0.
        1    1    3    3  502    0 -0.10145957025E+04 -0.30587668726E+03 -0.90099374391E+03  0.13909546052E+04  0.50400001928E-02 0. -1.
       -1    1    3    3    0  502  0.10145957025E+04  0.30587668726E+03  0.16367245362E+04  0.19498287604E+04  0.50400001928E-02 0.  1.
</event>
<event>
 5   0  0.5329891E-06  0.2969971E+04  0.7818609E-02  0.8252358E-01
        1   -1    0    0  501    0  0.00000000000E+00  0.00000000000E+00  0.19474599125E+04  0.19474599125E+04  0.50400001928E-02 0.  1.
       -1   -1    0    0    0  501  0.00000000000E+00  0.00000000000E+00 -0.11323374673E+04  0.11323374673E+04  0.50400001928E-02 0. -1.
    10030    2    1    2    0    0  0.00000000000E+00  0.00000000000E+00  0.81512244517E+03  0.30797973798E+04  0.29699709258E+04 0.  0.
        4    1    3    3  502    0  0.25995415114E+03 -0.50604635285E+03 -0.10148478000E+04  0.11634331704E+04  0.12699999809E+01 0. -1.
       -4    1    3    3    0  502 -0.25995415114E+03  0.50604635285E+03  0.18299702452E+04  0.19163642094E+04  0.12699999809E+01 0.  1.
</event>
<event>
 5   0  0.4806125E-06  0.1544726E+04  0.7818609E-02  0.8855244E-01
       -3   -1    0    0    0  501  0.00000000000E+00  0.00000000000E+00  0.31334168890E+03  0.31334170518E+03  0.10100000352E+00 0.  1.
        3   -1    0    0  501    0  0.00000000000E+00  0.00000000000E+00 -0.19038137358E+04  0.19038137385E+04  0.10100000352E+00 0. -1.
    10030    2    1    2    0    0  0.00000000000E+00  0.00000000000E+00 -0.15904720469E+04  0.22171554436E+04  0.15447255191E+04 0.  0.
        3    1    3    3  502    0 -0.28064424239E+03 -0.51850660497E+03 -0.79114263052E+02  0.59486920159E+03  0.10100000352E+00 0.  1.
       -3    1    3    3    0  502  0.28064424239E+03  0.51850660497E+03 -0.15113577838E+04  0.16222862420E+04  0.10100000352E+00 0. -1.
</event>
<event>
 5   0  0.7032692E-06  0.3281138E+04  0.7818609E-02  0.8167711E-01
        1   -1    0    0  501    0  0.00000000000E+00  0.00000000000E+00  0.96251188178E+03  0.96251188179E+03  0.50400001928E-02 0. -1.
       -1   -1    0    0    0  501  0.00000000000E+00  0.00000000000E+00 -0.27962947347E+04  0.27962947347E+04  0.50400001928E-02 0.  1.
    10030    2    1    2    0    0  0.00000000000E+00  0.00000000000E+00 -0.18337828529E+04  0.37588066165E+04  0.32811381605E+04 0.  0.
        5    1    3    3  502    0  0.77759626740E+03  0.78923514783E+03 -0.23029471392E+04  0.25556086730E+04  0.46999998093E+01 0.  1.
       -5    1    3    3    0  502 -0.77759626740E+03 -0.78923514783E+03  0.46916428629E+03  0.12031979435E+04  0.46999998093E+01 0. -1.
</event>
<event>
 5   0  0.1523029E-05  0.2428262E+04  0.7818609E-02  0.8428998E-01
        2   -1    0    0  501    0  0.00000000000E+00  0.00000000000E+00  0.13177508521E+04  0.13177508521E+04  0.25500000920E-02 0. -1.
       -2   -1    0    0    0  501  0.00000000000E+00  0.00000000000E+00 -0.11186595230E+04  0.11186595230E+04  0.25500000920E-02 0.  1.
    10030    2    1    2    0    0  0.00000000000E+00  0.00000000000E+00  0.19909132909E+03  0.24364103751E+04  0.24282623744E+04 0.  0.
        5    1    3    3  502    0 -0.11611288303E+04 -0.28063419672E+03  0.31733791991E+03  0.12360020867E+04  0.46999998093E+01 0. -1.
       -5    1    3    3    0  502  0.11611288303E+04  0.28063419672E+03 -0.11824659082E+03  0.12004082885E+04  0.46999998093E+01 0.  1.
</event>
<event>
 5   0  0.1523029E-05  0.2997706E+04  0.7818609E-02  0.8244386E-01
       -2   -1    0    0    0  501  0.00000000000E+00  0.00000000000E+00  0.12067002221E+04  0.12067002221E+04  0.25500000920E-02 0.  1.
        2   -1    0    0  501    0  0.00000000000E+00  0.00000000000E+00 -0.18617381515E+04  0.18617381515E+04  0.25500000920E-02 0. -1.
    10030    2    1    2    0    0  0.00000000000E+00  0.00000000000E+00 -0.65503792937E+03  0.30684383735E+04  0.29977056832E+04 0.  0.
        5    1    3    3  502    0  0.13718890437E+03 -0.43407173766E+03  0.11342166662E+04  0.12221737212E+04  0.46999998093E+01 0.  1.
       -5    1    3    3    0  502 -0.13718890437E+03  0.43407173766E+03 -0.17892545955E+04  0.18462646524E+04  0.46999998093E+01 0. -1.
</event>
<event>
 5   0  0.1423692E-05  0.2939702E+04  0.7818609E-02  0.8261162E-01
       -2   -1    0    0    0  501  0.00000000000E+00  0.00000000000E+00  0.11317366059E+04  0.11317366059E+04  0.25500000920E-02 0. -1.
        2   -1    0    0  501    0  0.00000000000E+00  0.00000000000E+00 -0.19089792939E+04  0.19089792939E+04  0.25500000920E-02 0.  1.
    10030    2    1    2    0    0  0.00000000000E+00  0.00000000000E+00 -0.77724268799E+03  0.30407158997E+04  0.29397018534E+04 0.  0.
        3    1    3    3  502    0 -0.52253652877E+03  0.96474102363E+02  0.10289113307E+04  0.11580199536E+04  0.10100000352E+00 0. -1.
       -3    1    3    3    0  502  0.52253652877E+03 -0.96474102363E+02 -0.18061540187E+04  0.18826959462E+04  0.10100000352E+00 0.  1.
</event>
<event>
 5   0  0.1523029E-05  0.3013843E+04  0.7818609E-02  0.8239789E-01
       -2   -1    0    0    0  501  0.00000000000E+00  0.00000000000E+00  0.15972532134E+04  0.15972532134E+04  0.25500000920E-02 0. -1.
        2   -1    0    0  501    0  0.00000000000E+00  0.00000000000E+00 -0.14216987062E+04  0.14216987062E+04  0.25500000920E-02 0.  1.
    10030    2    1    2    0    0  0.00000000000E+00  0.00000000000E+00  0.17555450719E+03  0.30189519195E+04  0.30138432785E+04 0.  0.
        5    1    3    3  502    0  0.77119280632E+03 -0.18360706623E+03 -0.11959334943E+04  0.14348271367E+04  0.46999998093E+01 0.  1.
       -5    1    3    3    0  502 -0.77119280632E+03  0.18360706623E+03  0.13714880015E+04  0.15841247828E+04  0.46999998093E+01 0. -1.
</event>
<event>
 5   0  0.5392262E-06  0.2403942E+04  0.7818609E-02  0.8438029E-01
       -1   -1    0    0    0  501  0.00000000000E+00  0.00000000000E+00  0.11666239130E+04  0.11666239130E+04  0.50400001928E-02 0. -1.
        1   -1    0    0  501    0  0.00000000000E+00  0.00000000000E+00 -0.12383887397E+04  0.12383887398E+04  0.50400001928E-02 0.  1.
    10030    2    1    2    0    0  0.00000000000E+00  0.00000000000E+00 -0.71764826730E+02  0.24050126528E+04  0.24039416943E+04 0.  0.
        2    1    3    3  502    0  0.33576596213E+03  0.10515986528E+04  0.43986640840E+03  0.11883101301E+04  0.25500000920E-02 0. -1.
       -2    1    3    3    0  502 -0.33576596213E+03 -0.10515986528E+04 -0.51163123513E+03  0.12167025227E+04  0.25500000920E-02 0.  1.
</event>
<event>
 5   0  0.1423692E-05  0.3016281E+04  0.7818609E-02  0.8239097E-01
        2   -1    0    0  501    0  0.00000000000E+00  0.00000000000E+00  0.16058990868E+04  0.16058990868E+04  0.25500000920E-02 0. -1.
       -2   -1    0    0    0  501  0.00000000000E+00  0.00000000000E+00 -0.14163331308E+04  0.14163331308E+04  0.25500000920E-02 0.  1.
    10030    2    1    2    0    0  0.00000000000E+00  0.00000000000E+00  0.18956595594E+03  0.30222322176E+04  0.30162812080E+04 0.  0.
        3    1    3    3  502    0 -0.96106387393E+03  0.11622578927E+04  0.93836495594E+02  0.15110567418E+04  0.10100000352E+00 0. -1.
       -3    1    3    3    0  502  0.96106387393E+03 -0.11622578927E+04  0.95729460348E+02  0.15111754758E+04  0.10100000352E+00 0.  1.
</event>
<event>
 5   0  0.1345931E-05  0.2920048E+04  0.7818609E-02  0.8266937E-01
        2   -1    0    0  501    0  0.00000000000E+00  0.00000000000E+00  0.91208441566E+03  0.91208441567E+03  0.25500000920E-02 0. -1.
       -2   -1    0    0    0  501  0.00000000000E+00  0.00000000000E+00 -0.23371411950E+04  0.23371411950E+04  0.25500000920E-02 0.  1.
    10030    2    1    2    0    0  0.00000000000E+00  0.00000000000E+00 -0.14250567794E+04  0.32492256107E+04  0.29200479867E+04 0.  0.
        2    1    3    3  502    0 -0.16822704184E+03  0.14500488972E+04 -0.74254983081E+03  0.16377797144E+04  0.25500000920E-02 0. -1.
       -2    1    3    3    0  502  0.16822704184E+03 -0.14500488972E+04 -0.68250694856E+03  0.16114458963E+04  0.25500000920E-02 0.  1.
</event>
<event>
 5   0  0.1423692E-05  0.2864944E+04  0.7818609E-02  0.8283385E-01
       -2   -1    0    0    0  501  0.00000000000E+00  0.00000000000E+00  0.20395514946E+04  0.20395514946E+04  0.25500000920E-02 0.  1.
        2   -1    0    0  501    0  0.00000000000E+00  0.00000000000E+00 -0.10060914689E+04  0.10060914689E+04  0.25500000920E-02 0. -1.
    10030    2    1    2    0    0  0.00000000000E+00  0.00000000000E+00  0.10334600256E+04  0.30456429635E+04  0.28649435312E+04 0.  0.
        3    1    3    3  502    0 -0.36895837505E+02  0.73696858507E+03 -0.78850987861E+03  0.10799221440E+04  0.10100000352E+00 0. -1.
       -3    1    3    3    0  502  0.36895837505E+02 -0.73696858507E+03  0.18219699043E+04  0.19657208196E+04  0.10100000352E+00 0.  1.
</event>
<event>
 5   0  0.5392262E-06  0.2926707E+04  0.7818609E-02  0.8264976E-01
       -1   -1    0    0    0  501  0.00000000000E+00  0.00000000000E+00  0.16777446912E+04  0.16777446912E+04  0.50400001928E-02 0. -1.
        1   -1    0    0  501    0  0.00000000000E+00  0.00000000000E+00 -0.12763580184E+04  0.12763580184E+04  0.50400001928E-02 0.  1.
    10030    2    1    2    0    0  0.00000000000E+00  0.00000000000E+00  0.40138667278E+03  0.29541027096E+04  0.29267066060E+04 0.  0.
        2    1    3    3  502    0  0.14312987987E+04  0.28712696705E+03  0.98032155114E+02  0.14631023374E+04  0.25500000920E-02 0. -1.
       -2    1    3    3    0  502 -0.14312987987E+04 -0.28712696705E+03  0.30335451767E+03  0.14910003722E+04  0.25500000920E-02 0.  1.
</event>
<event>
 5   0  0.1345931E-05  0.2739603E+04  0.7818609E-02  0.8322268E-01
       -2   -1    0    0    0  501  0.00000000000E+00  0.00000000000E+00  0.11528455291E+04  0.11528455291E+04  0.25500000920E-02 0. -1.
        2   -1    0    0  501    0  0.00000000000E+00  0.00000000000E+00 -0.16275870771E+04  0.16275870771E+04  0.25500000920E-02 0.  1.
    10030    2    1    2    0    0  0.00000000000E+00  0.00000000000E+00 -0.47474154800E+03  0.27804326061E+04  0.27396032449E+04 0.  0.
        2    1    3    3  502    0 -0.70714777728E+03  0.77362644817E+03 -0.11324445735E+04  0.15430445789E+04  0.25500000920E-02 0.  1.
       -2    1    3    3    0  502  0.70714777728E+03 -0.77362644817E+03  0.65770302552E+03  0.12373880273E+04  0.25500000920E-02 0. -1.
</event>
<event>
 5   0  0.5329891E-06  0.2936299E+04  0.7818609E-02  0.8262159E-01
        1   -1    0    0  501    0  0.00000000000E+00  0.00000000000E+00  0.80183331778E+03  0.80183331780E+03  0.50400001928E-02 0. -1.
       -1   -1    0    0    0  501  0.00000000000E+00  0.00000000000E+00 -0.26881679674E+04  0.26881679674E+04  0.50400001928E-02 0.  1.
    10030    2    1    2    0    0  0.00000000000E+00  0.00000000000E+00 -0.18863346496E+04  0.34900012852E+04  0.29362987859E+04 0.  0.
        4    1    3    3  502    0  0.39942662424E+02  0.67401760886E+02  0.79934615073E+03  0.80317762372E+03  0.12699999809E+01 0. -1.
       -4    1    3    3    0  502 -0.39942662424E+02 -0.67401760886E+02 -0.26856808003E+04  0.26868236615E+04  0.12699999809E+01 0.  1.
</event>
<event>
 5   0  0.5329891E-06  0.3047083E+04  0.7818609E-02  0.8230412E-01
       -1   -1    0    0    0  501  0.00000000000E+00  0.00000000000E+00  0.82071668546E+03  0.82071668548E+03  0.50400001928E-02 0.  1.
        1   -1    0    0  501    0  0.00000000000E+00  0.00000000000E+00 -0.28282341025E+04  0.28282341025E+04  0.50400001928E-02 0. -1.
    10030    2    1    2    0    0  0.00000000000E+00  0.00000000000E+00 -0.20075174171E+04  0.36489507880E+04  0.30470831419E+04 0.  0.
        4    1    3    3  502    0 -0.33706590040E+03 -0.11714519330E+04  0.90690595406E+02  0.12223499702E+04  0.12699999809E+01 0.  1.
       -4    1    3    3    0  502  0.33706590040E+03  0.11714519330E+04 -0.20982080125E+04  0.24266008178E+04  0.12699999809E+01 0. -1.
</event>
<event>
 5   0  0.1388724E-05  0.2419253E+04  0.7818609E-02  0.8432331E-01
        2   -1    0    0  501    0  0.00000000000E+00  0.00000000000E+00  0.15106761598E+04  0.15106761598E+04  0.25500000920E-02 0.  1.
       -2   -1    0    0    0  501  0.00000000000E+00  0.00000000000E+00 -0.96857034311E+03  0.96857034311E+03  0.25500000920E-02 0. -1.
    10030    2    1    2    0    0  0.00000000000E+00  0.00000000000E+00  0.54210581674E+03  0.24792465030E+04  0.24192528818E+04 0.  0.
        4    1    3    3  502    0 -0.80845226603E+03 -0.43031888222E+03  0.10808544900E+04  0.14166924325E+04  0.12699999809E+01 0. -1.
       -4    1    3    3    0  502  0.80845226603E+03  0.43031888222E+03 -0.53874867325E+03  0.10625540705E+04  0.12699999809E+01 0.  1.
</event>
<event>
 5   0  0.5522695E-06  0.3019338E+04  0.7818609E-02  0.8238230E-01
       -1   -1    0    0    0  501  0.00000000000E+00  0.00000000000E+00  0.16933900585E+04  0.16933900585E+04  0.50400001928E-02 0.  1.
        1   -1    0    0  501    0  0.00000000000E+00  0.00000000000E+00 -0.13458806457E+04  0.13458806458E+04  0.50400001928E-02 0. -1.
    10030    2    1    2    0    0  0.00000000000E+00  0.00000000000E+00  0.34750941277E+03  0.30392707043E+04  0.30193382755E+04 0.  0.
        3    1    3    3  502    0  0.42415089090E+03  0.11235699015E+04  0.10945545305E+04  0.16249193618E+04  0.10100000352E+00 0.  1.
       -3    1    3    3    0  502 -0.42415089090E+03 -0.11235699015E+04 -0.74704511773E+03  0.14143513425E+04  0.10100000352E+00 0. -1.
</event>
<event>
 5   0  0.5392262E-06  0.2966104E+04  0.7818609E-02  0.8253477E-01
       -1   -1    0    0    0  501  0.00000000000E+00  0.00000000000E+00  0.26178747054E+04  0.26178747054E+04  0.50400001928E-02 0. -1.
        1   -1    0    0  501    0  0.00000000000E+00  0.00000000000E+00 -0.84016343634E+03  0.84016343636E+03  0.50400001928E-02 0.  1.
    10030    2    1    2    0    0  0.00000000000E+00  0.00000000000E+00  0.17777112691E+04  0.34580381418E+04  0.29661035777E+04 0.  0.
        2    1    3    3  502    0  0.13413078399E+04  0.17092953068E+03  0.15990873321E+04  0.20941356025E+04  0.25500000920E-02 0. -1.
       -2    1    3    3    0  502 -0.13413078399E+04 -0.17092953068E+03  0.17862393695E+03  0.13639025393E+04  0.25500000920E-02 0.  1.
</event>
<event>
 5   0  0.1480547E-05  0.2612545E+04  0.7818609E-02  0.8363952E-01
       -2   -1    0    0    0  501  0.00000000000E+00  0.00000000000E+00  0.11385044499E+04  0.11385044499E+04  0.25500000920E-02 0. -1.
        2   -1    0    0  501    0  0.00000000000E+00  0.00000000000E+00 -0.14987625101E+04  0.14987625101E+04  0.25500000920E-02 0.  1.
    10030    2    1    2    0    0  0.00000000000E+00  0.00000000000E+00 -0.36025806016E+03  0.26372669600E+04  0.26125449562E+04 0.  0.
        1    1    3    3  502    0  0.10452858309E+04 -0.32626921439E+02  0.61000427687E+03  0.12106990552E+04  0.50400001928E-02 0. -1.
       -1    1    3    3    0  502 -0.10452858309E+04  0.32626921439E+02 -0.97026233703E+03  0.14265679048E+04  0.50400001928E-02 0.  1.
</event>
<event>
 5   0  0.1423692E-05  0.2232593E+04  0.7818609E-02  0.8504984E-01
       -2   -1    0    0    0  501  0.00000000000E+00  0.00000000000E+00  0.96368524134E+03  0.96368524134E+03  0.25500000920E-02 0.  1.
        2   -1    0    0  501    0  0.00000000000E+00  0.00000000000E+00 -0.12930752346E+04  0.12930752346E+04  0.25500000920E-02 0. -1.
    10030    2    1    2    0    0  0.00000000000E+00  0.00000000000E+00 -0.32938999328E+03  0.22567604760E+04  0.22325926808E+04 0.  0.
        3    1    3    3  502    0  0.79935502495E+03  0.51666913005E+03 -0.75427730381E+03  0.12144339040E+04  0.10100000352E+00 0. -1.
       -3    1    3    3    0  502 -0.79935502495E+03 -0.51666913005E+03  0.42488731052E+03  0.10423265720E+04  0.10100000352E+00 0.  1.
</event>
<event>
 5   0  0.1345931E-05  0.3033861E+04  0.7818609E-02  0.8234127E-01
       -2   -1    0    0    0  501  0.00000000000E+00  0.00000000000E+00  0.92696271901E+03  0.92696271901E+03  0.25500000920E-02 0. -1.
        2   -1    0    0  501    0  0.00000000000E+00  0.00000000000E+00 -0.24823849697E+04  0.24823849697E+04  0.25500000920E-02 0.  1.
    10030    2    1    2    0    0  0.00000000000E+00  0.00000000000E+00 -0.15554222507E+04  0.34093476888E+04  0.30338611182E+04 0.  0.
        2    1    3    3  502    0 -0.13776463547E+04 -0.58572251124E+03 -0.50222131302E+03  0.15789891026E+04  0.25500000920E-02 0. -1.
       -2    1    3    3    0  502  0.13776463547E+04  0.58572251124E+03 -0.10532009377E+04  0.18303585862E+04  0.25500000920E-02 0.  1.
</event>
<event>
 5   0  0.5730920E-06  0.2707201E+04  0.7818609E-02  0.8332672E-01
       -1   -1    0    0    0  501  0.00000000000E+00  0.00000000000E+00  0.15049451584E+04  0.15049451585E+04  0.50400001928E-02 0.  1.
        1   -1    0    0  501    0  0.00000000000E+00  0.00000000000E+00 -0.12174755377E+04  0.12174755377E+04  0.50400001928E-02 0. -1.
    10030    2    1    2    0    0  0.00000000000E+00  0.00000000000E+00  0.28746962074E+03  0.27224206962E+04  0.27072007063E+04 0.  0.
        1    1    3    3  502    0  0.88758913510E+03 -0.79337187976E+03  0.79154627510E+03  0.14296149545E+04  0.50400001928E-02 0.  1.
       -1    1    3    3    0  502 -0.88758913510E+03  0.79337187976E+03 -0.50407665436E+03  0.12928057417E+04  0.50400001928E-02 0. -1.
</event>
<event>
 5   0  0.1388724E-05  0.2985388E+04  0.7818609E-02  0.8247916E-01
        2   -1    0    0  501    0  0.00000000000E+00  0.00000000000E+00  0.16154752919E+04  0.16154752919E+04  0.25500000920E-02 0. -1.
       -2   -1    0    0    0  501  0.00000000000E+00  0.00000000000E+00 -0.13792446522E+04  0.13792446522E+04  0.25500000920E-02 0.  1.
    10030    2    1    2    0    0  0.00000000000E+00  0.00000000000E+00  0.23623063967E+03  0.29947199441E+04  0.29853881872E+04 0.  0.
        4    1    3    3  502    0 -0.13349960586E+04  0.44145857404E+03 -0.38448364219E+03  0.14577137692E+04  0.12699999809E+01 0. -1.
       -4    1    3    3    0  502  0.13349960586E+04 -0.44145857404E+03  0.62071428186E+03  0.15370061749E+04  0.12699999809E+01 0.  1.
</event>
<event>
 5   0  0.5522695E-06  0.2961130E+04  0.7818609E-02  0.8254918E-01
        1   -1    0    0  501    0  0.00000000000E+00  0.00000000000E+00  0.14575041019E+04  0.14575041019E+04  0.50400001928E-02 0.  1.
       -1   -1    0    0    0  501  0.00000000000E+00  0.00000000000E+00 -0.15039908611E+04  0.15039908611E+04  0.50400001928E-02 0. -1.
    10030    2    1    2    0    0  0.00000000000E+00  0.00000000000E+00 -0.46486759170E+02  0.29614949630E+04  0.29611300878E+04 0.  0.
        3    1    3    3  502    0 -0.10008997194E+04 -0.78814101501E+03 -0.77772770160E+03  0.14925906659E+04  0.10100000352E+00 0. -1.
       -3    1    3    3    0  502  0.10008997194E+04  0.78814101501E+03  0.73124094243E+03  0.14689042971E+04  0.10100000352E+00 0.  1.
</event>
<event>
 5   0  0.1423692E-05  0.3085474E+04  0.7818609E-02  0.8219736E-01
        2   -1    0    0  501    0  0.00000000000E+00  0.00000000000E+00  0.25064388374E+04  0.25064388374E+04  0.25500000920E-02 0.  1.
       -2   -1    0    0    0  501  0.00000000000E+00  0.00000000000E+00 -0.94956933578E+03  0.94956933579E+03  0.25500000920E-02 0. -1.
    10030    2    1    2    0    0  0.00000000000E+00  0.00000000000E+00  0.15568695016E+04  0.34560081732E+04  0.30854740070E+04 0.  0.
        3    1    3    3  502    0  0.13578945592E+04 -0.10760489353E+03  0.15896930433E+04  0.20934613513E+04  0.10100000352E+00 0.  1.
       -3    1    3    3    0  502 -0.13578945592E+04  0.10760489353E+03 -0.32823541706E+02  0.13625468220E+04  0.10100000352E+00 0. -1.
</event>
<event>
 5   0  0.1423692E-05  0.2898797E+04  0.7818609E-02  0.8273235E-01
       -2   -1    0    0    0  501  0.00000000000E+00  0.00000000000E+00  0.10385280622E+04  0.10385280622E+04  0.25500000920E-02 0.  1.
        2   -1    0    0  501    0  0.00000000000E+00  0.00000000000E+00 -0.20228210553E+04  0.20228210553E+04  0.25500000920E-02 0. -1.
    10030    2    1    2    0    0  0.00000000000E+00  0.00000000000E+00 -0.98429299306E+03  0.30613491175E+04  0.28987972890E+04 0.  0.
        3    1    3    3  502    0  0.80067804922E+03 -0.91411609889E+03  0.34212839760E+03  0.12624363079E+04  0.10100000352E+00 0.  1.
       -3    1    3    3    0  502 -0.80067804922E+03  0.91411609889E+03 -0.13264213907E+04  0.17989128096E+04  0.10100000352E+00 0. -1.
</event>
<event>
 5   0  0.5329891E-06  0.2953463E+04  0.7818609E-02  0.8257146E-01
       -1   -1    0    0    0  501  0.00000000000E+00  0.00000000000E+00  0.12454959791E+04  0.12454959792E+04  0.50400001928E-02 0.  1.
        1   -1    0    0  501    0  0.00000000000E+00  0.00000000000E+00 -0.17508978269E+04  0.17508978270E+04  0.50400001928E-02 0. -1.
    10030    2    1    2    0    0  0.00000000000E+00  0.00000000000E+00 -0.50540184780E+03  0.29963938061E+04  0.29534631898E+04 0.  0.
        4    1    3    3  502    0 -0.13095699289E+04  0.67774232183E+03 -0.17136997647E+03  0.14844788093E+04  0.12699999809E+01 0. -1.
       -4    1    3    3    0  502  0.13095699289E+04 -0.67774232183E+03 -0.33403187133E+03  0.15119149968E+04  0.12699999809E+01 0.  1.
</event>
<event>
 5   0  0.5730920E-06  0.3003608E+04  0.7818609E-02  0.8242701E-01
       -1   -1    0    0    0  501  0.00000000000E+00  0.00000000000E+00  0.15376300464E+04  0.15376300464E+04  0.50400001928E-02 0. -1.
        1   -1    0    0  501    0  0.00000000000E+00  0.00000000000E+00 -0.14668127270E+04  0.14668127270E+04  0.50400001928E-02 0.  1.
    10030    2    1    2    0    0  0.00000000000E+00  0.00000000000E+00  0.70817319406E+02  0.30044427734E+04  0.30036080446E+04 0.  0.
        1    1    3    3  502    0  0.91494105529E+02  0.26719028295E+03 -0.14400109202E+04  0.14674444688E+04  0.50400001928E-02 0.  1.
       -1    1    3    3    0  502 -0.91494105529E+02 -0.26719028295E+03  0.15108282396E+04  0.15369983046E+04  0.50400001928E-02 0. -1.
</event>
<event>
 5   0  0.1480547E-05  0.2512443E+04  0.7818609E-02  0.8398566E-01
       -2   -1    0    0    0  501  0.00000000000E+00  0.00000000000E+00  0.75041792819E+03  0.75041792819E+03  0.25500000920E-02 0.  1.
        2   -1    0    0  501    0  0.00000000000E+00  0.00000000000E+00 -0.21029510430E+04  0.21029510430E+04  0.25500000920E-02 0. -1.
    10030    2    1    2    0    0  0.00000000000E+00  0.00000000000E+00 -0.13525331148E+04  0.28533689712E+04  0.25124427673E+04 0.  0.
        1    1    3    3  502    0 -0.74566923556E+02 -0.27964061046E+03 -0.20645733874E+04  0.20847595471E+04  0.50400001928E-02 0. -1.
       -1    1    3    3    0  502  0.74566923556E+02  0.27964061046E+03  0.71204027257E+03  0.76860942415E+03  0.50400001928E-02 0.  1.
</event>
<event>
 5   0  0.5329891E-06  0.2653218E+04  0.7818609E-02  0.8350346E-01
        1   -1    0    0  501    0  0.00000000000E+00  0.00000000000E+00  0.26847179909E+04  0.26847179909E+04  0.50400001928E-02 0.  1.
       -1   -1    0    0    0  501  0.00000000000E+00  0.00000000000E+00 -0.65552202567E+03  0.65552202569E+03  0.50400001928E-02 0. -1.
    10030    2    1    2    0    0  0.00000000000E+00  0.00000000000E+00  0.20291959652E+04  0.33402400166E+04  0.26532182539E+04 0.  0.
        4    1    3    3  502    0  0.96249693596E+03 -0.37662092025E+02 -0.13378034989E+03  0.97248011796E+03  0.12699999809E+01 0. -1.
       -4    1    3    3    0  502 -0.96249693596E+03  0.37662092025E+02  0.21629763151E+04  0.23677598986E+04  0.12699999809E+01 0.  1.
</event>
<event>
 5   0  0.1523029E-05  0.2986061E+04  0.7818609E-02  0.8247722E-01
        2   -1    0    0  501    0  0.00000000000E+00  0.00000000000E+00  0.20477552331E+04  0.20477552331E+04  0.25500000920E-02 0.  1.
       -2   -1    0    0    0  501  0.00000000000E+00  0.00000000000E+00 -0.10885776704E+04  0.10885776704E+04  0.25500000920E-02 0. -1.
    10030    2    1    2    0    0  0.00000000000E+00  0.00000000000E+00  0.95917756263E+03  0.31363329035E+04  0.29860613666E+04 0.  0.
        5    1    3    3  502    0 -0.13590883923E+04  0.17417597730E+03  0.11024408524E+04  0.17586518848E+04  0.46999998093E+01 0. -1.
       -5    1    3    3    0  502  0.13590883923E+04 -0.17417597730E+03 -0.14326328973E+03  0.13776810187E+04  0.46999998093E+01 0.  1.
</event>
<event>
 5   0  0.5392262E-06  0.2790344E+04  0.7818609E-02  0.8306272E-01
        1   -1    0    0  501    0  0.00000000000E+00  0.00000000000E+00  0.24767745693E+04  0.24767745693E+04  0.50400001928E-02 0. -1.
       -1   -1    0    0    0  501  0.00000000000E+00  0.00000000000E+00 -0.78590309710E+03  0.78590309712E+03  0.50400001928E-02 0.  1.
    10030    2    1    2    0    0  0.00000000000E+00  0.00000000000E+00  0.16908714721E+04  0.32626776664E+04  0.27903439249E+04 0.  0.
        2    1    3    3  502    0  0.35112200485E+03  0.48606450032E+03  0.23184242100E+04  0.23947100405E+04  0.25500000920E-02 0. -1.
       -2    1    3    3    0  502 -0.35112200485E+03 -0.48606450032E+03 -0.62755273783E+03  0.86796762585E+03  0.25500000920E-02 0.  1.
</event>
<event>
 5   0  0.7032692E-06  0.3015925E+04  0.7818609E-02  0.8239198E-01
       -1   -1    0    0    0  501  0.00000000000E+00  0.00000000000E+00  0.13096387695E+04  0.13096387695E+04  0.50400001928E-02 0. -1.
        1   -1    0    0  501    0  0.00000000000E+00  0.00000000000E+00 -0.17363192796E+04  0.17363192796E+04  0.50400001928E-02 0.  1.
    10030    2    1    2    0    0  0.00000000000E+00  0.00000000000E+00 -0.42668051008E+03  0.30459580491E+04  0.30159250951E+04 0.  0.
        5    1    3    3  502    0 -0.20217513791E+03  0.13124733245E+04  0.50824492119E+03  0.14218987319E+04  0.46999998093E+01 0. -1.
       -5    1    3    3    0  502  0.20217513791E+03 -0.13124733245E+04 -0.93492543128E+03  0.16240593172E+04  0.46999998093E+01 0.  1.
</event>
<event>
 5   0  0.5730920E-06  0.3092662E+04  0.7818609E-02  0.8217755E-01
        1   -1    0    0  501    0  0.00000000000E+00  0.00000000000E+00  0.16339768547E+04  0.16339768547E+04  0.50400001928E-02 0.  1.
       -1   -1    0    0    0  501  0.00000000000E+00  0.00000000000E+00 -0.14633867232E+04  0.14633867232E+04  0.50400001928E-02 0. -1.
    10030    2    1    2    0    0  0.00000000000E+00  0.00000000000E+00  0.17059013144E+03  0.30973635779E+04  0.30926623063E+04 0.  0.
        1    1    3    3  502    0  0.17592052936E+03  0.45068101682E+03  0.15562273279E+04  0.16296947284E+04  0.50400001928E-02 0.  1.
       -1    1    3    3    0  502 -0.17592052936E+03 -0.45068101682E+03 -0.13856371965E+04  0.14676688495E+04  0.50400001928E-02 0. -1.
</event>
<event>
 5   0  0.1523029E-05  0.2817999E+04  0.7818609E-02  0.8297702E-01
       -2   -1    0    0    0  501  0.00000000000E+00  0.00000000000E+00  0.67339597399E+03  0.67339597400E+03  0.25500000920E-02 0. -1.
        2   -1    0    0  501    0  0.00000000000E+00  0.00000000000E+00 -0.29481608448E+04  0.29481608448E+04  0.25500000920E-02 0.  1.
    10030    2    1    2    0    0  0.00000000000E+00  0.00000000000E+00 -0.22747648708E+04  0.36215568188E+04  0.28179990373E+04 0.  0.
        5    1    3    3  502    0 -0.46955422151E+02 -0.10522502549E+04  0.65331722480E+02  0.10553320495E+04  0.46999998093E+01 0. -1.
       -5    1    3    3    0  502  0.46955422151E+02  0.10522502549E+04 -0.23400965933E+04  0.25662247693E+04  0.46999998093E+01 0.  1.
</event>
<event>
 5   0  0.5392262E-06  0.2926867E+04  0.7818609E-02  0.8264928E-01
        1   -1    0    0  501    0  0.00000000000E+00  0.00000000000E+00  0.14944645549E+04  0.14944645549E+04  0.50400001928E-02 0. -1.
       -1   -1    0    0    0  501  0.00000000000E+00  0.00000000000E+00 -0.14330472587E+04  0.14330472587E+04  0.50400001928E-02 0.  1.
    10030    2    1    2    0    0  0.00000000000E+00  0.00000000000E+00  0.61417296195E+02  0.29275118136E+04  0.29268674952E+04 0.  0.
        2    1    3    3  502    0 -0.20224225388E+03 -0.61026171875E+03  0.13456527776E+04  0.14913425805E+04  0.25500000920E-02 0. -1.
       -2    1    3    3    0  502  0.20224225388E+03  0.61026171875E+03 -0.12842354814E+04  0.14361692331E+04  0.25500000920E-02 0.  1.
</event>
<event>
 5   0  0.5522695E-06  0.2494503E+04  0.7818609E-02  0.8404946E-01
        1   -1    0    0  501    0  0.00000000000E+00  0.00000000000E+00  0.11190597046E+04  0.11190597046E+04  0.50400001928E-02 0.  1.
       -1   -1    0    0    0  501  0.00000000000E+00  0.00000000000E+00 -0.13901285341E+04  0.13901285341E+04  0.50400001928E-02 0. -1.
    10030    2    1    2    0    0  0.00000000000E+00  0.00000000000E+00 -0.27106882945E+03  0.25091882387E+04  0.24945034189E+04 0.  0.
        3    1    3    3  502    0  0.10066491148E+04 -0.49153436053E+03 -0.68711305473E+03  0.13141814289E+04  0.10100000352E+00 0. -1.
       -3    1    3    3    0  502 -0.10066491148E+04  0.49153436053E+03  0.41604422527E+03  0.11950068098E+04  0.10100000352E+00 0.  1.
</event>
<event>
 5   0  0.1423692E-05  0.2988153E+04  0.7818609E-02  0.8247122E-01
        2   -1    0    0  501    0  0.00000000000E+00  0.00000000000E+00  0.21443917990E+04  0.21443917990E+04  0.25500000920E-02 0.  1.
       -2   -1    0    0    0  501  0.00000000000E+00  0.00000000000E+00 -0.10409782705E+04  0.10409782705E+04  0.25500000920E-02 0. -1.
    10030    2    1    2    0    0  0.00000000000E+00  0.00000000000E+00  0.11034135284E+04  0.31853700695E+04  0.29881534541E+04 0.  0.
        3    1    3    3  502    0 -0.13482312521E+04  0.12979234603E+03 -0.12054238108E+03  0.13598176488E+04  0.10100000352E+00 0.  1.
       -3    1    3    3    0  502  0.13482312521E+04 -0.12979234603E+03  0.12239559095E+04  0.18255524207E+04  0.10100000352E+00 0. -1.
</event>
<event>
 5   0  0.1523029E-05  0.2984262E+04  0.7818609E-02  0.8248239E-01
        2   -1    0    0  501    0  0.00000000000E+00  0.00000000000E+00  0.20233777966E+04  0.20233777966E+04  0.25500000920E-02 0. -1.
       -2   -1    0    0    0  501  0.00000000000E+00  0.00000000000E+00 -0.11003655420E+04  0.11003655420E+04  0.25500000920E-02 0.  1.
    10030    2    1    2    0    0  0.00000000000E+00  0.00000000000E+00  0.92301225461E+03  0.31237433386E+04  0.29842621907E+04 0.  0.
        5    1    3    3  502    0 -0.46043317487E+03 -0.12288022964E+03 -0.10185600532E+04  0.11245376523E+04  0.46999998093E+01 0.  1.
       -5    1    3    3    0  502  0.46043317487E+03  0.12288022964E+03  0.19415723079E+04  0.19992056863E+04  0.46999998093E+01 0. -1.
</event>
<event>
 5   0  0.1480547E-05  0.2979378E+04  0.7818609E-02  0.8249644E-01
       -2   -1    0    0    0  501  0.00000000000E+00  0.00000000000E+00  0.11097371424E+04  0.11097371424E+04  0.25500000920E-02 0. -1.
        2   -1    0    0  501    0  0.00000000000E+00  0.00000000000E+00 -0.19997290442E+04  0.19997290442E+04  0.25500000920E-02 0.  1.
    10030    2    1    2    0    0  0.00000000000E+00  0.00000000000E+00 -0.88999190181E+03  0.31094661865E+04  0.29793781868E+04 0.  0.
        1    1    3    3  502    0 -0.11756719485E+03  0.10840284846E+04 -0.15043182162E+04  0.18579324789E+04  0.50400001928E-02 0.  1.
       -1    1    3    3    0  502  0.11756719485E+03 -0.10840284846E+04  0.61432631436E+03  0.12515337076E+04  0.50400001928E-02 0. -1.
</event>
<event>
 5   0  0.5329891E-06  0.2793098E+04  0.7818609E-02  0.8305414E-01
       -1   -1    0    0    0  501  0.00000000000E+00  0.00000000000E+00  0.15714897001E+04  0.15714897001E+04  0.50400001928E-02 0.  1.
        1   -1    0    0  501    0  0.00000000000E+00  0.00000000000E+00 -0.12410830789E+04  0.12410830789E+04  0.50400001928E-02 0. -1.
    10030    2    1    2    0    0  0.00000000000E+00  0.00000000000E+00  0.33040662119E+03  0.28125727790E+04  0.27930981189E+04 0.  0.
        4    1    3    3  502    0 -0.30164719985E+02 -0.11864861732E+04  0.90632975493E+03  0.14933501221E+04  0.12699999809E+01 0.  1.
       -4    1    3    3    0  502  0.30164719985E+02  0.11864861732E+04 -0.57592313374E+03  0.13192226569E+04  0.12699999809E+01 0. -1.
</event>
<event>
 5   0  0.5522695E-06  0.2048868E+04  0.7818609E-02  0.8584108E-01
       -1   -1    0    0    0  501  0.00000000000E+00  0.00000000000E+00  0.10239570412E+04  0.10239570412E+04  0.50400001928E-02 0. -1.
        1   -1    0    0  501    0  0.00000000000E+00  0.00000000000E+00 -0.10249113270E+04  0.10249113271E+04  0.50400001928E-02 0.  1.
    10030    2    1    2    0    0  0.00000000000E+00  0.00000000000E+00 -0.95428587379E+00  0.20488683682E+04  0.20488681460E+04 0.  0.
        3    1    3    3  502    0  0.51395246575E+03  0.82700441976E+03  0.31792784190E+03  0.10242858830E+04  0.10100000352E+00 0. -1.
       -3    1    3    3    0  502 -0.51395246575E+03 -0.82700441976E+03 -0.31888212777E+03  0.10245824852E+04  0.10100000352E+00 0.  1.
</event>
<event>
 5   0  0.5730920E-06  0.2610526E+04  0.7818609E-02  0.8364635E-01
        1   -1    0    0  501    0  0.00000000000E+00  0.00000000000E+00  0.30793582910E+04  0.30793582910E+04  0.50400001928E-02 0.  1.
       -1   -1    0    0    0  501  0.00000000000E+00  0.00000000000E+00 -0.55326821194E+03  0.55326821196E+03  0.50400001928E-02 0. -1.
    10030    2    1    2    0    0  0.00000000000E+00  0.00000000000E+00  0.25260900791E+04  0.36326265030E+04  0.26105256602E+04 0.  0.
        1    1    3    3  502    0  0.46586534006E+03 -0.11374112645E+04  0.65175881906E+03  0.13912312741E+04  0.50400001928E-02 0.  1.
       -1    1    3    3    0  502 -0.46586534006E+03  0.11374112645E+04  0.18743312600E+04  0.22413952289E+04  0.50400001928E-02 0. -1.
</event>
<event>
 5   0  0.1345931E-05  0.1494289E+04  0.7818609E-02  0.8888260E-01
       -2   -1    0    0    0  501  0.00000000000E+00  0.00000000000E+00  0.96898270981E+03  0.96898270981E+03  0.25500000920E-02 0.  1.
        2   -1    0    0  501    0  0.00000000000E+00  0.00000000000E+00 -0.57609368476E+03  0.57609368476E+03  0.25500000920E-02 0. -1.
    10030    2    1    2    0    0  0.00000000000E+00  0.00000000000E+00  0.39288902505E+03  0.15450763946E+04  0.14942888874E+04 0.  0.
        2    1    3    3  502    0 -0.55850882384E+03  0.21768985737E+03  0.65758894957E+03  0.88980009380E+03  0.25500000920E-02 0.  1.
       -2    1    3    3    0  502  0.55850882384E+03 -0.21768985737E+03 -0.26469992452E+03  0.65527630078E+03  0.25500000920E-02 0. -1.
</event>
<event>
 5   0  0.5730920E-06  0.2780661E+04  0.7818609E-02  0.8309298E-01
       -1   -1    0    0    0  501  0.00000000000E+00  0.00000000000E+00  0.10036699941E+04  0.10036699942E+04  0.50400001928E-02 0.  1.
        1   -1    0    0  501    0  0.00000000000E+00  0.00000000000E+00 -0.19259501444E+04  0.19259501444E+04  0.50400001928E-02 0. -1.
    10030    2    1    2    0    0  0.00000000000E+00  0.00000000000E+00 -0.92228015021E+03  0.29296201385E+04  0.27806606194E+04 0.  0.
        1    1    3    3  502    0 -0.11211361207E+03  0.25920019679E+03  0.97313347751E+03  0.10132832620E+04  0.50400001928E-02 0.  1.
       -1    1    3    3    0  502  0.11211361207E+03 -0.25920019679E+03 -0.18954136277E+04  0.19163368765E+04  0.50400001928E-02 0. -1.
</event>
<event>
 5   0  0.5392262E-06  0.2969999E+04  0.7818609E-02  0.8252350E-01
        1   -1    0    0  501    0  0.00000000000E+00  0.00000000000E+00  0.20489378593E+04  0.20489378593E+04  0.50400001928E-02 0. -1.
       -1   -1    0    0    0  501  0.00000000000E+00  0.00000000000E+00 -0.10762762975E+04  0.10762762975E+04  0.50400001928E-02 0.  1.
    10030    2    1    2    0    0  0.00000000000E+00  0.00000000000E+00  0.97266156178E+03  0.31252141568E+04  0.29699988236E+04 0.  0.
        2    1    3    3  502    0  0.95916615055E+03  0.10121307167E+04 -0.51059435612E+02  0.13953549219E+04  0.25500000920E-02 0.  1.
       -2    1    3    3    0  502 -0.95916615055E+03 -0.10121307167E+04  0.10237209974E+04  0.17298592349E+04  0.25500000920E-02 0. -1.
</event>
<event>
 5   0  0.5329891E-06  0.2564896E+04  0.7818609E-02  0.8380224E-01
        1   -1    0    0  501    0  0.00000000000E+00  0.00000000000E+00  0.18824452303E+04  0.18824452303E+04  0.50400001928E-02 0. -1.
       -1   -1    0    0    0  501  0.00000000000E+00  0.00000000000E+00 -0.87368949887E+03  0.87368949889E+03  0.50400001928E-02 0.  1.
    10030    2    1    2    0    0  0.00000000000E+00  0.00000000000E+00  0.10087557314E+04  0.27561347292E+04  0.25648958107E+04 0.  0.
        4    1    3    3  502    0 -0.35452649531E+03  0.26896963673E+03  0.17968183312E+04  0.18511054615E+04  0.12699999809E+01 0. -1.
       -4    1    3    3    0  502  0.35452649531E+03 -0.26896963673E+03 -0.78806259976E+03  0.90502926770E+03  0.12699999809E+01 0.  1.
</event>
<event>
 5   0  0.1480547E-05  0.2885599E+04  0.7818609E-02  0.8277175E-01
        2   -1    0    0  501    0  0.00000000000E+00  0.00000000000E+00  0.17451967795E+04  0.17451967795E+04  0.25500000920E-02 0. -1.
       -2   -1    0    0    0  501  0.00000000000E+00  0.00000000000E+00 -0.11927995709E+04  0.11927995709E+04  0.25500000920E-02 0.  1.
    10030    2    1    2    0    0  0.00000000000E+00  0.00000000000E+00  0.55239720868E+03  0.29379963504E+04  0.28855987037E+04 0.  0.
        1    1    3    3  502    0 -0.86219459606E+03  0.50389746266E+02  0.14529321223E+04  0.16902456627E+04  0.50400001928E-02 0. -1.
       -1    1    3    3    0  502  0.86219459606E+03 -0.50389746266E+02 -0.90053491366E+03  0.12477506877E+04  0.50400001928E-02 0.  1.
</event>
<event>
 5   0  0.1423692E-05  0.2278725E+04  0.7818609E-02  0.8486357E-01
       -2   -1    0    0    0  501  0.00000000000E+00  0.00000000000E+00  0.13352165502E+04  0.13352165502E+04  0.25500000920E-02 0. -1.
        2   -1    0    0  501    0  0.00000000000E+00  0.00000000000E+00 -0.97223721878E+03  0.97223721878E+03  0.25500000920E-02 0.  1.
    10030    2    1    2    0    0  0.00000000000E+00  0.00000000000E+00  0.36297933145E+03  0.23074537690E+04  0.22787252799E+04 0.  0.
        3    1    3    3  502    0 -0.54158162841E+01  0.65965642424E+02 -0.97028885487E+03  0.97254371066E+03  0.10100000352E+00 0.  1.
       -3    1    3    3    0  502  0.54158162841E+01 -0.65965642424E+02  0.13332681863E+04  0.13349100584E+04  0.10100000352E+00 0. -1.
</event>
<event>
 5   0  0.5392262E-06  0.2953905E+04  0.7818609E-02  0.8257017E-01
        1   -1    0    0  501    0  0.00000000000E+00  0.00000000000E+00  0.11442341752E+04  0.11442341752E+04  0.50400001928E-02 0. -1.
       -1   -1    0    0    0  501  0.00000000000E+00  0.00000000000E+00 -0.19064177369E+04  0.19064177370E+04  0.50400001928E-02 0.  1.
    10030    2    1    2    0    0  0.00000000000E+00  0.00000000000E+00 -0.76218356179E+03  0.30506519121E+04  0.29539047559E+04 0.  0.
        2    1    3    3  502    0 -0.56389026059E+03  0.41292869448E+03 -0.17248235639E+04  0.18610477316E+04  0.25500000920E-02 0.  1.
       -2    1    3    3    0  502  0.56389026059E+03 -0.41292869448E+03  0.96264000210E+03  0.11896041805E+04  0.25500000920E-02 0. -1.
</event>
<event>
 5   0  0.7032692E-06  0.3089892E+04  0.7818609E-02  0.8218518E-01
        1   -1    0    0  501    0  0.00000000000E+00  0.00000000000E+00  0.23368172664E+04  0.23368172664E+04  0.50400001928E-02 0.  1.
       -1   -1    0    0    0  501  0.00000000000E+00  0.00000000000E+00 -0.10214137864E+04  0.10214137864E+04  0.50400001928E-02 0. -1.
    10030    2    1    2    0    0  0.00000000000E+00  0.00000000000E+00  0.13154034800E+04  0.33582310528E+04  0.30898915011E+04 0.  0.
        5    1    3    3  502    0  0.69736835872E+03 -0.12730455678E+04  0.82733727995E+02  0.14539032310E+04  0.46999998093E+01 0.  1.
       -5    1    3    3    0  502 -0.69736835872E+03  0.12730455678E+04  0.12326697520E+04  0.19043278218E+04  0.46999998093E+01 0. -1.
</event>
<event>
 5   0  0.1523029E-05  0.1855401E+04  0.7818609E-02  0.8677380E-01
        2   -1    0    0  501    0  0.00000000000E+00  0.00000000000E+00  0.12047068806E+04  0.12047068806E+04  0.25500000920E-02 0. -1.
       -2   -1    0    0    0  501  0.00000000000E+00  0.00000000000E+00 -0.71438803189E+03  0.71438803189E+03  0.25500000920E-02 0.  1.
    10030    2    1    2    0    0  0.00000000000E+00  0.00000000000E+00  0.49031884873E+03  0.19190949125E+04  0.18554009566E+04 0.  0.
        5    1    3    3  502    0 -0.91102122269E+02  0.91158767325E+03  0.94153049335E+02  0.92096610654E+03  0.46999998093E+01 0.  1.
       -5    1    3    3    0  502  0.91102122269E+02 -0.91158767325E+03  0.39616579940E+03  0.99812880597E+03  0.46999998093E+01 0. -1.
</event>
<event>
 5   0  0.1480547E-05  0.2998151E+04  0.7818609E-02  0.8244259E-01
        2   -1    0    0  501    0  0.00000000000E+00  0.00000000000E+00  0.15719145878E+04  0.15719145878E+04  0.25500000920E-02 0.  1.
       -2   -1    0    0    0  501  0.00000000000E+00  0.00000000000E+00 -0.14296120376E+04  0.14296120376E+04  0.25500000920E-02 0. -1.
    10030    2    1    2    0    0  0.00000000000E+00  0.00000000000E+00  0.14230255018E+03  0.30015266254E+04  0.29981514416E+04 0.  0.
        1    1    3    3  502    0  0.67967964402E+03 -0.13360692093E+04  0.84681899262E+02  0.15014048004E+04  0.50400001928E-02 0. -1.
       -1    1    3    3    0  502 -0.67967964402E+03  0.13360692093E+04  0.57620650922E+02  0.15001218250E+04  0.50400001928E-02 0.  1.
</event>
<event>
 5   0  0.4806125E-06  0.2958477E+04  0.7818609E-02  0.8255688E-01
       -3   -1    0    0    0  501  0.00000000000E+00  0.00000000000E+00  0.20977149627E+04  0.20977149652E+04  0.10100000352E+00 0.  1.
        3   -1    0    0  501    0  0.00000000000E+00  0.00000000000E+00 -0.10431097508E+04  0.10431097557E+04  0.10100000352E+00 0. -1.
    10030    2    1    2    0    0  0.00000000000E+00  0.00000000000E+00  0.10546052120E+04  0.31408247208E+04  0.29584772728E+04 0.  0.
        5    1    3    3  502    0 -0.79330905489E+02  0.11057808930E+04  0.15669902866E+04  0.19195117672E+04  0.46999998093E+01 0.  1.
       -5    1    3    3    0  502  0.79330905489E+02 -0.11057808930E+04 -0.51238507465E+03  0.12213129536E+04  0.46999998093E+01 0. -1.
</event>
<event>
 5   0  0.5329891E-06  0.2974067E+04  0.7818609E-02  0.8251175E-01
        1   -1    0    0  501    0  0.00000000000E+00  0.00000000000E+00  0.87527895773E+03  0.87527895775E+03  0.50400001928E-02 0.  1.
       -1   -1    0    0    0  501  0.00000000000E+00  0.00000000000E+00 -0.25263593234E+04  0.25263593234E+04  0.50400001928E-02 0. -1.
    10030    2    1    2    0    0  0.00000000000E+00  0.00000000000E+00 -0.16510803656E+04  0.34016382811E+04  0.29740673533E+04 0.  0.
        4    1    3    3  502    0  0.14801004684E+04 -0.14300724819E+03 -0.83802103216E+03  0.17068770702E+04  0.12699999809E+01 0. -1.
       -4    1    3    3    0  502 -0.14801004684E+04  0.14300724819E+03 -0.81305933346E+03  0.16947612109E+04  0.12699999809E+01 0.  1.
</event>
<event>
 5   0  0.1388724E-05  0.2719199E+04  0.7818609E-02  0.8328802E-01
       -2   -1    0    0    0  501  0.00000000000E+00  0.00000000000E+00  0.14784572159E+04  0.14784572159E+04  0.25500000920E-02 0. -1.
        2   -1    0    0  501    0  0.00000000000E+00  0.00000000000E+00 -0.12502971761E+04  0.12502971761E+04  0.25500000920E-02 0.  1.
    10030    2    1    2    0    0  0.00000000000E+00  0.00000000000E+00  0.22816003980E+03  0.27287543921E+04  0.27191990601E+04 0.  0.
        4    1    3    3  502    0  0.34923336014E+03 -0.11730727985E+04 -0.47998463533E+03  0.13147055159E+04  0.12699999809E+01 0.  1.
       -4    1    3    3    0  502 -0.34923336014E+03  0.11730727985E+04  0.70814467512E+03  0.14140488762E+04  0.12699999809E+01 0. -1.
</event>
<event>
 5   0  0.1480547E-05  0.3028187E+04  0.7818609E-02  0.8235728E-01
       -2   -1    0    0    0  501  0.00000000000E+00  0.00000000000E+00  0.14329565128E+04  0.14329565128E+04  0.25500000920E-02 0. -1.
        2   -1    0    0  501    0  0.00000000000E+00  0.00000000000E+00 -0.15998243176E+04  0.15998243176E+04  0.25500000920E-02 0.  1.
    10030    2    1    2    0    0  0.00000000000E+00  0.00000000000E+00 -0.16686780484E+03  0.30327808304E+04  0.30281867018E+04 0.  0.
        1    1    3    3  502    0 -0.43337397128E+03  0.13041834065E+04 -0.71982795371E+03  0.15514056980E+04  0.50400001928E-02 0.  1.
       -1    1    3    3    0  502  0.43337397128E+03 -0.13041834065E+04  0.55296014888E+03  0.14813751324E+04  0.50400001928E-02 0. -1.
</event>
<event>
 5   0  0.1523029E-05  0.2943811E+04  0.7818609E-02  0.8259961E-01
        2   -1    0    0  501    0  0.00000000000E+00  0.00000000000E+00  0.13660312318E+04  0.13660312319E+04  0.25500000920E-02 0. -1.
       -2   -1    0    0    0  501  0.00000000000E+00  0.00000000000E+00 -0.15859850348E+04  0.15859850348E+04  0.25500000920E-02 0.  1.
    10030    2    1    2    0    0  0.00000000000E+00  0.00000000000E+00 -0.21995380297E+03  0.29520162667E+04  0.29438105176E+04 0.  0.
        5    1    3    3  502    0  0.92530984517E+03 -0.11040689855E+04 -0.41300521235E+03  0.14985866774E+04  0.46999998093E+01 0.  1.
       -5    1    3    3    0  502 -0.92530984517E+03  0.11040689855E+04  0.19305140937E+03  0.14534295893E+04  0.46999998093E+01 0. -1.
</event>
<event>
 5   0  0.1523029E-05  0.2426500E+04  0.7818609E-02  0.8429648E-01
        2   -1    0    0  501    0  0.00000000000E+00  0.00000000000E+00  0.24608068622E+04  0.24608068622E+04  0.25500000920E-02 0. -1.
       -2   -1    0    0    0  501  0.00000000000E+00  0.00000000000E+00 -0.59816802360E+03  0.59816802360E+03  0.25500000920E-02 0.  1.
    10030    2    1    2    0    0  0.00000000000E+00  0.00000000000E+00  0.18626388386E+04  0.30589748858E+04  0.24265003419E+04 0.  0.
        5    1    3    3  502    0 -0.72918125515E+02  0.22165794582E+02 -0.59513588448E+03  0.60001432189E+03  0.46999998093E+01 0.  1.
       -5    1    3    3    0  502  0.72918125515E+02 -0.22165794582E+02  0.24577747231E+04  0.24589605639E+04  0.46999998093E+01 0. -1.
</event>
<event>
 5   0  0.1523029E-05  0.3038379E+04  0.7818609E-02  0.8232856E-01
        2   -1    0    0  501    0  0.00000000000E+00  0.00000000000E+00  0.22486718333E+04  0.22486718333E+04  0.25500000920E-02 0. -1.
       -2   -1    0    0    0  501  0.00000000000E+00  0.00000000000E+00 -0.10263553361E+04  0.10263553361E+04  0.25500000920E-02 0.  1.
    10030    2    1    2    0    0  0.00000000000E+00  0.00000000000E+00  0.12223164971E+04  0.32750271694E+04  0.30383787356E+04 0.  0.
        5    1    3    3  502    0 -0.51918689997E+03  0.93115683993E+03 -0.55540478599E+03  0.12021250617E+04  0.46999998093E+01 0.  1.
       -5    1    3    3    0  502  0.51918689997E+03 -0.93115683993E+03  0.17777212831E+04  0.20729021077E+04  0.46999998093E+01 0. -1.
</event>
<event>
 5   0  0.7032692E-06  0.2971346E+04  0.7818609E-02  0.8251961E-01
        1   -1    0    0  501    0  0.00000000000E+00  0.00000000000E+00  0.15814917459E+04  0.15814917459E+04  0.50400001928E-02 0. -1.
       -1   -1    0    0    0  501  0.00000000000E+00  0.00000000000E+00 -0.13956599747E+04  0.13956599747E+04  0.50400001928E-02 0.  1.
    10030    2    1    2    0    0  0.00000000000E+00  0.00000000000E+00  0.18583177124E+03  0.29771517207E+04  0.29713463145E+04 0.  0.
        5    1    3    3  502    0  0.48611380383E+02  0.14728893827E+04  0.28152937030E+03  0.15003489849E+04  0.46999998093E+01 0.  1.
       -5    1    3    3    0  502 -0.48611380383E+02 -0.14728893827E+04 -0.95697599053E+02  0.14768027358E+04  0.46999998093E+01 0. -1.
</event>
<event>
 5   0  0.1480547E-05  0.1616493E+04  0.7818609E-02  0.8810479E-01
       -2   -1    0    0    0  501  0.00000000000E+00  0.00000000000E+00  0.69236930192E+03  0.69236930193E+03  0.25500000920E-02 0.  1.
        2   -1    0    0  501    0  0.00000000000E+00  0.00000000000E+00 -0.94351719169E+03  0.94351719169E+03  0.25500000920E-02 0. -1.
    10030    2    1    2    0    0  0.00000000000E+00  0.00000000000E+00 -0.25114788977E+03  0.16358864936E+04  0.16164929191E+04 0.  0.
        1    1    3    3  502    0 -0.35309001568E+03 -0.21395997288E+03  0.57760830237E+03  0.70998787325E+03  0.50400001928E-02 0.  1.
       -1    1    3    3    0  502  0.35309001568E+03  0.21395997288E+03 -0.82875619214E+03  0.92589862037E+03  0.50400001928E-02 0. -1.
</event>
<event>
 5   0  0.5392262E-06  0.2912644E+04  0.7818609E-02  0.8269125E-01
        1   -1    0    0  501    0  0.00000000000E+00  0.00000000000E+00  0.11884481428E+04  0.11884481429E+04  0.50400001928E-02 0.  1.
       -1   -1    0    0    0  501  0.00000000000E+00  0.00000000000E+00 -0.17845739393E+04  0.17845739393E+04  0.50400001928E-02 0. -1.
    10030    2    1    2    0    0  0.00000000000E+00  0.00000000000E+00 -0.59612579642E+03  0.29730220821E+04  0.29126438738E+04 0.  0.
        2    1    3    3  502    0  0.97841235272E+03  0.44752962303E+03 -0.12998871666E+04  0.16873885567E+04  0.25500000920E-02 0. -1.
       -2    1    3    3    0  502 -0.97841235272E+03 -0.44752962303E+03  0.70376137019E+03  0.12856335254E+04  0.25500000920E-02 0.  1.
</event>
<event>
 5   0  0.5392262E-06  0.2973090E+04  0.7818609E-02  0.8251457E-01
       -1   -1    0    0    0  501  0.00000000000E+00  0.00000000000E+00  0.18864887154E+04  0.18864887154E+04  0.50400001928E-02 0. -1.
        1   -1    0    0  501    0  0.00000000000E+00  0.00000000000E+00 -0.11713912313E+04  0.11713912313E+04  0.50400001928E-02 0.  1.
    10030    2    1    2    0    0  0.00000000000E+00  0.00000000000E+00  0.71509748410E+03  0.30578799467E+04  0.29730902033E+04 0.  0.
        2    1    3    3  502    0 -0.44959694911E+03  0.68153353724E+03 -0.92013150403E+03  0.12301493258E+04  0.25500000920E-02 0.  1.
       -2    1    3    3    0  502  0.44959694911E+03 -0.68153353724E+03  0.16352289881E+04  0.18277306209E+04  0.25500000920E-02 0. -1.
</event>
<event>
 5   0  0.5522695E-06  0.3062624E+04  0.7818609E-02  0.8226071E-01
        1   -1    0    0  501    0  0.00000000000E+00  0.00000000000E+00  0.20828950834E+04  0.20828950834E+04  0.50400001928E-02 0.  1.
       -1   -1    0    0    0  501  0.00000000000E+00  0.00000000000E+00 -0.11257967735E+04  0.11257967736E+04  0.50400001928E-02 0. -1.
    10030    2    1    2    0    0  0.00000000000E+00  0.00000000000E+00  0.95709830985E+03  0.32086918570E+04  0.30626240805E+04 0.  0.
        3    1    3    3  502    0 -0.70491226184E+03  0.53145574505E+03 -0.83235388703E+03  0.12133258051E+04  0.10100000352E+00 0. -1.
       -3    1    3    3    0  502  0.70491226184E+03 -0.53145574505E+03  0.17894521969E+04  0.19953660519E+04  0.10100000352E+00 0.  1.
</event>
<event>
 5   0  0.1480547E-05  0.3031753E+04  0.7818609E-02  0.8234721E-01
       -2   -1    0    0    0  501  0.00000000000E+00  0.00000000000E+00  0.10660962999E+04  0.10660962999E+04  0.25500000920E-02 0.  1.
        2   -1    0    0  501    0  0.00000000000E+00  0.00000000000E+00 -0.21554159362E+04  0.21554159362E+04  0.25500000920E-02 0. -1.
    10030    2    1    2    0    0  0.00000000000E+00  0.00000000000E+00 -0.10893196362E+04  0.32215122361E+04  0.30317525984E+04 0.  0.
        1    1    3    3  502    0  0.34683376380E+03  0.71058349677E+03 -0.19189221832E+04  0.20754481229E+04  0.50400001928E-02 0. -1.
       -1    1    3    3    0  502 -0.34683376380E+03 -0.71058349677E+03  0.82960254699E+03  0.11460641132E+04  0.50400001928E-02 0.  1.
</event>
<event>
 5   0  0.5329891E-06  0.1671153E+04  0.7818609E-02  0.8777990E-01
        1   -1    0    0  501    0  0.00000000000E+00  0.00000000000E+00  0.65825525480E+03  0.65825525482E+03  0.50400001928E-02 0.  1.
       -1   -1    0    0    0  501  0.00000000000E+00  0.00000000000E+00 -0.10606648686E+04  0.10606648686E+04  0.50400001928E-02 0. -1.
    10030    2    1    2    0    0  0.00000000000E+00  0.00000000000E+00 -0.40240961380E+03  0.17189201234E+04  0.16711531628E+04 0.  0.
        4    1    3    3  502    0  0.78870820603E+03 -0.21613251394E+03 -0.37760821867E+03  0.90075716903E+03  0.12699999809E+01 0.  1.
       -4    1    3    3    0  502 -0.78870820603E+03  0.21613251394E+03 -0.24801395130E+02  0.81816295440E+03  0.12699999809E+01 0. -1.
</event>
<event>
 5   0  0.5329891E-06  0.1485572E+04  0.7818609E-02  0.8894104E-01
        1   -1    0    0  501    0  0.00000000000E+00  0.00000000000E+00  0.13695892430E+04  0.13695892430E+04  0.50400001928E-02 0.  1.
       -1   -1    0    0    0  501  0.00000000000E+00  0.00000000000E+00 -0.40284432593E+03  0.40284432596E+03  0.50400001928E-02 0. -1.
    10030    2    1    2    0    0  0.00000000000E+00  0.00000000000E+00  0.96674491704E+03  0.17724335689E+04  0.14855722876E+04 0.  0.
        4    1    3    3  502    0 -0.50984600105E+03 -0.18731114922E+03 -0.12111897846E+03  0.55650681150E+03  0.12699999809E+01 0. -1.
       -4    1    3    3    0  502  0.50984600105E+03  0.18731114922E+03  0.10878638955E+04  0.12159267574E+04  0.12699999809E+01 0.  1.
</event>
<event>
 5   0  0.7032692E-06  0.2581077E+04  0.7818609E-02  0.8374658E-01
       -1   -1    0    0    0  501  0.00000000000E+00  0.00000000000E+00  0.73596097125E+03  0.73596097127E+03  0.50400001928E-02 0.  1.
        1   -1    0    0  501    0  0.00000000000E+00  0.00000000000E+00 -0.22630130639E+04  0.22630130639E+04  0.50400001928E-02 0. -1.
    10030    2    1    2    0    0  0.00000000000E+00  0.00000000000E+00 -0.15270520927E+04  0.29989740352E+04  0.25810767462E+04 0.  0.
        5    1    3    3  502    0  0.67258377010E+03  0.77949005053E+03 -0.16676470179E+04  0.19598577329E+04  0.46999998093E+01 0. -1.
       -5    1    3    3    0  502 -0.67258377010E+03 -0.77949005053E+03  0.14059492529E+03  0.10391163023E+04  0.46999998093E+01 0.  1.
</event>
<event>
 5   0  0.1345931E-05  0.1973743E+04  0.7818609E-02  0.8618996E-01
       -2   -1    0    0    0  501  0.00000000000E+00  0.00000000000E+00  0.52624672011E+03  0.52624672012E+03  0.25500000920E-02 0.  1.
        2   -1    0    0  501    0  0.00000000000E+00  0.00000000000E+00 -0.18506823032E+04  0.18506823032E+04  0.25500000920E-02 0. -1.
    10030    2    1    2    0    0  0.00000000000E+00  0.00000000000E+00 -0.13244355831E+04  0.23769290234E+04  0.19737431363E+04 0.  0.
        2    1    3    3  502    0  0.24716084616E+03 -0.41216116386E+03  0.37580150708E+03  0.61007547205E+03  0.25500000920E-02 0.  1.
       -2    1    3    3    0  502 -0.24716084616E+03  0.41216116386E+03 -0.17002370902E+04  0.17668535513E+04  0.25500000920E-02 0. -1.
</event>
<event>
 5   0  0.1388724E-05  0.2992872E+04  0.7818609E-02  0.8245769E-01
        2   -1    0    0  501    0  0.00000000000E+00  0.00000000000E+00  0.25253962769E+04  0.25253962769E+04  0.25500000920E-02 0. -1.
       -2   -1    0    0    0  501  0.00000000000E+00  0.00000000000E+00 -0.88672075125E+03  0.88672075125E+03  0.25500000920E-02 0.  1.
    10030    2    1    2    0    0  0.00000000000E+00  0.00000000000E+00  0.16386755256E+04  0.34121170281E+04  0.29928723887E+04 0.  0.
        4    1    3    3  502    0  0.17491913756E+03  0.20243135695E+03  0.24979089579E+04  0.25121954410E+04  0.12699999809E+01 0. -1.
       -4    1    3    3    0  502 -0.17491913756E+03 -0.20243135695E+03 -0.85923343227E+03  0.89992158713E+03  0.12699999809E+01 0.  1.
</event>
<event>
 5   0  0.1523029E-05  0.2934187E+04  0.7818609E-02  0.8262778E-01
        2   -1    0    0  501    0  0.00000000000E+00  0.00000000000E+00  0.21556900940E+04  0.21556900940E+04  0.25500000920E-02 0. -1.
       -2   -1    0    0    0  501  0.00000000000E+00  0.00000000000E+00 -0.99845663109E+03  0.99845663109E+03  0.25500000920E-02 0.  1.
    10030    2    1    2    0    0  0.00000000000E+00  0.00000000000E+00  0.11572334629E+04  0.31541467251E+04  0.29341868168E+04 0.  0.
        5    1    3    3  502    0  0.41419406020E+03  0.52724998600E+03  0.19813493446E+04  0.20917257427E+04  0.46999998093E+01 0. -1.
       -5    1    3    3    0  502 -0.41419406020E+03 -0.52724998600E+03 -0.82411588174E+03  0.10624209824E+04  0.46999998093E+01 0.  1.
</event>
<event>
 5   0  0.1423692E-05  0.2805130E+04  0.7818609E-02  0.8301678E-01
        2   -1    0    0  501    0  0.00000000000E+00  0.00000000000E+00  0.18802259251E+04  0.18802259251E+04  0.25500000920E-02 0. -1.
       -2   -1    0    0    0  501  0.00000000000E+00  0.00000000000E+00 -0.10462510622E+04  0.10462510622E+04  0.25500000920E-02 0.  1.
    10030    2    1    2    0    0  0.00000000000E+00  0.00000000000E+00  0.83397486289E+03  0.29264769874E+04  0.28051298518E+04 0.  0.
        3    1    3    3  502    0  0.23636893860E+03 -0.92232567834E+03 -0.65743433744E+03  0.11570543852E+04  0.10100000352E+00 0.  1.
       -3    1    3    3    0  502 -0.23636893860E+03  0.92232567834E+03  0.14914092003E+04  0.17694226022E+04  0.10100000352E+00 0. -1.
</event>
<event>
 5   0  0.1523029E-05  0.2954546E+04  0.7818609E-02  0.8256831E-01
        2   -1    0    0  501    0  0.00000000000E+00  0.00000000000E+00  0.17507618011E+04  0.17507618011E+04  0.25500000920E-02 0. -1.
       -2   -1    0    0    0  501  0.00000000000E+00  0.00000000000E+00 -0.12465059600E+04  0.12465059600E+04  0.25500000920E-02 0.  1.
    10030    2    1    2    0    0  0.00000000000E+00  0.00000000000E+00  0.50425584112E+03  0.29972677611E+04  0.29545456636E+04 0.  0.
        5    1    3    3  502    0  0.36390336750E+03 -0.13318509827E+04  0.78513963926E+03  0.15883069742E+04  0.46999998093E+01 0. -1.
       -5    1    3    3    0  502 -0.36390336750E+03  0.13318509827E+04 -0.28088379815E+03  0.14089607869E+04  0.46999998093E+01 0.  1.
</event>
<event>
 5   0  0.1345931E-05  0.3069102E+04  0.7818609E-02  0.8224269E-01
        2   -1    0    0  501    0  0.00000000000E+00  0.00000000000E+00  0.22125096513E+04  0.22125096513E+04  0.25500000920E-02 0. -1.
       -2   -1    0    0    0  501  0.00000000000E+00  0.00000000000E+00 -0.10643331334E+04  0.10643331334E+04  0.25500000920E-02 0.  1.
    10030    2    1    2    0    0  0.00000000000E+00  0.00000000000E+00  0.11481765179E+04  0.32768427847E+04  0.30691023637E+04 0.  0.
        2    1    3    3  502    0 -0.11545000329E+04  0.86304124681E+03  0.11361594663E+04  0.18353661358E+04  0.25500000920E-02 0. -1.
       -2    1    3    3    0  502  0.11545000329E+04 -0.86304124681E+03  0.12017051538E+02  0.14414766488E+04  0.25500000920E-02 0.  1.
</event>
<event>
 5   0  0.5730920E-06  0.3058595E+04  0.7818609E-02  0.8227194E-01
       -1   -1    0    0    0  501  0.00000000000E+00  0.00000000000E+00  0.13124951831E+04  0.13124951831E+04  0.50400001928E-02 0. -1.
        1   -1    0    0  501    0  0.00000000000E+00  0.00000000000E+00 -0.17819117587E+04  0.17819117587E+04  0.50400001928E-02 0.  1.
    10030    2    1    2    0    0  0.00000000000E+00  0.00000000000E+00 -0.46941657558E+03  0.30944069418E+04  0.30585948408E+04 0.  0.
        1    1    3    3  502    0 -0.13886644574E+04 -0.34911689864E+03  0.30868289717E+03  0.14647718987E+04  0.50400001928E-02 0. -1.
       -1    1    3    3    0  502  0.13886644574E+04  0.34911689864E+03 -0.77809947275E+03  0.16296350431E+04  0.50400001928E-02 0.  1.
</event>
<event>
 5   0  0.5329891E-06  0.3021384E+04  0.7818609E-02  0.8237651E-01
        1   -1    0    0  501    0  0.00000000000E+00  0.00000000000E+00  0.11423460516E+04  0.11423460516E+04  0.50400001928E-02 0.  1.
       -1   -1    0    0    0  501  0.00000000000E+00  0.00000000000E+00 -0.19978095380E+04  0.19978095380E+04  0.50400001928E-02 0. -1.
    10030    2    1    2    0    0  0.00000000000E+00  0.00000000000E+00 -0.85546348639E+03  0.31401555896E+04  0.30213836814E+04 0.  0.
        4    1    3    3  502    0 -0.70148507311E+03 -0.45753911147E+03  0.87897739127E+03  0.12140948124E+04  0.12699999809E+01 0.  1.
       -4    1    3    3    0  502  0.70148507311E+03  0.45753911147E+03 -0.17344408777E+04  0.19260607772E+04  0.12699999809E+01 0. -1.
</event>
<event>
 5   0  0.1388724E-05  0.3019974E+04  0.7818609E-02  0.8238050E-01
        2   -1    0    0  501    0  0.00000000000E+00  0.00000000000E+00  0.15106851810E+04  0.15106851810E+04  0.25500000920E-02 0. -1.
       -2   -1    0    0    0  501  0.00000000000E+00  0.00000000000E+00 -0.15092892579E+04  0.15092892579E+04  0.25500000920E-02 0.  1.
    10030    2    1    2    0    0  0.00000000000E+00  0.00000000000E+00  0.13959231560E+01  0.30199744389E+04  0.30199741163E+04 0.  0.
        4    1    3    3  502    0  0.57733993573E+03 -0.97855249480E+03  0.99526979293E+03  0.15104469405E+04  0.12699999809E+01 0. -1.
       -4    1    3    3    0  502 -0.57733993573E+03  0.97855249480E+03 -0.99387386977E+03  0.15095274984E+04  0.12699999809E+01 0.  1.
</event>
<event>
 5   0  0.1388724E-05  0.2801207E+04  0.7818609E-02  0.8302894E-01
       -2   -1    0    0    0  501  0.00000000000E+00  0.00000000000E+00  0.12030811805E+04  0.12030811805E+04  0.25500000920E-02 0. -1.
        2   -1    0    0  501    0  0.00000000000E+00  0.00000000000E+00 -0.16305551540E+04  0.16305551540E+04  0.25500000920E-02 0.  1.
    10030    2    1    2    0    0  0.00000000000E+00  0.00000000000E+00 -0.42747397351E+03  0.28336363344E+04  0.28012070394E+04 0.  0.
        4    1    3    3  502    0 -0.10371539100E+04 -0.87279779998E+03  0.14279812989E+03  0.13630323369E+04  0.12699999809E+01 0. -1.
       -4    1    3    3    0  502  0.10371539100E+04  0.87279779998E+03 -0.57027210340E+03  0.14706039975E+04  0.12699999809E+01 0.  1.
</event>
<event>
 5   0  0.5392262E-06  0.3027367E+04  0.7818609E-02  0.8235959E-01
        1   -1    0    0  501    0  0.00000000000E+00  0.00000000000E+00  0.27178786662E+04  0.27178786662E+04  0.50400001928E-02 0. -1.
       -1   -1    0    0    0  501  0.00000000000E+00  0.00000000000E+00 -0.84302430407E+03  0.84302430408E+03  0.50400001928E-02 0.  1.
    10030    2    1    2    0    0  0.00000000000E+00  0.00000000000E+00  0.18748543621E+04  0.35609029703E+04  0.30273670218E+04 0.  0.
        2    1    3    3  502    0  0.10351029728E+04  0.14752797501E+01  0.22365162286E+04  0.24644360778E+04  0.25500000920E-02 0. -1.
       -2    1    3    3    0  502 -0.10351029728E+04 -0.14752797501E+01 -0.36166186643E+03  0.10964668925E+04  0.25500000920E-02 0.  1.
</event>
<event>
 5   0  0.5392262E-06  0.3013353E+04  0.7818609E-02  0.8239928E-01
        1   -1    0    0  501    0  0.00000000000E+00  0.00000000000E+00  0.18714371997E+04  0.18714371997E+04  0.50400001928E-02 0.  1.
       -1   -1    0    0    0  501  0.00000000000E+00  0.00000000000E+00 -0.12130109443E+04  0.12130109443E+04  0.50400001928E-02 0. -1.
    10030    2    1    2    0    0  0.00000000000E+00  0.00000000000E+00  0.65842625538E+03  0.30844481440E+04  0.30133528202E+04 0.  0.
        2    1    3    3  502    0 -0.11338792412E+04  0.14163095676E+03  0.13343862226E+04  0.17567948237E+04  0.25500000920E-02 0.  1.
       -2    1    3    3    0  502  0.11338792412E+04 -0.14163095676E+03 -0.67595996719E+03  0.13276533203E+04  0.25500000920E-02 0. -1.
</event>
<event>
 5   0  0.1345931E-05  0.3183376E+04  0.7818609E-02  0.8193221E-01
       -2   -1    0    0    0  501  0.00000000000E+00  0.00000000000E+00  0.30661471858E+04  0.30661471858E+04  0.25500000920E-02 0. -1.
        2   -1    0    0  501    0  0.00000000000E+00  0.00000000000E+00 -0.82627152746E+03  0.82627152747E+03  0.25500000920E-02 0.  1.
    10030    2    1    2    0    0  0.00000000000E+00  0.00000000000E+00  0.22398756583E+04  0.38924187132E+04  0.31833756414E+04 0.  0.
        2    1    3    3  502    0 -0.25188791516E+03  0.14331490585E+04  0.33119786459E+03  0.14923323260E+04  0.25500000920E-02 0. -1.
       -2    1    3    3    0  502  0.25188791516E+03 -0.14331490585E+04  0.19086777937E+04  0.24000863872E+04  0.25500000920E-02 0.  1.
</event>
<event>
 5   0  0.1423692E-05  0.1691538E+04  0.7818609E-02  0.8766205E-01
        2   -1    0    0  501    0  0.00000000000E+00  0.00000000000E+00  0.11402047382E+04  0.11402047382E+04  0.25500000920E-02 0.  1.
       -2   -1    0    0    0  501  0.00000000000E+00  0.00000000000E+00 -0.62736581964E+03  0.62736581965E+03  0.25500000920E-02 0. -1.
    10030    2    1    2    0    0  0.00000000000E+00  0.00000000000E+00  0.51283891857E+03  0.17675705579E+04  0.16915383296E+04 0.  0.
        3    1    3    3  502    0 -0.33308047313E+03  0.98226471087E+02  0.10622736262E+04  0.11175939819E+04  0.10100000352E+00 0.  1.
       -3    1    3    3    0  502  0.33308047313E+03 -0.98226471087E+02 -0.54943470762E+03  0.64997657600E+03  0.10100000352E+00 0. -1.
</event>
<event>
 5   0  0.1345931E-05  0.1897626E+04  0.7818609E-02  0.8656039E-01
       -2   -1    0    0    0  501  0.00000000000E+00  0.00000000000E+00  0.44684415095E+03  0.44684415096E+03  0.25500000920E-02 0. -1.
        2   -1    0    0  501    0  0.00000000000E+00  0.00000000000E+00 -0.20146761096E+04  0.20146761096E+04  0.25500000920E-02 0.  1.
    10030    2    1    2    0    0  0.00000000000E+00  0.00000000000E+00 -0.15678319586E+04  0.24615202605E+04  0.18976261335E+04 0.  0.
        2    1    3    3  502    0  0.54788342954E+03 -0.50524880922E+03 -0.22236289696E+02  0.74561857821E+03  0.25500000920E-02 0. -1.
       -2    1    3    3    0  502 -0.54788342954E+03  0.50524880922E+03 -0.15455956689E+04  0.17159016823E+04  0.25500000920E-02 0.  1.
</event>
<event>
 5   0  0.1480547E-05  0.2922933E+04  0.7818609E-02  0.8266087E-01
        2   -1    0    0  501    0  0.00000000000E+00  0.00000000000E+00  0.15207571286E+04  0.15207571286E+04  0.25500000920E-02 0. -1.
       -2   -1    0    0    0  501  0.00000000000E+00  0.00000000000E+00 -0.14044872061E+04  0.14044872061E+04  0.25500000920E-02 0.  1.
    10030    2    1    2    0    0  0.00000000000E+00  0.00000000000E+00  0.11626992251E+03  0.29252443347E+04  0.29229327264E+04 0.  0.
        1    1    3    3  502    0 -0.49817840672E+03 -0.45995988190E+02  0.14323875565E+04  0.15172446961E+04  0.50400001928E-02 0. -1.
       -1    1    3    3    0  502  0.49817840672E+03  0.45995988190E+02 -0.13161176340E+04  0.14079996386E+04  0.50400001928E-02 0.  1.
</event>
<event>
 5   0  0.7032692E-06  0.2992625E+04  0.7818609E-02  0.8245840E-01
        1   -1    0    0  501    0  0.00000000000E+00  0.00000000000E+00  0.10050035664E+04  0.10050035664E+04  0.50400001928E-02 0. -1.
       -1   -1    0    0    0  501  0.00000000000E+00  0.00000000000E+00 -0.22278034056E+04  0.22278034056E+04  0.50400001928E-02 0.  1.
    10030    2    1    2    0    0  0.00000000000E+00  0.00000000000E+00 -0.12227998392E+04  0.32328069720E+04  0.29926245123E+04 0.  0.
        5    1    3    3  502    0  0.11856601784E+04 -0.89684317320E+03 -0.79475935297E+03  0.16857586586E+04  0.46999998093E+01 0. -1.
       -5    1    3    3    0  502 -0.11856601784E+04  0.89684317320E+03 -0.42804048628E+03  0.15470483134E+04  0.46999998093E+01 0.  1.
</event>
<event>
 5   0  0.1523029E-05  0.2952061E+04  0.7818609E-02  0.8257554E-01
        2   -1    0    0  501    0  0.00000000000E+00  0.00000000000E+00  0.18756159468E+04  0.18756159468E+04  0.25500000920E-02 0. -1.
       -2   -1    0    0    0  501  0.00000000000E+00  0.00000000000E+00 -0.11615732686E+04  0.11615732686E+04  0.25500000920E-02 0.  1.
    10030    2    1    2    0    0  0.00000000000E+00  0.00000000000E+00  0.71404267818E+03  0.30371892155E+04  0.29520605320E+04 0.  0.
        5    1    3    3  502    0  0.56077620520E+03 -0.23406844614E+02  0.17615347936E+04  0.18487954867E+04  0.46999998093E+01 0. -1.
       -5    1    3    3    0  502 -0.56077620520E+03  0.23406844614E+02 -0.10474921154E+04  0.11883937287E+04  0.46999998093E+01 0.  1.
</event>
<event>
 5   0  0.1388724E-05  0.2447190E+04  0.7818609E-02  0.8422045E-01
        2   -1    0    0  501    0  0.00000000000E+00  0.00000000000E+00  0.58354285418E+03  0.58354285419E+03  0.25500000920E-02 0.  1.
       -2   -1    0    0    0  501  0.00000000000E+00  0.00000000000E+00 -0.25656810077E+04  0.25656810077E+04  0.25500000920E-02 0. -1.
    10030    2    1    2    0    0  0.00000000000E+00  0.00000000000E+00 -0.19821381535E+04  0.31492238618E+04  0.24471900769E+04 0.  0.
        4    1    3    3  502    0 -0.25449080399E+03 -0.17377585795E+03 -0.25149247813E+04  0.25337347703E+04  0.12699999809E+01 0. -1.
       -4    1    3    3    0  502  0.25449080399E+03  0.17377585795E+03  0.53278662779E+03  0.61548909151E+03  0.12699999809E+01 0.  1.
</event>
<event>
 5   0  0.1345931E-05  0.2974836E+04  0.7818609E-02  0.8250953E-01
       -2   -1    0    0    0  501  0.00000000000E+00  0.00000000000E+00  0.10987798872E+04  0.10987798872E+04  0.25500000920E-02 0. -1.
        2   -1    0    0  501    0  0.00000000000E+00  0.00000000000E+00 -0.20135178578E+04  0.20135178578E+04  0.25500000920E-02 0.  1.
    10030    2    1    2    0    0  0.00000000000E+00  0.00000000000E+00 -0.91473797060E+03  0.31122977450E+04  0.29748364154E+04 0.  0.
        2    1    3    3  502    0 -0.30807487432E+03 -0.15536032144E+03 -0.19710718353E+04  0.20010425127E+04  0.25500000920E-02 0.  1.
       -2    1    3    3    0  502  0.30807487432E+03  0.15536032144E+03  0.10563338647E+04  0.11112552323E+04  0.25500000920E-02 0. -1.
</event>
<event>
 5   0  0.5522695E-06  0.2622066E+04  0.7818609E-02  0.8360744E-01
       -1   -1    0    0    0  501  0.00000000000E+00  0.00000000000E+00  0.11479378802E+04  0.11479378802E+04  0.50400001928E-02 0. -1.
        1   -1    0    0  501    0  0.00000000000E+00  0.00000000000E+00 -0.14973004687E+04  0.14973004687E+04  0.50400001928E-02 0.  1.
    10030    2    1    2    0    0  0.00000000000E+00  0.00000000000E+00 -0.34936258853E+03  0.26452383490E+04  0.26220663044E+04 0.  0.
        3    1    3    3  502    0 -0.78100819223E+03 -0.31300200537E+03  0.83962116070E+03  0.11886579640E+04  0.10100000352E+00 0. -1.
       -3    1    3    3    0  502  0.78100819223E+03  0.31300200537E+03 -0.11889837492E+04  0.14565803849E+04  0.10100000352E+00 0.  1.
</event>
<event>
 5   0  0.7032692E-06  0.1769596E+04  0.7818609E-02  0.8722637E-01
        1   -1    0    0  501    0  0.00000000000E+00  0.00000000000E+00  0.11596817504E+04  0.11596817504E+04  0.50400001928E-02 0.  1.
       -1   -1    0    0    0  501  0.00000000000E+00  0.00000000000E+00 -0.67507131297E+03  0.67507131299E+03  0.50400001928E-02 0. -1.
    10030    2    1    2    0    0  0.00000000000E+00  0.00000000000E+00  0.48461043739E+03  0.18347530634E+04  0.17695964307E+04 0.  0.
        5    1    3    3  502    0 -0.10067220712E+03  0.86871128712E+03  0.38160845855E+03  0.95417047706E+03  0.46999998093E+01 0. -1.
       -5    1    3    3    0  502  0.10067220712E+03 -0.86871128712E+03  0.10300197884E+03  0.88058258630E+03  0.46999998093E+01 0.  1.
</event>
<event>
 5   0  0.1480547E-05  0.2968727E+04  0.7818609E-02  0.8252718E-01
       -2   -1    0    0    0  501  0.00000000000E+00  0.00000000000E+00  0.19821017857E+04  0.19821017857E+04  0.25500000920E-02 0.  1.
        2   -1    0    0  501    0  0.00000000000E+00  0.00000000000E+00 -0.11116155812E+04  0.11116155812E+04  0.25500000920E-02 0. -1.
    10030    2    1    2    0    0  0.00000000000E+00  0.00000000000E+00  0.87048620457E+03  0.30937173669E+04  0.29687271538E+04 0.  0.
        1    1    3    3  502    0  0.98878750756E+03  0.42881988527E+03  0.14988758202E+04  0.18461354104E+04  0.50400001928E-02 0.  1.
       -1    1    3    3    0  502 -0.98878750756E+03 -0.42881988527E+03 -0.62838961564E+03  0.12475819565E+04  0.50400001928E-02 0. -1.
</event>
<event>
 5   0  0.1523029E-05  0.2979197E+04  0.7818609E-02  0.8249696E-01
        2   -1    0    0  501    0  0.00000000000E+00  0.00000000000E+00  0.27591405256E+04  0.27591405256E+04  0.25500000920E-02 0. -1.
       -2   -1    0    0    0  501  0.00000000000E+00  0.00000000000E+00 -0.80420100928E+03  0.80420100928E+03  0.25500000920E-02 0.  1.
    10030    2    1    2    0    0  0.00000000000E+00  0.00000000000E+00  0.19549395164E+04  0.35633415349E+04  0.29791969357E+04 0.  0.
        5    1    3    3  502    0 -0.52579006842E+03 -0.11793287586E+03 -0.68353203887E+03  0.87040306607E+03  0.46999998093E+01 0.  1.
       -5    1    3    3    0  502  0.52579006842E+03  0.11793287586E+03  0.26384715552E+04  0.26929384688E+04  0.46999998093E+01 0. -1.
</event>
<event>
 5   0  0.1523029E-05  0.3123818E+04  0.7818609E-02  0.8209232E-01
       -2   -1    0    0    0  501  0.00000000000E+00  0.00000000000E+00  0.18284244056E+04  0.18284244056E+04  0.25500000920E-02 0. -1.
        2   -1    0    0  501    0  0.00000000000E+00  0.00000000000E+00 -0.13342413809E+04  0.13342413809E+04  0.25500000920E-02 0.  1.
    10030    2    1    2    0    0  0.00000000000E+00  0.00000000000E+00  0.49418302470E+03  0.31626657866E+04  0.31238178589E+04 0.  0.
        5    1    3    3  502    0 -0.76512456454E+03 -0.37749826065E+03 -0.10774661739E+04  0.13743638463E+04  0.46999998093E+01 0.  1.
       -5    1    3    3    0  502  0.76512456454E+03  0.37749826065E+03  0.15716491986E+04  0.17883019403E+04  0.46999998093E+01 0. -1.
</event>
<event>
 5   0  0.5329891E-06  0.2996520E+04  0.7818609E-02  0.8244725E-01
        1   -1    0    0  501    0  0.00000000000E+00  0.00000000000E+00  0.13258128181E+04  0.13258128181E+04  0.50400001928E-02 0. -1.
       -1   -1    0    0    0  501  0.00000000000E+00  0.00000000000E+00 -0.16931369321E+04  0.16931369321E+04  0.50400001928E-02 0.  1.
    10030    2    1    2    0    0  0.00000000000E+00  0.00000000000E+00 -0.36732411398E+03  0.30189497502E+04  0.29965197462E+04 0.  0.
        4    1    3    3  502    0 -0.28338029142E+03 -0.45753005229E+03 -0.15923928006E+04  0.16808791100E+04  0.12699999809E+01 0.  1.
       -4    1    3    3    0  502  0.28338029142E+03  0.45753005229E+03  0.12250686866E+04  0.13380706402E+04  0.12699999809E+01 0. -1.
</event>
<event>
 5   0  0.5329891E-06  0.3002389E+04  0.7818609E-02  0.8243049E-01
        1   -1    0    0  501    0  0.00000000000E+00  0.00000000000E+00  0.22087041627E+04  0.22087041627E+04  0.50400001928E-02 0.  1.
       -1   -1    0    0    0  501  0.00000000000E+00  0.00000000000E+00 -0.10203197165E+04  0.10203197165E+04  0.50400001928E-02 0. -1.
    10030    2    1    2    0    0  0.00000000000E+00  0.00000000000E+00  0.11883844462E+04  0.32290238793E+04  0.30023886525E+04 0.  0.
        4    1    3    3  502    0  0.69155799347E+03  0.27141316551E+03  0.19971396890E+04  0.21308416447E+04  0.12699999809E+01 0.  1.
       -4    1    3    3    0  502 -0.69155799347E+03 -0.27141316551E+03 -0.80875524273E+03  0.10981822345E+04  0.12699999809E+01 0. -1.
</event>
<event>
 5   0  0.5392262E-06  0.3148084E+04  0.7818609E-02  0.8202664E-01
       -1   -1    0    0    0  501  0.00000000000E+00  0.00000000000E+00  0.12312142727E+04  0.12312142727E+04  0.50400001928E-02 0.  1.
        1   -1    0    0  501    0  0.00000000000E+00  0.00000000000E+00 -0.20123291973E+04  0.20123291973E+04  0.50400001928E-02 0. -1.
    10030    2    1    2    0    0  0.00000000000E+00  0.00000000000E+00 -0.78111492456E+03  0.32435434700E+04  0.31480841342E+04 0.  0.
        2    1    3    3  502    0  0.90838906889E+03 -0.23633957375E+03  0.91131642456E+03  0.13082525445E+04  0.25500000920E-02 0.  1.
       -2    1    3    3    0  502 -0.90838906889E+03  0.23633957375E+03 -0.16924313491E+04  0.19352909254E+04  0.25500000920E-02 0. -1.
</event>
<event>
 5   0  0.1480547E-05  0.3048090E+04  0.7818609E-02  0.8230130E-01
        2   -1    0    0  501    0  0.00000000000E+00  0.00000000000E+00  0.15079889225E+04  0.15079889225E+04  0.25500000920E-02 0. -1.
       -2   -1    0    0    0  501  0.00000000000E+00  0.00000000000E+00 -0.15402717330E+04  0.15402717330E+04  0.25500000920E-02 0.  1.
    10030    2    1    2    0    0  0.00000000000E+00  0.00000000000E+00 -0.32282810446E+02  0.30482606555E+04  0.30480897041E+04 0.  0.
        1    1    3    3  502    0 -0.68374818135E+03 -0.71618600532E+03 -0.11747739217E+04  0.15364009037E+04  0.50400001928E-02 0.  1.
       -1    1    3    3    0  502  0.68374818135E+03  0.71618600532E+03  0.11424911113E+04  0.15118597518E+04  0.50400001928E-02 0. -1.
</event>
<event>
 5   0  0.1523029E-05  0.3027749E+04  0.7818609E-02  0.8235851E-01
        2   -1    0    0  501    0  0.00000000000E+00  0.00000000000E+00  0.18374506055E+04  0.18374506055E+04  0.25500000920E-02 0.  1.
       -2   -1    0    0    0  501  0.00000000000E+00  0.00000000000E+00 -0.12472804499E+04  0.12472804499E+04  0.25500000920E-02 0. -1.
    10030    2    1    2    0    0  0.00000000000E+00  0.00000000000E+00  0.59017015562E+03  0.30847310554E+04  0.30277491428E+04 0.  0.
        5    1    3    3  502    0  0.13055546529E+04  0.59651301009E+03 -0.19510749579E+03  0.14485819783E+04  0.46999998093E+01 0.  1.
       -5    1    3    3    0  502 -0.13055546529E+04 -0.59651301009E+03  0.78527765141E+03  0.16361490771E+04  0.46999998093E+01 0. -1.
</event>
<event>
 5   0  0.1423692E-05  0.3029090E+04  0.7818609E-02  0.8235473E-01
       -2   -1    0    0    0  501  0.00000000000E+00  0.00000000000E+00  0.11270960705E+04  0.11270960705E+04  0.25500000920E-02 0. -1.
        2   -1    0    0  501    0  0.00000000000E+00  0.00000000000E+00 -0.20351824205E+04  0.20351824205E+04  0.25500000920E-02 0.  1.
    10030    2    1    2    0    0  0.00000000000E+00  0.00000000000E+00 -0.90808635006E+03  0.31622784910E+04  0.30290897041E+04 0.  0.
        3    1    3    3  502    0 -0.15217760795E+03 -0.64151174529E+03 -0.18775032249E+04  0.19899029407E+04  0.10100000352E+00 0.  1.
       -3    1    3    3    0  502  0.15217760795E+03  0.64151174529E+03  0.96941687481E+03  0.11723755504E+04  0.10100000352E+00 0. -1.
</event>
<event>
 5   0  0.5329891E-06  0.2961131E+04  0.7818609E-02  0.8254918E-01
        1   -1    0    0  501    0  0.00000000000E+00  0.00000000000E+00  0.18656175545E+04  0.18656175545E+04  0.50400001928E-02 0. -1.
       -1   -1    0    0    0  501  0.00000000000E+00  0.00000000000E+00 -0.11749855675E+04  0.11749855675E+04  0.50400001928E-02 0.  1.
    10030    2    1    2    0    0  0.00000000000E+00  0.00000000000E+00  0.69063198698E+03  0.30406031220E+04  0.29611306632E+04 0.  0.
        4    1    3    3  502    0 -0.94897784743E+03 -0.66806348442E+03 -0.59870796861E+03  0.13058792512E+04  0.12699999809E+01 0.  1.
       -4    1    3    3    0  502  0.94897784743E+03  0.66806348442E+03  0.12893399556E+04  0.17347238709E+04  0.12699999809E+01 0. -1.
</event>
<event>
 5   0  0.1480547E-05  0.2920904E+04  0.7818609E-02  0.8266685E-01
       -2   -1    0    0    0  501  0.00000000000E+00  0.00000000000E+00  0.17394963618E+04  0.17394963618E+04  0.25500000920E-02 0. -1.
        2   -1    0    0  501    0  0.00000000000E+00  0.00000000000E+00 -0.12261710269E+04  0.12261710269E+04  0.25500000920E-02 0.  1.
    10030    2    1    2    0    0  0.00000000000E+00  0.00000000000E+00  0.51332533491E+03  0.29656673887E+04  0.29209039972E+04 0.  0.
        1    1    3    3  502    0 -0.13781805559E+04  0.15438934594E+03  0.72161323461E+03  0.15633116692E+04  0.50400001928E-02 0. -1.
       -1    1    3    3    0  502  0.13781805559E+04 -0.15438934594E+03 -0.20828789970E+03  0.14023557195E+04  0.50400001928E-02 0.  1.
</event>
<event>
 5   0  0.5329891E-06  0.2991502E+04  0.7818609E-02  0.8246162E-01
        1   -1    0    0  501    0  0.00000000000E+00  0.00000000000E+00  0.18749100344E+04  0.18749100344E+04  0.50400001928E-02 0. -1.
       -1   -1    0    0    0  501  0.00000000000E+00  0.00000000000E+00 -0.11932682343E+04  0.11932682343E+04  0.50400001928E-02 0.  1.
    10030    2    1    2    0    0  0.00000000000E+00  0.00000000000E+00  0.68164180006E+03  0.30681782688E+04  0.29915016873E+04 0.  0.
        4    1    3    3  502    0  0.67059199310E+03  0.13368151791E+04  0.36376684930E+03  0.15391869210E+04  0.12699999809E+01 0.  1.
       -4    1    3    3    0  502 -0.67059199310E+03 -0.13368151791E+04  0.31787495076E+03  0.15289913477E+04  0.12699999809E+01 0. -1.
</event>
<event>
 5   0  0.1423692E-05  0.3106948E+04  0.7818609E-02  0.8213834E-01
        2   -1    0    0  501    0  0.00000000000E+00  0.00000000000E+00  0.17216538803E+04  0.17216538803E+04  0.25500000920E-02 0. -1.
       -2   -1    0    0    0  501  0.00000000000E+00  0.00000000000E+00 -0.14017226334E+04  0.14017226334E+04  0.25500000920E-02 0.  1.
    10030    2    1    2    0    0  0.00000000000E+00  0.00000000000E+00  0.31993124685E+03  0.31233765137E+04  0.31069478341E+04 0.  0.
        3    1    3    3  502    0 -0.25179932895E+03 -0.17200078763E+03  0.16912712910E+04  0.17185417548E+04  0.10100000352E+00 0. -1.
       -3    1    3    3    0  502  0.25179932895E+03  0.17200078763E+03 -0.13713400441E+04  0.14048347589E+04  0.10100000352E+00 0.  1.
</event>
<event>
 5   0  0.1388724E-05  0.2989027E+04  0.7818609E-02  0.8246871E-01
        2   -1    0    0  501    0  0.00000000000E+00  0.00000000000E+00  0.23011147714E+04  0.23011147714E+04  0.25500000920E-02 0. -1.
       -2   -1    0    0    0  501  0.00000000000E+00  0.00000000000E+00 -0.97064739918E+03  0.97064739918E+03  0.25500000920E-02 0.  1.
    10030    2    1    2    0    0  0.00000000000E+00  0.00000000000E+00  0.13304673723E+04  0.32717621706E+04  0.29890273121E+04 0.  0.
        4    1    3    3  502    0  0.22041812900E+03 -0.12960736916E+04 -0.11275661400E+03  0.13195100729E+04  0.12699999809E+01 0.  1.
       -4    1    3    3    0  502 -0.22041812900E+03  0.12960736916E+04  0.14432239863E+04  0.19522520977E+04  0.12699999809E+01 0. -1.
</event>
<event>
 5   0  0.5730920E-06  0.2196123E+04  0.7818609E-02  0.8520043E-01
       -1   -1    0    0    0  501  0.00000000000E+00  0.00000000000E+00  0.13987445689E+04  0.13987445689E+04  0.50400001928E-02 0.  1.
        1   -1    0    0  501    0  0.00000000000E+00  0.00000000000E+00 -0.86201526410E+03  0.86201526412E+03  0.50400001928E-02 0. -1.
    10030    2    1    2    0    0  0.00000000000E+00  0.00000000000E+00  0.53672930477E+03  0.22607598330E+04  0.21961231013E+04 0.  0.
        1    1    3    3  502    0  0.40448846406E+03 -0.57435466385E+03 -0.60042060762E+03  0.92412071913E+03  0.50400001928E-02 0. -1.
       -1    1    3    3    0  502 -0.40448846406E+03  0.57435466385E+03  0.11371499124E+04  0.13366391139E+04  0.50400001928E-02 0.  1.
</event>
<event>
 5   0  0.1480547E-05  0.3005634E+04  0.7818609E-02  0.8242124E-01
       -2   -1    0    0    0  501  0.00000000000E+00  0.00000000000E+00  0.81102165331E+03  0.81102165332E+03  0.25500000920E-02 0.  1.
        2   -1    0    0  501    0  0.00000000000E+00  0.00000000000E+00 -0.27847090755E+04  0.27847090755E+04  0.25500000920E-02 0. -1.
    10030    2    1    2    0    0  0.00000000000E+00  0.00000000000E+00 -0.19736874222E+04  0.35957307288E+04  0.30056342814E+04 0.  0.
        1    1    3    3  502    0 -0.86698830035E+03  0.11170150615E+04 -0.37792697558E+03  0.14636325220E+04  0.50400001928E-02 0.  1.
       -1    1    3    3    0  502  0.86698830035E+03 -0.11170150615E+04 -0.15957604466E+04  0.21320982068E+04  0.50400001928E-02 0. -1.
</event>
<event>
 5   0  0.7032692E-06  0.3027934E+04  0.7818609E-02  0.8235799E-01
        1   -1    0    0  501    0  0.00000000000E+00  0.00000000000E+00  0.22179519443E+04  0.22179519443E+04  0.50400001928E-02 0. -1.
       -1   -1    0    0    0  501  0.00000000000E+00  0.00000000000E+00 -0.10334291558E+04  0.10334291558E+04  0.50400001928E-02 0.  1.
    10030    2    1    2    0    0  0.00000000000E+00  0.00000000000E+00  0.11845227885E+04  0.32513811000E+04  0.30279340847E+04 0.  0.
        5    1    3    3  502    0  0.45375605541E+02 -0.84141042927E+03  0.19428736689E+04  0.21177371507E+04  0.46999998093E+01 0. -1.
       -5    1    3    3    0  502 -0.45375605541E+02  0.84141042927E+03 -0.75835088042E+03  0.11336439494E+04  0.46999998093E+01 0.  1.
</event>
<event>
 5   0  0.7032692E-06  0.2645291E+04  0.7818609E-02  0.8352978E-01
       -1   -1    0    0    0  501  0.00000000000E+00  0.00000000000E+00  0.11004507474E+04  0.11004507474E+04  0.50400001928E-02 0. -1.
        1   -1    0    0  501    0  0.00000000000E+00  0.00000000000E+00 -0.15897044493E+04  0.15897044493E+04  0.50400001928E-02 0.  1.
    10030    2    1    2    0    0  0.00000000000E+00  0.00000000000E+00 -0.48925370189E+03  0.26901551968E+04  0.26452912501E+04 0.  0.
        5    1    3    3  502    0  0.84909145019E+03  0.70869551374E+03  0.49304684383E+03  0.12109182062E+04  0.46999998093E+01 0. -1.
       -5    1    3    3    0  502 -0.84909145019E+03 -0.70869551374E+03 -0.98230054573E+03  0.14792369905E+04  0.46999998093E+01 0.  1.
</event>
<event>
 5   0  0.5329891E-06  0.3006868E+04  0.7818609E-02  0.8241772E-01
        1   -1    0    0  501    0  0.00000000000E+00  0.00000000000E+00  0.16186580684E+04  0.16186580684E+04  0.50400001928E-02 0. -1.
       -1   -1    0    0    0  501  0.00000000000E+00  0.00000000000E+00 -0.13964122101E+04  0.13964122101E+04  0.50400001928E-02 0.  1.
    10030    2    1    2    0    0  0.00000000000E+00  0.00000000000E+00  0.22224585834E+03  0.30150702785E+04  0.30068680654E+04 0.  0.
        4    1    3    3  502    0 -0.83252227117E+03  0.47371538109E+03 -0.10508360178E+04  0.14218852075E+04  0.12699999809E+01 0.  1.
       -4    1    3    3    0  502  0.83252227117E+03 -0.47371538109E+03  0.12730818761E+04  0.15931850710E+04  0.12699999809E+01 0. -1.
</event>
<event>
 5   0  0.5522695E-06  0.2947080E+04  0.7818609E-02  0.8259006E-01
        1   -1    0    0  501    0  0.00000000000E+00  0.00000000000E+00  0.29792535545E+04  0.29792535545E+04  0.50400001928E-02 0.  1.
       -1   -1    0    0    0  501  0.00000000000E+00  0.00000000000E+00 -0.72881323030E+03  0.72881323032E+03  0.50400001928E-02 0. -1.
    10030    2    1    2    0    0  0.00000000000E+00  0.00000000000E+00  0.22504403242E+04  0.37080667848E+04  0.29470795082E+04 0.  0.
        3    1    3    3  502    0 -0.93246954364E+01  0.11289459438E+04  0.23166886198E+04  0.25771402882E+04  0.10100000352E+00 0.  1.
       -3    1    3    3    0  502  0.93246954364E+01 -0.11289459438E+04 -0.66248295577E+02  0.11309264966E+04  0.10100000352E+00 0. -1.
</event>
<event>
 5   0  0.5522695E-06  0.1601092E+04  0.7818609E-02  0.8819877E-01
       -1   -1    0    0    0  501  0.00000000000E+00  0.00000000000E+00  0.18831743488E+04  0.18831743488E+04  0.50400001928E-02 0. -1.
        1   -1    0    0  501    0  0.00000000000E+00  0.00000000000E+00 -0.34031583106E+03  0.34031583110E+03  0.50400001928E-02 0.  1.
    10030    2    1    2    0    0  0.00000000000E+00  0.00000000000E+00  0.15428585178E+04  0.22234901799E+04  0.16010921817E+04 0.  0.
        3    1    3    3  502    0  0.69544876260E+03  0.67996980848E+02  0.13139273657E+04  0.14881793250E+04  0.10100000352E+00 0. -1.
       -3    1    3    3    0  502 -0.69544876260E+03 -0.67996980848E+02  0.22893115206E+03  0.73531085493E+03  0.10100000352E+00 0.  1.
</event>
<event>
 5   0  0.5329891E-06  0.2079491E+04  0.7818609E-02  0.8570332E-01
       -1   -1    0    0    0  501  0.00000000000E+00  0.00000000000E+00  0.72807762809E+03  0.72807762811E+03  0.50400001928E-02 0.  1.
        1   -1    0    0  501    0  0.00000000000E+00  0.00000000000E+00 -0.14848286419E+04  0.14848286420E+04  0.50400001928E-02 0. -1.
    10030    2    1    2    0    0  0.00000000000E+00  0.00000000000E+00 -0.75675101386E+03  0.22129062701E+04  0.20794908182E+04 0.  0.
        4    1    3    3  502    0 -0.59168725941E+02 -0.83251045986E+03  0.28148321964E+03  0.88080021557E+03  0.12699999809E+01 0.  1.
       -4    1    3    3    0  502  0.59168725941E+02  0.83251045986E+03 -0.10382342335E+04  0.13321060545E+04  0.12699999809E+01 0. -1.
</event>
<event>
 5   0  0.5522695E-06  0.2890942E+04  0.7818609E-02  0.8275578E-01
       -1   -1    0    0    0  501  0.00000000000E+00  0.00000000000E+00  0.16438775945E+04  0.16438775945E+04  0.50400001928E-02 0.  1.
        1   -1    0    0  501    0  0.00000000000E+00  0.00000000000E+00 -0.12710107027E+04  0.12710107027E+04  0.50400001928E-02 0. -1.
    10030    2    1    2    0    0  0.00000000000E+00  0.00000000000E+00  0.37286689183E+03  0.29148882972E+04  0.28909417265E+04 0.  0.
        3    1    3    3  502    0 -0.13814753931E+04  0.34787264493E+03 -0.60331133736E+02  0.14258784992E+04  0.10100000352E+00 0.  1.
       -3    1    3    3    0  502  0.13814753931E+04 -0.34787264493E+03  0.43319802557E+03  0.14890097979E+04  0.10100000352E+00 0. -1.
</event>
<event>
 5   0  0.5730920E-06  0.2271355E+04  0.7818609E-02  0.8489302E-01
       -1   -1    0    0    0  501  0.00000000000E+00  0.00000000000E+00  0.72135936759E+03  0.72135936761E+03  0.50400001928E-02 0.  1.
        1   -1    0    0  501    0  0.00000000000E+00  0.00000000000E+00 -0.17879623959E+04  0.17879623959E+04  0.50400001928E-02 0. -1.
    10030    2    1    2    0    0  0.00000000000E+00  0.00000000000E+00 -0.10666030283E+04  0.25093217635E+04  0.22713550345E+04 0.  0.
        1    1    3    3  502    0  0.99376192611E+03 -0.20966196775E+03 -0.10947180526E+04  0.14932945192E+04  0.50400001928E-02 0. -1.
       -1    1    3    3    0  502 -0.99376192611E+03  0.20966196775E+03  0.28115024277E+02  0.10160272443E+04  0.50400001928E-02 0.  1.
</event>
<event>
 5   0  0.7032692E-06  0.2988692E+04  0.7818609E-02  0.8246967E-01
       -1   -1    0    0    0  501  0.00000000000E+00  0.00000000000E+00  0.15971298306E+04  0.15971298306E+04  0.50400001928E-02 0. -1.
        1   -1    0    0  501    0  0.00000000000E+00  0.00000000000E+00 -0.13981772191E+04  0.13981772191E+04  0.50400001928E-02 0.  1.
    10030    2    1    2    0    0  0.00000000000E+00  0.00000000000E+00  0.19895261147E+03  0.29953070497E+04  0.29886923863E+04 0.  0.
        5    1    3    3  502    0  0.73074451458E+03  0.92681192582E+03  0.10180639507E+04  0.15586674402E+04  0.46999998093E+01 0. -1.
       -5    1    3    3    0  502 -0.73074451458E+03 -0.92681192582E+03 -0.81911133921E+03  0.14366396095E+04  0.46999998093E+01 0.  1.
</event>
<event>
 5   0  0.1423692E-05  0.2533034E+04  0.7818609E-02  0.8391310E-01
        2   -1    0    0  501    0  0.00000000000E+00  0.00000000000E+00  0.12093006069E+04  0.12093006069E+04  0.25500000920E-02 0. -1.
       -2   -1    0    0    0  501  0.00000000000E+00  0.00000000000E+00 -0.13264410277E+04  0.13264410277E+04  0.25500000920E-02 0.  1.
    10030    2    1    2    0    0  0.00000000000E+00  0.00000000000E+00 -0.11714042076E+03  0.25357416346E+04  0.25330344963E+04 0.  0.
        3    1    3    3  502    0  0.69988656881E+03  0.10503707126E+04 -0.16330557220E+03  0.12727091432E+04  0.10100000352E+00 0.  1.
       -3    1    3    3    0  502 -0.69988656881E+03 -0.10503707126E+04  0.46165151437E+02  0.12630324914E+04  0.10100000352E+00 0. -1.
</event>
<event>
 5   0  0.1345931E-05  0.2967621E+04  0.7818609E-02  0.8253038E-01
        2   -1    0    0  501    0  0.00000000000E+00  0.00000000000E+00  0.20598271110E+04  0.20598271110E+04  0.25500000920E-02 0.  1.
       -2   -1    0    0    0  501  0.00000000000E+00  0.00000000000E+00 -0.10688728498E+04  0.10688728498E+04  0.25500000920E-02 0. -1.
    10030    2    1    2    0    0  0.00000000000E+00  0.00000000000E+00  0.99095426119E+03  0.31286999608E+04  0.29676207805E+04 0.  0.
        2    1    3    3  502    0 -0.35498822730E+03  0.66024464932E+03 -0.85455720615E+03  0.11367531205E+04  0.25500000920E-02 0. -1.
       -2    1    3    3    0  502  0.35498822730E+03 -0.66024464932E+03  0.18455114673E+04  0.19919468403E+04  0.25500000920E-02 0.  1.
</event>
<event>
 5   0  0.7032692E-06  0.2913927E+04  0.7818609E-02  0.8268746E-01
        1   -1    0    0  501    0  0.00000000000E+00  0.00000000000E+00  0.16438192208E+04  0.16438192208E+04  0.50400001928E-02 0.  1.
       -1   -1    0    0    0  501  0.00000000000E+00  0.00000000000E+00 -0.12913482482E+04  0.12913482482E+04  0.50400001928E-02 0. -1.
    10030    2    1    2    0    0  0.00000000000E+00  0.00000000000E+00  0.35247097259E+03  0.29351674690E+04  0.29139272957E+04 0.  0.
        5    1    3    3  502    0  0.17307048753E+03  0.13491900480E+04 -0.34954033441E+03  0.14044456966E+04  0.46999998093E+01 0. -1.
       -5    1    3    3    0  502 -0.17307048753E+03 -0.13491900480E+04  0.70201130699E+03  0.15307217724E+04  0.46999998093E+01 0.  1.
</event>
<event>
 5   0  0.1480547E-05  0.1646981E+04  0.7818609E-02  0.8792194E-01
        2   -1    0    0  501    0  0.00000000000E+00  0.00000000000E+00  0.84863185084E+03  0.84863185085E+03  0.25500000920E-02 0. -1.
       -2   -1    0    0    0  501  0.00000000000E+00  0.00000000000E+00 -0.79909429301E+03  0.79909429302E+03  0.25500000920E-02 0.  1.
    10030    2    1    2    0    0  0.00000000000E+00  0.00000000000E+00  0.49537557832E+02  0.16477261439E+04  0.16469813222E+04 0.  0.
        1    1    3    3  502    0  0.11248238300E+03 -0.26943848606E+03 -0.74557131102E+03  0.80070341831E+03  0.50400001928E-02 0.  1.
       -1    1    3    3    0  502 -0.11248238300E+03  0.26943848606E+03  0.79510886885E+03  0.84702272555E+03  0.50400001928E-02 0. -1.
</event>
<event>
 5   0  0.1480547E-05  0.2921407E+04  0.7818609E-02  0.8266537E-01
       -2   -1    0    0    0  501  0.00000000000E+00  0.00000000000E+00  0.13468971341E+04  0.13468971341E+04  0.25500000920E-02 0. -1.
        2   -1    0    0  501    0  0.00000000000E+00  0.00000000000E+00 -0.15841256941E+04  0.15841256941E+04  0.25500000920E-02 0.  1.
    10030    2    1    2    0    0  0.00000000000E+00  0.00000000000E+00 -0.23722855998E+03  0.29310228282E+04  0.29214067552E+04 0.  0.
        1    1    3    3  502    0 -0.10932302425E+04 -0.82120255506E+03 -0.63424013664E+03  0.15072446883E+04  0.50400001928E-02 0.  1.
       -1    1    3    3    0  502  0.10932302425E+04  0.82120255506E+03  0.39701157667E+03  0.14237781399E+04  0.50400001928E-02 0. -1.
</event>
<event>
 5   0  0.1388724E-05  0.3013369E+04  0.7818609E-02  0.8239924E-01
        2   -1    0    0  501    0  0.00000000000E+00  0.00000000000E+00  0.13558202980E+04  0.13558202980E+04  0.25500000920E-02 0. -1.
       -2   -1    0    0    0  501  0.00000000000E+00  0.00000000000E+00 -0.16743356128E+04  0.16743356128E+04  0.25500000920E-02 0.  1.
    10030    2    1    2    0    0  0.00000000000E+00  0.00000000000E+00 -0.31851531480E+03  0.30301559109E+04  0.30133690180E+04 0.  0.
        4    1    3    3  502    0  0.43047492376E+03  0.13435435241E+04 -0.69105036777E+03  0.15709774298E+04  0.12699999809E+01 0.  1.
       -4    1    3    3    0  502 -0.43047492376E+03 -0.13435435241E+04  0.37253505297E+03  0.14591784811E+04  0.12699999809E+01 0. -1.
</event>
<event>
 5   0  0.1345931E-05  0.3023372E+04  0.7818609E-02  0.8237088E-01
        2   -1    0    0  501    0  0.00000000000E+00  0.00000000000E+00  0.29242486567E+04  0.29242486567E+04  0.25500000920E-02 0. -1.
       -2   -1    0    0    0  501  0.00000000000E+00  0.00000000000E+00 -0.78146384964E+03  0.78146384964E+03  0.25500000920E-02 0.  1.
    10030    2    1    2    0    0  0.00000000000E+00  0.00000000000E+00  0.21427848070E+04  0.37057125063E+04  0.30233720330E+04 0.  0.
        2    1    3    3  502    0 -0.11578404537E+04 -0.96354827711E+03  0.91550903647E+03  0.17627185239E+04  0.25500000920E-02 0.  1.
       -2    1    3    3    0  502  0.11578404537E+04  0.96354827711E+03  0.12272757706E+04  0.19429939824E+04  0.25500000920E-02 0. -1.
</event>
<event>
 5   0  0.7032692E-06  0.2961055E+04  0.7818609E-02  0.8254940E-01
        1   -1    0    0  501    0  0.00000000000E+00  0.00000000000E+00  0.27981325433E+04  0.27981325433E+04  0.50400001928E-02 0. -1.
       -1   -1    0    0    0  501  0.00000000000E+00  0.00000000000E+00 -0.78336589064E+03  0.78336589066E+03  0.50400001928E-02 0.  1.
    10030    2    1    2    0    0  0.00000000000E+00  0.00000000000E+00  0.20147666526E+04  0.35814984339E+04  0.29610549417E+04 0.  0.
        5    1    3    3  502    0  0.87450179865E+03  0.53579138480E+03  0.22988772931E+04  0.25172772399E+04  0.46999998093E+01 0. -1.
       -5    1    3    3    0  502 -0.87450179865E+03 -0.53579138480E+03 -0.28411064044E+03  0.10642211941E+04  0.46999998093E+01 0.  1.
</event>
<event>
 5   0  0.1345931E-05  0.2871188E+04  0.7818609E-02  0.8281502E-01
        2   -1    0    0  501    0  0.00000000000E+00  0.00000000000E+00  0.14678467723E+04  0.14678467723E+04  0.25500000920E-02 0. -1.
       -2   -1    0    0    0  501  0.00000000000E+00  0.00000000000E+00 -0.14040494359E+04  0.14040494359E+04  0.25500000920E-02 0.  1.
    10030    2    1    2    0    0  0.00000000000E+00  0.00000000000E+00  0.63797336447E+02  0.28718962082E+04  0.28711875122E+04 0.  0.
        2    1    3    3  502    0 -0.81731686788E+03 -0.94470565634E+03 -0.67570353479E+03  0.14202291740E+04  0.25500000920E-02 0.  1.
       -2    1    3    3    0  502  0.81731686788E+03  0.94470565634E+03  0.73950087124E+03  0.14516670342E+04  0.25500000920E-02 0. -1.
</event>
<event>
 5   0  0.7032692E-06  0.2860974E+04  0.7818609E-02  0.8284584E-01
        1   -1    0    0  501    0  0.00000000000E+00  0.00000000000E+00  0.13371228379E+04  0.13371228379E+04  0.50400001928E-02 0. -1.
       -1   -1    0    0    0  501  0.00000000000E+00  0.00000000000E+00 -0.15303705759E+04  0.15303705759E+04  0.50400001928E-02 0.  1.
    10030    2    1    2    0    0  0.00000000000E+00  0.00000000000E+00 -0.19324773794E+03  0.28674934138E+04  0.28609742729E+04 0.  0.
        5    1    3    3  502    0 -0.12858208455E+04  0.12407165478E+03 -0.71246870689E+03  0.14752500705E+04  0.46999998093E+01 0.  1.
       -5    1    3    3    0  502  0.12858208455E+04 -0.12407165478E+03  0.51922096894E+03  0.13922433433E+04  0.46999998093E+01 0. -1.
</event>
<event>
 5   0  0.5329891E-06  0.2918878E+04  0.7818609E-02  0.8267283E-01
       -1   -1    0    0    0  501  0.00000000000E+00  0.00000000000E+00  0.16503477962E+04  0.16503477963E+04  0.50400001928E-02 0.  1.
        1   -1    0    0  501    0  0.00000000000E+00  0.00000000000E+00 -0.12906142546E+04  0.12906142546E+04  0.50400001928E-02 0. -1.
    10030    2    1    2    0    0  0.00000000000E+00  0.00000000000E+00  0.35973354161E+03  0.29409620509E+04  0.29188781345E+04 0.  0.
        4    1    3    3  502    0  0.40959280944E+03 -0.25681459879E+02 -0.12312777214E+04  0.12978721998E+04  0.12699999809E+01 0. -1.
       -4    1    3    3    0  502 -0.40959280944E+03  0.25681459879E+02  0.15910112630E+04  0.16430898511E+04  0.12699999809E+01 0.  1.
</event>
<event>
 5   0  0.5392262E-06  0.3167809E+04  0.7818609E-02  0.8197371E-01
        1   -1    0    0  501    0  0.00000000000E+00  0.00000000000E+00  0.20682235970E+04  0.20682235970E+04  0.50400001928E-02 0. -1.
       -1   -1    0    0    0  501  0.00000000000E+00  0.00000000000E+00 -0.12129987775E+04  0.12129987775E+04  0.50400001928E-02 0.  1.
    10030    2    1    2    0    0  0.00000000000E+00  0.00000000000E+00  0.85522481949E+03  0.32812223745E+04  0.31678085137E+04 0.  0.
        2    1    3    3  502    0 -0.11891780191E+04 -0.89572446740E+03 -0.13237821811E+03  0.14946540320E+04  0.25500000920E-02 0.  1.
       -2    1    3    3    0  502  0.11891780191E+04  0.89572446740E+03  0.98760303761E+03  0.17865683426E+04  0.25500000920E-02 0. -1.
</event>
<event>
 5   0  0.5329891E-06  0.2831043E+04  0.7818609E-02  0.8293695E-01
       -1   -1    0    0    0  501  0.00000000000E+00  0.00000000000E+00  0.12767583855E+04  0.12767583855E+04  0.50400001928E-02 0. -1.
        1   -1    0    0  501    0  0.00000000000E+00  0.00000000000E+00 -0.15693662668E+04  0.15693662669E+04  0.50400001928E-02 0.  1.
    10030    2    1    2    0    0  0.00000000000E+00  0.00000000000E+00 -0.29260788131E+03  0.28461246524E+04  0.28310432997E+04 0.  0.
        4    1    3    3  502    0 -0.11760898090E+04  0.64421612666E+03  0.30943012426E+03  0.13762086583E+04  0.12699999809E+01 0. -1.
       -4    1    3    3    0  502  0.11760898090E+04 -0.64421612666E+03 -0.60203800557E+03  0.14699159941E+04  0.12699999809E+01 0.  1.
</event>
<event>
 5   0  0.1480547E-05  0.2572931E+04  0.7818609E-02  0.8377455E-01
        2   -1    0    0  501    0  0.00000000000E+00  0.00000000000E+00  0.18766772674E+04  0.18766772674E+04  0.25500000920E-02 0.  1.
       -2   -1    0    0    0  501  0.00000000000E+00  0.00000000000E+00 -0.88187421246E+03  0.88187421247E+03  0.25500000920E-02 0. -1.
    10030    2    1    2    0    0  0.00000000000E+00  0.00000000000E+00  0.99480305491E+03  0.27585514798E+04  0.25729308481E+04 0.  0.
        1    1    3    3  502    0  0.64473172957E+03  0.95330499404E+03  0.11137898399E+04  0.16015608706E+04  0.50400001928E-02 0.  1.
       -1    1    3    3    0  502 -0.64473172957E+03 -0.95330499404E+03 -0.11898678501E+03  0.11569906092E+04  0.50400001928E-02 0. -1.
</event>
<event>
 5   0  0.1388724E-05  0.3019331E+04  0.7818609E-02  0.8238232E-01
       -2   -1    0    0    0  501  0.00000000000E+00  0.00000000000E+00  0.14796783498E+04  0.14796783498E+04  0.25500000920E-02 0. -1.
        2   -1    0    0  501    0  0.00000000000E+00  0.00000000000E+00 -0.15402601243E+04  0.15402601243E+04  0.25500000920E-02 0.  1.
    10030    2    1    2    0    0  0.00000000000E+00  0.00000000000E+00 -0.60581774524E+02  0.30199384741E+04  0.30193307596E+04 0.  0.
        4    1    3    3  502    0  0.29407054803E+03 -0.14436017317E+04  0.29935775930E+03  0.15033562877E+04  0.12699999809E+01 0.  1.
       -4    1    3    3    0  502 -0.29407054803E+03  0.14436017317E+04 -0.35993953382E+03  0.15165821863E+04  0.12699999809E+01 0. -1.
</event>
<event>
 5   0  0.5522695E-06  0.2951763E+04  0.7818609E-02  0.8257641E-01
       -1   -1    0    0    0  501  0.00000000000E+00  0.00000000000E+00  0.12605118283E+04  0.12605118283E+04  0.50400001928E-02 0.  1.
        1   -1    0    0  501    0  0.00000000000E+00  0.00000000000E+00 -0.17280485165E+04  0.17280485165E+04  0.50400001928E-02 0. -1.
    10030    2    1    2    0    0  0.00000000000E+00  0.00000000000E+00 -0.46753668823E+03  0.29885603448E+04  0.29517625886E+04 0.  0.
        3    1    3    3  502    0 -0.78358560812E+03 -0.12440193615E+04 -0.10318370029E+03  0.14738512351E+04  0.10100000352E+00 0.  1.
       -3    1    3    3    0  502  0.78358560812E+03  0.12440193615E+04 -0.36435298794E+03  0.15147091097E+04  0.10100000352E+00 0. -1.
</event>
<event>
 5   0  0.1423692E-05  0.3054083E+04  0.7818609E-02  0.8228454E-01
        2   -1    0    0  501    0  0.00000000000E+00  0.00000000000E+00  0.22137147961E+04  0.22137147961E+04  0.25500000920E-02 0. -1.
       -2   -1    0    0    0  501  0.00000000000E+00  0.00000000000E+00 -0.10533674226E+04  0.10533674226E+04  0.25500000920E-02 0.  1.
    10030    2    1    2    0    0  0.00000000000E+00  0.00000000000E+00  0.11603473735E+04  0.32670822187E+04  0.30540825458E+04 0.  0.
        3    1    3    3  502    0  0.75124135797E+03  0.12486435173E+04  0.91849570806E+02  0.14601063540E+04  0.10100000352E+00 0.  1.
       -3    1    3    3    0  502 -0.75124135797E+03 -0.12486435173E+04  0.10684978027E+04  0.18069758647E+04  0.10100000352E+00 0. -1.
</event>
<event>
 5   0  0.5522695E-06  0.2989631E+04  0.7818609E-02  0.8246698E-01
        1   -1    0    0  501    0  0.00000000000E+00  0.00000000000E+00  0.13333346937E+04  0.13333346937E+04  0.50400001928E-02 0. -1.
       -1   -1    0    0    0  501  0.00000000000E+00  0.00000000000E+00 -0.16758535778E+04  0.16758535778E+04  0.50400001928E-02 0.  1.
    10030    2    1    2    0    0  0.00000000000E+00  0.00000000000E+00 -0.34251888413E+03  0.30091882715E+04  0.29896312260E+04 0.  0.
        3    1    3    3  502    0  0.60804670784E+03  0.93966174812E+03 -0.11685937426E+04  0.16181150593E+04  0.10100000352E+00 0. -1.
       -3    1    3    3    0  502 -0.60804670784E+03 -0.93966174812E+03  0.82607485842E+03  0.13910732122E+04  0.10100000352E+00 0.  1.
</event>
<event>
 5   0  0.5392262E-06  0.2979040E+04  0.7818609E-02  0.8249742E-01
       -1   -1    0    0    0  501  0.00000000000E+00  0.00000000000E+00  0.25835916779E+04  0.25835916779E+04  0.50400001928E-02 0.  1.
        1   -1    0    0  501    0  0.00000000000E+00  0.00000000000E+00 -0.85875377962E+03  0.85875377964E+03  0.50400001928E-02 0. -1.
    10030    2    1    2    0    0  0.00000000000E+00  0.00000000000E+00  0.17248378982E+04  0.34423454575E+04  0.29790395220E+04 0.  0.
        2    1    3    3  502    0  0.14177866900E+04  0.16366960952E+03  0.13550593974E+04  0.19680174821E+04  0.25500000920E-02 0.  1.
       -2    1    3    3    0  502 -0.14177866900E+04 -0.16366960952E+03  0.36977850087E+03  0.14743279754E+04  0.25500000920E-02 0. -1.
</event>
<event>
 5   0  0.1345931E-05  0.3027682E+04  0.7818609E-02  0.8235870E-01
        2   -1    0    0  501    0  0.00000000000E+00  0.00000000000E+00  0.14647502349E+04  0.14647502349E+04  0.25500000920E-02 0.  1.
       -2   -1    0    0    0  501  0.00000000000E+00  0.00000000000E+00 -0.15645773046E+04  0.15645773046E+04  0.25500000920E-02 0. -1.
    10030    2    1    2    0    0  0.00000000000E+00  0.00000000000E+00 -0.99827069741E+02  0.30293275395E+04  0.30276822650E+04 0.  0.
        2    1    3    3  502    0 -0.83692560335E+03 -0.36346008257E+02  0.12117036562E+04  0.14730890157E+04  0.25500000920E-02 0.  1.
       -2    1    3    3    0  502  0.83692560335E+03  0.36346008257E+02 -0.13115307259E+04  0.15562385238E+04  0.25500000920E-02 0. -1.
</event>
<event>
 5   0  0.4806125E-06  0.2581273E+04  0.7818609E-02  0.8374590E-01
        3   -1    0    0  501    0  0.00000000000E+00  0.00000000000E+00  0.10932820184E+04  0.10932820231E+04  0.10100000352E+00 0.  1.
       -3   -1    0    0    0  501  0.00000000000E+00  0.00000000000E+00 -0.15236170452E+04  0.15236170485E+04  0.10100000352E+00 0. -1.
    10030    2    1    2    0    0  0.00000000000E+00  0.00000000000E+00 -0.43033502679E+03  0.26168990716E+04  0.25812734291E+04 0.  0.
        1    1    3    3  502    0  0.77866190934E+03 -0.54204791803E+03  0.67190180665E+03  0.11625757405E+04  0.50400001928E-02 0.  1.
       -1    1    3    3    0  502 -0.77866190934E+03  0.54204791803E+03 -0.11022368334E+04  0.14543233311E+04  0.50400001928E-02 0. -1.
</event>
<event>
 5   0  0.5730920E-06  0.1617803E+04  0.7818609E-02  0.8809685E-01
        1   -1    0    0  501    0  0.00000000000E+00  0.00000000000E+00  0.20039156862E+04  0.20039156862E+04  0.50400001928E-02 0.  1.
       -1   -1    0    0    0  501  0.00000000000E+00  0.00000000000E+00 -0.32652144852E+03  0.32652144856E+03  0.50400001928E-02 0. -1.
    10030    2    1    2    0    0  0.00000000000E+00  0.00000000000E+00  0.16773942377E+04  0.23304371348E+04  0.16178027724E+04 0.  0.
        1    1    3    3  502    0  0.33531561407E+03  0.64081550331E+03  0.31684727235E+03  0.78960323223E+03  0.50400001928E-02 0. -1.
       -1    1    3    3    0  502 -0.33531561407E+03 -0.64081550331E+03  0.13605469654E+04  0.15408339026E+04  0.50400001928E-02 0.  1.
</event>
<event>
 5   0  0.1388724E-05  0.3155401E+04  0.7818609E-02  0.8200696E-01
        2   -1    0    0  501    0  0.00000000000E+00  0.00000000000E+00  0.16774032554E+04  0.16774032554E+04  0.25500000920E-02 0. -1.
       -2   -1    0    0    0  501  0.00000000000E+00  0.00000000000E+00 -0.14839242006E+04  0.14839242006E+04  0.25500000920E-02 0.  1.
    10030    2    1    2    0    0  0.00000000000E+00  0.00000000000E+00  0.19347905474E+03  0.31613274560E+04  0.31554012644E+04 0.  0.
        4    1    3    3  502    0 -0.18565397064E+03 -0.67591205247E+03  0.15128343146E+04  0.16673313335E+04  0.12699999809E+01 0. -1.
       -4    1    3    3    0  502  0.18565397064E+03  0.67591205247E+03 -0.13193552598E+04  0.14939961225E+04  0.12699999809E+01 0.  1.
</event>
<event>
 5   0  0.5730920E-06  0.2943197E+04  0.7818609E-02  0.8260140E-01
        1   -1    0    0  501    0  0.00000000000E+00  0.00000000000E+00  0.12733181630E+04  0.12733181631E+04  0.50400001928E-02 0.  1.
       -1   -1    0    0    0  501  0.00000000000E+00  0.00000000000E+00 -0.17007544826E+04  0.17007544826E+04  0.50400001928E-02 0. -1.
    10030    2    1    2    0    0  0.00000000000E+00  0.00000000000E+00 -0.42743631953E+03  0.29740726456E+04  0.29431966116E+04 0.  0.
        1    1    3    3  502    0  0.82901071170E+03  0.10193293686E+04  0.45604008057E+03  0.13907780833E+04  0.50400001928E-02 0.  1.
       -1    1    3    3    0  502 -0.82901071170E+03 -0.10193293686E+04 -0.88347640011E+03  0.15832945624E+04  0.50400001928E-02 0. -1.
</event>
<event>
 5   0  0.1388724E-05  0.2953472E+04  0.7818609E-02  0.8257144E-01
       -2   -1    0    0    0  501  0.00000000000E+00  0.00000000000E+00  0.88177126396E+03  0.88177126397E+03  0.25500000920E-02 0.  1.
        2   -1    0    0  501    0  0.00000000000E+00  0.00000000000E+00 -0.24731455065E+04  0.24731455065E+04  0.25500000920E-02 0. -1.
    10030    2    1    2    0    0  0.00000000000E+00  0.00000000000E+00 -0.15913742425E+04  0.33549167704E+04  0.29534716110E+04 0.  0.
        4    1    3    3  502    0 -0.88115363474E+03  0.72087190257E+03 -0.18640945511E+04  0.21842477277E+04  0.12699999809E+01 0. -1.
       -4    1    3    3    0  502  0.88115363474E+03 -0.72087190257E+03  0.27272030856E+03  0.11706690427E+04  0.12699999809E+01 0.  1.
</event>
<event>
 5   0  0.1523029E-05  0.2979409E+04  0.7818609E-02  0.8249635E-01
        2   -1    0    0  501    0  0.00000000000E+00  0.00000000000E+00  0.13047112218E+04  0.13047112218E+04  0.25500000920E-02 0.  1.
       -2   -1    0    0    0  501  0.00000000000E+00  0.00000000000E+00 -0.17009271946E+04  0.17009271946E+04  0.25500000920E-02 0. -1.
    10030    2    1    2    0    0  0.00000000000E+00  0.00000000000E+00 -0.39621597273E+03  0.30056384164E+04  0.29794085308E+04 0.  0.
        5    1    3    3  502    0  0.42005840601E+03  0.11849248348E+04 -0.10043313867E+04  0.16090989879E+04  0.46999998093E+01 0. -1.
       -5    1    3    3    0  502 -0.42005840601E+03 -0.11849248348E+04  0.60811541397E+03  0.13965394285E+04  0.46999998093E+01 0.  1.
</event>
<event>
 5   0  0.5329891E-06  0.2907564E+04  0.7818609E-02  0.8270630E-01
       -1   -1    0    0    0  501  0.00000000000E+00  0.00000000000E+00  0.92194778781E+03  0.92194778782E+03  0.50400001928E-02 0. -1.
        1   -1    0    0  501    0  0.00000000000E+00  0.00000000000E+00 -0.22924103863E+04  0.22924103863E+04  0.50400001928E-02 0.  1.
    10030    2    1    2    0    0  0.00000000000E+00  0.00000000000E+00 -0.13704625985E+04  0.32143581741E+04  0.29075643996E+04 0.  0.
        4    1    3    3  502    0  0.69381607210E+03 -0.10054570098E+04 -0.15565267642E+04  0.19786615984E+04  0.12699999809E+01 0.  1.
       -4    1    3    3    0  502 -0.69381607210E+03  0.10054570098E+04  0.18606416572E+03  0.12356965757E+04  0.12699999809E+01 0. -1.
</event>
<event>
 5   0  0.1523029E-05  0.2855617E+04  0.7818609E-02  0.8286206E-01
       -2   -1    0    0    0  501  0.00000000000E+00  0.00000000000E+00  0.11954655880E+04  0.11954655880E+04  0.25500000920E-02 0.  1.
        2   -1    0    0  501    0  0.00000000000E+00  0.00000000000E+00 -0.17053082795E+04  0.17053082795E+04  0.25500000920E-02 0. -1.
    10030    2    1    2    0    0  0.00000000000E+00  0.00000000000E+00 -0.50984269148E+03  0.29007738675E+04  0.28556171767E+04 0.  0.
        5    1    3    3  502    0 -0.67904312596E+03  0.11096470007E+04  0.34276996899E+03  0.13453361568E+04  0.46999998093E+01 0.  1.
       -5    1    3    3    0  502  0.67904312596E+03 -0.11096470007E+04 -0.85261266047E+03  0.15554377107E+04  0.46999998093E+01 0. -1.
</event>
<event>
 5   0  0.5392262E-06  0.2850610E+04  0.7818609E-02  0.8287726E-01
       -1   -1    0    0    0  501  0.00000000000E+00  0.00000000000E+00  0.16447164141E+04  0.16447164141E+04  0.50400001928E-02 0. -1.
        1   -1    0    0  501    0  0.00000000000E+00  0.00000000000E+00 -0.12351643006E+04  0.12351643006E+04  0.50400001928E-02 0.  1.
    10030    2    1    2    0    0  0.00000000000E+00  0.00000000000E+00  0.40955211350E+03  0.28798807147E+04  0.28506104605E+04 0.  0.
        2    1    3    3  502    0  0.13016687434E+02 -0.12673279234E+04  0.86354946701E+03  0.15336255024E+04  0.25500000920E-02 0. -1.
       -2    1    3    3    0  502 -0.13016687434E+02  0.12673279234E+04 -0.45399735351E+03  0.13462552123E+04  0.25500000920E-02 0.  1.
</event>
<event>
 5   0  0.1345931E-05  0.3064385E+04  0.7818609E-02  0.8225581E-01
       -2   -1    0    0    0  501  0.00000000000E+00  0.00000000000E+00  0.10717882329E+04  0.10717882329E+04  0.25500000920E-02 0. -1.
        2   -1    0    0  501    0  0.00000000000E+00  0.00000000000E+00 -0.21903707124E+04  0.21903707124E+04  0.25500000920E-02 0.  1.
    10030    2    1    2    0    0  0.00000000000E+00  0.00000000000E+00 -0.11185824795E+04  0.32621589453E+04  0.30643848030E+04 0.  0.
        2    1    3    3  502    0  0.14570399535E+04 -0.44047150415E+03 -0.37297253199E+03  0.15671914630E+04  0.25500000920E-02 0. -1.
       -2    1    3    3    0  502 -0.14570399535E+04  0.44047150415E+03 -0.74560994751E+03  0.16949674823E+04  0.25500000920E-02 0.  1.
</event>
<event>
 5   0  0.7032692E-06  0.1586391E+04  0.7818609E-02  0.8828952E-01
       -1   -1    0    0    0  501  0.00000000000E+00  0.00000000000E+00  0.56394540517E+03  0.56394540519E+03  0.50400001928E-02 0.  1.
        1   -1    0    0  501    0  0.00000000000E+00  0.00000000000E+00 -0.11156382769E+04  0.11156382769E+04  0.50400001928E-02 0. -1.
    10030    2    1    2    0    0  0.00000000000E+00  0.00000000000E+00 -0.55169287176E+03  0.16795836821E+04  0.15863909734E+04 0.  0.
        5    1    3    3  502    0 -0.73389000883E+03 -0.20621425491E+03 -0.43843211552E+02  0.76358573925E+03  0.46999998093E+01 0.  1.
       -5    1    3    3    0  502  0.73389000883E+03  0.20621425491E+03 -0.50784966021E+03  0.91599794288E+03  0.46999998093E+01 0. -1.
</event>
</LesHouchesEvents>
